BioSimSpace TIP3P water box
202030
    2SOL     OW   31   0.230   0.628   0.113
    2SOL    HW1   32   0.137   0.626   0.150
    2SOL    HW2   33   0.231   0.589   0.021
    3SOL     OW   34   0.225   0.275   0.996
    3SOL    HW1   35   0.260   0.258   1.088
    3SOL    HW2   36   0.137   0.230   0.984
    4SOL     OW   37   0.019   0.368   0.647
    4SOL    HW1   38  -0.063   0.411   0.686
    4SOL    HW2   39  -0.009   0.295   0.584
    5SOL     OW   40   0.569   1.275   1.165
    5SOL    HW1   41   0.476   1.268   1.128
    5SOL    HW2   42   0.580   1.364   1.209
    6SOL     OW   43   1.555   1.511   0.703
    6SOL    HW1   44   1.498   1.495   0.784
    6SOL    HW2   45   1.496   1.521   0.623
    7SOL     OW   46   1.135   0.703   0.717
    7SOL    HW1   47   1.192   0.781   0.692
    7SOL    HW2   48   1.075   0.729   0.793
    8SOL     OW   49   1.755   0.607   0.231
    8SOL    HW1   50   1.743   0.594   0.132
    8SOL    HW2   51   1.725   0.526   0.280
    9SOL     OW   52   0.768   1.144   1.023
    9SOL    HW1   53   0.690   1.161   1.083
    9SOL    HW2   54   0.802   1.231   0.987
   10SOL     OW   55   0.850   0.798   1.823
   10SOL    HW1   56   0.846   0.874   1.888
   10SOL    HW2   57   0.872   0.834   1.732
   11SOL     OW   58   0.685   1.012   0.665
   11SOL    HW1   59   0.754   0.996   0.735
   11SOL    HW2   60   0.612   1.069   0.703
   12SOL     OW   61   0.686   1.161   1.803
   12SOL    HW1   62   0.746   1.240   1.817
   12SOL    HW2   63   0.600   1.192   1.762
   13SOL     OW   64   0.335   1.435   1.061
   13SOL    HW1   65   0.257   1.404   1.008
   13SOL    HW2   66   0.393   1.493   1.004
   14SOL     OW   67   1.460   1.505   1.339
   14SOL    HW1   68   1.484   1.599   1.365
   14SOL    HW2   69   1.444   1.451   1.421
   15SOL     OW   70   0.438   0.392   1.499
   15SOL    HW1   71   0.520   0.336   1.508
   15SOL    HW2   72   0.357   0.334   1.503
   16SOL     OW   73   1.603   0.447   0.737
   16SOL    HW1   74   1.529   0.493   0.687
   16SOL    HW2   75   1.654   0.515   0.790
   17SOL     OW   76   0.231   1.713   0.483
   17SOL    HW1   77   0.265   1.790   0.537
   17SOL    HW2   78   0.275   1.713   0.393
   18SOL     OW   79   1.127   1.341   1.690
   18SOL    HW1   80   1.174   1.341   1.778
   18SOL    HW2   81   1.079   1.254   1.679
   19SOL     OW   82   0.230   1.434   0.538
   19SOL    HW1   83   0.204   1.530   0.538
   19SOL    HW2   84   0.159   1.380   0.583
   20SOL     OW   85   0.240   1.091   0.886
   20SOL    HW1   86   0.254   1.007   0.938
   20SOL    HW2   87   0.185   1.155   0.941
   21SOL     OW   88   0.620   1.786   1.439
   21SOL    HW1   89   0.528   1.769   1.474
   21SOL    HW2   90   0.648   1.878   1.465
   22SOL     OW   91   0.606   0.964   0.123
   22SOL    HW1   92   0.613   1.048   0.069
   22SOL    HW2   93   0.652   0.977   0.211
   23SOL     OW   94   1.594   0.114   1.480
   23SOL    HW1   95   1.576   0.181   1.408
   23SOL    HW2   96   1.591   0.160   1.569
   24SOL     OW   97   0.122   0.643   0.563
   24SOL    HW1   98   0.077   0.555   0.580
   24SOL    HW2   99   0.121   0.697   0.647
   25SOL     OW  100   1.842   1.767   0.359
   25SOL    HW1  101   1.896   1.738   0.439
   25SOL    HW2  102   1.872   1.857   0.330
   26SOL     OW  103   0.027   1.596   0.117
   26SOL    HW1  104   0.008   1.500   0.138
   26SOL    HW2  105  -0.006   1.654   0.192
   27SOL     OW  106   1.689   0.922   0.612
   27SOL    HW1  107   1.784   0.893   0.620
   27SOL    HW2  108   1.681   0.987   0.537
   28SOL     OW  109   1.641   1.108   0.432
   28SOL    HW1  110   1.727   1.110   0.380
   28SOL    HW2  111   1.655   1.155   0.520
   29SOL     OW  112   0.113   0.737   1.597
   29SOL    HW1  113   0.201   0.724   1.642
   29SOL    HW2  114   0.100   0.834   1.575
   30SOL     OW  115   0.613   1.365   0.726
   30SOL    HW1  116   0.564   1.278   0.735
   30SOL    HW2  117   0.590   1.408   0.639
   31SOL     OW  118   1.293   1.228   1.423
   31SOL    HW1  119   1.330   1.155   1.365
   31SOL    HW2  120   1.345   1.233   1.508
   32SOL     OW  121   0.809   0.004   0.502
   32SOL    HW1  122   0.849   0.095   0.493
   32SOL    HW2  123   0.709   0.012   0.508
   33SOL     OW  124   0.197   0.976   1.264
   33SOL    HW1  125   0.286   0.931   1.250
   33SOL    HW2  126   0.124   0.911   1.245
   34SOL     OW  127   1.525   0.999   0.190
   34SOL    HW1  128   1.462   0.923   0.203
   34SOL    HW2  129   1.573   1.017   0.276
   35SOL     OW  130   1.187   1.792   1.616
   35SOL    HW1  131   1.211   1.852   1.540
   35SOL    HW2  132   1.194   1.697   1.586
   36SOL     OW  133   0.317   0.251   1.801
   36SOL    HW1  134   0.388   0.322   1.807
   36SOL    HW2  135   0.229   0.290   1.829
   37SOL     OW  136   1.466   1.417   0.953
   37SOL    HW1  137   1.407   1.423   1.033
   37SOL    HW2  138   1.451   1.329   0.907
   38SOL     OW  139   1.667   1.714   0.572
   38SOL    HW1  140   1.626   1.691   0.484
   38SOL    HW2  141   1.649   1.640   0.637
   39SOL     OW  142   0.598   0.729   0.270
   39SOL    HW1  143   0.622   0.798   0.202
   39SOL    HW2  144   0.520   0.762   0.324
   40SOL     OW  145   1.281   0.345   0.944
   40SOL    HW1  146   1.195   0.295   0.931
   40SOL    HW2  147   1.343   0.291   1.000
   41SOL     OW  148   1.576   1.662   0.307
   41SOL    HW1  149   1.665   1.708   0.310
   41SOL    HW2  150   1.555   1.638   0.212
   42SOL     OW  151   0.807   0.605   1.465
   42SOL    HW1  152   0.760   0.602   1.554
   42SOL    HW2  153   0.756   0.550   1.399
   43SOL     OW  154   1.394   0.469   1.674
   43SOL    HW1  155   1.374   0.512   1.762
   43SOL    HW2  156   1.472   0.407   1.683
   44SOL     OW  157   0.973   0.890   1.572
   44SOL    HW1  158   1.019   0.806   1.543
   44SOL    HW2  159   0.917   0.924   1.497
   45SOL     OW  160   0.991   0.410   1.242
   45SOL    HW1  161   0.914   0.444   1.296
   45SOL    HW2  162   0.957   0.359   1.163
   46SOL     OW  163   1.041   0.701   0.429
   46SOL    HW1  164   1.067   0.697   0.525
   46SOL    HW2  165   0.956   0.650   0.415
   47SOL     OW  166   0.076   0.811   0.789
   47SOL    HW1  167   0.175   0.799   0.798
   47SOL    HW2  168   0.052   0.906   0.810
   48SOL     OW  169   0.130   1.821   1.571
   48SOL    HW1  170   0.120   1.806   1.670
   48SOL    HW2  171   0.044   1.857   1.535
   49SOL     OW  172   0.865   0.348   0.195
   49SOL    HW1  173   0.924   0.411   0.146
   49SOL    HW2  174   0.884   0.254   0.166
   50SOL     OW  175   1.719   0.585   1.831
   50SOL    HW1  176   1.693   0.674   1.795
   50SOL    HW2  177   1.717   0.517   1.758
   51SOL     OW  178   1.362   1.144   0.545
   51SOL    HW1  179   1.445   1.115   0.497
   51SOL    HW2  180   1.313   1.211   0.489
   52SOL     OW  181   0.550   0.196   0.885
   52SOL    HW1  182   0.545   0.191   0.985
   52SOL    HW2  183   0.552   0.292   0.856
   53SOL     OW  184   1.008   1.456   0.477
   53SOL    HW1  185   0.962   1.528   0.425
   53SOL    HW2  186   1.004   1.476   0.575
   54SOL     OW  187   0.351   1.801   0.853
   54SOL    HW1  188   0.401   1.715   0.859
   54SOL    HW2  189   0.416   1.878   0.850
   55SOL     OW  190   1.795   1.066   0.873
   55SOL    HW1  191   1.733   1.051   0.797
   55SOL    HW2  192   1.743   1.077   0.958
   56SOL     OW  193   1.227   1.550   1.506
   56SOL    HW1  194   1.233   1.473   1.570
   56SOL    HW2  195   1.175   1.524   1.426
   57SOL     OW  196   0.321   0.943   0.242
   57SOL    HW1  197   0.403   0.982   0.200
   57SOL    HW2  198   0.294   0.861   0.193
   58SOL     OW  199   1.458   0.735   0.728
   58SOL    HW1  200   1.453   0.670   0.803
   58SOL    HW2  201   1.538   0.794   0.741
   59SOL     OW  202   0.461   1.266   1.727
   59SOL    HW1  203   0.411   1.267   1.641
   59SOL    HW2  204   0.398   1.248   1.803
   60SOL     OW  205   1.111   1.776   0.237
   60SOL    HW1  206   1.051   1.714   0.287
   60SOL    HW2  207   1.142   1.732   0.152
   61SOL     OW  208   0.202   0.285   1.498
   61SOL    HW1  209   0.122   0.345   1.485
   61SOL    HW2  210   0.192   0.236   1.584
   62SOL     OW  211   1.632   1.377   0.081
   62SOL    HW1  212   1.600   1.471   0.071
   62SOL    HW2  213   1.556   1.314   0.069
   63SOL     OW  214   0.464   1.743   0.323
   63SOL    HW1  215   0.497   1.782   0.409
   63SOL    HW2  216   0.540   1.736   0.258
   64SOL     OW  217   1.400   0.107   0.426
   64SOL    HW1  218   1.376   0.070   0.336
   64SOL    HW2  219   1.499   0.123   0.430
   65SOL     OW  220   0.249   1.785   1.241
   65SOL    HW1  221   0.306   1.720   1.291
   65SOL    HW2  222   0.233   1.752   1.148
   66SOL     OW  223   0.940   1.698   0.904
   66SOL    HW1  224   1.020   1.641   0.925
   66SOL    HW2  225   0.891   1.658   0.827
   67SOL     OW  226   0.382   0.700   0.480
   67SOL    HW1  227   0.427   0.610   0.477
   67SOL    HW2  228   0.288   0.689   0.513
   68SOL     OW  229   1.547   0.222   1.729
   68SOL    HW1  230   1.542   0.259   1.821
   68SOL    HW2  231   1.475   0.153   1.717
   69SOL     OW  232   0.614   0.122   0.117
   69SOL    HW1  233   0.712   0.100   0.124
   69SOL    HW2  234   0.583   0.105   0.024
   70SOL     OW  235   0.781   0.264   1.749
   70SOL    HW1  236   0.848   0.203   1.792
   70SOL    HW2  237   0.708   0.283   1.814
   71SOL     OW  238   0.888   1.514   1.195
   71SOL    HW1  239   0.865   1.489   1.101
   71SOL    HW2  240   0.949   1.445   1.234
   72SOL     OW  241   1.351   0.590   1.433
   72SOL    HW1  242   1.379   0.547   1.518
   72SOL    HW2  243   1.376   0.686   1.434
   73SOL     OW  244   0.803   1.402   0.924
   73SOL    HW1  245   0.893   1.416   0.882
   73SOL    HW2  246   0.732   1.404   0.853
   74SOL     OW  247   0.922   0.503   0.899
   74SOL    HW1  248   0.897   0.494   0.803
   74SOL    HW2  249   0.970   0.421   0.930
   75SOL     OW  250   0.539   0.064   0.512
   75SOL    HW1  251   0.458   0.065   0.570
   75SOL    HW2  252   0.542   0.147   0.457
   76SOL     OW  253   1.434   1.188   0.041
   76SOL    HW1  254   1.466   1.112   0.098
   76SOL    HW2  255   1.342   1.215   0.071
   77SOL     OW  256   0.297   0.035   0.171
   77SOL    HW1  257   0.346   0.119   0.150
   77SOL    HW2  258   0.359  -0.030   0.216
   78SOL     OW  259   0.935   0.236   0.480
   78SOL    HW1  260   0.887   0.277   0.402
   78SOL    HW2  261   1.034   0.234   0.461
   79SOL     OW  262   1.076   0.683   1.464
   79SOL    HW1  263   0.996   0.622   1.467
   79SOL    HW2  264   1.157   0.630   1.440
   80SOL     OW  265   1.227   1.570   0.793
   80SOL    HW1  266   1.248   1.644   0.728
   80SOL    HW2  267   1.295   1.570   0.866
   81SOL     OW  268   0.459   1.152   0.741
   81SOL    HW1  269   0.388   1.125   0.806
   81SOL    HW2  270   0.433   1.124   0.648
   82SOL     OW  271   1.271   1.797   0.591
   82SOL    HW1  272   1.315   1.861   0.527
   82SOL    HW2  273   1.221   1.849   0.661
   83SOL     OW  274   1.032   0.549   0.016
   83SOL    HW1  275   0.991   0.631  -0.023
   83SOL    HW2  276   1.096   0.575   0.089
   84SOL     OW  277   0.078   0.556   1.386
   84SOL    HW1  278   0.170   0.555   1.345
   84SOL    HW2  279   0.072   0.630   1.453
   85SOL     OW  280   0.561   0.222   1.147
   85SOL    HW1  281   0.599   0.138   1.184
   85SOL    HW2  282   0.473   0.241   1.191
   86SOL     OW  283   0.866   0.454   0.642
   86SOL    HW1  284   0.834   0.526   0.580
   86SOL    HW2  285   0.890   0.373   0.589
   87SOL     OW  286   1.017   0.039   0.753
   87SOL    HW1  287   0.945   0.044   0.684
   87SOL    HW2  288   0.993  -0.030   0.822
   88SOL     OW  289   1.429   1.173   0.867
   88SOL    HW1  290   1.374   1.089   0.860
   88SOL    HW2  291   1.455   1.202   0.775
   89SOL     OW  292   1.466   0.590   0.992
   89SOL    HW1  293   1.436   0.495   0.999
   89SOL    HW2  294   1.539   0.606   1.058
   90SOL     OW  295   1.857   0.833   0.377
   90SOL    HW1  296   1.899   0.769   0.441
   90SOL    HW2  297   1.819   0.782   0.299
   91SOL     OW  298   0.488   1.385   0.174
   91SOL    HW1  299   0.401   1.370   0.221
   91SOL    HW2  300   0.471   1.411   0.079
   92SOL     OW  301   1.664   1.280   0.657
   92SOL    HW1  302   1.763   1.288   0.671
   92SOL    HW2  303   1.619   1.364   0.688
   93SOL     OW  304   1.390   0.575   0.078
   93SOL    HW1  305   1.336   0.554   0.159
   93SOL    HW2  306   1.481   0.534   0.087
   94SOL     OW  307   0.527   0.256   0.328
   94SOL    HW1  308   0.554   0.197   0.253
   94SOL    HW2  309   0.527   0.351   0.297
   95SOL     OW  310   1.754   1.223   1.588
   95SOL    HW1  311   1.845   1.184   1.575
   95SOL    HW2  312   1.762   1.319   1.612
   96SOL     OW  313   1.064   1.347   1.340
   96SOL    HW1  314   0.984   1.324   1.395
   96SOL    HW2  315   1.147   1.321   1.389
   97SOL     OW  316   1.592   1.629   1.625
   97SOL    HW1  317   1.619   1.663   1.535
   97SOL    HW2  318   1.671   1.591   1.671
   98SOL     OW  319   1.111   1.195   1.100
   98SOL    HW1  320   1.071   1.239   1.181
   98SOL    HW2  321   1.070   1.232   1.017
   99SOL     OW  322   1.638   1.099   1.079
   99SOL    HW1  323   1.643   1.180   1.138
   99SOL    HW2  324   1.552   1.101   1.028
  100SOL     OW  325   0.915   0.089   1.402
  100SOL    HW1  326   0.940   0.069   1.307
  100SOL    HW2  327   0.987   0.145   1.444
  101SOL     OW  328   0.980   1.116   1.719
  101SOL    HW1  329   0.881   1.122   1.729
  101SOL    HW2  330   1.003   1.036   1.663
  102SOL     OW  331   0.705   1.050   0.368
  102SOL    HW1  332   0.691   1.057   0.467
  102SOL    HW2  333   0.789   0.999   0.350
  103SOL     OW  334   0.410   0.813   1.251
  103SOL    HW1  335   0.496   0.825   1.301
  103SOL    HW2  336   0.368   0.726   1.278
  104SOL     OW  337   1.274   0.386   1.262
  104SOL    HW1  338   1.295   0.460   1.326
  104SOL    HW2  339   1.185   0.403   1.219
  105SOL     OW  340   0.064   1.564   1.331
  105SOL    HW1  341   0.018   1.646   1.297
  105SOL    HW2  342   0.162   1.583   1.340
  106SOL     OW  343   0.367   1.100   0.501
  106SOL    HW1  344   0.360   1.183   0.445
  106SOL    HW2  345   0.371   1.020   0.441
  107SOL     OW  346   0.566   0.537   0.865
  107SOL    HW1  347   0.578   0.603   0.791
  107SOL    HW2  348   0.612   0.571   0.948
  108SOL     OW  349   1.252   1.348   0.388
  108SOL    HW1  350   1.302   1.425   0.428
  108SOL    HW2  351   1.157   1.350   0.420
  109SOL     OW  352   1.272   1.445   1.142
  109SOL    HW1  353   1.319   1.458   1.229
  109SOL    HW2  354   1.206   1.371   1.151
  110SOL     OW  355   1.582   0.639   0.472
  110SOL    HW1  356   1.551   0.700   0.545
  110SOL    HW2  357   1.632   0.691   0.403
  111SOL     OW  358   0.354   1.510   1.329
  111SOL    HW1  359   0.333   1.466   1.242
  111SOL    HW2  360   0.451   1.536   1.332
  112SOL     OW  361   0.402   0.751   1.598
  112SOL    HW1  362   0.470   0.806   1.551
  112SOL    HW2  363   0.442   0.663   1.625
  113SOL     OW  364   1.587   0.779   1.670
  113SOL    HW1  365   1.495   0.817   1.665
  113SOL    HW2  366   1.647   0.826   1.605
  114SOL     OW  367   1.013   0.105   1.770
  114SOL    HW1  368   1.019   0.190   1.718
  114SOL    HW2  369   1.045   0.029   1.713
  115SOL     OW  370   0.504   0.050   1.740
  115SOL    HW1  371   0.462  -0.007   1.670
  115SOL    HW2  372   0.438   0.119   1.772
  116SOL     OW  373   0.573   0.870   1.029
  116SOL    HW1  374   0.617   0.959   1.020
  116SOL    HW2  375   0.510   0.870   1.106
  117SOL     OW  376   1.360   0.862   1.045
  117SOL    HW1  377   1.285   0.862   0.979
  117SOL    HW2  378   1.397   0.770   1.054
  118SOL     OW  379   1.209   0.525   0.275
  118SOL    HW1  380   1.222   0.441   0.329
  118SOL    HW2  381   1.180   0.599   0.335
  119SOL     OW  382   0.307   0.213   1.231
  119SOL    HW1  383   0.284   0.250   1.321
  119SOL    HW2  384   0.277   0.118   1.225
  120SOL     OW  385   0.037   1.310   1.282
  120SOL    HW1  386   0.090   1.261   1.350
  120SOL    HW2  387   0.059   1.408   1.287
  121SOL     OW  388   0.732   0.634   1.064
  121SOL    HW1  389   0.791   0.608   0.988
  121SOL    HW2  390   0.704   0.730   1.053
  122SOL     OW  391   1.728   0.935   1.854
  122SOL    HW1  392   1.682   0.928   1.765
  122SOL    HW2  393   1.666   0.979   1.920
  123SOL     OW  394   0.307   0.063   0.618
  123SOL    HW1  395   0.296   0.157   0.651
  123SOL    HW2  396   0.302   0.000   0.695
  124SOL     OW  397   1.622   0.367   0.374
  124SOL    HW1  398   1.624   0.291   0.438
  124SOL    HW2  399   1.574   0.444   0.414
  125SOL     OW  400   1.023   0.766   0.966
  125SOL    HW1  401   1.038   0.787   1.062
  125SOL    HW2  402   0.993   0.671   0.957
  126SOL     OW  403   0.980   1.573   1.700
  126SOL    HW1  404   0.960   1.617   1.612
  126SOL    HW2  405   1.019   1.482   1.684
  127SOL     OW  406   1.859   1.518   1.605
  127SOL    HW1  407   1.873   1.545   1.510
  127SOL    HW2  408   1.942   1.540   1.658
  128SOL     OW  409   0.350   0.898   1.804
  128SOL    HW1  410   0.426   0.942   1.852
  128SOL    HW2  411   0.385   0.851   1.722
  129SOL     OW  412   1.540   0.274   0.125
  129SOL    HW1  413   1.479   0.199   0.148
  129SOL    HW2  414   1.562   0.326   0.208
  130SOL     OW  415   1.303   0.838   0.042
  130SOL    HW1  416   1.337   0.745   0.057
  130SOL    HW2  417   1.321   0.865  -0.053
  131SOL     OW  418   1.068   1.333   0.849
  131SOL    HW1  419   1.075   1.249   0.794
  131SOL    HW2  420   1.130   1.402   0.813
  132SOL     OW  421   0.319   0.810   0.949
  132SOL    HW1  422   0.412   0.846   0.954
  132SOL    HW2  423   0.313   0.725   1.001
  133SOL     OW  424   0.339   0.509   1.006
  133SOL    HW1  425   0.287   0.426   0.989
  133SOL    HW2  426   0.416   0.514   0.942
  134SOL     OW  427   1.138   0.380   1.678
  134SOL    HW1  428   1.093   0.443   1.742
  134SOL    HW2  429   1.231   0.411   1.661
  135SOL     OW  430   1.160   0.207   1.477
  135SOL    HW1  431   1.160   0.271   1.554
  135SOL    HW2  432   1.188   0.255   1.394
  136SOL     OW  433   0.008   1.326   0.200
  136SOL    HW1  434  -0.085   1.347   0.169
  136SOL    HW2  435   0.018   1.227   0.213
  137SOL     OW  436   0.088   1.801   0.927
  137SOL    HW1  437   0.046   1.715   0.900
  137SOL    HW2  438   0.182   1.804   0.893
  138SOL     OW  439   0.504   1.568   0.910
  138SOL    HW1  440   0.570   1.642   0.919
  138SOL    HW2  441   0.548   1.489   0.868
  139SOL     OW  442   1.002   0.796   1.238
  139SOL    HW1  443   1.043   0.764   1.324
  139SOL    HW2  444   0.906   0.769   1.235
  140SOL     OW  445   0.040   0.544   1.114
  140SOL    HW1  446   0.125   0.511   1.073
  140SOL    HW2  447   0.053   0.559   1.212
  141SOL     OW  448   0.189   0.520   1.722
  141SOL    HW1  449   0.248   0.480   1.652
  141SOL    HW2  450   0.131   0.591   1.681
  142SOL     OW  451   1.369   0.950   1.660
  142SOL    HW1  452   1.408   1.039   1.680
  142SOL    HW2  453   1.379   0.930   1.563
  143SOL     OW  454   0.815   0.572   0.325
  143SOL    HW1  455   0.822   0.483   0.279
  143SOL    HW2  456   0.721   0.606   0.317
  144SOL     OW  457   1.657   0.604   1.206
  144SOL    HW1  458   1.619   0.535   1.268
  144SOL    HW2  459   1.739   0.568   1.162
  145SOL     OW  460   0.252   1.564   1.744
  145SOL    HW1  461   0.222   1.621   1.820
  145SOL    HW2  462   0.245   1.467   1.770
  146SOL     OW  463   0.671   0.464   1.269
  146SOL    HW1  464   0.637   0.375   1.239
  146SOL    HW2  465   0.697   0.518   1.189
  147SOL     OW  466   0.930   1.678   1.465
  147SOL    HW1  467   0.906   1.660   1.370
  147SOL    HW2  468   0.960   1.772   1.475
  148SOL     OW  469   0.473   0.500   0.191
  148SOL    HW1  470   0.534   0.580   0.195
  148SOL    HW2  471   0.378   0.531   0.198
  149SOL     OW  472   0.159   1.137   1.466
  149SOL    HW1  473   0.181   1.076   1.542
  149SOL    HW2  474   0.169   1.088   1.380
  150SOL     OW  475   1.347   1.059   1.234
  150SOL    HW1  476   1.371   0.996   1.160
  150SOL    HW2  477   1.257   1.099   1.216
  151SOL     OW  478   1.302   0.855   0.309
  151SOL    HW1  479   1.216   0.824   0.351
  151SOL    HW2  480   1.298   0.841   0.210
  152SOL     OW  481   1.759   1.747   1.154
  152SOL    HW1  482   1.820   1.777   1.081
  152SOL    HW2  483   1.721   1.658   1.132
  153SOL     OW  484   1.252   1.731   1.128
  153SOL    HW1  485   1.336   1.736   1.074
  153SOL    HW2  486   1.229   1.635   1.146
  154SOL     OW  487   0.083   1.258   1.022
  154SOL    HW1  488   0.078   1.257   1.122
  154SOL    HW2  489   0.000   1.217   0.984
  155SOL     OW  490   0.688   1.662   1.716
  155SOL    HW1  491   0.632   1.743   1.725
  155SOL    HW2  492   0.740   1.666   1.630
  156SOL     OW  493   0.903   0.086   0.133
  156SOL    HW1  494   0.954   0.087   0.047
  156SOL    HW2  495   0.959   0.044   0.204
  157SOL     OW  496   1.726   0.135   0.523
  157SOL    HW1  497   1.799   0.118   0.456
  157SOL    HW2  498   1.695   0.048   0.561
  158SOL     OW  499   1.388   1.573   0.477
  158SOL    HW1  500   1.455   1.585   0.403
  158SOL    HW2  501   1.348   1.662   0.500
  159SOL     OW  502   0.130   1.794   1.851
  159SOL    HW1  503   0.089   1.720   1.904
  159SOL    HW2  504   0.194   1.845   1.909
  160SOL     OW  505   1.280   0.927   0.672
  160SOL    HW1  506   1.340   0.846   0.674
  160SOL    HW2  507   1.320   0.996   0.612
  161SOL     OW  508   0.830   1.273   1.422
  161SOL    HW1  509   0.825   1.306   1.517
  161SOL    HW2  510   0.744   1.292   1.376
  162SOL     OW  511   0.672   1.616   0.154
  162SOL    HW1  512   0.681   1.626   0.055
  162SOL    HW2  513   0.632   1.527   0.175
  163SOL     OW  514   1.650   1.720   1.394
  163SOL    HW1  515   1.703   1.730   1.310
  163SOL    HW2  516   1.623   1.810   1.428
  164SOL     OW  517   1.841   0.175   0.963
  164SOL    HW1  518   1.880   0.090   0.927
  164SOL    HW2  519   1.743   0.177   0.944
  165SOL     OW  520   0.263   0.326   0.720
  165SOL    HW1  521   0.184   0.377   0.686
  165SOL    HW2  522   0.254   0.311   0.818
  166SOL     OW  523   1.194   1.612   0.031
  166SOL    HW1  524   1.200   1.519   0.068
  166SOL    HW2  525   1.135   1.612  -0.049
  167SOL     OW  526   0.822   1.002   1.372
  167SOL    HW1  527   0.862   1.001   1.280
  167SOL    HW2  528   0.832   1.094   1.412
  168SOL     OW  529   0.916   0.910   0.291
  168SOL    HW1  530   0.979   0.948   0.223
  168SOL    HW2  531   0.956   0.827   0.330
  169SOL     OW  532   1.504   1.607   0.044
  169SOL    HW1  533   1.412   1.644   0.051
  169SOL    HW2  534   1.542   1.627  -0.046
  170SOL     OW  535   0.372   1.288   1.490
  170SOL    HW1  536   0.359   1.381   1.456
  170SOL    HW2  537   0.288   1.236   1.477
  171SOL     OW  538   1.614   1.292   1.289
  171SOL    HW1  539   1.674   1.295   1.369
  171SOL    HW2  540   1.539   1.356   1.302
  172SOL     OW  541   1.039   1.098   0.696
  172SOL    HW1  542   0.969   1.051   0.750
  172SOL    HW2  543   1.098   1.030   0.653
  173SOL     OW  544   1.014   0.236   0.971
  173SOL    HW1  545   1.006   0.200   0.878
  173SOL    HW2  546   1.012   0.160   1.036
  174SOL     OW  547   0.590   1.487   0.491
  174SOL    HW1  548   0.632   1.429   0.421
  174SOL    HW2  549   0.546   1.566   0.447
  175SOL     OW  550   1.709   0.385   1.381
  175SOL    HW1  551   1.782   0.454   1.385
  175SOL    HW2  552   1.737   0.310   1.322
  176SOL     OW  553   0.255   1.348   0.290
  176SOL    HW1  554   0.159   1.349   0.263
  176SOL    HW2  555   0.267   1.401   0.374
  177SOL     OW  556   0.105   1.013   1.726
  177SOL    HW1  557   0.028   0.980   1.780
  177SOL    HW2  558   0.190   0.983   1.768
  178SOL     OW  559   0.672   0.203   1.489
  178SOL    HW1  560   0.762   0.187   1.449
  178SOL    HW2  561   0.680   0.208   1.588
  179SOL     OW  562   0.075   0.345   0.033
  179SOL    HW1  563  -0.017   0.317   0.004
  179SOL    HW2  564   0.106   0.422  -0.023
  180SOL     OW  565   1.440   0.856   1.398
  180SOL    HW1  566   1.383   0.908   1.335
  180SOL    HW2  567   1.536   0.868   1.374
  181SOL     OW  568   0.072   0.166   0.318
  181SOL    HW1  569   0.055   0.249   0.264
  181SOL    HW2  570   0.162   0.129   0.296
  182SOL     OW  571   1.183   1.335   0.119
  182SOL    HW1  572   1.084   1.324   0.121
  182SOL    HW2  573   1.217   1.350   0.212
  183SOL     OW  574   0.613   0.842   1.431
  183SOL    HW1  575   0.669   0.923   1.414
  183SOL    HW2  576   0.672   0.762   1.434
  184SOL     OW  577   1.493   1.767   0.959
  184SOL    HW1  578   1.526   1.831   0.890
  184SOL    HW2  579   1.559   1.761   1.034
  185SOL     OW  580   0.716   0.565   1.708
  185SOL    HW1  581   0.735   0.630   1.782
  185SOL    HW2  582   0.776   0.485   1.717
  186SOL     OW  583   1.450   1.220   1.633
  186SOL    HW1  584   1.441   1.210   1.732
  186SOL    HW2  585   1.546   1.213   1.607
  187SOL     OW  586   0.390   1.741   1.560
  187SOL    HW1  587   0.299   1.782   1.558
  187SOL    HW2  588   0.383   1.647   1.592
  188SOL     OW  589   1.674   0.883   1.254
  188SOL    HW1  590   1.647   0.794   1.217
  188SOL    HW2  591   1.675   0.951   1.181
  189SOL     OW  592   1.225   0.325   0.449
  189SOL    HW1  593   1.290   0.251   0.438
  189SOL    HW2  594   1.245   0.375   0.533
  190SOL     OW  595   0.594   0.745   0.652
  190SOL    HW1  596   0.644   0.830   0.633
  190SOL    HW2  597   0.506   0.747   0.604
  191SOL     OW  598   1.777   0.342   1.642
  191SOL    HW1  599   1.760   0.373   1.548
  191SOL    HW2  600   1.693   0.305   1.680
  192SOL     OW  601   1.730   0.934   1.517
  192SOL    HW1  602   1.768   1.025   1.532
  192SOL    HW2  603   1.722   0.917   1.418
  193SOL     OW  604   0.859   1.374   0.016
  193SOL    HW1  605   0.813   1.389   0.104
  193SOL    HW2  606   0.903   1.459  -0.014
  194SOL     OW  607   0.661   1.790   0.953
  194SOL    HW1  608   0.615   1.878   0.940
  194SOL    HW2  609   0.760   1.802   0.946
  195SOL     OW  610   0.859   0.956   0.861
  195SOL    HW1  611   0.913   0.887   0.909
  195SOL    HW2  612   0.827   1.025   0.927
  196SOL     OW  613   1.083   0.984   0.087
  196SOL    HW1  614   1.060   1.037   0.005
  196SOL    HW2  615   1.164   0.928   0.068
  197SOL     OW  616   1.861   1.569   0.851
  197SOL    HW1  617   1.790   1.557   0.781
  197SOL    HW2  618   1.862   1.490   0.911
  198SOL     OW  619   0.221   1.314   1.844
  198SOL    HW1  620   0.156   1.241   1.823
  198SOL    HW2  621   0.225   1.328   1.942
  199SOL     OW  622   0.079   1.240   0.653
  199SOL    HW1  623   0.078   1.193   0.741
  199SOL    HW2  624   0.161   1.212   0.602
  200SOL     OW  625   0.672   1.391   1.624
  200SOL    HW1  626   0.594   1.341   1.662
  200SOL    HW2  627   0.669   1.486   1.655
  201SOL     OW  628   1.824   0.192   1.227
  201SOL    HW1  629   1.820   0.102   1.271
  201SOL    HW2  630   1.827   0.181   1.128
  202SOL     OW  631   0.428   0.424   0.520
  202SOL    HW1  632   0.458   0.352   0.458
  202SOL    HW2  633   0.389   0.384   0.603
  203SOL     OW  634   1.705   1.487   1.104
  203SOL    HW1  635   1.612   1.462   1.077
  203SOL    HW2  636   1.731   1.437   1.186
  204SOL     OW  637   0.317   0.547   1.280
  204SOL    HW1  638   0.355   0.488   1.352
  204SOL    HW2  639   0.357   0.521   1.192
  205SOL     OW  640   0.812   1.586   0.687
  205SOL    HW1  641   0.844   1.596   0.593
  205SOL    HW2  642   0.733   1.524   0.689
  206SOL     OW  643   1.424   0.214   1.112
  206SOL    HW1  644   1.476   0.149   1.167
  206SOL    HW2  645   1.375   0.277   1.173
  207SOL     OW  646   1.001   0.034   1.154
  207SOL    HW1  647   0.938  -0.038   1.123
  207SOL    HW2  648   1.094  -0.002   1.154
  208SOL     OW  649   0.770   1.330   0.301
  208SOL    HW1  650   0.724   1.243   0.318
  208SOL    HW2  651   0.861   1.327   0.342
  209SOL     OW  652   0.618   1.567   1.284
  209SOL    HW1  653   0.613   1.649   1.341
  209SOL    HW2  654   0.707   1.564   1.239
  210SOL     OW  655   1.352   0.052   0.168
  210SOL    HW1  656   1.387   0.011   0.084
  210SOL    HW2  657   1.262   0.014   0.188
  211SOL     OW  658   1.300   0.453   0.691
  211SOL    HW1  659   1.241   0.533   0.695
  211SOL    HW2  660   1.315   0.418   0.784
  212SOL     OW  661   1.593   0.221   0.882
  212SOL    HW1  662   1.509   0.220   0.936
  212SOL    HW2  663   1.595   0.304   0.826
  213SOL     OW  664   0.039   1.077   0.300
  213SOL    HW1  665   0.138   1.066   0.291
  213SOL    HW2  666  -0.001   0.991   0.332
  214SOL     OW  667   0.875   1.646   0.337
  214SOL    HW1  668   0.798   1.611   0.283
  214SOL    HW2  669   0.843   1.717   0.399
  215SOL     OW  670   0.230   0.628   1.975
  215SOL    HW1  671   0.137   0.626   2.012
  215SOL    HW2  672   0.231   0.589   1.883
  216SOL     OW  673   0.225   0.275   2.858
  216SOL    HW1  674   0.260   0.258   2.950
  216SOL    HW2  675   0.137   0.230   2.846
  217SOL     OW  676   0.019   0.368   2.509
  217SOL    HW1  677  -0.063   0.411   2.548
  217SOL    HW2  678  -0.009   0.295   2.446
  218SOL     OW  679   0.569   1.275   3.027
  218SOL    HW1  680   0.476   1.268   2.990
  218SOL    HW2  681   0.580   1.364   3.071
  219SOL     OW  682   1.555   1.511   2.565
  219SOL    HW1  683   1.498   1.495   2.646
  219SOL    HW2  684   1.496   1.521   2.485
  220SOL     OW  685   1.135   0.703   2.579
  220SOL    HW1  686   1.192   0.781   2.554
  220SOL    HW2  687   1.075   0.729   2.655
  221SOL     OW  688   1.755   0.607   2.093
  221SOL    HW1  689   1.743   0.594   1.994
  221SOL    HW2  690   1.725   0.526   2.142
  222SOL     OW  691   0.768   1.144   2.885
  222SOL    HW1  692   0.690   1.161   2.945
  222SOL    HW2  693   0.802   1.231   2.849
  223SOL     OW  694   0.850   0.798   3.685
  223SOL    HW1  695   0.846   0.874   3.750
  223SOL    HW2  696   0.872   0.834   3.594
  224SOL     OW  697   0.685   1.012   2.527
  224SOL    HW1  698   0.754   0.996   2.597
  224SOL    HW2  699   0.612   1.069   2.565
  225SOL     OW  700   0.686   1.161   3.665
  225SOL    HW1  701   0.746   1.240   3.679
  225SOL    HW2  702   0.600   1.192   3.624
  226SOL     OW  703   0.335   1.435   2.923
  226SOL    HW1  704   0.257   1.404   2.870
  226SOL    HW2  705   0.393   1.493   2.866
  227SOL     OW  706   1.460   1.505   3.201
  227SOL    HW1  707   1.484   1.599   3.227
  227SOL    HW2  708   1.444   1.451   3.283
  228SOL     OW  709   0.438   0.392   3.361
  228SOL    HW1  710   0.520   0.336   3.370
  228SOL    HW2  711   0.357   0.334   3.365
  229SOL     OW  712   1.603   0.447   2.599
  229SOL    HW1  713   1.529   0.493   2.549
  229SOL    HW2  714   1.654   0.515   2.652
  230SOL     OW  715   0.231   1.713   2.345
  230SOL    HW1  716   0.265   1.790   2.399
  230SOL    HW2  717   0.275   1.713   2.255
  231SOL     OW  718   1.127   1.341   3.552
  231SOL    HW1  719   1.174   1.341   3.640
  231SOL    HW2  720   1.079   1.254   3.541
  232SOL     OW  721   0.230   1.434   2.400
  232SOL    HW1  722   0.204   1.530   2.400
  232SOL    HW2  723   0.159   1.380   2.445
  233SOL     OW  724   0.240   1.091   2.748
  233SOL    HW1  725   0.254   1.007   2.800
  233SOL    HW2  726   0.185   1.155   2.803
  234SOL     OW  727   0.620   1.786   3.301
  234SOL    HW1  728   0.528   1.769   3.336
  234SOL    HW2  729   0.648   1.878   3.327
  235SOL     OW  730   0.606   0.964   1.985
  235SOL    HW1  731   0.613   1.048   1.931
  235SOL    HW2  732   0.652   0.977   2.073
  236SOL     OW  733   1.594   0.114   3.342
  236SOL    HW1  734   1.576   0.181   3.270
  236SOL    HW2  735   1.591   0.160   3.431
  237SOL     OW  736   0.122   0.643   2.425
  237SOL    HW1  737   0.077   0.555   2.442
  237SOL    HW2  738   0.121   0.697   2.509
  238SOL     OW  739   1.842   1.767   2.221
  238SOL    HW1  740   1.896   1.738   2.301
  238SOL    HW2  741   1.872   1.857   2.192
  239SOL     OW  742   0.027   1.596   1.979
  239SOL    HW1  743   0.008   1.500   2.000
  239SOL    HW2  744  -0.006   1.654   2.054
  240SOL     OW  745   1.689   0.922   2.474
  240SOL    HW1  746   1.784   0.893   2.482
  240SOL    HW2  747   1.681   0.987   2.399
  241SOL     OW  748   1.641   1.108   2.294
  241SOL    HW1  749   1.727   1.110   2.242
  241SOL    HW2  750   1.655   1.155   2.382
  242SOL     OW  751   0.113   0.737   3.459
  242SOL    HW1  752   0.201   0.724   3.504
  242SOL    HW2  753   0.100   0.834   3.437
  243SOL     OW  754   0.613   1.365   2.588
  243SOL    HW1  755   0.564   1.278   2.597
  243SOL    HW2  756   0.590   1.408   2.501
  244SOL     OW  757   1.293   1.228   3.285
  244SOL    HW1  758   1.330   1.155   3.227
  244SOL    HW2  759   1.345   1.233   3.370
  245SOL     OW  760   0.809   0.004   2.364
  245SOL    HW1  761   0.849   0.095   2.355
  245SOL    HW2  762   0.709   0.012   2.370
  246SOL     OW  763   0.197   0.976   3.126
  246SOL    HW1  764   0.286   0.931   3.112
  246SOL    HW2  765   0.124   0.911   3.107
  247SOL     OW  766   1.525   0.999   2.052
  247SOL    HW1  767   1.462   0.923   2.065
  247SOL    HW2  768   1.573   1.017   2.138
  248SOL     OW  769   1.187   1.792   3.478
  248SOL    HW1  770   1.211   1.852   3.402
  248SOL    HW2  771   1.194   1.697   3.448
  249SOL     OW  772   0.317   0.251   3.663
  249SOL    HW1  773   0.388   0.322   3.669
  249SOL    HW2  774   0.229   0.290   3.691
  250SOL     OW  775   1.466   1.417   2.815
  250SOL    HW1  776   1.407   1.423   2.895
  250SOL    HW2  777   1.451   1.329   2.769
  251SOL     OW  778   1.667   1.714   2.434
  251SOL    HW1  779   1.626   1.691   2.346
  251SOL    HW2  780   1.649   1.640   2.499
  252SOL     OW  781   0.598   0.729   2.132
  252SOL    HW1  782   0.622   0.798   2.064
  252SOL    HW2  783   0.520   0.762   2.186
  253SOL     OW  784   1.281   0.345   2.806
  253SOL    HW1  785   1.195   0.295   2.793
  253SOL    HW2  786   1.343   0.291   2.862
  254SOL     OW  787   1.576   1.662   2.169
  254SOL    HW1  788   1.665   1.708   2.172
  254SOL    HW2  789   1.555   1.638   2.074
  255SOL     OW  790   0.807   0.605   3.327
  255SOL    HW1  791   0.760   0.602   3.416
  255SOL    HW2  792   0.756   0.550   3.261
  256SOL     OW  793   1.394   0.469   3.536
  256SOL    HW1  794   1.374   0.512   3.624
  256SOL    HW2  795   1.472   0.407   3.545
  257SOL     OW  796   0.973   0.890   3.434
  257SOL    HW1  797   1.019   0.806   3.405
  257SOL    HW2  798   0.917   0.924   3.359
  258SOL     OW  799   0.991   0.410   3.104
  258SOL    HW1  800   0.914   0.444   3.158
  258SOL    HW2  801   0.957   0.359   3.025
  259SOL     OW  802   1.041   0.701   2.291
  259SOL    HW1  803   1.067   0.697   2.387
  259SOL    HW2  804   0.956   0.650   2.277
  260SOL     OW  805   0.076   0.811   2.651
  260SOL    HW1  806   0.175   0.799   2.660
  260SOL    HW2  807   0.052   0.906   2.672
  261SOL     OW  808   0.130   1.821   3.433
  261SOL    HW1  809   0.120   1.806   3.532
  261SOL    HW2  810   0.044   1.857   3.397
  262SOL     OW  811   0.865   0.348   2.057
  262SOL    HW1  812   0.924   0.411   2.008
  262SOL    HW2  813   0.884   0.254   2.028
  263SOL     OW  814   1.719   0.585   3.693
  263SOL    HW1  815   1.693   0.674   3.657
  263SOL    HW2  816   1.717   0.517   3.620
  264SOL     OW  817   1.362   1.144   2.407
  264SOL    HW1  818   1.445   1.115   2.359
  264SOL    HW2  819   1.313   1.211   2.351
  265SOL     OW  820   0.550   0.196   2.747
  265SOL    HW1  821   0.545   0.191   2.847
  265SOL    HW2  822   0.552   0.292   2.718
  266SOL     OW  823   1.008   1.456   2.339
  266SOL    HW1  824   0.962   1.528   2.287
  266SOL    HW2  825   1.004   1.476   2.437
  267SOL     OW  826   0.351   1.801   2.715
  267SOL    HW1  827   0.401   1.715   2.721
  267SOL    HW2  828   0.416   1.878   2.712
  268SOL     OW  829   1.795   1.066   2.735
  268SOL    HW1  830   1.733   1.051   2.659
  268SOL    HW2  831   1.743   1.077   2.820
  269SOL     OW  832   1.227   1.550   3.368
  269SOL    HW1  833   1.233   1.473   3.432
  269SOL    HW2  834   1.175   1.524   3.288
  270SOL     OW  835   0.321   0.943   2.104
  270SOL    HW1  836   0.403   0.982   2.062
  270SOL    HW2  837   0.294   0.861   2.055
  271SOL     OW  838   1.458   0.735   2.590
  271SOL    HW1  839   1.453   0.670   2.665
  271SOL    HW2  840   1.538   0.794   2.603
  272SOL     OW  841   0.461   1.266   3.589
  272SOL    HW1  842   0.411   1.267   3.503
  272SOL    HW2  843   0.398   1.248   3.665
  273SOL     OW  844   1.111   1.776   2.099
  273SOL    HW1  845   1.051   1.714   2.149
  273SOL    HW2  846   1.142   1.732   2.014
  274SOL     OW  847   0.202   0.285   3.360
  274SOL    HW1  848   0.122   0.345   3.347
  274SOL    HW2  849   0.192   0.236   3.446
  275SOL     OW  850   1.632   1.377   1.943
  275SOL    HW1  851   1.600   1.471   1.933
  275SOL    HW2  852   1.556   1.314   1.931
  276SOL     OW  853   0.464   1.743   2.185
  276SOL    HW1  854   0.497   1.782   2.271
  276SOL    HW2  855   0.540   1.736   2.120
  277SOL     OW  856   1.400   0.107   2.288
  277SOL    HW1  857   1.376   0.070   2.198
  277SOL    HW2  858   1.499   0.123   2.292
  278SOL     OW  859   0.249   1.785   3.103
  278SOL    HW1  860   0.306   1.720   3.153
  278SOL    HW2  861   0.233   1.752   3.010
  279SOL     OW  862   0.940   1.698   2.766
  279SOL    HW1  863   1.020   1.641   2.787
  279SOL    HW2  864   0.891   1.658   2.689
  280SOL     OW  865   0.382   0.700   2.342
  280SOL    HW1  866   0.427   0.610   2.339
  280SOL    HW2  867   0.288   0.689   2.375
  281SOL     OW  868   1.547   0.222   3.591
  281SOL    HW1  869   1.542   0.259   3.683
  281SOL    HW2  870   1.475   0.153   3.579
  282SOL     OW  871   0.614   0.122   1.979
  282SOL    HW1  872   0.712   0.100   1.986
  282SOL    HW2  873   0.583   0.105   1.886
  283SOL     OW  874   0.781   0.264   3.611
  283SOL    HW1  875   0.848   0.203   3.654
  283SOL    HW2  876   0.708   0.283   3.676
  284SOL     OW  877   0.888   1.514   3.057
  284SOL    HW1  878   0.865   1.489   2.963
  284SOL    HW2  879   0.949   1.445   3.096
  285SOL     OW  880   1.351   0.590   3.295
  285SOL    HW1  881   1.379   0.547   3.380
  285SOL    HW2  882   1.376   0.686   3.296
  286SOL     OW  883   0.803   1.402   2.786
  286SOL    HW1  884   0.893   1.416   2.744
  286SOL    HW2  885   0.732   1.404   2.715
  287SOL     OW  886   0.922   0.503   2.761
  287SOL    HW1  887   0.897   0.494   2.665
  287SOL    HW2  888   0.970   0.421   2.792
  288SOL     OW  889   0.539   0.064   2.374
  288SOL    HW1  890   0.458   0.065   2.432
  288SOL    HW2  891   0.542   0.147   2.319
  289SOL     OW  892   1.434   1.188   1.903
  289SOL    HW1  893   1.466   1.112   1.960
  289SOL    HW2  894   1.342   1.215   1.933
  290SOL     OW  895   0.297   0.035   2.033
  290SOL    HW1  896   0.346   0.119   2.012
  290SOL    HW2  897   0.359  -0.030   2.078
  291SOL     OW  898   0.935   0.236   2.342
  291SOL    HW1  899   0.887   0.277   2.264
  291SOL    HW2  900   1.034   0.234   2.323
  292SOL     OW  901   1.076   0.683   3.326
  292SOL    HW1  902   0.996   0.622   3.329
  292SOL    HW2  903   1.157   0.630   3.302
  293SOL     OW  904   1.227   1.570   2.655
  293SOL    HW1  905   1.248   1.644   2.590
  293SOL    HW2  906   1.295   1.570   2.728
  294SOL     OW  907   0.459   1.152   2.603
  294SOL    HW1  908   0.388   1.125   2.668
  294SOL    HW2  909   0.433   1.124   2.510
  295SOL     OW  910   1.271   1.797   2.453
  295SOL    HW1  911   1.315   1.861   2.389
  295SOL    HW2  912   1.221   1.849   2.523
  296SOL     OW  913   1.032   0.549   1.878
  296SOL    HW1  914   0.991   0.631   1.839
  296SOL    HW2  915   1.096   0.575   1.951
  297SOL     OW  916   0.078   0.556   3.248
  297SOL    HW1  917   0.170   0.555   3.207
  297SOL    HW2  918   0.072   0.630   3.315
  298SOL     OW  919   0.561   0.222   3.009
  298SOL    HW1  920   0.599   0.138   3.046
  298SOL    HW2  921   0.473   0.241   3.053
  299SOL     OW  922   0.866   0.454   2.504
  299SOL    HW1  923   0.834   0.526   2.442
  299SOL    HW2  924   0.890   0.373   2.451
  300SOL     OW  925   1.017   0.039   2.615
  300SOL    HW1  926   0.945   0.044   2.546
  300SOL    HW2  927   0.993  -0.030   2.684
  301SOL     OW  928   1.429   1.173   2.729
  301SOL    HW1  929   1.374   1.089   2.722
  301SOL    HW2  930   1.455   1.202   2.637
  302SOL     OW  931   1.466   0.590   2.854
  302SOL    HW1  932   1.436   0.495   2.861
  302SOL    HW2  933   1.539   0.606   2.920
  303SOL     OW  934   1.857   0.833   2.239
  303SOL    HW1  935   1.899   0.769   2.303
  303SOL    HW2  936   1.819   0.782   2.161
  304SOL     OW  937   0.488   1.385   2.036
  304SOL    HW1  938   0.401   1.370   2.083
  304SOL    HW2  939   0.471   1.411   1.941
  305SOL     OW  940   1.664   1.280   2.519
  305SOL    HW1  941   1.763   1.288   2.533
  305SOL    HW2  942   1.619   1.364   2.550
  306SOL     OW  943   1.390   0.575   1.940
  306SOL    HW1  944   1.336   0.554   2.021
  306SOL    HW2  945   1.481   0.534   1.949
  307SOL     OW  946   0.527   0.256   2.190
  307SOL    HW1  947   0.554   0.197   2.115
  307SOL    HW2  948   0.527   0.351   2.159
  308SOL     OW  949   1.754   1.223   3.450
  308SOL    HW1  950   1.845   1.184   3.437
  308SOL    HW2  951   1.762   1.319   3.474
  309SOL     OW  952   1.064   1.347   3.202
  309SOL    HW1  953   0.984   1.324   3.257
  309SOL    HW2  954   1.147   1.321   3.251
  310SOL     OW  955   1.592   1.629   3.487
  310SOL    HW1  956   1.619   1.663   3.397
  310SOL    HW2  957   1.671   1.591   3.533
  311SOL     OW  958   1.111   1.195   2.962
  311SOL    HW1  959   1.071   1.239   3.043
  311SOL    HW2  960   1.070   1.232   2.879
  312SOL     OW  961   1.638   1.099   2.941
  312SOL    HW1  962   1.643   1.180   3.000
  312SOL    HW2  963   1.552   1.101   2.890
  313SOL     OW  964   0.915   0.089   3.264
  313SOL    HW1  965   0.940   0.069   3.169
  313SOL    HW2  966   0.987   0.145   3.306
  314SOL     OW  967   0.980   1.116   3.581
  314SOL    HW1  968   0.881   1.122   3.591
  314SOL    HW2  969   1.003   1.036   3.525
  315SOL     OW  970   0.705   1.050   2.230
  315SOL    HW1  971   0.691   1.057   2.329
  315SOL    HW2  972   0.789   0.999   2.212
  316SOL     OW  973   0.410   0.813   3.113
  316SOL    HW1  974   0.496   0.825   3.163
  316SOL    HW2  975   0.368   0.726   3.140
  317SOL     OW  976   1.274   0.386   3.124
  317SOL    HW1  977   1.295   0.460   3.188
  317SOL    HW2  978   1.185   0.403   3.081
  318SOL     OW  979   0.064   1.564   3.193
  318SOL    HW1  980   0.018   1.646   3.159
  318SOL    HW2  981   0.162   1.583   3.202
  319SOL     OW  982   0.367   1.100   2.363
  319SOL    HW1  983   0.360   1.183   2.307
  319SOL    HW2  984   0.371   1.020   2.303
  320SOL     OW  985   0.566   0.537   2.727
  320SOL    HW1  986   0.578   0.603   2.653
  320SOL    HW2  987   0.612   0.571   2.810
  321SOL     OW  988   1.252   1.348   2.250
  321SOL    HW1  989   1.302   1.425   2.290
  321SOL    HW2  990   1.157   1.350   2.282
  322SOL     OW  991   1.272   1.445   3.004
  322SOL    HW1  992   1.319   1.458   3.091
  322SOL    HW2  993   1.206   1.371   3.013
  323SOL     OW  994   1.582   0.639   2.334
  323SOL    HW1  995   1.551   0.700   2.407
  323SOL    HW2  996   1.632   0.691   2.265
  324SOL     OW  997   0.354   1.510   3.191
  324SOL    HW1  998   0.333   1.466   3.104
  324SOL    HW2  999   0.451   1.536   3.194
  325SOL     OW 1000   0.402   0.751   3.460
  325SOL    HW1 1001   0.470   0.806   3.413
  325SOL    HW2 1002   0.442   0.663   3.487
  326SOL     OW 1003   1.587   0.779   3.532
  326SOL    HW1 1004   1.495   0.817   3.527
  326SOL    HW2 1005   1.647   0.826   3.467
  327SOL     OW 1006   1.013   0.105   3.632
  327SOL    HW1 1007   1.019   0.190   3.580
  327SOL    HW2 1008   1.045   0.029   3.575
  328SOL     OW 1009   0.504   0.050   3.602
  328SOL    HW1 1010   0.462  -0.007   3.532
  328SOL    HW2 1011   0.438   0.119   3.634
  329SOL     OW 1012   0.573   0.870   2.891
  329SOL    HW1 1013   0.617   0.959   2.882
  329SOL    HW2 1014   0.510   0.870   2.968
  330SOL     OW 1015   1.360   0.862   2.907
  330SOL    HW1 1016   1.285   0.862   2.841
  330SOL    HW2 1017   1.397   0.770   2.916
  331SOL     OW 1018   1.209   0.525   2.137
  331SOL    HW1 1019   1.222   0.441   2.191
  331SOL    HW2 1020   1.180   0.599   2.197
  332SOL     OW 1021   0.307   0.213   3.093
  332SOL    HW1 1022   0.284   0.250   3.183
  332SOL    HW2 1023   0.277   0.118   3.087
  333SOL     OW 1024   0.037   1.310   3.144
  333SOL    HW1 1025   0.090   1.261   3.212
  333SOL    HW2 1026   0.059   1.408   3.149
  334SOL     OW 1027   0.732   0.634   2.926
  334SOL    HW1 1028   0.791   0.608   2.850
  334SOL    HW2 1029   0.704   0.730   2.915
  335SOL     OW 1030   1.728   0.935   3.716
  335SOL    HW1 1031   1.682   0.928   3.627
  335SOL    HW2 1032   1.666   0.979   3.782
  336SOL     OW 1033   0.307   0.063   2.480
  336SOL    HW1 1034   0.296   0.157   2.513
  336SOL    HW2 1035   0.302   0.000   2.557
  337SOL     OW 1036   1.622   0.367   2.236
  337SOL    HW1 1037   1.624   0.291   2.300
  337SOL    HW2 1038   1.574   0.444   2.276
  338SOL     OW 1039   1.023   0.766   2.828
  338SOL    HW1 1040   1.038   0.787   2.924
  338SOL    HW2 1041   0.993   0.671   2.819
  339SOL     OW 1042   0.980   1.573   3.562
  339SOL    HW1 1043   0.960   1.617   3.474
  339SOL    HW2 1044   1.019   1.482   3.546
  340SOL     OW 1045   1.859   1.518   3.467
  340SOL    HW1 1046   1.873   1.545   3.372
  340SOL    HW2 1047   1.942   1.540   3.520
  341SOL     OW 1048   0.350   0.898   3.666
  341SOL    HW1 1049   0.426   0.942   3.714
  341SOL    HW2 1050   0.385   0.851   3.584
  342SOL     OW 1051   1.540   0.274   1.987
  342SOL    HW1 1052   1.479   0.199   2.010
  342SOL    HW2 1053   1.562   0.326   2.070
  343SOL     OW 1054   1.303   0.838   1.904
  343SOL    HW1 1055   1.337   0.745   1.919
  343SOL    HW2 1056   1.321   0.865   1.809
  344SOL     OW 1057   1.068   1.333   2.711
  344SOL    HW1 1058   1.075   1.249   2.656
  344SOL    HW2 1059   1.130   1.402   2.675
  345SOL     OW 1060   0.319   0.810   2.811
  345SOL    HW1 1061   0.412   0.846   2.816
  345SOL    HW2 1062   0.313   0.725   2.863
  346SOL     OW 1063   0.339   0.509   2.868
  346SOL    HW1 1064   0.287   0.426   2.851
  346SOL    HW2 1065   0.416   0.514   2.804
  347SOL     OW 1066   1.138   0.380   3.540
  347SOL    HW1 1067   1.093   0.443   3.604
  347SOL    HW2 1068   1.231   0.411   3.523
  348SOL     OW 1069   1.160   0.207   3.339
  348SOL    HW1 1070   1.160   0.271   3.416
  348SOL    HW2 1071   1.188   0.255   3.256
  349SOL     OW 1072   0.008   1.326   2.062
  349SOL    HW1 1073  -0.085   1.347   2.031
  349SOL    HW2 1074   0.018   1.227   2.075
  350SOL     OW 1075   0.088   1.801   2.789
  350SOL    HW1 1076   0.046   1.715   2.762
  350SOL    HW2 1077   0.182   1.804   2.755
  351SOL     OW 1078   0.504   1.568   2.772
  351SOL    HW1 1079   0.570   1.642   2.781
  351SOL    HW2 1080   0.548   1.489   2.730
  352SOL     OW 1081   1.002   0.796   3.100
  352SOL    HW1 1082   1.043   0.764   3.186
  352SOL    HW2 1083   0.906   0.769   3.097
  353SOL     OW 1084   0.040   0.544   2.976
  353SOL    HW1 1085   0.125   0.511   2.935
  353SOL    HW2 1086   0.053   0.559   3.074
  354SOL     OW 1087   0.189   0.520   3.584
  354SOL    HW1 1088   0.248   0.480   3.514
  354SOL    HW2 1089   0.131   0.591   3.543
  355SOL     OW 1090   1.369   0.950   3.522
  355SOL    HW1 1091   1.408   1.039   3.542
  355SOL    HW2 1092   1.379   0.930   3.425
  356SOL     OW 1093   0.815   0.572   2.187
  356SOL    HW1 1094   0.822   0.483   2.141
  356SOL    HW2 1095   0.721   0.606   2.179
  357SOL     OW 1096   1.657   0.604   3.068
  357SOL    HW1 1097   1.619   0.535   3.130
  357SOL    HW2 1098   1.739   0.568   3.024
  358SOL     OW 1099   0.252   1.564   3.606
  358SOL    HW1 1100   0.222   1.621   3.682
  358SOL    HW2 1101   0.245   1.467   3.632
  359SOL     OW 1102   0.671   0.464   3.131
  359SOL    HW1 1103   0.637   0.375   3.101
  359SOL    HW2 1104   0.697   0.518   3.051
  360SOL     OW 1105   0.930   1.678   3.327
  360SOL    HW1 1106   0.906   1.660   3.232
  360SOL    HW2 1107   0.960   1.772   3.337
  361SOL     OW 1108   0.473   0.500   2.053
  361SOL    HW1 1109   0.534   0.580   2.057
  361SOL    HW2 1110   0.378   0.531   2.060
  362SOL     OW 1111   0.159   1.137   3.328
  362SOL    HW1 1112   0.181   1.076   3.404
  362SOL    HW2 1113   0.169   1.088   3.242
  363SOL     OW 1114   1.347   1.059   3.096
  363SOL    HW1 1115   1.371   0.996   3.022
  363SOL    HW2 1116   1.257   1.099   3.078
  364SOL     OW 1117   1.302   0.855   2.171
  364SOL    HW1 1118   1.216   0.824   2.213
  364SOL    HW2 1119   1.298   0.841   2.072
  365SOL     OW 1120   1.759   1.747   3.016
  365SOL    HW1 1121   1.820   1.777   2.943
  365SOL    HW2 1122   1.721   1.658   2.994
  366SOL     OW 1123   1.252   1.731   2.990
  366SOL    HW1 1124   1.336   1.736   2.936
  366SOL    HW2 1125   1.229   1.635   3.008
  367SOL     OW 1126   0.083   1.258   2.884
  367SOL    HW1 1127   0.078   1.257   2.984
  367SOL    HW2 1128   0.000   1.217   2.846
  368SOL     OW 1129   0.688   1.662   3.578
  368SOL    HW1 1130   0.632   1.743   3.587
  368SOL    HW2 1131   0.740   1.666   3.492
  369SOL     OW 1132   1.726   0.135   2.385
  369SOL    HW1 1133   1.799   0.118   2.318
  369SOL    HW2 1134   1.695   0.048   2.423
  370SOL     OW 1135   1.388   1.573   2.339
  370SOL    HW1 1136   1.455   1.585   2.265
  370SOL    HW2 1137   1.348   1.662   2.362
  371SOL     OW 1138   0.130   1.794   3.713
  371SOL    HW1 1139   0.089   1.720   3.766
  371SOL    HW2 1140   0.194   1.845   3.771
  372SOL     OW 1141   1.280   0.927   2.534
  372SOL    HW1 1142   1.340   0.846   2.536
  372SOL    HW2 1143   1.320   0.996   2.474
  373SOL     OW 1144   0.830   1.273   3.284
  373SOL    HW1 1145   0.825   1.306   3.379
  373SOL    HW2 1146   0.744   1.292   3.238
  374SOL     OW 1147   0.672   1.616   2.016
  374SOL    HW1 1148   0.681   1.626   1.917
  374SOL    HW2 1149   0.632   1.527   2.037
  375SOL     OW 1150   1.650   1.720   3.256
  375SOL    HW1 1151   1.703   1.730   3.172
  375SOL    HW2 1152   1.623   1.810   3.290
  376SOL     OW 1153   1.841   0.175   2.825
  376SOL    HW1 1154   1.880   0.090   2.789
  376SOL    HW2 1155   1.743   0.177   2.806
  377SOL     OW 1156   0.263   0.326   2.582
  377SOL    HW1 1157   0.184   0.377   2.548
  377SOL    HW2 1158   0.254   0.311   2.680
  378SOL     OW 1159   1.194   1.612   1.893
  378SOL    HW1 1160   1.200   1.519   1.930
  378SOL    HW2 1161   1.135   1.612   1.813
  379SOL     OW 1162   0.822   1.002   3.234
  379SOL    HW1 1163   0.862   1.001   3.142
  379SOL    HW2 1164   0.832   1.094   3.274
  380SOL     OW 1165   0.916   0.910   2.153
  380SOL    HW1 1166   0.979   0.948   2.085
  380SOL    HW2 1167   0.956   0.827   2.192
  381SOL     OW 1168   1.504   1.607   1.906
  381SOL    HW1 1169   1.412   1.644   1.913
  381SOL    HW2 1170   1.542   1.627   1.816
  382SOL     OW 1171   0.372   1.288   3.352
  382SOL    HW1 1172   0.359   1.381   3.318
  382SOL    HW2 1173   0.288   1.236   3.339
  383SOL     OW 1174   1.614   1.292   3.151
  383SOL    HW1 1175   1.674   1.295   3.231
  383SOL    HW2 1176   1.539   1.356   3.164
  384SOL     OW 1177   1.014   0.236   2.833
  384SOL    HW1 1178   1.006   0.200   2.740
  384SOL    HW2 1179   1.012   0.160   2.898
  385SOL     OW 1180   0.590   1.487   2.353
  385SOL    HW1 1181   0.632   1.429   2.283
  385SOL    HW2 1182   0.546   1.566   2.309
  386SOL     OW 1183   1.709   0.385   3.243
  386SOL    HW1 1184   1.782   0.454   3.247
  386SOL    HW2 1185   1.737   0.310   3.184
  387SOL     OW 1186   0.255   1.348   2.152
  387SOL    HW1 1187   0.159   1.349   2.125
  387SOL    HW2 1188   0.267   1.401   2.236
  388SOL     OW 1189   0.105   1.013   3.588
  388SOL    HW1 1190   0.028   0.980   3.642
  388SOL    HW2 1191   0.190   0.983   3.630
  389SOL     OW 1192   0.672   0.203   3.351
  389SOL    HW1 1193   0.762   0.187   3.311
  389SOL    HW2 1194   0.680   0.208   3.450
  390SOL     OW 1195   0.075   0.345   1.895
  390SOL    HW1 1196  -0.017   0.317   1.866
  390SOL    HW2 1197   0.106   0.422   1.839
  391SOL     OW 1198   1.440   0.856   3.260
  391SOL    HW1 1199   1.383   0.908   3.197
  391SOL    HW2 1200   1.536   0.868   3.236
  392SOL     OW 1201   0.072   0.166   2.180
  392SOL    HW1 1202   0.055   0.249   2.126
  392SOL    HW2 1203   0.162   0.129   2.158
  393SOL     OW 1204   1.183   1.335   1.981
  393SOL    HW1 1205   1.084   1.324   1.983
  393SOL    HW2 1206   1.217   1.350   2.074
  394SOL     OW 1207   0.613   0.842   3.293
  394SOL    HW1 1208   0.669   0.923   3.276
  394SOL    HW2 1209   0.672   0.762   3.296
  395SOL     OW 1210   1.493   1.767   2.821
  395SOL    HW1 1211   1.526   1.831   2.752
  395SOL    HW2 1212   1.559   1.761   2.896
  396SOL     OW 1213   0.716   0.565   3.570
  396SOL    HW1 1214   0.735   0.630   3.644
  396SOL    HW2 1215   0.776   0.485   3.579
  397SOL     OW 1216   1.450   1.220   3.495
  397SOL    HW1 1217   1.441   1.210   3.594
  397SOL    HW2 1218   1.546   1.213   3.469
  398SOL     OW 1219   0.390   1.741   3.422
  398SOL    HW1 1220   0.299   1.782   3.420
  398SOL    HW2 1221   0.383   1.647   3.454
  399SOL     OW 1222   1.674   0.883   3.116
  399SOL    HW1 1223   1.647   0.794   3.079
  399SOL    HW2 1224   1.675   0.951   3.043
  400SOL     OW 1225   1.225   0.325   2.311
  400SOL    HW1 1226   1.290   0.251   2.300
  400SOL    HW2 1227   1.245   0.375   2.395
  401SOL     OW 1228   0.594   0.745   2.514
  401SOL    HW1 1229   0.644   0.830   2.495
  401SOL    HW2 1230   0.506   0.747   2.466
  402SOL     OW 1231   1.777   0.342   3.504
  402SOL    HW1 1232   1.760   0.373   3.410
  402SOL    HW2 1233   1.693   0.305   3.542
  403SOL     OW 1234   1.730   0.934   3.379
  403SOL    HW1 1235   1.768   1.025   3.394
  403SOL    HW2 1236   1.722   0.917   3.280
  404SOL     OW 1237   0.859   1.374   1.878
  404SOL    HW1 1238   0.813   1.389   1.966
  404SOL    HW2 1239   0.903   1.459   1.848
  405SOL     OW 1240   0.661   1.790   2.815
  405SOL    HW1 1241   0.615   1.878   2.802
  405SOL    HW2 1242   0.760   1.802   2.808
  406SOL     OW 1243   0.859   0.956   2.723
  406SOL    HW1 1244   0.913   0.887   2.771
  406SOL    HW2 1245   0.827   1.025   2.789
  407SOL     OW 1246   1.083   0.984   1.949
  407SOL    HW1 1247   1.060   1.037   1.867
  407SOL    HW2 1248   1.164   0.928   1.930
  408SOL     OW 1249   1.861   1.569   2.713
  408SOL    HW1 1250   1.790   1.557   2.643
  408SOL    HW2 1251   1.862   1.490   2.773
  409SOL     OW 1252   0.221   1.314   3.706
  409SOL    HW1 1253   0.156   1.241   3.685
  409SOL    HW2 1254   0.225   1.328   3.804
  410SOL     OW 1255   0.079   1.240   2.515
  410SOL    HW1 1256   0.078   1.193   2.603
  410SOL    HW2 1257   0.161   1.212   2.464
  411SOL     OW 1258   0.672   1.391   3.486
  411SOL    HW1 1259   0.594   1.341   3.524
  411SOL    HW2 1260   0.669   1.486   3.517
  412SOL     OW 1261   1.824   0.192   3.089
  412SOL    HW1 1262   1.820   0.102   3.133
  412SOL    HW2 1263   1.827   0.181   2.990
  413SOL     OW 1264   0.428   0.424   2.382
  413SOL    HW1 1265   0.458   0.352   2.320
  413SOL    HW2 1266   0.389   0.384   2.465
  414SOL     OW 1267   1.705   1.487   2.966
  414SOL    HW1 1268   1.612   1.462   2.939
  414SOL    HW2 1269   1.731   1.437   3.048
  415SOL     OW 1270   0.317   0.547   3.142
  415SOL    HW1 1271   0.355   0.488   3.214
  415SOL    HW2 1272   0.357   0.521   3.054
  416SOL     OW 1273   0.812   1.586   2.549
  416SOL    HW1 1274   0.844   1.596   2.455
  416SOL    HW2 1275   0.733   1.524   2.551
  417SOL     OW 1276   1.424   0.214   2.974
  417SOL    HW1 1277   1.476   0.149   3.029
  417SOL    HW2 1278   1.375   0.277   3.035
  418SOL     OW 1279   1.001   0.034   3.016
  418SOL    HW1 1280   0.938  -0.038   2.985
  418SOL    HW2 1281   1.094  -0.002   3.016
  419SOL     OW 1282   0.770   1.330   2.163
  419SOL    HW1 1283   0.724   1.243   2.180
  419SOL    HW2 1284   0.861   1.327   2.204
  420SOL     OW 1285   0.618   1.567   3.146
  420SOL    HW1 1286   0.613   1.649   3.203
  420SOL    HW2 1287   0.707   1.564   3.101
  421SOL     OW 1288   1.352   0.052   2.030
  421SOL    HW1 1289   1.387   0.011   1.946
  421SOL    HW2 1290   1.262   0.014   2.050
  422SOL     OW 1291   1.300   0.453   2.553
  422SOL    HW1 1292   1.241   0.533   2.557
  422SOL    HW2 1293   1.315   0.418   2.646
  423SOL     OW 1294   1.593   0.221   2.744
  423SOL    HW1 1295   1.509   0.220   2.798
  423SOL    HW2 1296   1.595   0.304   2.688
  424SOL     OW 1297   0.039   1.077   2.162
  424SOL    HW1 1298   0.138   1.066   2.153
  424SOL    HW2 1299  -0.001   0.991   2.194
  425SOL     OW 1300   0.875   1.646   2.199
  425SOL    HW1 1301   0.798   1.611   2.145
  425SOL    HW2 1302   0.843   1.717   2.261
  426SOL     OW 1303   0.230   0.628   3.837
  426SOL    HW1 1304   0.137   0.626   3.874
  426SOL    HW2 1305   0.231   0.589   3.745
  427SOL     OW 1306   0.225   0.275   4.720
  427SOL    HW1 1307   0.260   0.258   4.812
  427SOL    HW2 1308   0.137   0.230   4.708
  428SOL     OW 1309   0.019   0.368   4.371
  428SOL    HW1 1310  -0.063   0.411   4.410
  428SOL    HW2 1311  -0.009   0.295   4.308
  429SOL     OW 1312   0.569   1.275   4.889
  429SOL    HW1 1313   0.476   1.268   4.852
  429SOL    HW2 1314   0.580   1.364   4.933
  430SOL     OW 1315   1.555   1.511   4.427
  430SOL    HW1 1316   1.498   1.495   4.508
  430SOL    HW2 1317   1.496   1.521   4.347
  431SOL     OW 1318   1.135   0.703   4.441
  431SOL    HW1 1319   1.192   0.781   4.416
  431SOL    HW2 1320   1.075   0.729   4.517
  432SOL     OW 1321   1.755   0.607   3.955
  432SOL    HW1 1322   1.743   0.594   3.856
  432SOL    HW2 1323   1.725   0.526   4.004
  433SOL     OW 1324   0.768   1.144   4.747
  433SOL    HW1 1325   0.690   1.161   4.807
  433SOL    HW2 1326   0.802   1.231   4.711
  434SOL     OW 1327   0.850   0.798   5.547
  434SOL    HW1 1328   0.846   0.874   5.612
  434SOL    HW2 1329   0.872   0.834   5.456
  435SOL     OW 1330   0.685   1.012   4.389
  435SOL    HW1 1331   0.754   0.996   4.459
  435SOL    HW2 1332   0.612   1.069   4.427
  436SOL     OW 1333   0.686   1.161   5.527
  436SOL    HW1 1334   0.746   1.240   5.541
  436SOL    HW2 1335   0.600   1.192   5.486
  437SOL     OW 1336   0.335   1.435   4.785
  437SOL    HW1 1337   0.257   1.404   4.732
  437SOL    HW2 1338   0.393   1.493   4.728
  438SOL     OW 1339   1.460   1.505   5.063
  438SOL    HW1 1340   1.484   1.599   5.089
  438SOL    HW2 1341   1.444   1.451   5.145
  439SOL     OW 1342   0.438   0.392   5.223
  439SOL    HW1 1343   0.520   0.336   5.232
  439SOL    HW2 1344   0.357   0.334   5.227
  440SOL     OW 1345   1.603   0.447   4.461
  440SOL    HW1 1346   1.529   0.493   4.411
  440SOL    HW2 1347   1.654   0.515   4.514
  441SOL     OW 1348   0.231   1.713   4.207
  441SOL    HW1 1349   0.265   1.790   4.261
  441SOL    HW2 1350   0.275   1.713   4.117
  442SOL     OW 1351   1.127   1.341   5.414
  442SOL    HW1 1352   1.174   1.341   5.502
  442SOL    HW2 1353   1.079   1.254   5.403
  443SOL     OW 1354   0.240   1.091   4.610
  443SOL    HW1 1355   0.254   1.007   4.662
  443SOL    HW2 1356   0.185   1.155   4.665
  444SOL     OW 1357   0.620   1.786   5.163
  444SOL    HW1 1358   0.528   1.769   5.198
  444SOL    HW2 1359   0.648   1.878   5.189
  445SOL     OW 1360   0.606   0.964   3.847
  445SOL    HW1 1361   0.613   1.048   3.793
  445SOL    HW2 1362   0.652   0.977   3.935
  446SOL     OW 1363   1.594   0.114   5.204
  446SOL    HW1 1364   1.576   0.181   5.132
  446SOL    HW2 1365   1.591   0.160   5.293
  447SOL     OW 1366   0.122   0.643   4.287
  447SOL    HW1 1367   0.077   0.555   4.304
  447SOL    HW2 1368   0.121   0.697   4.371
  448SOL     OW 1369   1.842   1.767   4.083
  448SOL    HW1 1370   1.896   1.738   4.163
  448SOL    HW2 1371   1.872   1.857   4.054
  449SOL     OW 1372   0.027   1.596   3.841
  449SOL    HW1 1373   0.008   1.500   3.862
  449SOL    HW2 1374  -0.006   1.654   3.916
  450SOL     OW 1375   1.689   0.922   4.336
  450SOL    HW1 1376   1.784   0.893   4.344
  450SOL    HW2 1377   1.681   0.987   4.261
  451SOL     OW 1378   1.641   1.108   4.156
  451SOL    HW1 1379   1.727   1.110   4.104
  451SOL    HW2 1380   1.655   1.155   4.244
  452SOL     OW 1381   0.113   0.737   5.321
  452SOL    HW1 1382   0.201   0.724   5.366
  452SOL    HW2 1383   0.100   0.834   5.299
  453SOL     OW 1384   0.613   1.365   4.450
  453SOL    HW1 1385   0.564   1.278   4.459
  453SOL    HW2 1386   0.590   1.408   4.363
  454SOL     OW 1387   1.293   1.228   5.147
  454SOL    HW1 1388   1.330   1.155   5.089
  454SOL    HW2 1389   1.345   1.233   5.232
  455SOL     OW 1390   0.809   0.004   4.226
  455SOL    HW1 1391   0.849   0.095   4.217
  455SOL    HW2 1392   0.709   0.012   4.232
  456SOL     OW 1393   0.197   0.976   4.988
  456SOL    HW1 1394   0.286   0.931   4.974
  456SOL    HW2 1395   0.124   0.911   4.969
  457SOL     OW 1396   1.525   0.999   3.914
  457SOL    HW1 1397   1.462   0.923   3.927
  457SOL    HW2 1398   1.573   1.017   4.000
  458SOL     OW 1399   1.187   1.792   5.340
  458SOL    HW1 1400   1.211   1.852   5.264
  458SOL    HW2 1401   1.194   1.697   5.310
  459SOL     OW 1402   0.317   0.251   5.525
  459SOL    HW1 1403   0.388   0.322   5.531
  459SOL    HW2 1404   0.229   0.290   5.553
  460SOL     OW 1405   1.466   1.417   4.677
  460SOL    HW1 1406   1.407   1.423   4.757
  460SOL    HW2 1407   1.451   1.329   4.631
  461SOL     OW 1408   1.667   1.714   4.296
  461SOL    HW1 1409   1.626   1.691   4.208
  461SOL    HW2 1410   1.649   1.640   4.361
  462SOL     OW 1411   0.598   0.729   3.994
  462SOL    HW1 1412   0.622   0.798   3.926
  462SOL    HW2 1413   0.520   0.762   4.048
  463SOL     OW 1414   1.281   0.345   4.668
  463SOL    HW1 1415   1.195   0.295   4.655
  463SOL    HW2 1416   1.343   0.291   4.724
  464SOL     OW 1417   1.576   1.662   4.031
  464SOL    HW1 1418   1.665   1.708   4.034
  464SOL    HW2 1419   1.555   1.638   3.936
  465SOL     OW 1420   0.807   0.605   5.189
  465SOL    HW1 1421   0.760   0.602   5.278
  465SOL    HW2 1422   0.756   0.550   5.123
  466SOL     OW 1423   1.394   0.469   5.398
  466SOL    HW1 1424   1.374   0.512   5.486
  466SOL    HW2 1425   1.472   0.407   5.407
  467SOL     OW 1426   0.973   0.890   5.296
  467SOL    HW1 1427   1.019   0.806   5.267
  467SOL    HW2 1428   0.917   0.924   5.221
  468SOL     OW 1429   0.991   0.410   4.966
  468SOL    HW1 1430   0.914   0.444   5.020
  468SOL    HW2 1431   0.957   0.359   4.887
  469SOL     OW 1432   1.041   0.701   4.153
  469SOL    HW1 1433   1.067   0.697   4.249
  469SOL    HW2 1434   0.956   0.650   4.139
  470SOL     OW 1435   0.076   0.811   4.513
  470SOL    HW1 1436   0.175   0.799   4.522
  470SOL    HW2 1437   0.052   0.906   4.534
  471SOL     OW 1438   0.130   1.821   5.295
  471SOL    HW1 1439   0.120   1.806   5.394
  471SOL    HW2 1440   0.044   1.857   5.259
  472SOL     OW 1441   0.865   0.348   3.919
  472SOL    HW1 1442   0.924   0.411   3.870
  472SOL    HW2 1443   0.884   0.254   3.890
  473SOL     OW 1444   1.719   0.585   5.555
  473SOL    HW1 1445   1.693   0.674   5.519
  473SOL    HW2 1446   1.717   0.517   5.482
  474SOL     OW 1447   1.362   1.144   4.269
  474SOL    HW1 1448   1.445   1.115   4.221
  474SOL    HW2 1449   1.313   1.211   4.213
  475SOL     OW 1450   0.550   0.196   4.609
  475SOL    HW1 1451   0.545   0.191   4.709
  475SOL    HW2 1452   0.552   0.292   4.580
  476SOL     OW 1453   1.008   1.456   4.201
  476SOL    HW1 1454   0.962   1.528   4.149
  476SOL    HW2 1455   1.004   1.476   4.299
  477SOL     OW 1456   0.351   1.801   4.577
  477SOL    HW1 1457   0.401   1.715   4.583
  477SOL    HW2 1458   0.416   1.878   4.574
  478SOL     OW 1459   1.795   1.066   4.597
  478SOL    HW1 1460   1.733   1.051   4.521
  478SOL    HW2 1461   1.743   1.077   4.682
  479SOL     OW 1462   1.227   1.550   5.230
  479SOL    HW1 1463   1.233   1.473   5.294
  479SOL    HW2 1464   1.175   1.524   5.150
  480SOL     OW 1465   0.321   0.943   3.966
  480SOL    HW1 1466   0.403   0.982   3.924
  480SOL    HW2 1467   0.294   0.861   3.917
  481SOL     OW 1468   1.458   0.735   4.452
  481SOL    HW1 1469   1.453   0.670   4.527
  481SOL    HW2 1470   1.538   0.794   4.465
  482SOL     OW 1471   0.461   1.266   5.451
  482SOL    HW1 1472   0.411   1.267   5.365
  482SOL    HW2 1473   0.398   1.248   5.527
  483SOL     OW 1474   1.111   1.776   3.961
  483SOL    HW1 1475   1.051   1.714   4.011
  483SOL    HW2 1476   1.142   1.732   3.876
  484SOL     OW 1477   0.202   0.285   5.222
  484SOL    HW1 1478   0.122   0.345   5.209
  484SOL    HW2 1479   0.192   0.236   5.308
  485SOL     OW 1480   1.632   1.377   3.805
  485SOL    HW1 1481   1.600   1.471   3.795
  485SOL    HW2 1482   1.556   1.314   3.793
  486SOL     OW 1483   0.464   1.743   4.047
  486SOL    HW1 1484   0.497   1.782   4.133
  486SOL    HW2 1485   0.540   1.736   3.982
  487SOL     OW 1486   1.400   0.107   4.150
  487SOL    HW1 1487   1.376   0.070   4.060
  487SOL    HW2 1488   1.499   0.123   4.154
  488SOL     OW 1489   0.249   1.785   4.965
  488SOL    HW1 1490   0.306   1.720   5.015
  488SOL    HW2 1491   0.233   1.752   4.872
  489SOL     OW 1492   0.940   1.698   4.628
  489SOL    HW1 1493   1.020   1.641   4.649
  489SOL    HW2 1494   0.891   1.658   4.551
  490SOL     OW 1495   0.382   0.700   4.204
  490SOL    HW1 1496   0.427   0.610   4.201
  490SOL    HW2 1497   0.288   0.689   4.237
  491SOL     OW 1498   1.547   0.222   5.453
  491SOL    HW1 1499   1.542   0.259   5.545
  491SOL    HW2 1500   1.475   0.153   5.441
  492SOL     OW 1501   0.614   0.122   3.841
  492SOL    HW1 1502   0.712   0.100   3.848
  492SOL    HW2 1503   0.583   0.105   3.748
  493SOL     OW 1504   0.781   0.264   5.473
  493SOL    HW1 1505   0.848   0.203   5.516
  493SOL    HW2 1506   0.708   0.283   5.538
  494SOL     OW 1507   0.888   1.514   4.919
  494SOL    HW1 1508   0.865   1.489   4.825
  494SOL    HW2 1509   0.949   1.445   4.958
  495SOL     OW 1510   1.351   0.590   5.157
  495SOL    HW1 1511   1.379   0.547   5.242
  495SOL    HW2 1512   1.376   0.686   5.158
  496SOL     OW 1513   0.803   1.402   4.648
  496SOL    HW1 1514   0.893   1.416   4.606
  496SOL    HW2 1515   0.732   1.404   4.577
  497SOL     OW 1516   0.922   0.503   4.623
  497SOL    HW1 1517   0.897   0.494   4.527
  497SOL    HW2 1518   0.970   0.421   4.654
  498SOL     OW 1519   0.539   0.064   4.236
  498SOL    HW1 1520   0.458   0.065   4.294
  498SOL    HW2 1521   0.542   0.147   4.181
  499SOL     OW 1522   1.434   1.188   3.765
  499SOL    HW1 1523   1.466   1.112   3.822
  499SOL    HW2 1524   1.342   1.215   3.795
  500SOL     OW 1525   0.297   0.035   3.895
  500SOL    HW1 1526   0.346   0.119   3.874
  500SOL    HW2 1527   0.359  -0.030   3.940
  501SOL     OW 1528   0.935   0.236   4.204
  501SOL    HW1 1529   0.887   0.277   4.126
  501SOL    HW2 1530   1.034   0.234   4.185
  502SOL     OW 1531   1.076   0.683   5.188
  502SOL    HW1 1532   0.996   0.622   5.191
  502SOL    HW2 1533   1.157   0.630   5.164
  503SOL     OW 1534   1.227   1.570   4.517
  503SOL    HW1 1535   1.248   1.644   4.452
  503SOL    HW2 1536   1.295   1.570   4.590
  504SOL     OW 1537   0.459   1.152   4.465
  504SOL    HW1 1538   0.388   1.125   4.530
  504SOL    HW2 1539   0.433   1.124   4.372
  505SOL     OW 1540   1.271   1.797   4.315
  505SOL    HW1 1541   1.315   1.861   4.251
  505SOL    HW2 1542   1.221   1.849   4.385
  506SOL     OW 1543   1.032   0.549   3.740
  506SOL    HW1 1544   0.991   0.631   3.701
  506SOL    HW2 1545   1.096   0.575   3.813
  507SOL     OW 1546   0.078   0.556   5.110
  507SOL    HW1 1547   0.170   0.555   5.069
  507SOL    HW2 1548   0.072   0.630   5.177
  508SOL     OW 1549   0.561   0.222   4.871
  508SOL    HW1 1550   0.599   0.138   4.908
  508SOL    HW2 1551   0.473   0.241   4.915
  509SOL     OW 1552   0.866   0.454   4.366
  509SOL    HW1 1553   0.834   0.526   4.304
  509SOL    HW2 1554   0.890   0.373   4.313
  510SOL     OW 1555   1.017   0.039   4.477
  510SOL    HW1 1556   0.945   0.044   4.408
  510SOL    HW2 1557   0.993  -0.030   4.546
  511SOL     OW 1558   1.429   1.173   4.591
  511SOL    HW1 1559   1.374   1.089   4.584
  511SOL    HW2 1560   1.455   1.202   4.499
  512SOL     OW 1561   1.466   0.590   4.716
  512SOL    HW1 1562   1.436   0.495   4.723
  512SOL    HW2 1563   1.539   0.606   4.782
  513SOL     OW 1564   1.857   0.833   4.101
  513SOL    HW1 1565   1.899   0.769   4.165
  513SOL    HW2 1566   1.819   0.782   4.023
  514SOL     OW 1567   0.488   1.385   3.898
  514SOL    HW1 1568   0.401   1.370   3.945
  514SOL    HW2 1569   0.471   1.411   3.803
  515SOL     OW 1570   1.664   1.280   4.381
  515SOL    HW1 1571   1.763   1.288   4.395
  515SOL    HW2 1572   1.619   1.364   4.412
  516SOL     OW 1573   1.390   0.575   3.802
  516SOL    HW1 1574   1.336   0.554   3.883
  516SOL    HW2 1575   1.481   0.534   3.811
  517SOL     OW 1576   0.527   0.256   4.052
  517SOL    HW1 1577   0.554   0.197   3.977
  517SOL    HW2 1578   0.527   0.351   4.021
  518SOL     OW 1579   1.754   1.223   5.312
  518SOL    HW1 1580   1.845   1.184   5.299
  518SOL    HW2 1581   1.762   1.319   5.336
  519SOL     OW 1582   1.064   1.347   5.064
  519SOL    HW1 1583   0.984   1.324   5.119
  519SOL    HW2 1584   1.147   1.321   5.113
  520SOL     OW 1585   1.592   1.629   5.349
  520SOL    HW1 1586   1.619   1.663   5.259
  520SOL    HW2 1587   1.671   1.591   5.395
  521SOL     OW 1588   1.111   1.195   4.824
  521SOL    HW1 1589   1.071   1.239   4.905
  521SOL    HW2 1590   1.070   1.232   4.741
  522SOL     OW 1591   1.638   1.099   4.803
  522SOL    HW1 1592   1.643   1.180   4.862
  522SOL    HW2 1593   1.552   1.101   4.752
  523SOL     OW 1594   0.915   0.089   5.126
  523SOL    HW1 1595   0.940   0.069   5.031
  523SOL    HW2 1596   0.987   0.145   5.168
  524SOL     OW 1597   0.980   1.116   5.443
  524SOL    HW1 1598   0.881   1.122   5.453
  524SOL    HW2 1599   1.003   1.036   5.387
  525SOL     OW 1600   0.705   1.050   4.092
  525SOL    HW1 1601   0.691   1.057   4.191
  525SOL    HW2 1602   0.789   0.999   4.074
  526SOL     OW 1603   0.410   0.813   4.975
  526SOL    HW1 1604   0.496   0.825   5.025
  526SOL    HW2 1605   0.368   0.726   5.002
  527SOL     OW 1606   1.274   0.386   4.986
  527SOL    HW1 1607   1.295   0.460   5.050
  527SOL    HW2 1608   1.185   0.403   4.943
  528SOL     OW 1609   0.064   1.564   5.055
  528SOL    HW1 1610   0.018   1.646   5.021
  528SOL    HW2 1611   0.162   1.583   5.064
  529SOL     OW 1612   0.367   1.100   4.225
  529SOL    HW1 1613   0.360   1.183   4.169
  529SOL    HW2 1614   0.371   1.020   4.165
  530SOL     OW 1615   0.566   0.537   4.589
  530SOL    HW1 1616   0.578   0.603   4.515
  530SOL    HW2 1617   0.612   0.571   4.672
  531SOL     OW 1618   1.252   1.348   4.112
  531SOL    HW1 1619   1.302   1.425   4.152
  531SOL    HW2 1620   1.157   1.350   4.144
  532SOL     OW 1621   1.272   1.445   4.866
  532SOL    HW1 1622   1.319   1.458   4.953
  532SOL    HW2 1623   1.206   1.371   4.875
  533SOL     OW 1624   1.582   0.639   4.196
  533SOL    HW1 1625   1.551   0.700   4.269
  533SOL    HW2 1626   1.632   0.691   4.127
  534SOL     OW 1627   0.354   1.510   5.053
  534SOL    HW1 1628   0.333   1.466   4.966
  534SOL    HW2 1629   0.451   1.536   5.056
  535SOL     OW 1630   0.402   0.751   5.322
  535SOL    HW1 1631   0.470   0.806   5.275
  535SOL    HW2 1632   0.442   0.663   5.349
  536SOL     OW 1633   1.587   0.779   5.394
  536SOL    HW1 1634   1.495   0.817   5.389
  536SOL    HW2 1635   1.647   0.826   5.329
  537SOL     OW 1636   1.013   0.105   5.494
  537SOL    HW1 1637   1.019   0.190   5.442
  537SOL    HW2 1638   1.045   0.029   5.437
  538SOL     OW 1639   0.504   0.050   5.464
  538SOL    HW1 1640   0.462  -0.007   5.394
  538SOL    HW2 1641   0.438   0.119   5.496
  539SOL     OW 1642   0.573   0.870   4.753
  539SOL    HW1 1643   0.617   0.959   4.744
  539SOL    HW2 1644   0.510   0.870   4.830
  540SOL     OW 1645   1.360   0.862   4.769
  540SOL    HW1 1646   1.285   0.862   4.703
  540SOL    HW2 1647   1.397   0.770   4.778
  541SOL     OW 1648   1.209   0.525   3.999
  541SOL    HW1 1649   1.222   0.441   4.053
  541SOL    HW2 1650   1.180   0.599   4.059
  542SOL     OW 1651   0.307   0.213   4.955
  542SOL    HW1 1652   0.284   0.250   5.045
  542SOL    HW2 1653   0.277   0.118   4.949
  543SOL     OW 1654   0.037   1.310   5.006
  543SOL    HW1 1655   0.090   1.261   5.074
  543SOL    HW2 1656   0.059   1.408   5.011
  544SOL     OW 1657   0.732   0.634   4.788
  544SOL    HW1 1658   0.791   0.608   4.712
  544SOL    HW2 1659   0.704   0.730   4.777
  545SOL     OW 1660   1.728   0.935   5.578
  545SOL    HW1 1661   1.682   0.928   5.489
  545SOL    HW2 1662   1.666   0.979   5.644
  546SOL     OW 1663   0.307   0.063   4.342
  546SOL    HW1 1664   0.296   0.157   4.375
  546SOL    HW2 1665   0.302   0.000   4.419
  547SOL     OW 1666   1.622   0.367   4.098
  547SOL    HW1 1667   1.624   0.291   4.162
  547SOL    HW2 1668   1.574   0.444   4.138
  548SOL     OW 1669   1.023   0.766   4.690
  548SOL    HW1 1670   1.038   0.787   4.786
  548SOL    HW2 1671   0.993   0.671   4.681
  549SOL     OW 1672   0.980   1.573   5.424
  549SOL    HW1 1673   0.960   1.617   5.336
  549SOL    HW2 1674   1.019   1.482   5.408
  550SOL     OW 1675   1.859   1.518   5.329
  550SOL    HW1 1676   1.873   1.545   5.234
  550SOL    HW2 1677   1.942   1.540   5.382
  551SOL     OW 1678   0.350   0.898   5.528
  551SOL    HW1 1679   0.426   0.942   5.576
  551SOL    HW2 1680   0.385   0.851   5.446
  552SOL     OW 1681   1.540   0.274   3.849
  552SOL    HW1 1682   1.479   0.199   3.872
  552SOL    HW2 1683   1.562   0.326   3.932
  553SOL     OW 1684   1.303   0.838   3.766
  553SOL    HW1 1685   1.337   0.745   3.781
  553SOL    HW2 1686   1.321   0.865   3.671
  554SOL     OW 1687   1.068   1.333   4.573
  554SOL    HW1 1688   1.075   1.249   4.518
  554SOL    HW2 1689   1.130   1.402   4.537
  555SOL     OW 1690   0.319   0.810   4.673
  555SOL    HW1 1691   0.412   0.846   4.678
  555SOL    HW2 1692   0.313   0.725   4.725
  556SOL     OW 1693   0.339   0.509   4.730
  556SOL    HW1 1694   0.287   0.426   4.713
  556SOL    HW2 1695   0.416   0.514   4.666
  557SOL     OW 1696   1.138   0.380   5.402
  557SOL    HW1 1697   1.093   0.443   5.466
  557SOL    HW2 1698   1.231   0.411   5.385
  558SOL     OW 1699   1.160   0.207   5.201
  558SOL    HW1 1700   1.160   0.271   5.278
  558SOL    HW2 1701   1.188   0.255   5.118
  559SOL     OW 1702   0.008   1.326   3.924
  559SOL    HW1 1703  -0.085   1.347   3.893
  559SOL    HW2 1704   0.018   1.227   3.937
  560SOL     OW 1705   0.088   1.801   4.651
  560SOL    HW1 1706   0.046   1.715   4.624
  560SOL    HW2 1707   0.182   1.804   4.617
  561SOL     OW 1708   0.504   1.568   4.634
  561SOL    HW1 1709   0.570   1.642   4.643
  561SOL    HW2 1710   0.548   1.489   4.592
  562SOL     OW 1711   1.002   0.796   4.962
  562SOL    HW1 1712   1.043   0.764   5.048
  562SOL    HW2 1713   0.906   0.769   4.959
  563SOL     OW 1714   0.040   0.544   4.838
  563SOL    HW1 1715   0.125   0.511   4.797
  563SOL    HW2 1716   0.053   0.559   4.936
  564SOL     OW 1717   0.189   0.520   5.446
  564SOL    HW1 1718   0.248   0.480   5.376
  564SOL    HW2 1719   0.131   0.591   5.405
  565SOL     OW 1720   1.369   0.950   5.384
  565SOL    HW1 1721   1.408   1.039   5.404
  565SOL    HW2 1722   1.379   0.930   5.287
  566SOL     OW 1723   0.815   0.572   4.049
  566SOL    HW1 1724   0.822   0.483   4.003
  566SOL    HW2 1725   0.721   0.606   4.041
  567SOL     OW 1726   1.657   0.604   4.930
  567SOL    HW1 1727   1.619   0.535   4.992
  567SOL    HW2 1728   1.739   0.568   4.886
  568SOL     OW 1729   0.252   1.564   5.468
  568SOL    HW1 1730   0.222   1.621   5.544
  568SOL    HW2 1731   0.245   1.467   5.494
  569SOL     OW 1732   0.671   0.464   4.993
  569SOL    HW1 1733   0.637   0.375   4.963
  569SOL    HW2 1734   0.697   0.518   4.913
  570SOL     OW 1735   0.930   1.678   5.189
  570SOL    HW1 1736   0.906   1.660   5.094
  570SOL    HW2 1737   0.960   1.772   5.199
  571SOL     OW 1738   0.473   0.500   3.915
  571SOL    HW1 1739   0.534   0.580   3.919
  571SOL    HW2 1740   0.378   0.531   3.922
  572SOL     OW 1741   0.159   1.137   5.190
  572SOL    HW1 1742   0.181   1.076   5.266
  572SOL    HW2 1743   0.169   1.088   5.104
  573SOL     OW 1744   1.347   1.059   4.958
  573SOL    HW1 1745   1.371   0.996   4.884
  573SOL    HW2 1746   1.257   1.099   4.940
  574SOL     OW 1747   1.302   0.855   4.033
  574SOL    HW1 1748   1.216   0.824   4.075
  574SOL    HW2 1749   1.298   0.841   3.934
  575SOL     OW 1750   1.759   1.747   4.878
  575SOL    HW1 1751   1.820   1.777   4.805
  575SOL    HW2 1752   1.721   1.658   4.856
  576SOL     OW 1753   1.252   1.731   4.852
  576SOL    HW1 1754   1.336   1.736   4.798
  576SOL    HW2 1755   1.229   1.635   4.870
  577SOL     OW 1756   0.083   1.258   4.746
  577SOL    HW1 1757   0.078   1.257   4.846
  577SOL    HW2 1758   0.000   1.217   4.708
  578SOL     OW 1759   0.688   1.662   5.440
  578SOL    HW1 1760   0.632   1.743   5.449
  578SOL    HW2 1761   0.740   1.666   5.354
  579SOL     OW 1762   1.726   0.135   4.247
  579SOL    HW1 1763   1.799   0.118   4.180
  579SOL    HW2 1764   1.695   0.048   4.285
  580SOL     OW 1765   1.388   1.573   4.201
  580SOL    HW1 1766   1.455   1.585   4.127
  580SOL    HW2 1767   1.348   1.662   4.224
  581SOL     OW 1768   0.130   1.794   5.575
  581SOL    HW1 1769   0.089   1.720   5.628
  581SOL    HW2 1770   0.194   1.845   5.633
  582SOL     OW 1771   1.280   0.927   4.396
  582SOL    HW1 1772   1.340   0.846   4.398
  582SOL    HW2 1773   1.320   0.996   4.336
  583SOL     OW 1774   0.830   1.273   5.146
  583SOL    HW1 1775   0.825   1.306   5.241
  583SOL    HW2 1776   0.744   1.292   5.100
  584SOL     OW 1777   0.672   1.616   3.878
  584SOL    HW1 1778   0.681   1.626   3.779
  584SOL    HW2 1779   0.632   1.527   3.899
  585SOL     OW 1780   1.650   1.720   5.118
  585SOL    HW1 1781   1.703   1.730   5.034
  585SOL    HW2 1782   1.623   1.810   5.152
  586SOL     OW 1783   1.841   0.175   4.687
  586SOL    HW1 1784   1.880   0.090   4.651
  586SOL    HW2 1785   1.743   0.177   4.668
  587SOL     OW 1786   0.263   0.326   4.444
  587SOL    HW1 1787   0.184   0.377   4.410
  587SOL    HW2 1788   0.254   0.311   4.542
  588SOL     OW 1789   1.194   1.612   3.755
  588SOL    HW1 1790   1.200   1.519   3.792
  588SOL    HW2 1791   1.135   1.612   3.675
  589SOL     OW 1792   0.822   1.002   5.096
  589SOL    HW1 1793   0.862   1.001   5.004
  589SOL    HW2 1794   0.832   1.094   5.136
  590SOL     OW 1795   0.916   0.910   4.015
  590SOL    HW1 1796   0.979   0.948   3.947
  590SOL    HW2 1797   0.956   0.827   4.054
  591SOL     OW 1798   1.504   1.607   3.768
  591SOL    HW1 1799   1.412   1.644   3.775
  591SOL    HW2 1800   1.542   1.627   3.678
  592SOL     OW 1801   0.372   1.288   5.214
  592SOL    HW1 1802   0.359   1.381   5.180
  592SOL    HW2 1803   0.288   1.236   5.201
  593SOL     OW 1804   1.614   1.292   5.013
  593SOL    HW1 1805   1.674   1.295   5.093
  593SOL    HW2 1806   1.539   1.356   5.026
  594SOL     OW 1807   1.039   1.098   4.420
  594SOL    HW1 1808   0.969   1.051   4.474
  594SOL    HW2 1809   1.098   1.030   4.377
  595SOL     OW 1810   1.014   0.236   4.695
  595SOL    HW1 1811   1.006   0.200   4.602
  595SOL    HW2 1812   1.012   0.160   4.760
  596SOL     OW 1813   0.590   1.487   4.215
  596SOL    HW1 1814   0.632   1.429   4.145
  596SOL    HW2 1815   0.546   1.566   4.171
  597SOL     OW 1816   1.709   0.385   5.105
  597SOL    HW1 1817   1.782   0.454   5.109
  597SOL    HW2 1818   1.737   0.310   5.046
  598SOL     OW 1819   0.255   1.348   4.014
  598SOL    HW1 1820   0.159   1.349   3.987
  598SOL    HW2 1821   0.267   1.401   4.098
  599SOL     OW 1822   0.105   1.013   5.450
  599SOL    HW1 1823   0.028   0.980   5.504
  599SOL    HW2 1824   0.190   0.983   5.492
  600SOL     OW 1825   0.672   0.203   5.213
  600SOL    HW1 1826   0.762   0.187   5.173
  600SOL    HW2 1827   0.680   0.208   5.312
  601SOL     OW 1828   0.075   0.345   3.757
  601SOL    HW1 1829  -0.017   0.317   3.728
  601SOL    HW2 1830   0.106   0.422   3.701
  602SOL     OW 1831   1.440   0.856   5.122
  602SOL    HW1 1832   1.383   0.908   5.059
  602SOL    HW2 1833   1.536   0.868   5.098
  603SOL     OW 1834   0.072   0.166   4.042
  603SOL    HW1 1835   0.055   0.249   3.988
  603SOL    HW2 1836   0.162   0.129   4.020
  604SOL     OW 1837   1.183   1.335   3.843
  604SOL    HW1 1838   1.084   1.324   3.845
  604SOL    HW2 1839   1.217   1.350   3.936
  605SOL     OW 1840   0.613   0.842   5.155
  605SOL    HW1 1841   0.669   0.923   5.138
  605SOL    HW2 1842   0.672   0.762   5.158
  606SOL     OW 1843   1.493   1.767   4.683
  606SOL    HW1 1844   1.526   1.831   4.614
  606SOL    HW2 1845   1.559   1.761   4.758
  607SOL     OW 1846   0.716   0.565   5.432
  607SOL    HW1 1847   0.735   0.630   5.506
  607SOL    HW2 1848   0.776   0.485   5.441
  608SOL     OW 1849   1.450   1.220   5.357
  608SOL    HW1 1850   1.441   1.210   5.456
  608SOL    HW2 1851   1.546   1.213   5.331
  609SOL     OW 1852   0.390   1.741   5.284
  609SOL    HW1 1853   0.299   1.782   5.282
  609SOL    HW2 1854   0.383   1.647   5.316
  610SOL     OW 1855   1.674   0.883   4.978
  610SOL    HW1 1856   1.647   0.794   4.941
  610SOL    HW2 1857   1.675   0.951   4.905
  611SOL     OW 1858   1.225   0.325   4.173
  611SOL    HW1 1859   1.290   0.251   4.162
  611SOL    HW2 1860   1.245   0.375   4.257
  612SOL     OW 1861   0.594   0.745   4.376
  612SOL    HW1 1862   0.644   0.830   4.357
  612SOL    HW2 1863   0.506   0.747   4.328
  613SOL     OW 1864   1.777   0.342   5.366
  613SOL    HW1 1865   1.760   0.373   5.272
  613SOL    HW2 1866   1.693   0.305   5.404
  614SOL     OW 1867   1.730   0.934   5.241
  614SOL    HW1 1868   1.768   1.025   5.256
  614SOL    HW2 1869   1.722   0.917   5.142
  615SOL     OW 1870   0.859   1.374   3.740
  615SOL    HW1 1871   0.813   1.389   3.828
  615SOL    HW2 1872   0.903   1.459   3.710
  616SOL     OW 1873   0.661   1.790   4.677
  616SOL    HW1 1874   0.615   1.878   4.664
  616SOL    HW2 1875   0.760   1.802   4.670
  617SOL     OW 1876   0.859   0.956   4.585
  617SOL    HW1 1877   0.913   0.887   4.633
  617SOL    HW2 1878   0.827   1.025   4.651
  618SOL     OW 1879   1.083   0.984   3.811
  618SOL    HW1 1880   1.060   1.037   3.729
  618SOL    HW2 1881   1.164   0.928   3.792
  619SOL     OW 1882   1.861   1.569   4.575
  619SOL    HW1 1883   1.790   1.557   4.505
  619SOL    HW2 1884   1.862   1.490   4.635
  620SOL     OW 1885   0.221   1.314   5.568
  620SOL    HW1 1886   0.156   1.241   5.547
  620SOL    HW2 1887   0.225   1.328   5.666
  621SOL     OW 1888   0.079   1.240   4.377
  621SOL    HW1 1889   0.078   1.193   4.465
  621SOL    HW2 1890   0.161   1.212   4.326
  622SOL     OW 1891   0.672   1.391   5.348
  622SOL    HW1 1892   0.594   1.341   5.386
  622SOL    HW2 1893   0.669   1.486   5.379
  623SOL     OW 1894   1.824   0.192   4.951
  623SOL    HW1 1895   1.820   0.102   4.995
  623SOL    HW2 1896   1.827   0.181   4.852
  624SOL     OW 1897   0.428   0.424   4.244
  624SOL    HW1 1898   0.458   0.352   4.182
  624SOL    HW2 1899   0.389   0.384   4.327
  625SOL     OW 1900   1.705   1.487   4.828
  625SOL    HW1 1901   1.612   1.462   4.801
  625SOL    HW2 1902   1.731   1.437   4.910
  626SOL     OW 1903   0.317   0.547   5.004
  626SOL    HW1 1904   0.355   0.488   5.076
  626SOL    HW2 1905   0.357   0.521   4.916
  627SOL     OW 1906   0.812   1.586   4.411
  627SOL    HW1 1907   0.844   1.596   4.317
  627SOL    HW2 1908   0.733   1.524   4.413
  628SOL     OW 1909   1.424   0.214   4.836
  628SOL    HW1 1910   1.476   0.149   4.891
  628SOL    HW2 1911   1.375   0.277   4.897
  629SOL     OW 1912   1.001   0.034   4.878
  629SOL    HW1 1913   0.938  -0.038   4.847
  629SOL    HW2 1914   1.094  -0.002   4.878
  630SOL     OW 1915   0.770   1.330   4.025
  630SOL    HW1 1916   0.724   1.243   4.042
  630SOL    HW2 1917   0.861   1.327   4.066
  631SOL     OW 1918   0.618   1.567   5.008
  631SOL    HW1 1919   0.613   1.649   5.065
  631SOL    HW2 1920   0.707   1.564   4.963
  632SOL     OW 1921   1.352   0.052   3.892
  632SOL    HW1 1922   1.387   0.011   3.808
  632SOL    HW2 1923   1.262   0.014   3.912
  633SOL     OW 1924   1.300   0.453   4.415
  633SOL    HW1 1925   1.241   0.533   4.419
  633SOL    HW2 1926   1.315   0.418   4.508
  634SOL     OW 1927   1.593   0.221   4.606
  634SOL    HW1 1928   1.509   0.220   4.660
  634SOL    HW2 1929   1.595   0.304   4.550
  635SOL     OW 1930   0.039   1.077   4.024
  635SOL    HW1 1931   0.138   1.066   4.015
  635SOL    HW2 1932  -0.001   0.991   4.056
  636SOL     OW 1933   0.875   1.646   4.061
  636SOL    HW1 1934   0.798   1.611   4.007
  636SOL    HW2 1935   0.843   1.717   4.123
  637SOL     OW 1936   0.230   0.628   5.699
  637SOL    HW1 1937   0.137   0.626   5.736
  637SOL    HW2 1938   0.231   0.589   5.607
  638SOL     OW 1939   0.225   0.275   6.582
  638SOL    HW1 1940   0.260   0.258   6.674
  638SOL    HW2 1941   0.137   0.230   6.570
  639SOL     OW 1942   0.019   0.368   6.233
  639SOL    HW1 1943  -0.063   0.411   6.272
  639SOL    HW2 1944  -0.009   0.295   6.170
  640SOL     OW 1945   0.569   1.275   6.751
  640SOL    HW1 1946   0.476   1.268   6.714
  640SOL    HW2 1947   0.580   1.364   6.795
  641SOL     OW 1948   1.555   1.511   6.289
  641SOL    HW1 1949   1.498   1.495   6.370
  641SOL    HW2 1950   1.496   1.521   6.209
  642SOL     OW 1951   1.135   0.703   6.303
  642SOL    HW1 1952   1.192   0.781   6.278
  642SOL    HW2 1953   1.075   0.729   6.379
  643SOL     OW 1954   1.755   0.607   5.817
  643SOL    HW1 1955   1.743   0.594   5.718
  643SOL    HW2 1956   1.725   0.526   5.866
  644SOL     OW 1957   0.768   1.144   6.609
  644SOL    HW1 1958   0.690   1.161   6.669
  644SOL    HW2 1959   0.802   1.231   6.573
  645SOL     OW 1960   0.850   0.798   7.409
  645SOL    HW1 1961   0.846   0.874   7.474
  645SOL    HW2 1962   0.872   0.834   7.318
  646SOL     OW 1963   0.685   1.012   6.251
  646SOL    HW1 1964   0.754   0.996   6.321
  646SOL    HW2 1965   0.612   1.069   6.289
  647SOL     OW 1966   0.686   1.161   7.389
  647SOL    HW1 1967   0.746   1.240   7.403
  647SOL    HW2 1968   0.600   1.192   7.348
  648SOL     OW 1969   0.335   1.435   6.647
  648SOL    HW1 1970   0.257   1.404   6.594
  648SOL    HW2 1971   0.393   1.493   6.590
  649SOL     OW 1972   1.460   1.505   6.925
  649SOL    HW1 1973   1.484   1.599   6.951
  649SOL    HW2 1974   1.444   1.451   7.007
  650SOL     OW 1975   0.438   0.392   7.085
  650SOL    HW1 1976   0.520   0.336   7.094
  650SOL    HW2 1977   0.357   0.334   7.089
  651SOL     OW 1978   1.603   0.447   6.323
  651SOL    HW1 1979   1.529   0.493   6.273
  651SOL    HW2 1980   1.654   0.515   6.376
  652SOL     OW 1981   0.231   1.713   6.069
  652SOL    HW1 1982   0.265   1.790   6.123
  652SOL    HW2 1983   0.275   1.713   5.979
  653SOL     OW 1984   1.127   1.341   7.276
  653SOL    HW1 1985   1.174   1.341   7.364
  653SOL    HW2 1986   1.079   1.254   7.265
  654SOL     OW 1987   0.230   1.434   6.124
  654SOL    HW1 1988   0.204   1.530   6.124
  654SOL    HW2 1989   0.159   1.380   6.169
  655SOL     OW 1990   0.240   1.091   6.472
  655SOL    HW1 1991   0.254   1.007   6.524
  655SOL    HW2 1992   0.185   1.155   6.527
  656SOL     OW 1993   0.620   1.786   7.025
  656SOL    HW1 1994   0.528   1.769   7.060
  656SOL    HW2 1995   0.648   1.878   7.051
  657SOL     OW 1996   0.606   0.964   5.709
  657SOL    HW1 1997   0.613   1.048   5.655
  657SOL    HW2 1998   0.652   0.977   5.797
  658SOL     OW 1999   1.594   0.114   7.066
  658SOL    HW1 2000   1.576   0.181   6.994
  658SOL    HW2 2001   1.591   0.160   7.155
  659SOL     OW 2002   0.122   0.643   6.149
  659SOL    HW1 2003   0.077   0.555   6.166
  659SOL    HW2 2004   0.121   0.697   6.233
  660SOL     OW 2005   1.842   1.767   5.945
  660SOL    HW1 2006   1.896   1.738   6.025
  660SOL    HW2 2007   1.872   1.857   5.916
  661SOL     OW 2008   0.027   1.596   5.703
  661SOL    HW1 2009   0.008   1.500   5.724
  661SOL    HW2 2010  -0.006   1.654   5.778
  662SOL     OW 2011   1.689   0.922   6.198
  662SOL    HW1 2012   1.784   0.893   6.206
  662SOL    HW2 2013   1.681   0.987   6.123
  663SOL     OW 2014   1.641   1.108   6.018
  663SOL    HW1 2015   1.727   1.110   5.966
  663SOL    HW2 2016   1.655   1.155   6.106
  664SOL     OW 2017   0.113   0.737   7.183
  664SOL    HW1 2018   0.201   0.724   7.228
  664SOL    HW2 2019   0.100   0.834   7.161
  665SOL     OW 2020   0.613   1.365   6.312
  665SOL    HW1 2021   0.564   1.278   6.321
  665SOL    HW2 2022   0.590   1.408   6.225
  666SOL     OW 2023   1.293   1.228   7.009
  666SOL    HW1 2024   1.330   1.155   6.951
  666SOL    HW2 2025   1.345   1.233   7.094
  667SOL     OW 2026   0.809   0.004   6.088
  667SOL    HW1 2027   0.849   0.095   6.079
  667SOL    HW2 2028   0.709   0.012   6.094
  668SOL     OW 2029   0.197   0.976   6.850
  668SOL    HW1 2030   0.286   0.931   6.836
  668SOL    HW2 2031   0.124   0.911   6.831
  669SOL     OW 2032   1.525   0.999   5.776
  669SOL    HW1 2033   1.462   0.923   5.789
  669SOL    HW2 2034   1.573   1.017   5.862
  670SOL     OW 2035   1.187   1.792   7.202
  670SOL    HW1 2036   1.211   1.852   7.126
  670SOL    HW2 2037   1.194   1.697   7.172
  671SOL     OW 2038   0.317   0.251   7.387
  671SOL    HW1 2039   0.388   0.322   7.393
  671SOL    HW2 2040   0.229   0.290   7.415
  672SOL     OW 2041   1.466   1.417   6.539
  672SOL    HW1 2042   1.407   1.423   6.619
  672SOL    HW2 2043   1.451   1.329   6.493
  673SOL     OW 2044   1.667   1.714   6.158
  673SOL    HW1 2045   1.626   1.691   6.070
  673SOL    HW2 2046   1.649   1.640   6.223
  674SOL     OW 2047   0.598   0.729   5.856
  674SOL    HW1 2048   0.622   0.798   5.788
  674SOL    HW2 2049   0.520   0.762   5.910
  675SOL     OW 2050   1.281   0.345   6.530
  675SOL    HW1 2051   1.195   0.295   6.517
  675SOL    HW2 2052   1.343   0.291   6.586
  676SOL     OW 2053   1.576   1.662   5.893
  676SOL    HW1 2054   1.665   1.708   5.896
  676SOL    HW2 2055   1.555   1.638   5.798
  677SOL     OW 2056   0.807   0.605   7.051
  677SOL    HW1 2057   0.760   0.602   7.140
  677SOL    HW2 2058   0.756   0.550   6.985
  678SOL     OW 2059   1.394   0.469   7.260
  678SOL    HW1 2060   1.374   0.512   7.348
  678SOL    HW2 2061   1.472   0.407   7.269
  679SOL     OW 2062   0.973   0.890   7.158
  679SOL    HW1 2063   1.019   0.806   7.129
  679SOL    HW2 2064   0.917   0.924   7.083
  680SOL     OW 2065   0.991   0.410   6.828
  680SOL    HW1 2066   0.914   0.444   6.882
  680SOL    HW2 2067   0.957   0.359   6.749
  681SOL     OW 2068   1.041   0.701   6.015
  681SOL    HW1 2069   1.067   0.697   6.111
  681SOL    HW2 2070   0.956   0.650   6.001
  682SOL     OW 2071   0.076   0.811   6.375
  682SOL    HW1 2072   0.175   0.799   6.384
  682SOL    HW2 2073   0.052   0.906   6.396
  683SOL     OW 2074   0.130   1.821   7.157
  683SOL    HW1 2075   0.120   1.806   7.256
  683SOL    HW2 2076   0.044   1.857   7.121
  684SOL     OW 2077   0.865   0.348   5.781
  684SOL    HW1 2078   0.924   0.411   5.732
  684SOL    HW2 2079   0.884   0.254   5.752
  685SOL     OW 2080   1.719   0.585   7.417
  685SOL    HW1 2081   1.693   0.674   7.381
  685SOL    HW2 2082   1.717   0.517   7.344
  686SOL     OW 2083   1.362   1.144   6.131
  686SOL    HW1 2084   1.445   1.115   6.083
  686SOL    HW2 2085   1.313   1.211   6.075
  687SOL     OW 2086   0.550   0.196   6.471
  687SOL    HW1 2087   0.545   0.191   6.571
  687SOL    HW2 2088   0.552   0.292   6.442
  688SOL     OW 2089   1.008   1.456   6.063
  688SOL    HW1 2090   0.962   1.528   6.011
  688SOL    HW2 2091   1.004   1.476   6.161
  689SOL     OW 2092   0.351   1.801   6.439
  689SOL    HW1 2093   0.401   1.715   6.445
  689SOL    HW2 2094   0.416   1.878   6.436
  690SOL     OW 2095   1.795   1.066   6.459
  690SOL    HW1 2096   1.733   1.051   6.383
  690SOL    HW2 2097   1.743   1.077   6.544
  691SOL     OW 2098   1.227   1.550   7.092
  691SOL    HW1 2099   1.233   1.473   7.156
  691SOL    HW2 2100   1.175   1.524   7.012
  692SOL     OW 2101   0.321   0.943   5.828
  692SOL    HW1 2102   0.403   0.982   5.786
  692SOL    HW2 2103   0.294   0.861   5.779
  693SOL     OW 2104   1.458   0.735   6.314
  693SOL    HW1 2105   1.453   0.670   6.389
  693SOL    HW2 2106   1.538   0.794   6.327
  694SOL     OW 2107   0.461   1.266   7.313
  694SOL    HW1 2108   0.411   1.267   7.227
  694SOL    HW2 2109   0.398   1.248   7.389
  695SOL     OW 2110   1.111   1.776   5.823
  695SOL    HW1 2111   1.051   1.714   5.873
  695SOL    HW2 2112   1.142   1.732   5.738
  696SOL     OW 2113   0.202   0.285   7.084
  696SOL    HW1 2114   0.122   0.345   7.071
  696SOL    HW2 2115   0.192   0.236   7.170
  697SOL     OW 2116   1.632   1.377   5.667
  697SOL    HW1 2117   1.600   1.471   5.657
  697SOL    HW2 2118   1.556   1.314   5.655
  698SOL     OW 2119   0.464   1.743   5.909
  698SOL    HW1 2120   0.497   1.782   5.995
  698SOL    HW2 2121   0.540   1.736   5.844
  699SOL     OW 2122   1.400   0.107   6.012
  699SOL    HW1 2123   1.376   0.070   5.922
  699SOL    HW2 2124   1.499   0.123   6.016
  700SOL     OW 2125   0.249   1.785   6.827
  700SOL    HW1 2126   0.306   1.720   6.877
  700SOL    HW2 2127   0.233   1.752   6.734
  701SOL     OW 2128   0.940   1.698   6.490
  701SOL    HW1 2129   1.020   1.641   6.511
  701SOL    HW2 2130   0.891   1.658   6.413
  702SOL     OW 2131   0.382   0.700   6.066
  702SOL    HW1 2132   0.427   0.610   6.063
  702SOL    HW2 2133   0.288   0.689   6.099
  703SOL     OW 2134   1.547   0.222   7.315
  703SOL    HW1 2135   1.542   0.259   7.407
  703SOL    HW2 2136   1.475   0.153   7.303
  704SOL     OW 2137   0.614   0.122   5.703
  704SOL    HW1 2138   0.712   0.100   5.710
  704SOL    HW2 2139   0.583   0.105   5.610
  705SOL     OW 2140   0.781   0.264   7.335
  705SOL    HW1 2141   0.848   0.203   7.378
  705SOL    HW2 2142   0.708   0.283   7.400
  706SOL     OW 2143   0.888   1.514   6.781
  706SOL    HW1 2144   0.865   1.489   6.687
  706SOL    HW2 2145   0.949   1.445   6.820
  707SOL     OW 2146   1.351   0.590   7.019
  707SOL    HW1 2147   1.379   0.547   7.104
  707SOL    HW2 2148   1.376   0.686   7.020
  708SOL     OW 2149   0.803   1.402   6.510
  708SOL    HW1 2150   0.893   1.416   6.468
  708SOL    HW2 2151   0.732   1.404   6.439
  709SOL     OW 2152   0.922   0.503   6.485
  709SOL    HW1 2153   0.897   0.494   6.389
  709SOL    HW2 2154   0.970   0.421   6.516
  710SOL     OW 2155   0.539   0.064   6.098
  710SOL    HW1 2156   0.458   0.065   6.156
  710SOL    HW2 2157   0.542   0.147   6.043
  711SOL     OW 2158   1.434   1.188   5.627
  711SOL    HW1 2159   1.466   1.112   5.684
  711SOL    HW2 2160   1.342   1.215   5.657
  712SOL     OW 2161   0.297   0.035   5.757
  712SOL    HW1 2162   0.346   0.119   5.736
  712SOL    HW2 2163   0.359  -0.030   5.802
  713SOL     OW 2164   0.935   0.236   6.066
  713SOL    HW1 2165   0.887   0.277   5.988
  713SOL    HW2 2166   1.034   0.234   6.047
  714SOL     OW 2167   1.076   0.683   7.050
  714SOL    HW1 2168   0.996   0.622   7.053
  714SOL    HW2 2169   1.157   0.630   7.026
  715SOL     OW 2170   1.227   1.570   6.379
  715SOL    HW1 2171   1.248   1.644   6.314
  715SOL    HW2 2172   1.295   1.570   6.452
  716SOL     OW 2173   0.459   1.152   6.327
  716SOL    HW1 2174   0.388   1.125   6.392
  716SOL    HW2 2175   0.433   1.124   6.234
  717SOL     OW 2176   1.271   1.797   6.177
  717SOL    HW1 2177   1.315   1.861   6.113
  717SOL    HW2 2178   1.221   1.849   6.247
  718SOL     OW 2179   1.032   0.549   5.602
  718SOL    HW1 2180   0.991   0.631   5.563
  718SOL    HW2 2181   1.096   0.575   5.675
  719SOL     OW 2182   0.078   0.556   6.972
  719SOL    HW1 2183   0.170   0.555   6.931
  719SOL    HW2 2184   0.072   0.630   7.039
  720SOL     OW 2185   0.561   0.222   6.733
  720SOL    HW1 2186   0.599   0.138   6.770
  720SOL    HW2 2187   0.473   0.241   6.777
  721SOL     OW 2188   0.866   0.454   6.228
  721SOL    HW1 2189   0.834   0.526   6.166
  721SOL    HW2 2190   0.890   0.373   6.175
  722SOL     OW 2191   1.017   0.039   6.339
  722SOL    HW1 2192   0.945   0.044   6.270
  722SOL    HW2 2193   0.993  -0.030   6.408
  723SOL     OW 2194   1.429   1.173   6.453
  723SOL    HW1 2195   1.374   1.089   6.446
  723SOL    HW2 2196   1.455   1.202   6.361
  724SOL     OW 2197   1.466   0.590   6.578
  724SOL    HW1 2198   1.436   0.495   6.585
  724SOL    HW2 2199   1.539   0.606   6.644
  725SOL     OW 2200   1.857   0.833   5.963
  725SOL    HW1 2201   1.899   0.769   6.027
  725SOL    HW2 2202   1.819   0.782   5.885
  726SOL     OW 2203   0.488   1.385   5.760
  726SOL    HW1 2204   0.401   1.370   5.807
  726SOL    HW2 2205   0.471   1.411   5.665
  727SOL     OW 2206   1.664   1.280   6.243
  727SOL    HW1 2207   1.763   1.288   6.257
  727SOL    HW2 2208   1.619   1.364   6.274
  728SOL     OW 2209   1.390   0.575   5.664
  728SOL    HW1 2210   1.336   0.554   5.745
  728SOL    HW2 2211   1.481   0.534   5.673
  729SOL     OW 2212   0.527   0.256   5.914
  729SOL    HW1 2213   0.554   0.197   5.839
  729SOL    HW2 2214   0.527   0.351   5.883
  730SOL     OW 2215   1.754   1.223   7.174
  730SOL    HW1 2216   1.845   1.184   7.161
  730SOL    HW2 2217   1.762   1.319   7.198
  731SOL     OW 2218   1.064   1.347   6.926
  731SOL    HW1 2219   0.984   1.324   6.981
  731SOL    HW2 2220   1.147   1.321   6.975
  732SOL     OW 2221   1.592   1.629   7.211
  732SOL    HW1 2222   1.619   1.663   7.121
  732SOL    HW2 2223   1.671   1.591   7.257
  733SOL     OW 2224   1.111   1.195   6.686
  733SOL    HW1 2225   1.071   1.239   6.767
  733SOL    HW2 2226   1.070   1.232   6.603
  734SOL     OW 2227   1.638   1.099   6.665
  734SOL    HW1 2228   1.643   1.180   6.724
  734SOL    HW2 2229   1.552   1.101   6.614
  735SOL     OW 2230   0.915   0.089   6.988
  735SOL    HW1 2231   0.940   0.069   6.893
  735SOL    HW2 2232   0.987   0.145   7.030
  736SOL     OW 2233   0.980   1.116   7.305
  736SOL    HW1 2234   0.881   1.122   7.315
  736SOL    HW2 2235   1.003   1.036   7.249
  737SOL     OW 2236   0.705   1.050   5.954
  737SOL    HW1 2237   0.691   1.057   6.053
  737SOL    HW2 2238   0.789   0.999   5.936
  738SOL     OW 2239   0.410   0.813   6.837
  738SOL    HW1 2240   0.496   0.825   6.887
  738SOL    HW2 2241   0.368   0.726   6.864
  739SOL     OW 2242   1.274   0.386   6.848
  739SOL    HW1 2243   1.295   0.460   6.912
  739SOL    HW2 2244   1.185   0.403   6.805
  740SOL     OW 2245   0.064   1.564   6.917
  740SOL    HW1 2246   0.018   1.646   6.883
  740SOL    HW2 2247   0.162   1.583   6.926
  741SOL     OW 2248   0.367   1.100   6.087
  741SOL    HW1 2249   0.360   1.183   6.031
  741SOL    HW2 2250   0.371   1.020   6.027
  742SOL     OW 2251   0.566   0.537   6.451
  742SOL    HW1 2252   0.578   0.603   6.377
  742SOL    HW2 2253   0.612   0.571   6.534
  743SOL     OW 2254   1.252   1.348   5.974
  743SOL    HW1 2255   1.302   1.425   6.014
  743SOL    HW2 2256   1.157   1.350   6.006
  744SOL     OW 2257   1.272   1.445   6.728
  744SOL    HW1 2258   1.319   1.458   6.815
  744SOL    HW2 2259   1.206   1.371   6.737
  745SOL     OW 2260   1.582   0.639   6.058
  745SOL    HW1 2261   1.551   0.700   6.131
  745SOL    HW2 2262   1.632   0.691   5.989
  746SOL     OW 2263   0.354   1.510   6.915
  746SOL    HW1 2264   0.333   1.466   6.828
  746SOL    HW2 2265   0.451   1.536   6.918
  747SOL     OW 2266   0.402   0.751   7.184
  747SOL    HW1 2267   0.470   0.806   7.137
  747SOL    HW2 2268   0.442   0.663   7.211
  748SOL     OW 2269   1.587   0.779   7.256
  748SOL    HW1 2270   1.495   0.817   7.251
  748SOL    HW2 2271   1.647   0.826   7.191
  749SOL     OW 2272   1.013   0.105   7.356
  749SOL    HW1 2273   1.019   0.190   7.304
  749SOL    HW2 2274   1.045   0.029   7.299
  750SOL     OW 2275   0.504   0.050   7.326
  750SOL    HW1 2276   0.462  -0.007   7.256
  750SOL    HW2 2277   0.438   0.119   7.358
  751SOL     OW 2278   0.573   0.870   6.615
  751SOL    HW1 2279   0.617   0.959   6.606
  751SOL    HW2 2280   0.510   0.870   6.692
  752SOL     OW 2281   1.360   0.862   6.631
  752SOL    HW1 2282   1.285   0.862   6.565
  752SOL    HW2 2283   1.397   0.770   6.640
  753SOL     OW 2284   1.209   0.525   5.861
  753SOL    HW1 2285   1.222   0.441   5.915
  753SOL    HW2 2286   1.180   0.599   5.921
  754SOL     OW 2287   0.307   0.213   6.817
  754SOL    HW1 2288   0.284   0.250   6.907
  754SOL    HW2 2289   0.277   0.118   6.811
  755SOL     OW 2290   0.037   1.310   6.868
  755SOL    HW1 2291   0.090   1.261   6.936
  755SOL    HW2 2292   0.059   1.408   6.873
  756SOL     OW 2293   0.732   0.634   6.650
  756SOL    HW1 2294   0.791   0.608   6.574
  756SOL    HW2 2295   0.704   0.730   6.639
  757SOL     OW 2296   1.728   0.935   7.440
  757SOL    HW1 2297   1.682   0.928   7.351
  757SOL    HW2 2298   1.666   0.979   7.506
  758SOL     OW 2299   0.307   0.063   6.204
  758SOL    HW1 2300   0.296   0.157   6.237
  758SOL    HW2 2301   0.302   0.000   6.281
  759SOL     OW 2302   1.622   0.367   5.960
  759SOL    HW1 2303   1.624   0.291   6.024
  759SOL    HW2 2304   1.574   0.444   6.000
  760SOL     OW 2305   1.023   0.766   6.552
  760SOL    HW1 2306   1.038   0.787   6.648
  760SOL    HW2 2307   0.993   0.671   6.543
  761SOL     OW 2308   0.980   1.573   7.286
  761SOL    HW1 2309   0.960   1.617   7.198
  761SOL    HW2 2310   1.019   1.482   7.270
  762SOL     OW 2311   1.859   1.518   7.191
  762SOL    HW1 2312   1.873   1.545   7.096
  762SOL    HW2 2313   1.942   1.540   7.244
  763SOL     OW 2314   0.350   0.898   7.390
  763SOL    HW1 2315   0.426   0.942   7.438
  763SOL    HW2 2316   0.385   0.851   7.308
  764SOL     OW 2317   1.540   0.274   5.711
  764SOL    HW1 2318   1.479   0.199   5.734
  764SOL    HW2 2319   1.562   0.326   5.794
  765SOL     OW 2320   1.303   0.838   5.628
  765SOL    HW1 2321   1.337   0.745   5.643
  765SOL    HW2 2322   1.321   0.865   5.533
  766SOL     OW 2323   1.068   1.333   6.435
  766SOL    HW1 2324   1.075   1.249   6.380
  766SOL    HW2 2325   1.130   1.402   6.399
  767SOL     OW 2326   0.319   0.810   6.535
  767SOL    HW1 2327   0.412   0.846   6.540
  767SOL    HW2 2328   0.313   0.725   6.587
  768SOL     OW 2329   0.339   0.509   6.592
  768SOL    HW1 2330   0.287   0.426   6.575
  768SOL    HW2 2331   0.416   0.514   6.528
  769SOL     OW 2332   1.138   0.380   7.264
  769SOL    HW1 2333   1.093   0.443   7.328
  769SOL    HW2 2334   1.231   0.411   7.247
  770SOL     OW 2335   1.160   0.207   7.063
  770SOL    HW1 2336   1.160   0.271   7.140
  770SOL    HW2 2337   1.188   0.255   6.980
  771SOL     OW 2338   0.008   1.326   5.786
  771SOL    HW1 2339  -0.085   1.347   5.755
  771SOL    HW2 2340   0.018   1.227   5.799
  772SOL     OW 2341   0.088   1.801   6.513
  772SOL    HW1 2342   0.046   1.715   6.486
  772SOL    HW2 2343   0.182   1.804   6.479
  773SOL     OW 2344   0.504   1.568   6.496
  773SOL    HW1 2345   0.570   1.642   6.505
  773SOL    HW2 2346   0.548   1.489   6.454
  774SOL     OW 2347   1.002   0.796   6.824
  774SOL    HW1 2348   1.043   0.764   6.910
  774SOL    HW2 2349   0.906   0.769   6.821
  775SOL     OW 2350   0.040   0.544   6.700
  775SOL    HW1 2351   0.125   0.511   6.659
  775SOL    HW2 2352   0.053   0.559   6.798
  776SOL     OW 2353   0.189   0.520   7.308
  776SOL    HW1 2354   0.248   0.480   7.238
  776SOL    HW2 2355   0.131   0.591   7.267
  777SOL     OW 2356   1.369   0.950   7.246
  777SOL    HW1 2357   1.408   1.039   7.266
  777SOL    HW2 2358   1.379   0.930   7.149
  778SOL     OW 2359   0.815   0.572   5.911
  778SOL    HW1 2360   0.822   0.483   5.865
  778SOL    HW2 2361   0.721   0.606   5.903
  779SOL     OW 2362   1.657   0.604   6.792
  779SOL    HW1 2363   1.619   0.535   6.854
  779SOL    HW2 2364   1.739   0.568   6.748
  780SOL     OW 2365   0.252   1.564   7.330
  780SOL    HW1 2366   0.222   1.621   7.406
  780SOL    HW2 2367   0.245   1.467   7.356
  781SOL     OW 2368   0.671   0.464   6.855
  781SOL    HW1 2369   0.637   0.375   6.825
  781SOL    HW2 2370   0.697   0.518   6.775
  782SOL     OW 2371   0.930   1.678   7.051
  782SOL    HW1 2372   0.906   1.660   6.956
  782SOL    HW2 2373   0.960   1.772   7.061
  783SOL     OW 2374   0.473   0.500   5.777
  783SOL    HW1 2375   0.534   0.580   5.781
  783SOL    HW2 2376   0.378   0.531   5.784
  784SOL     OW 2377   0.159   1.137   7.052
  784SOL    HW1 2378   0.181   1.076   7.128
  784SOL    HW2 2379   0.169   1.088   6.966
  785SOL     OW 2380   1.347   1.059   6.820
  785SOL    HW1 2381   1.371   0.996   6.746
  785SOL    HW2 2382   1.257   1.099   6.802
  786SOL     OW 2383   1.759   1.747   6.740
  786SOL    HW1 2384   1.820   1.777   6.667
  786SOL    HW2 2385   1.721   1.658   6.718
  787SOL     OW 2386   1.252   1.731   6.714
  787SOL    HW1 2387   1.336   1.736   6.660
  787SOL    HW2 2388   1.229   1.635   6.732
  788SOL     OW 2389   0.083   1.258   6.608
  788SOL    HW1 2390   0.078   1.257   6.708
  788SOL    HW2 2391   0.000   1.217   6.570
  789SOL     OW 2392   0.688   1.662   7.302
  789SOL    HW1 2393   0.632   1.743   7.311
  789SOL    HW2 2394   0.740   1.666   7.216
  790SOL     OW 2395   1.726   0.135   6.109
  790SOL    HW1 2396   1.799   0.118   6.042
  790SOL    HW2 2397   1.695   0.048   6.147
  791SOL     OW 2398   1.388   1.573   6.063
  791SOL    HW1 2399   1.455   1.585   5.989
  791SOL    HW2 2400   1.348   1.662   6.086
  792SOL     OW 2401   0.130   1.794   7.437
  792SOL    HW1 2402   0.089   1.720   7.490
  792SOL    HW2 2403   0.194   1.845   7.495
  793SOL     OW 2404   1.280   0.927   6.258
  793SOL    HW1 2405   1.340   0.846   6.260
  793SOL    HW2 2406   1.320   0.996   6.198
  794SOL     OW 2407   0.830   1.273   7.008
  794SOL    HW1 2408   0.825   1.306   7.103
  794SOL    HW2 2409   0.744   1.292   6.962
  795SOL     OW 2410   0.672   1.616   5.740
  795SOL    HW1 2411   0.681   1.626   5.641
  795SOL    HW2 2412   0.632   1.527   5.761
  796SOL     OW 2413   1.650   1.720   6.980
  796SOL    HW1 2414   1.703   1.730   6.896
  796SOL    HW2 2415   1.623   1.810   7.014
  797SOL     OW 2416   1.841   0.175   6.549
  797SOL    HW1 2417   1.880   0.090   6.513
  797SOL    HW2 2418   1.743   0.177   6.530
  798SOL     OW 2419   0.263   0.326   6.306
  798SOL    HW1 2420   0.184   0.377   6.272
  798SOL    HW2 2421   0.254   0.311   6.404
  799SOL     OW 2422   1.194   1.612   5.617
  799SOL    HW1 2423   1.200   1.519   5.654
  799SOL    HW2 2424   1.135   1.612   5.537
  800SOL     OW 2425   0.822   1.002   6.958
  800SOL    HW1 2426   0.862   1.001   6.866
  800SOL    HW2 2427   0.832   1.094   6.998
  801SOL     OW 2428   0.916   0.910   5.877
  801SOL    HW1 2429   0.979   0.948   5.809
  801SOL    HW2 2430   0.956   0.827   5.916
  802SOL     OW 2431   1.504   1.607   5.630
  802SOL    HW1 2432   1.412   1.644   5.637
  802SOL    HW2 2433   1.542   1.627   5.540
  803SOL     OW 2434   0.372   1.288   7.076
  803SOL    HW1 2435   0.359   1.381   7.042
  803SOL    HW2 2436   0.288   1.236   7.063
  804SOL     OW 2437   1.614   1.292   6.875
  804SOL    HW1 2438   1.674   1.295   6.955
  804SOL    HW2 2439   1.539   1.356   6.888
  805SOL     OW 2440   1.039   1.098   6.282
  805SOL    HW1 2441   0.969   1.051   6.336
  805SOL    HW2 2442   1.098   1.030   6.239
  806SOL     OW 2443   1.014   0.236   6.557
  806SOL    HW1 2444   1.006   0.200   6.464
  806SOL    HW2 2445   1.012   0.160   6.622
  807SOL     OW 2446   0.590   1.487   6.077
  807SOL    HW1 2447   0.632   1.429   6.007
  807SOL    HW2 2448   0.546   1.566   6.033
  808SOL     OW 2449   1.709   0.385   6.967
  808SOL    HW1 2450   1.782   0.454   6.971
  808SOL    HW2 2451   1.737   0.310   6.908
  809SOL     OW 2452   0.255   1.348   5.876
  809SOL    HW1 2453   0.159   1.349   5.849
  809SOL    HW2 2454   0.267   1.401   5.960
  810SOL     OW 2455   0.105   1.013   7.312
  810SOL    HW1 2456   0.028   0.980   7.366
  810SOL    HW2 2457   0.190   0.983   7.354
  811SOL     OW 2458   0.672   0.203   7.075
  811SOL    HW1 2459   0.762   0.187   7.035
  811SOL    HW2 2460   0.680   0.208   7.174
  812SOL     OW 2461   0.075   0.345   5.619
  812SOL    HW1 2462  -0.017   0.317   5.590
  812SOL    HW2 2463   0.106   0.422   5.563
  813SOL     OW 2464   1.440   0.856   6.984
  813SOL    HW1 2465   1.383   0.908   6.921
  813SOL    HW2 2466   1.536   0.868   6.960
  814SOL     OW 2467   0.072   0.166   5.904
  814SOL    HW1 2468   0.055   0.249   5.850
  814SOL    HW2 2469   0.162   0.129   5.882
  815SOL     OW 2470   1.183   1.335   5.705
  815SOL    HW1 2471   1.084   1.324   5.707
  815SOL    HW2 2472   1.217   1.350   5.798
  816SOL     OW 2473   0.613   0.842   7.017
  816SOL    HW1 2474   0.669   0.923   7.000
  816SOL    HW2 2475   0.672   0.762   7.020
  817SOL     OW 2476   1.493   1.767   6.545
  817SOL    HW1 2477   1.526   1.831   6.476
  817SOL    HW2 2478   1.559   1.761   6.620
  818SOL     OW 2479   0.716   0.565   7.294
  818SOL    HW1 2480   0.735   0.630   7.368
  818SOL    HW2 2481   0.776   0.485   7.303
  819SOL     OW 2482   1.450   1.220   7.219
  819SOL    HW1 2483   1.441   1.210   7.318
  819SOL    HW2 2484   1.546   1.213   7.193
  820SOL     OW 2485   0.390   1.741   7.146
  820SOL    HW1 2486   0.299   1.782   7.144
  820SOL    HW2 2487   0.383   1.647   7.178
  821SOL     OW 2488   1.674   0.883   6.840
  821SOL    HW1 2489   1.647   0.794   6.803
  821SOL    HW2 2490   1.675   0.951   6.767
  822SOL     OW 2491   1.225   0.325   6.035
  822SOL    HW1 2492   1.290   0.251   6.024
  822SOL    HW2 2493   1.245   0.375   6.119
  823SOL     OW 2494   0.594   0.745   6.238
  823SOL    HW1 2495   0.644   0.830   6.219
  823SOL    HW2 2496   0.506   0.747   6.190
  824SOL     OW 2497   1.777   0.342   7.228
  824SOL    HW1 2498   1.760   0.373   7.134
  824SOL    HW2 2499   1.693   0.305   7.266
  825SOL     OW 2500   1.730   0.934   7.103
  825SOL    HW1 2501   1.768   1.025   7.118
  825SOL    HW2 2502   1.722   0.917   7.004
  826SOL     OW 2503   0.859   1.374   5.602
  826SOL    HW1 2504   0.813   1.389   5.690
  826SOL    HW2 2505   0.903   1.459   5.572
  827SOL     OW 2506   0.661   1.790   6.539
  827SOL    HW1 2507   0.615   1.878   6.526
  827SOL    HW2 2508   0.760   1.802   6.532
  828SOL     OW 2509   0.859   0.956   6.447
  828SOL    HW1 2510   0.913   0.887   6.495
  828SOL    HW2 2511   0.827   1.025   6.513
  829SOL     OW 2512   1.083   0.984   5.673
  829SOL    HW1 2513   1.060   1.037   5.591
  829SOL    HW2 2514   1.164   0.928   5.654
  830SOL     OW 2515   1.861   1.569   6.437
  830SOL    HW1 2516   1.790   1.557   6.367
  830SOL    HW2 2517   1.862   1.490   6.497
  831SOL     OW 2518   0.221   1.314   7.430
  831SOL    HW1 2519   0.156   1.241   7.409
  831SOL    HW2 2520   0.225   1.328   7.528
  832SOL     OW 2521   0.079   1.240   6.239
  832SOL    HW1 2522   0.078   1.193   6.327
  832SOL    HW2 2523   0.161   1.212   6.188
  833SOL     OW 2524   0.672   1.391   7.210
  833SOL    HW1 2525   0.594   1.341   7.248
  833SOL    HW2 2526   0.669   1.486   7.241
  834SOL     OW 2527   1.824   0.192   6.813
  834SOL    HW1 2528   1.820   0.102   6.857
  834SOL    HW2 2529   1.827   0.181   6.714
  835SOL     OW 2530   0.428   0.424   6.106
  835SOL    HW1 2531   0.458   0.352   6.044
  835SOL    HW2 2532   0.389   0.384   6.189
  836SOL     OW 2533   1.705   1.487   6.690
  836SOL    HW1 2534   1.612   1.462   6.663
  836SOL    HW2 2535   1.731   1.437   6.772
  837SOL     OW 2536   0.317   0.547   6.866
  837SOL    HW1 2537   0.355   0.488   6.938
  837SOL    HW2 2538   0.357   0.521   6.778
  838SOL     OW 2539   0.812   1.586   6.273
  838SOL    HW1 2540   0.844   1.596   6.179
  838SOL    HW2 2541   0.733   1.524   6.275
  839SOL     OW 2542   1.424   0.214   6.698
  839SOL    HW1 2543   1.476   0.149   6.753
  839SOL    HW2 2544   1.375   0.277   6.759
  840SOL     OW 2545   1.001   0.034   6.740
  840SOL    HW1 2546   0.938  -0.038   6.709
  840SOL    HW2 2547   1.094  -0.002   6.740
  841SOL     OW 2548   0.770   1.330   5.887
  841SOL    HW1 2549   0.724   1.243   5.904
  841SOL    HW2 2550   0.861   1.327   5.928
  842SOL     OW 2551   0.618   1.567   6.870
  842SOL    HW1 2552   0.613   1.649   6.927
  842SOL    HW2 2553   0.707   1.564   6.825
  843SOL     OW 2554   1.352   0.052   5.754
  843SOL    HW1 2555   1.387   0.011   5.670
  843SOL    HW2 2556   1.262   0.014   5.774
  844SOL     OW 2557   1.300   0.453   6.277
  844SOL    HW1 2558   1.241   0.533   6.281
  844SOL    HW2 2559   1.315   0.418   6.370
  845SOL     OW 2560   1.593   0.221   6.468
  845SOL    HW1 2561   1.509   0.220   6.522
  845SOL    HW2 2562   1.595   0.304   6.412
  846SOL     OW 2563   0.039   1.077   5.886
  846SOL    HW1 2564   0.138   1.066   5.877
  846SOL    HW2 2565  -0.001   0.991   5.918
  847SOL     OW 2566   0.875   1.646   5.923
  847SOL    HW1 2567   0.798   1.611   5.869
  847SOL    HW2 2568   0.843   1.717   5.985
  848SOL     OW 2569   0.230   0.628   7.561
  848SOL    HW1 2570   0.137   0.626   7.598
  848SOL    HW2 2571   0.231   0.589   7.469
  849SOL     OW 2572   0.225   0.275   8.444
  849SOL    HW1 2573   0.260   0.258   8.536
  849SOL    HW2 2574   0.137   0.230   8.432
  850SOL     OW 2575   0.019   0.368   8.095
  850SOL    HW1 2576  -0.063   0.411   8.134
  850SOL    HW2 2577  -0.009   0.295   8.032
  851SOL     OW 2578   0.569   1.275   8.613
  851SOL    HW1 2579   0.476   1.268   8.576
  851SOL    HW2 2580   0.580   1.364   8.657
  852SOL     OW 2581   1.555   1.511   8.151
  852SOL    HW1 2582   1.498   1.495   8.232
  852SOL    HW2 2583   1.496   1.521   8.071
  853SOL     OW 2584   1.135   0.703   8.165
  853SOL    HW1 2585   1.192   0.781   8.140
  853SOL    HW2 2586   1.075   0.729   8.241
  854SOL     OW 2587   1.755   0.607   7.679
  854SOL    HW1 2588   1.743   0.594   7.580
  854SOL    HW2 2589   1.725   0.526   7.728
  855SOL     OW 2590   0.768   1.144   8.471
  855SOL    HW1 2591   0.690   1.161   8.531
  855SOL    HW2 2592   0.802   1.231   8.435
  856SOL     OW 2593   0.850   0.798   9.271
  856SOL    HW1 2594   0.846   0.874   9.336
  856SOL    HW2 2595   0.872   0.834   9.180
  857SOL     OW 2596   0.685   1.012   8.113
  857SOL    HW1 2597   0.754   0.996   8.183
  857SOL    HW2 2598   0.612   1.069   8.151
  858SOL     OW 2599   0.686   1.161   9.251
  858SOL    HW1 2600   0.746   1.240   9.265
  858SOL    HW2 2601   0.600   1.192   9.210
  859SOL     OW 2602   0.335   1.435   8.509
  859SOL    HW1 2603   0.257   1.404   8.456
  859SOL    HW2 2604   0.393   1.493   8.452
  860SOL     OW 2605   1.460   1.505   8.787
  860SOL    HW1 2606   1.484   1.599   8.813
  860SOL    HW2 2607   1.444   1.451   8.869
  861SOL     OW 2608   0.438   0.392   8.947
  861SOL    HW1 2609   0.520   0.336   8.956
  861SOL    HW2 2610   0.357   0.334   8.951
  862SOL     OW 2611   1.603   0.447   8.185
  862SOL    HW1 2612   1.529   0.493   8.135
  862SOL    HW2 2613   1.654   0.515   8.238
  863SOL     OW 2614   0.231   1.713   7.931
  863SOL    HW1 2615   0.265   1.790   7.985
  863SOL    HW2 2616   0.275   1.713   7.841
  864SOL     OW 2617   0.230   1.434   7.986
  864SOL    HW1 2618   0.204   1.530   7.986
  864SOL    HW2 2619   0.159   1.380   8.031
  865SOL     OW 2620   0.240   1.091   8.334
  865SOL    HW1 2621   0.254   1.007   8.386
  865SOL    HW2 2622   0.185   1.155   8.389
  866SOL     OW 2623   0.620   1.786   8.887
  866SOL    HW1 2624   0.528   1.769   8.922
  866SOL    HW2 2625   0.648   1.878   8.913
  867SOL     OW 2626   0.606   0.964   7.571
  867SOL    HW1 2627   0.613   1.048   7.517
  867SOL    HW2 2628   0.652   0.977   7.659
  868SOL     OW 2629   1.594   0.114   8.928
  868SOL    HW1 2630   1.576   0.181   8.856
  868SOL    HW2 2631   1.591   0.160   9.017
  869SOL     OW 2632   0.122   0.643   8.011
  869SOL    HW1 2633   0.077   0.555   8.028
  869SOL    HW2 2634   0.121   0.697   8.095
  870SOL     OW 2635   1.842   1.767   7.807
  870SOL    HW1 2636   1.896   1.738   7.887
  870SOL    HW2 2637   1.872   1.857   7.778
  871SOL     OW 2638   0.027   1.596   7.565
  871SOL    HW1 2639   0.008   1.500   7.586
  871SOL    HW2 2640  -0.006   1.654   7.640
  872SOL     OW 2641   1.689   0.922   8.060
  872SOL    HW1 2642   1.784   0.893   8.068
  872SOL    HW2 2643   1.681   0.987   7.985
  873SOL     OW 2644   1.641   1.108   7.880
  873SOL    HW1 2645   1.727   1.110   7.828
  873SOL    HW2 2646   1.655   1.155   7.968
  874SOL     OW 2647   0.113   0.737   9.045
  874SOL    HW1 2648   0.201   0.724   9.090
  874SOL    HW2 2649   0.100   0.834   9.023
  875SOL     OW 2650   0.613   1.365   8.174
  875SOL    HW1 2651   0.564   1.278   8.183
  875SOL    HW2 2652   0.590   1.408   8.087
  876SOL     OW 2653   1.293   1.228   8.871
  876SOL    HW1 2654   1.330   1.155   8.813
  876SOL    HW2 2655   1.345   1.233   8.956
  877SOL     OW 2656   0.809   0.004   7.950
  877SOL    HW1 2657   0.849   0.095   7.941
  877SOL    HW2 2658   0.709   0.012   7.956
  878SOL     OW 2659   0.197   0.976   8.712
  878SOL    HW1 2660   0.286   0.931   8.698
  878SOL    HW2 2661   0.124   0.911   8.693
  879SOL     OW 2662   1.525   0.999   7.638
  879SOL    HW1 2663   1.462   0.923   7.651
  879SOL    HW2 2664   1.573   1.017   7.724
  880SOL     OW 2665   1.187   1.792   9.064
  880SOL    HW1 2666   1.211   1.852   8.988
  880SOL    HW2 2667   1.194   1.697   9.034
  881SOL     OW 2668   0.317   0.251   9.249
  881SOL    HW1 2669   0.388   0.322   9.255
  881SOL    HW2 2670   0.229   0.290   9.277
  882SOL     OW 2671   1.466   1.417   8.401
  882SOL    HW1 2672   1.407   1.423   8.481
  882SOL    HW2 2673   1.451   1.329   8.355
  883SOL     OW 2674   1.667   1.714   8.020
  883SOL    HW1 2675   1.626   1.691   7.932
  883SOL    HW2 2676   1.649   1.640   8.085
  884SOL     OW 2677   0.598   0.729   7.718
  884SOL    HW1 2678   0.622   0.798   7.650
  884SOL    HW2 2679   0.520   0.762   7.772
  885SOL     OW 2680   1.281   0.345   8.392
  885SOL    HW1 2681   1.195   0.295   8.379
  885SOL    HW2 2682   1.343   0.291   8.448
  886SOL     OW 2683   1.576   1.662   7.755
  886SOL    HW1 2684   1.665   1.708   7.758
  886SOL    HW2 2685   1.555   1.638   7.660
  887SOL     OW 2686   0.807   0.605   8.913
  887SOL    HW1 2687   0.760   0.602   9.002
  887SOL    HW2 2688   0.756   0.550   8.847
  888SOL     OW 2689   1.394   0.469   9.122
  888SOL    HW1 2690   1.374   0.512   9.210
  888SOL    HW2 2691   1.472   0.407   9.131
  889SOL     OW 2692   0.973   0.890   9.020
  889SOL    HW1 2693   1.019   0.806   8.991
  889SOL    HW2 2694   0.917   0.924   8.945
  890SOL     OW 2695   0.991   0.410   8.690
  890SOL    HW1 2696   0.914   0.444   8.744
  890SOL    HW2 2697   0.957   0.359   8.611
  891SOL     OW 2698   1.041   0.701   7.877
  891SOL    HW1 2699   1.067   0.697   7.973
  891SOL    HW2 2700   0.956   0.650   7.863
  892SOL     OW 2701   0.130   1.821   9.019
  892SOL    HW1 2702   0.120   1.806   9.118
  892SOL    HW2 2703   0.044   1.857   8.983
  893SOL     OW 2704   0.865   0.348   7.643
  893SOL    HW1 2705   0.924   0.411   7.594
  893SOL    HW2 2706   0.884   0.254   7.614
  894SOL     OW 2707   1.719   0.585   9.279
  894SOL    HW1 2708   1.693   0.674   9.243
  894SOL    HW2 2709   1.717   0.517   9.206
  895SOL     OW 2710   1.362   1.144   7.993
  895SOL    HW1 2711   1.445   1.115   7.945
  895SOL    HW2 2712   1.313   1.211   7.937
  896SOL     OW 2713   0.550   0.196   8.333
  896SOL    HW1 2714   0.545   0.191   8.433
  896SOL    HW2 2715   0.552   0.292   8.304
  897SOL     OW 2716   1.008   1.456   7.925
  897SOL    HW1 2717   0.962   1.528   7.873
  897SOL    HW2 2718   1.004   1.476   8.023
  898SOL     OW 2719   0.351   1.801   8.301
  898SOL    HW1 2720   0.401   1.715   8.307
  898SOL    HW2 2721   0.416   1.878   8.298
  899SOL     OW 2722   1.795   1.066   8.321
  899SOL    HW1 2723   1.733   1.051   8.245
  899SOL    HW2 2724   1.743   1.077   8.406
  900SOL     OW 2725   1.227   1.550   8.954
  900SOL    HW1 2726   1.233   1.473   9.018
  900SOL    HW2 2727   1.175   1.524   8.874
  901SOL     OW 2728   0.321   0.943   7.690
  901SOL    HW1 2729   0.403   0.982   7.648
  901SOL    HW2 2730   0.294   0.861   7.641
  902SOL     OW 2731   1.458   0.735   8.176
  902SOL    HW1 2732   1.453   0.670   8.251
  902SOL    HW2 2733   1.538   0.794   8.189
  903SOL     OW 2734   0.461   1.266   9.175
  903SOL    HW1 2735   0.411   1.267   9.089
  903SOL    HW2 2736   0.398   1.248   9.251
  904SOL     OW 2737   1.111   1.776   7.685
  904SOL    HW1 2738   1.051   1.714   7.735
  904SOL    HW2 2739   1.142   1.732   7.600
  905SOL     OW 2740   0.202   0.285   8.946
  905SOL    HW1 2741   0.122   0.345   8.933
  905SOL    HW2 2742   0.192   0.236   9.032
  906SOL     OW 2743   1.632   1.377   7.529
  906SOL    HW1 2744   1.600   1.471   7.519
  906SOL    HW2 2745   1.556   1.314   7.517
  907SOL     OW 2746   0.464   1.743   7.771
  907SOL    HW1 2747   0.497   1.782   7.857
  907SOL    HW2 2748   0.540   1.736   7.706
  908SOL     OW 2749   1.400   0.107   7.874
  908SOL    HW1 2750   1.376   0.070   7.784
  908SOL    HW2 2751   1.499   0.123   7.878
  909SOL     OW 2752   0.249   1.785   8.689
  909SOL    HW1 2753   0.306   1.720   8.739
  909SOL    HW2 2754   0.233   1.752   8.596
  910SOL     OW 2755   0.940   1.698   8.352
  910SOL    HW1 2756   1.020   1.641   8.373
  910SOL    HW2 2757   0.891   1.658   8.275
  911SOL     OW 2758   0.382   0.700   7.928
  911SOL    HW1 2759   0.427   0.610   7.925
  911SOL    HW2 2760   0.288   0.689   7.961
  912SOL     OW 2761   1.547   0.222   9.177
  912SOL    HW1 2762   1.542   0.259   9.269
  912SOL    HW2 2763   1.475   0.153   9.165
  913SOL     OW 2764   0.614   0.122   7.565
  913SOL    HW1 2765   0.712   0.100   7.572
  913SOL    HW2 2766   0.583   0.105   7.472
  914SOL     OW 2767   0.781   0.264   9.197
  914SOL    HW1 2768   0.848   0.203   9.240
  914SOL    HW2 2769   0.708   0.283   9.262
  915SOL     OW 2770   0.888   1.514   8.643
  915SOL    HW1 2771   0.865   1.489   8.549
  915SOL    HW2 2772   0.949   1.445   8.682
  916SOL     OW 2773   1.351   0.590   8.881
  916SOL    HW1 2774   1.379   0.547   8.966
  916SOL    HW2 2775   1.376   0.686   8.882
  917SOL     OW 2776   0.803   1.402   8.372
  917SOL    HW1 2777   0.893   1.416   8.330
  917SOL    HW2 2778   0.732   1.404   8.301
  918SOL     OW 2779   0.922   0.503   8.347
  918SOL    HW1 2780   0.897   0.494   8.251
  918SOL    HW2 2781   0.970   0.421   8.378
  919SOL     OW 2782   0.539   0.064   7.960
  919SOL    HW1 2783   0.458   0.065   8.018
  919SOL    HW2 2784   0.542   0.147   7.905
  920SOL     OW 2785   1.434   1.188   7.489
  920SOL    HW1 2786   1.466   1.112   7.546
  920SOL    HW2 2787   1.342   1.215   7.519
  921SOL     OW 2788   0.297   0.035   7.619
  921SOL    HW1 2789   0.346   0.119   7.598
  921SOL    HW2 2790   0.359  -0.030   7.664
  922SOL     OW 2791   0.935   0.236   7.928
  922SOL    HW1 2792   0.887   0.277   7.850
  922SOL    HW2 2793   1.034   0.234   7.909
  923SOL     OW 2794   1.076   0.683   8.912
  923SOL    HW1 2795   0.996   0.622   8.915
  923SOL    HW2 2796   1.157   0.630   8.888
  924SOL     OW 2797   1.227   1.570   8.241
  924SOL    HW1 2798   1.248   1.644   8.176
  924SOL    HW2 2799   1.295   1.570   8.314
  925SOL     OW 2800   0.459   1.152   8.189
  925SOL    HW1 2801   0.388   1.125   8.254
  925SOL    HW2 2802   0.433   1.124   8.096
  926SOL     OW 2803   1.271   1.797   8.039
  926SOL    HW1 2804   1.315   1.861   7.975
  926SOL    HW2 2805   1.221   1.849   8.109
  927SOL     OW 2806   1.032   0.549   7.464
  927SOL    HW1 2807   0.991   0.631   7.425
  927SOL    HW2 2808   1.096   0.575   7.537
  928SOL     OW 2809   0.078   0.556   8.834
  928SOL    HW1 2810   0.170   0.555   8.793
  928SOL    HW2 2811   0.072   0.630   8.901
  929SOL     OW 2812   0.561   0.222   8.595
  929SOL    HW1 2813   0.599   0.138   8.632
  929SOL    HW2 2814   0.473   0.241   8.639
  930SOL     OW 2815   0.866   0.454   8.090
  930SOL    HW1 2816   0.834   0.526   8.028
  930SOL    HW2 2817   0.890   0.373   8.037
  931SOL     OW 2818   1.017   0.039   8.201
  931SOL    HW1 2819   0.945   0.044   8.132
  931SOL    HW2 2820   0.993  -0.030   8.270
  932SOL     OW 2821   1.429   1.173   8.315
  932SOL    HW1 2822   1.374   1.089   8.308
  932SOL    HW2 2823   1.455   1.202   8.223
  933SOL     OW 2824   1.466   0.590   8.440
  933SOL    HW1 2825   1.436   0.495   8.447
  933SOL    HW2 2826   1.539   0.606   8.506
  934SOL     OW 2827   1.857   0.833   7.825
  934SOL    HW1 2828   1.899   0.769   7.889
  934SOL    HW2 2829   1.819   0.782   7.747
  935SOL     OW 2830   0.488   1.385   7.622
  935SOL    HW1 2831   0.401   1.370   7.669
  935SOL    HW2 2832   0.471   1.411   7.527
  936SOL     OW 2833   1.664   1.280   8.105
  936SOL    HW1 2834   1.763   1.288   8.119
  936SOL    HW2 2835   1.619   1.364   8.136
  937SOL     OW 2836   1.390   0.575   7.526
  937SOL    HW1 2837   1.336   0.554   7.607
  937SOL    HW2 2838   1.481   0.534   7.535
  938SOL     OW 2839   0.527   0.256   7.776
  938SOL    HW1 2840   0.554   0.197   7.701
  938SOL    HW2 2841   0.527   0.351   7.745
  939SOL     OW 2842   1.754   1.223   9.036
  939SOL    HW1 2843   1.845   1.184   9.023
  939SOL    HW2 2844   1.762   1.319   9.060
  940SOL     OW 2845   1.064   1.347   8.788
  940SOL    HW1 2846   0.984   1.324   8.843
  940SOL    HW2 2847   1.147   1.321   8.837
  941SOL     OW 2848   1.592   1.629   9.073
  941SOL    HW1 2849   1.619   1.663   8.983
  941SOL    HW2 2850   1.671   1.591   9.119
  942SOL     OW 2851   1.111   1.195   8.548
  942SOL    HW1 2852   1.071   1.239   8.629
  942SOL    HW2 2853   1.070   1.232   8.465
  943SOL     OW 2854   1.638   1.099   8.527
  943SOL    HW1 2855   1.643   1.180   8.586
  943SOL    HW2 2856   1.552   1.101   8.476
  944SOL     OW 2857   0.915   0.089   8.850
  944SOL    HW1 2858   0.940   0.069   8.755
  944SOL    HW2 2859   0.987   0.145   8.892
  945SOL     OW 2860   0.980   1.116   9.167
  945SOL    HW1 2861   0.881   1.122   9.177
  945SOL    HW2 2862   1.003   1.036   9.111
  946SOL     OW 2863   0.705   1.050   7.816
  946SOL    HW1 2864   0.691   1.057   7.915
  946SOL    HW2 2865   0.789   0.999   7.798
  947SOL     OW 2866   0.410   0.813   8.699
  947SOL    HW1 2867   0.496   0.825   8.749
  947SOL    HW2 2868   0.368   0.726   8.726
  948SOL     OW 2869   1.274   0.386   8.710
  948SOL    HW1 2870   1.295   0.460   8.774
  948SOL    HW2 2871   1.185   0.403   8.667
  949SOL     OW 2872   0.064   1.564   8.779
  949SOL    HW1 2873   0.018   1.646   8.745
  949SOL    HW2 2874   0.162   1.583   8.788
  950SOL     OW 2875   0.367   1.100   7.949
  950SOL    HW1 2876   0.360   1.183   7.893
  950SOL    HW2 2877   0.371   1.020   7.889
  951SOL     OW 2878   0.566   0.537   8.313
  951SOL    HW1 2879   0.578   0.603   8.239
  951SOL    HW2 2880   0.612   0.571   8.396
  952SOL     OW 2881   1.252   1.348   7.836
  952SOL    HW1 2882   1.302   1.425   7.876
  952SOL    HW2 2883   1.157   1.350   7.868
  953SOL     OW 2884   1.272   1.445   8.590
  953SOL    HW1 2885   1.319   1.458   8.677
  953SOL    HW2 2886   1.206   1.371   8.599
  954SOL     OW 2887   1.582   0.639   7.920
  954SOL    HW1 2888   1.551   0.700   7.993
  954SOL    HW2 2889   1.632   0.691   7.851
  955SOL     OW 2890   0.354   1.510   8.777
  955SOL    HW1 2891   0.333   1.466   8.690
  955SOL    HW2 2892   0.451   1.536   8.780
  956SOL     OW 2893   0.402   0.751   9.046
  956SOL    HW1 2894   0.470   0.806   8.999
  956SOL    HW2 2895   0.442   0.663   9.073
  957SOL     OW 2896   1.587   0.779   9.118
  957SOL    HW1 2897   1.495   0.817   9.113
  957SOL    HW2 2898   1.647   0.826   9.053
  958SOL     OW 2899   1.013   0.105   9.218
  958SOL    HW1 2900   1.019   0.190   9.166
  958SOL    HW2 2901   1.045   0.029   9.161
  959SOL     OW 2902   0.504   0.050   9.188
  959SOL    HW1 2903   0.462  -0.007   9.118
  959SOL    HW2 2904   0.438   0.119   9.220
  960SOL     OW 2905   0.573   0.870   8.477
  960SOL    HW1 2906   0.617   0.959   8.468
  960SOL    HW2 2907   0.510   0.870   8.554
  961SOL     OW 2908   1.360   0.862   8.493
  961SOL    HW1 2909   1.285   0.862   8.427
  961SOL    HW2 2910   1.397   0.770   8.502
  962SOL     OW 2911   1.209   0.525   7.723
  962SOL    HW1 2912   1.222   0.441   7.777
  962SOL    HW2 2913   1.180   0.599   7.783
  963SOL     OW 2914   0.307   0.213   8.679
  963SOL    HW1 2915   0.284   0.250   8.769
  963SOL    HW2 2916   0.277   0.118   8.673
  964SOL     OW 2917   0.037   1.310   8.730
  964SOL    HW1 2918   0.090   1.261   8.798
  964SOL    HW2 2919   0.059   1.408   8.735
  965SOL     OW 2920   0.732   0.634   8.512
  965SOL    HW1 2921   0.791   0.608   8.436
  965SOL    HW2 2922   0.704   0.730   8.501
  966SOL     OW 2923   1.728   0.935   9.302
  966SOL    HW1 2924   1.682   0.928   9.213
  966SOL    HW2 2925   1.666   0.979   9.368
  967SOL     OW 2926   0.307   0.063   8.066
  967SOL    HW1 2927   0.296   0.157   8.099
  967SOL    HW2 2928   0.302   0.000   8.143
  968SOL     OW 2929   1.622   0.367   7.822
  968SOL    HW1 2930   1.624   0.291   7.886
  968SOL    HW2 2931   1.574   0.444   7.862
  969SOL     OW 2932   1.023   0.766   8.414
  969SOL    HW1 2933   1.038   0.787   8.510
  969SOL    HW2 2934   0.993   0.671   8.405
  970SOL     OW 2935   0.980   1.573   9.148
  970SOL    HW1 2936   0.960   1.617   9.060
  970SOL    HW2 2937   1.019   1.482   9.132
  971SOL     OW 2938   1.859   1.518   9.053
  971SOL    HW1 2939   1.873   1.545   8.958
  971SOL    HW2 2940   1.942   1.540   9.106
  972SOL     OW 2941   0.350   0.898   9.252
  972SOL    HW1 2942   0.426   0.942   9.300
  972SOL    HW2 2943   0.385   0.851   9.170
  973SOL     OW 2944   1.540   0.274   7.573
  973SOL    HW1 2945   1.479   0.199   7.596
  973SOL    HW2 2946   1.562   0.326   7.656
  974SOL     OW 2947   1.303   0.838   7.490
  974SOL    HW1 2948   1.337   0.745   7.505
  974SOL    HW2 2949   1.321   0.865   7.395
  975SOL     OW 2950   1.068   1.333   8.297
  975SOL    HW1 2951   1.075   1.249   8.242
  975SOL    HW2 2952   1.130   1.402   8.261
  976SOL     OW 2953   0.319   0.810   8.397
  976SOL    HW1 2954   0.412   0.846   8.402
  976SOL    HW2 2955   0.313   0.725   8.449
  977SOL     OW 2956   0.339   0.509   8.454
  977SOL    HW1 2957   0.287   0.426   8.437
  977SOL    HW2 2958   0.416   0.514   8.390
  978SOL     OW 2959   1.138   0.380   9.126
  978SOL    HW1 2960   1.093   0.443   9.190
  978SOL    HW2 2961   1.231   0.411   9.109
  979SOL     OW 2962   1.160   0.207   8.925
  979SOL    HW1 2963   1.160   0.271   9.002
  979SOL    HW2 2964   1.188   0.255   8.842
  980SOL     OW 2965   0.008   1.326   7.648
  980SOL    HW1 2966  -0.085   1.347   7.617
  980SOL    HW2 2967   0.018   1.227   7.661
  981SOL     OW 2968   0.088   1.801   8.375
  981SOL    HW1 2969   0.046   1.715   8.348
  981SOL    HW2 2970   0.182   1.804   8.341
  982SOL     OW 2971   0.504   1.568   8.358
  982SOL    HW1 2972   0.570   1.642   8.367
  982SOL    HW2 2973   0.548   1.489   8.316
  983SOL     OW 2974   1.002   0.796   8.686
  983SOL    HW1 2975   1.043   0.764   8.772
  983SOL    HW2 2976   0.906   0.769   8.683
  984SOL     OW 2977   0.040   0.544   8.562
  984SOL    HW1 2978   0.125   0.511   8.521
  984SOL    HW2 2979   0.053   0.559   8.660
  985SOL     OW 2980   0.189   0.520   9.170
  985SOL    HW1 2981   0.248   0.480   9.100
  985SOL    HW2 2982   0.131   0.591   9.129
  986SOL     OW 2983   1.369   0.950   9.108
  986SOL    HW1 2984   1.408   1.039   9.128
  986SOL    HW2 2985   1.379   0.930   9.011
  987SOL     OW 2986   0.815   0.572   7.773
  987SOL    HW1 2987   0.822   0.483   7.727
  987SOL    HW2 2988   0.721   0.606   7.765
  988SOL     OW 2989   1.657   0.604   8.654
  988SOL    HW1 2990   1.619   0.535   8.716
  988SOL    HW2 2991   1.739   0.568   8.610
  989SOL     OW 2992   0.252   1.564   9.192
  989SOL    HW1 2993   0.222   1.621   9.268
  989SOL    HW2 2994   0.245   1.467   9.218
  990SOL     OW 2995   0.671   0.464   8.717
  990SOL    HW1 2996   0.637   0.375   8.687
  990SOL    HW2 2997   0.697   0.518   8.637
  991SOL     OW 2998   0.930   1.678   8.913
  991SOL    HW1 2999   0.906   1.660   8.818
  991SOL    HW2 3000   0.960   1.772   8.923
  992SOL     OW 3001   0.473   0.500   7.639
  992SOL    HW1 3002   0.534   0.580   7.643
  992SOL    HW2 3003   0.378   0.531   7.646
  993SOL     OW 3004   0.159   1.137   8.914
  993SOL    HW1 3005   0.181   1.076   8.990
  993SOL    HW2 3006   0.169   1.088   8.828
  994SOL     OW 3007   1.347   1.059   8.682
  994SOL    HW1 3008   1.371   0.996   8.608
  994SOL    HW2 3009   1.257   1.099   8.664
  995SOL     OW 3010   1.302   0.855   7.757
  995SOL    HW1 3011   1.216   0.824   7.799
  995SOL    HW2 3012   1.298   0.841   7.658
  996SOL     OW 3013   1.759   1.747   8.602
  996SOL    HW1 3014   1.820   1.777   8.529
  996SOL    HW2 3015   1.721   1.658   8.580
  997SOL     OW 3016   1.252   1.731   8.576
  997SOL    HW1 3017   1.336   1.736   8.522
  997SOL    HW2 3018   1.229   1.635   8.594
  998SOL     OW 3019   0.083   1.258   8.470
  998SOL    HW1 3020   0.078   1.257   8.570
  998SOL    HW2 3021   0.000   1.217   8.432
  999SOL     OW 3022   0.688   1.662   9.164
  999SOL    HW1 3023   0.632   1.743   9.173
  999SOL    HW2 3024   0.740   1.666   9.078
 1000SOL     OW 3025   1.726   0.135   7.971
 1000SOL    HW1 3026   1.799   0.118   7.904
 1000SOL    HW2 3027   1.695   0.048   8.009
 1001SOL     OW 3028   1.388   1.573   7.925
 1001SOL    HW1 3029   1.455   1.585   7.851
 1001SOL    HW2 3030   1.348   1.662   7.948
 1002SOL     OW 3031   0.130   1.794   9.299
 1002SOL    HW1 3032   0.089   1.720   9.352
 1002SOL    HW2 3033   0.194   1.845   9.357
 1003SOL     OW 3034   1.280   0.927   8.120
 1003SOL    HW1 3035   1.340   0.846   8.122
 1003SOL    HW2 3036   1.320   0.996   8.060
 1004SOL     OW 3037   0.830   1.273   8.870
 1004SOL    HW1 3038   0.825   1.306   8.965
 1004SOL    HW2 3039   0.744   1.292   8.824
 1005SOL     OW 3040   0.672   1.616   7.602
 1005SOL    HW1 3041   0.681   1.626   7.503
 1005SOL    HW2 3042   0.632   1.527   7.623
 1006SOL     OW 3043   1.650   1.720   8.842
 1006SOL    HW1 3044   1.703   1.730   8.758
 1006SOL    HW2 3045   1.623   1.810   8.876
 1007SOL     OW 3046   1.841   0.175   8.411
 1007SOL    HW1 3047   1.880   0.090   8.375
 1007SOL    HW2 3048   1.743   0.177   8.392
 1008SOL     OW 3049   0.263   0.326   8.168
 1008SOL    HW1 3050   0.184   0.377   8.134
 1008SOL    HW2 3051   0.254   0.311   8.266
 1009SOL     OW 3052   1.194   1.612   7.479
 1009SOL    HW1 3053   1.200   1.519   7.516
 1009SOL    HW2 3054   1.135   1.612   7.399
 1010SOL     OW 3055   0.822   1.002   8.820
 1010SOL    HW1 3056   0.862   1.001   8.728
 1010SOL    HW2 3057   0.832   1.094   8.860
 1011SOL     OW 3058   0.916   0.910   7.739
 1011SOL    HW1 3059   0.979   0.948   7.671
 1011SOL    HW2 3060   0.956   0.827   7.778
 1012SOL     OW 3061   1.504   1.607   7.492
 1012SOL    HW1 3062   1.412   1.644   7.499
 1012SOL    HW2 3063   1.542   1.627   7.402
 1013SOL     OW 3064   0.372   1.288   8.938
 1013SOL    HW1 3065   0.359   1.381   8.904
 1013SOL    HW2 3066   0.288   1.236   8.925
 1014SOL     OW 3067   1.614   1.292   8.737
 1014SOL    HW1 3068   1.674   1.295   8.817
 1014SOL    HW2 3069   1.539   1.356   8.750
 1015SOL     OW 3070   1.039   1.098   8.144
 1015SOL    HW1 3071   0.969   1.051   8.198
 1015SOL    HW2 3072   1.098   1.030   8.101
 1016SOL     OW 3073   1.014   0.236   8.419
 1016SOL    HW1 3074   1.006   0.200   8.326
 1016SOL    HW2 3075   1.012   0.160   8.484
 1017SOL     OW 3076   0.590   1.487   7.939
 1017SOL    HW1 3077   0.632   1.429   7.869
 1017SOL    HW2 3078   0.546   1.566   7.895
 1018SOL     OW 3079   1.709   0.385   8.829
 1018SOL    HW1 3080   1.782   0.454   8.833
 1018SOL    HW2 3081   1.737   0.310   8.770
 1019SOL     OW 3082   0.255   1.348   7.738
 1019SOL    HW1 3083   0.159   1.349   7.711
 1019SOL    HW2 3084   0.267   1.401   7.822
 1020SOL     OW 3085   0.105   1.013   9.174
 1020SOL    HW1 3086   0.028   0.980   9.228
 1020SOL    HW2 3087   0.190   0.983   9.216
 1021SOL     OW 3088   0.672   0.203   8.937
 1021SOL    HW1 3089   0.762   0.187   8.897
 1021SOL    HW2 3090   0.680   0.208   9.036
 1022SOL     OW 3091   0.075   0.345   7.481
 1022SOL    HW1 3092  -0.017   0.317   7.452
 1022SOL    HW2 3093   0.106   0.422   7.425
 1023SOL     OW 3094   1.440   0.856   8.846
 1023SOL    HW1 3095   1.383   0.908   8.783
 1023SOL    HW2 3096   1.536   0.868   8.822
 1024SOL     OW 3097   0.072   0.166   7.766
 1024SOL    HW1 3098   0.055   0.249   7.712
 1024SOL    HW2 3099   0.162   0.129   7.744
 1025SOL     OW 3100   1.183   1.335   7.567
 1025SOL    HW1 3101   1.084   1.324   7.569
 1025SOL    HW2 3102   1.217   1.350   7.660
 1026SOL     OW 3103   0.613   0.842   8.879
 1026SOL    HW1 3104   0.669   0.923   8.862
 1026SOL    HW2 3105   0.672   0.762   8.882
 1027SOL     OW 3106   1.493   1.767   8.407
 1027SOL    HW1 3107   1.526   1.831   8.338
 1027SOL    HW2 3108   1.559   1.761   8.482
 1028SOL     OW 3109   0.716   0.565   9.156
 1028SOL    HW1 3110   0.735   0.630   9.230
 1028SOL    HW2 3111   0.776   0.485   9.165
 1029SOL     OW 3112   1.450   1.220   9.081
 1029SOL    HW1 3113   1.441   1.210   9.180
 1029SOL    HW2 3114   1.546   1.213   9.055
 1030SOL     OW 3115   0.390   1.741   9.008
 1030SOL    HW1 3116   0.299   1.782   9.006
 1030SOL    HW2 3117   0.383   1.647   9.040
 1031SOL     OW 3118   1.674   0.883   8.702
 1031SOL    HW1 3119   1.647   0.794   8.665
 1031SOL    HW2 3120   1.675   0.951   8.629
 1032SOL     OW 3121   1.225   0.325   7.897
 1032SOL    HW1 3122   1.290   0.251   7.886
 1032SOL    HW2 3123   1.245   0.375   7.981
 1033SOL     OW 3124   0.594   0.745   8.100
 1033SOL    HW1 3125   0.644   0.830   8.081
 1033SOL    HW2 3126   0.506   0.747   8.052
 1034SOL     OW 3127   1.777   0.342   9.090
 1034SOL    HW1 3128   1.760   0.373   8.996
 1034SOL    HW2 3129   1.693   0.305   9.128
 1035SOL     OW 3130   1.730   0.934   8.965
 1035SOL    HW1 3131   1.768   1.025   8.980
 1035SOL    HW2 3132   1.722   0.917   8.866
 1036SOL     OW 3133   0.859   1.374   7.464
 1036SOL    HW1 3134   0.813   1.389   7.552
 1036SOL    HW2 3135   0.903   1.459   7.434
 1037SOL     OW 3136   0.661   1.790   8.401
 1037SOL    HW1 3137   0.615   1.878   8.388
 1037SOL    HW2 3138   0.760   1.802   8.394
 1038SOL     OW 3139   0.859   0.956   8.309
 1038SOL    HW1 3140   0.913   0.887   8.357
 1038SOL    HW2 3141   0.827   1.025   8.375
 1039SOL     OW 3142   1.083   0.984   7.535
 1039SOL    HW1 3143   1.060   1.037   7.453
 1039SOL    HW2 3144   1.164   0.928   7.516
 1040SOL     OW 3145   1.861   1.569   8.299
 1040SOL    HW1 3146   1.790   1.557   8.229
 1040SOL    HW2 3147   1.862   1.490   8.359
 1041SOL     OW 3148   0.221   1.314   9.292
 1041SOL    HW1 3149   0.156   1.241   9.271
 1041SOL    HW2 3150   0.225   1.328   9.390
 1042SOL     OW 3151   0.079   1.240   8.101
 1042SOL    HW1 3152   0.078   1.193   8.189
 1042SOL    HW2 3153   0.161   1.212   8.050
 1043SOL     OW 3154   0.672   1.391   9.072
 1043SOL    HW1 3155   0.594   1.341   9.110
 1043SOL    HW2 3156   0.669   1.486   9.103
 1044SOL     OW 3157   1.824   0.192   8.675
 1044SOL    HW1 3158   1.820   0.102   8.719
 1044SOL    HW2 3159   1.827   0.181   8.576
 1045SOL     OW 3160   0.428   0.424   7.968
 1045SOL    HW1 3161   0.458   0.352   7.906
 1045SOL    HW2 3162   0.389   0.384   8.051
 1046SOL     OW 3163   1.705   1.487   8.552
 1046SOL    HW1 3164   1.612   1.462   8.525
 1046SOL    HW2 3165   1.731   1.437   8.634
 1047SOL     OW 3166   0.317   0.547   8.728
 1047SOL    HW1 3167   0.355   0.488   8.800
 1047SOL    HW2 3168   0.357   0.521   8.640
 1048SOL     OW 3169   0.812   1.586   8.135
 1048SOL    HW1 3170   0.844   1.596   8.041
 1048SOL    HW2 3171   0.733   1.524   8.137
 1049SOL     OW 3172   1.424   0.214   8.560
 1049SOL    HW1 3173   1.476   0.149   8.615
 1049SOL    HW2 3174   1.375   0.277   8.621
 1050SOL     OW 3175   1.001   0.034   8.602
 1050SOL    HW1 3176   0.938  -0.038   8.571
 1050SOL    HW2 3177   1.094  -0.002   8.602
 1051SOL     OW 3178   0.770   1.330   7.749
 1051SOL    HW1 3179   0.724   1.243   7.766
 1051SOL    HW2 3180   0.861   1.327   7.790
 1052SOL     OW 3181   0.618   1.567   8.732
 1052SOL    HW1 3182   0.613   1.649   8.789
 1052SOL    HW2 3183   0.707   1.564   8.687
 1053SOL     OW 3184   1.352   0.052   7.616
 1053SOL    HW1 3185   1.387   0.011   7.532
 1053SOL    HW2 3186   1.262   0.014   7.636
 1054SOL     OW 3187   1.300   0.453   8.139
 1054SOL    HW1 3188   1.241   0.533   8.143
 1054SOL    HW2 3189   1.315   0.418   8.232
 1055SOL     OW 3190   1.593   0.221   8.330
 1055SOL    HW1 3191   1.509   0.220   8.384
 1055SOL    HW2 3192   1.595   0.304   8.274
 1056SOL     OW 3193   0.039   1.077   7.748
 1056SOL    HW1 3194   0.138   1.066   7.739
 1056SOL    HW2 3195  -0.001   0.991   7.780
 1057SOL     OW 3196   0.875   1.646   7.785
 1057SOL    HW1 3197   0.798   1.611   7.731
 1057SOL    HW2 3198   0.843   1.717   7.847
 1058SOL     OW 3199   0.230   0.628   9.423
 1058SOL    HW1 3200   0.137   0.626   9.460
 1058SOL    HW2 3201   0.231   0.589   9.331
 1059SOL     OW 3202   0.225   0.275  10.306
 1059SOL    HW1 3203   0.260   0.258  10.398
 1059SOL    HW2 3204   0.137   0.230  10.294
 1060SOL     OW 3205   0.019   0.368   9.957
 1060SOL    HW1 3206  -0.063   0.411   9.996
 1060SOL    HW2 3207  -0.009   0.295   9.894
 1061SOL     OW 3208   0.569   1.275  10.475
 1061SOL    HW1 3209   0.476   1.268  10.438
 1061SOL    HW2 3210   0.580   1.364  10.519
 1062SOL     OW 3211   1.555   1.511  10.013
 1062SOL    HW1 3212   1.498   1.495  10.094
 1062SOL    HW2 3213   1.496   1.521   9.933
 1063SOL     OW 3214   1.135   0.703  10.027
 1063SOL    HW1 3215   1.192   0.781  10.002
 1063SOL    HW2 3216   1.075   0.729  10.103
 1064SOL     OW 3217   1.755   0.607   9.541
 1064SOL    HW1 3218   1.743   0.594   9.442
 1064SOL    HW2 3219   1.725   0.526   9.590
 1065SOL     OW 3220   0.768   1.144  10.333
 1065SOL    HW1 3221   0.690   1.161  10.393
 1065SOL    HW2 3222   0.802   1.231  10.297
 1066SOL     OW 3223   0.850   0.798  11.133
 1066SOL    HW1 3224   0.846   0.874  11.198
 1066SOL    HW2 3225   0.872   0.834  11.042
 1067SOL     OW 3226   0.685   1.012   9.975
 1067SOL    HW1 3227   0.754   0.996  10.045
 1067SOL    HW2 3228   0.612   1.069  10.013
 1068SOL     OW 3229   0.686   1.161  11.113
 1068SOL    HW1 3230   0.746   1.240  11.127
 1068SOL    HW2 3231   0.600   1.192  11.072
 1069SOL     OW 3232   0.335   1.435  10.371
 1069SOL    HW1 3233   0.257   1.404  10.318
 1069SOL    HW2 3234   0.393   1.493  10.314
 1070SOL     OW 3235   1.460   1.505  10.649
 1070SOL    HW1 3236   1.484   1.599  10.675
 1070SOL    HW2 3237   1.444   1.451  10.731
 1071SOL     OW 3238   0.438   0.392  10.809
 1071SOL    HW1 3239   0.520   0.336  10.818
 1071SOL    HW2 3240   0.357   0.334  10.813
 1072SOL     OW 3241   1.603   0.447  10.047
 1072SOL    HW1 3242   1.529   0.493   9.997
 1072SOL    HW2 3243   1.654   0.515  10.100
 1073SOL     OW 3244   0.231   1.713   9.793
 1073SOL    HW1 3245   0.265   1.790   9.847
 1073SOL    HW2 3246   0.275   1.713   9.703
 1074SOL     OW 3247   1.127   1.341  11.000
 1074SOL    HW1 3248   1.174   1.341  11.088
 1074SOL    HW2 3249   1.079   1.254  10.989
 1075SOL     OW 3250   0.230   1.434   9.848
 1075SOL    HW1 3251   0.204   1.530   9.848
 1075SOL    HW2 3252   0.159   1.380   9.893
 1076SOL     OW 3253   0.240   1.091  10.196
 1076SOL    HW1 3254   0.254   1.007  10.248
 1076SOL    HW2 3255   0.185   1.155  10.251
 1077SOL     OW 3256   0.620   1.786  10.749
 1077SOL    HW1 3257   0.528   1.769  10.784
 1077SOL    HW2 3258   0.648   1.878  10.775
 1078SOL     OW 3259   0.606   0.964   9.433
 1078SOL    HW1 3260   0.613   1.048   9.379
 1078SOL    HW2 3261   0.652   0.977   9.521
 1079SOL     OW 3262   1.594   0.114  10.790
 1079SOL    HW1 3263   1.576   0.181  10.718
 1079SOL    HW2 3264   1.591   0.160  10.879
 1080SOL     OW 3265   0.122   0.643   9.873
 1080SOL    HW1 3266   0.077   0.555   9.890
 1080SOL    HW2 3267   0.121   0.697   9.957
 1081SOL     OW 3268   1.842   1.767   9.669
 1081SOL    HW1 3269   1.896   1.738   9.749
 1081SOL    HW2 3270   1.872   1.857   9.640
 1082SOL     OW 3271   0.027   1.596   9.427
 1082SOL    HW1 3272   0.008   1.500   9.448
 1082SOL    HW2 3273  -0.006   1.654   9.502
 1083SOL     OW 3274   1.689   0.922   9.922
 1083SOL    HW1 3275   1.784   0.893   9.930
 1083SOL    HW2 3276   1.681   0.987   9.847
 1084SOL     OW 3277   1.641   1.108   9.742
 1084SOL    HW1 3278   1.727   1.110   9.690
 1084SOL    HW2 3279   1.655   1.155   9.830
 1085SOL     OW 3280   0.613   1.365  10.036
 1085SOL    HW1 3281   0.564   1.278  10.045
 1085SOL    HW2 3282   0.590   1.408   9.949
 1086SOL     OW 3283   1.293   1.228  10.733
 1086SOL    HW1 3284   1.330   1.155  10.675
 1086SOL    HW2 3285   1.345   1.233  10.818
 1087SOL     OW 3286   0.809   0.004   9.812
 1087SOL    HW1 3287   0.849   0.095   9.803
 1087SOL    HW2 3288   0.709   0.012   9.818
 1088SOL     OW 3289   0.197   0.976  10.574
 1088SOL    HW1 3290   0.286   0.931  10.560
 1088SOL    HW2 3291   0.124   0.911  10.555
 1089SOL     OW 3292   1.525   0.999   9.500
 1089SOL    HW1 3293   1.462   0.923   9.513
 1089SOL    HW2 3294   1.573   1.017   9.586
 1090SOL     OW 3295   1.187   1.792  10.926
 1090SOL    HW1 3296   1.211   1.852  10.850
 1090SOL    HW2 3297   1.194   1.697  10.896
 1091SOL     OW 3298   0.317   0.251  11.111
 1091SOL    HW1 3299   0.388   0.322  11.117
 1091SOL    HW2 3300   0.229   0.290  11.139
 1092SOL     OW 3301   1.466   1.417  10.263
 1092SOL    HW1 3302   1.407   1.423  10.343
 1092SOL    HW2 3303   1.451   1.329  10.217
 1093SOL     OW 3304   1.667   1.714   9.882
 1093SOL    HW1 3305   1.626   1.691   9.794
 1093SOL    HW2 3306   1.649   1.640   9.947
 1094SOL     OW 3307   0.598   0.729   9.580
 1094SOL    HW1 3308   0.622   0.798   9.512
 1094SOL    HW2 3309   0.520   0.762   9.634
 1095SOL     OW 3310   1.281   0.345  10.254
 1095SOL    HW1 3311   1.195   0.295  10.241
 1095SOL    HW2 3312   1.343   0.291  10.310
 1096SOL     OW 3313   1.576   1.662   9.617
 1096SOL    HW1 3314   1.665   1.708   9.620
 1096SOL    HW2 3315   1.555   1.638   9.522
 1097SOL     OW 3316   0.807   0.605  10.775
 1097SOL    HW1 3317   0.760   0.602  10.864
 1097SOL    HW2 3318   0.756   0.550  10.709
 1098SOL     OW 3319   1.394   0.469  10.984
 1098SOL    HW1 3320   1.374   0.512  11.072
 1098SOL    HW2 3321   1.472   0.407  10.993
 1099SOL     OW 3322   0.973   0.890  10.882
 1099SOL    HW1 3323   1.019   0.806  10.853
 1099SOL    HW2 3324   0.917   0.924  10.807
 1100SOL     OW 3325   0.991   0.410  10.552
 1100SOL    HW1 3326   0.914   0.444  10.606
 1100SOL    HW2 3327   0.957   0.359  10.473
 1101SOL     OW 3328   1.041   0.701   9.739
 1101SOL    HW1 3329   1.067   0.697   9.835
 1101SOL    HW2 3330   0.956   0.650   9.725
 1102SOL     OW 3331   0.076   0.811  10.099
 1102SOL    HW1 3332   0.175   0.799  10.108
 1102SOL    HW2 3333   0.052   0.906  10.120
 1103SOL     OW 3334   0.130   1.821  10.881
 1103SOL    HW1 3335   0.120   1.806  10.980
 1103SOL    HW2 3336   0.044   1.857  10.845
 1104SOL     OW 3337   0.865   0.348   9.505
 1104SOL    HW1 3338   0.924   0.411   9.456
 1104SOL    HW2 3339   0.884   0.254   9.476
 1105SOL     OW 3340   1.719   0.585  11.141
 1105SOL    HW1 3341   1.693   0.674  11.105
 1105SOL    HW2 3342   1.717   0.517  11.068
 1106SOL     OW 3343   1.362   1.144   9.855
 1106SOL    HW1 3344   1.445   1.115   9.807
 1106SOL    HW2 3345   1.313   1.211   9.799
 1107SOL     OW 3346   0.550   0.196  10.195
 1107SOL    HW1 3347   0.545   0.191  10.295
 1107SOL    HW2 3348   0.552   0.292  10.166
 1108SOL     OW 3349   1.008   1.456   9.787
 1108SOL    HW1 3350   0.962   1.528   9.735
 1108SOL    HW2 3351   1.004   1.476   9.885
 1109SOL     OW 3352   0.351   1.801  10.163
 1109SOL    HW1 3353   0.401   1.715  10.169
 1109SOL    HW2 3354   0.416   1.878  10.160
 1110SOL     OW 3355   1.795   1.066  10.183
 1110SOL    HW1 3356   1.733   1.051  10.107
 1110SOL    HW2 3357   1.743   1.077  10.268
 1111SOL     OW 3358   1.227   1.550  10.816
 1111SOL    HW1 3359   1.233   1.473  10.880
 1111SOL    HW2 3360   1.175   1.524  10.736
 1112SOL     OW 3361   0.321   0.943   9.552
 1112SOL    HW1 3362   0.403   0.982   9.510
 1112SOL    HW2 3363   0.294   0.861   9.503
 1113SOL     OW 3364   1.458   0.735  10.038
 1113SOL    HW1 3365   1.453   0.670  10.113
 1113SOL    HW2 3366   1.538   0.794  10.051
 1114SOL     OW 3367   0.461   1.266  11.037
 1114SOL    HW1 3368   0.411   1.267  10.951
 1114SOL    HW2 3369   0.398   1.248  11.113
 1115SOL     OW 3370   1.111   1.776   9.547
 1115SOL    HW1 3371   1.051   1.714   9.597
 1115SOL    HW2 3372   1.142   1.732   9.462
 1116SOL     OW 3373   0.202   0.285  10.808
 1116SOL    HW1 3374   0.122   0.345  10.795
 1116SOL    HW2 3375   0.192   0.236  10.894
 1117SOL     OW 3376   1.632   1.377   9.391
 1117SOL    HW1 3377   1.600   1.471   9.381
 1117SOL    HW2 3378   1.556   1.314   9.379
 1118SOL     OW 3379   0.464   1.743   9.633
 1118SOL    HW1 3380   0.497   1.782   9.719
 1118SOL    HW2 3381   0.540   1.736   9.568
 1119SOL     OW 3382   1.400   0.107   9.736
 1119SOL    HW1 3383   1.376   0.070   9.646
 1119SOL    HW2 3384   1.499   0.123   9.740
 1120SOL     OW 3385   0.249   1.785  10.551
 1120SOL    HW1 3386   0.306   1.720  10.601
 1120SOL    HW2 3387   0.233   1.752  10.458
 1121SOL     OW 3388   0.940   1.698  10.214
 1121SOL    HW1 3389   1.020   1.641  10.235
 1121SOL    HW2 3390   0.891   1.658  10.137
 1122SOL     OW 3391   0.382   0.700   9.790
 1122SOL    HW1 3392   0.427   0.610   9.787
 1122SOL    HW2 3393   0.288   0.689   9.823
 1123SOL     OW 3394   1.547   0.222  11.039
 1123SOL    HW1 3395   1.542   0.259  11.131
 1123SOL    HW2 3396   1.475   0.153  11.027
 1124SOL     OW 3397   0.614   0.122   9.427
 1124SOL    HW1 3398   0.712   0.100   9.434
 1124SOL    HW2 3399   0.583   0.105   9.334
 1125SOL     OW 3400   0.781   0.264  11.059
 1125SOL    HW1 3401   0.848   0.203  11.102
 1125SOL    HW2 3402   0.708   0.283  11.124
 1126SOL     OW 3403   0.888   1.514  10.505
 1126SOL    HW1 3404   0.865   1.489  10.411
 1126SOL    HW2 3405   0.949   1.445  10.544
 1127SOL     OW 3406   1.351   0.590  10.743
 1127SOL    HW1 3407   1.379   0.547  10.828
 1127SOL    HW2 3408   1.376   0.686  10.744
 1128SOL     OW 3409   0.803   1.402  10.234
 1128SOL    HW1 3410   0.893   1.416  10.192
 1128SOL    HW2 3411   0.732   1.404  10.163
 1129SOL     OW 3412   0.922   0.503  10.209
 1129SOL    HW1 3413   0.897   0.494  10.113
 1129SOL    HW2 3414   0.970   0.421  10.240
 1130SOL     OW 3415   0.539   0.064   9.822
 1130SOL    HW1 3416   0.458   0.065   9.880
 1130SOL    HW2 3417   0.542   0.147   9.767
 1131SOL     OW 3418   1.434   1.188   9.351
 1131SOL    HW1 3419   1.466   1.112   9.408
 1131SOL    HW2 3420   1.342   1.215   9.381
 1132SOL     OW 3421   0.297   0.035   9.481
 1132SOL    HW1 3422   0.346   0.119   9.460
 1132SOL    HW2 3423   0.359  -0.030   9.526
 1133SOL     OW 3424   0.935   0.236   9.790
 1133SOL    HW1 3425   0.887   0.277   9.712
 1133SOL    HW2 3426   1.034   0.234   9.771
 1134SOL     OW 3427   1.076   0.683  10.774
 1134SOL    HW1 3428   0.996   0.622  10.777
 1134SOL    HW2 3429   1.157   0.630  10.750
 1135SOL     OW 3430   1.227   1.570  10.103
 1135SOL    HW1 3431   1.248   1.644  10.038
 1135SOL    HW2 3432   1.295   1.570  10.176
 1136SOL     OW 3433   0.459   1.152  10.051
 1136SOL    HW1 3434   0.388   1.125  10.116
 1136SOL    HW2 3435   0.433   1.124   9.958
 1137SOL     OW 3436   1.271   1.797   9.901
 1137SOL    HW1 3437   1.315   1.861   9.837
 1137SOL    HW2 3438   1.221   1.849   9.971
 1138SOL     OW 3439   1.032   0.549   9.326
 1138SOL    HW1 3440   0.991   0.631   9.287
 1138SOL    HW2 3441   1.096   0.575   9.399
 1139SOL     OW 3442   0.078   0.556  10.696
 1139SOL    HW1 3443   0.170   0.555  10.655
 1139SOL    HW2 3444   0.072   0.630  10.763
 1140SOL     OW 3445   0.561   0.222  10.457
 1140SOL    HW1 3446   0.599   0.138  10.494
 1140SOL    HW2 3447   0.473   0.241  10.501
 1141SOL     OW 3448   0.866   0.454   9.952
 1141SOL    HW1 3449   0.834   0.526   9.890
 1141SOL    HW2 3450   0.890   0.373   9.899
 1142SOL     OW 3451   1.017   0.039  10.063
 1142SOL    HW1 3452   0.945   0.044   9.994
 1142SOL    HW2 3453   0.993  -0.030  10.132
 1143SOL     OW 3454   1.429   1.173  10.177
 1143SOL    HW1 3455   1.374   1.089  10.170
 1143SOL    HW2 3456   1.455   1.202  10.085
 1144SOL     OW 3457   1.466   0.590  10.302
 1144SOL    HW1 3458   1.436   0.495  10.309
 1144SOL    HW2 3459   1.539   0.606  10.368
 1145SOL     OW 3460   1.857   0.833   9.687
 1145SOL    HW1 3461   1.899   0.769   9.751
 1145SOL    HW2 3462   1.819   0.782   9.609
 1146SOL     OW 3463   0.488   1.385   9.484
 1146SOL    HW1 3464   0.401   1.370   9.531
 1146SOL    HW2 3465   0.471   1.411   9.389
 1147SOL     OW 3466   1.664   1.280   9.967
 1147SOL    HW1 3467   1.763   1.288   9.981
 1147SOL    HW2 3468   1.619   1.364   9.998
 1148SOL     OW 3469   1.390   0.575   9.388
 1148SOL    HW1 3470   1.336   0.554   9.469
 1148SOL    HW2 3471   1.481   0.534   9.397
 1149SOL     OW 3472   0.527   0.256   9.638
 1149SOL    HW1 3473   0.554   0.197   9.563
 1149SOL    HW2 3474   0.527   0.351   9.607
 1150SOL     OW 3475   1.754   1.223  10.898
 1150SOL    HW1 3476   1.845   1.184  10.885
 1150SOL    HW2 3477   1.762   1.319  10.922
 1151SOL     OW 3478   1.064   1.347  10.650
 1151SOL    HW1 3479   0.984   1.324  10.705
 1151SOL    HW2 3480   1.147   1.321  10.699
 1152SOL     OW 3481   1.592   1.629  10.935
 1152SOL    HW1 3482   1.619   1.663  10.845
 1152SOL    HW2 3483   1.671   1.591  10.981
 1153SOL     OW 3484   1.111   1.195  10.410
 1153SOL    HW1 3485   1.071   1.239  10.491
 1153SOL    HW2 3486   1.070   1.232  10.327
 1154SOL     OW 3487   1.638   1.099  10.389
 1154SOL    HW1 3488   1.643   1.180  10.448
 1154SOL    HW2 3489   1.552   1.101  10.338
 1155SOL     OW 3490   0.915   0.089  10.712
 1155SOL    HW1 3491   0.940   0.069  10.617
 1155SOL    HW2 3492   0.987   0.145  10.754
 1156SOL     OW 3493   0.980   1.116  11.029
 1156SOL    HW1 3494   0.881   1.122  11.039
 1156SOL    HW2 3495   1.003   1.036  10.973
 1157SOL     OW 3496   0.705   1.050   9.678
 1157SOL    HW1 3497   0.691   1.057   9.777
 1157SOL    HW2 3498   0.789   0.999   9.660
 1158SOL     OW 3499   0.410   0.813  10.561
 1158SOL    HW1 3500   0.496   0.825  10.611
 1158SOL    HW2 3501   0.368   0.726  10.588
 1159SOL     OW 3502   1.274   0.386  10.572
 1159SOL    HW1 3503   1.295   0.460  10.636
 1159SOL    HW2 3504   1.185   0.403  10.529
 1160SOL     OW 3505   0.064   1.564  10.641
 1160SOL    HW1 3506   0.018   1.646  10.607
 1160SOL    HW2 3507   0.162   1.583  10.650
 1161SOL     OW 3508   0.367   1.100   9.811
 1161SOL    HW1 3509   0.360   1.183   9.755
 1161SOL    HW2 3510   0.371   1.020   9.751
 1162SOL     OW 3511   0.566   0.537  10.175
 1162SOL    HW1 3512   0.578   0.603  10.101
 1162SOL    HW2 3513   0.612   0.571  10.258
 1163SOL     OW 3514   1.252   1.348   9.698
 1163SOL    HW1 3515   1.302   1.425   9.738
 1163SOL    HW2 3516   1.157   1.350   9.730
 1164SOL     OW 3517   1.272   1.445  10.452
 1164SOL    HW1 3518   1.319   1.458  10.539
 1164SOL    HW2 3519   1.206   1.371  10.461
 1165SOL     OW 3520   1.582   0.639   9.782
 1165SOL    HW1 3521   1.551   0.700   9.855
 1165SOL    HW2 3522   1.632   0.691   9.713
 1166SOL     OW 3523   0.354   1.510  10.639
 1166SOL    HW1 3524   0.333   1.466  10.552
 1166SOL    HW2 3525   0.451   1.536  10.642
 1167SOL     OW 3526   0.402   0.751  10.908
 1167SOL    HW1 3527   0.470   0.806  10.861
 1167SOL    HW2 3528   0.442   0.663  10.935
 1168SOL     OW 3529   1.587   0.779  10.980
 1168SOL    HW1 3530   1.495   0.817  10.975
 1168SOL    HW2 3531   1.647   0.826  10.915
 1169SOL     OW 3532   1.013   0.105  11.080
 1169SOL    HW1 3533   1.019   0.190  11.028
 1169SOL    HW2 3534   1.045   0.029  11.023
 1170SOL     OW 3535   0.504   0.050  11.050
 1170SOL    HW1 3536   0.462  -0.007  10.980
 1170SOL    HW2 3537   0.438   0.119  11.082
 1171SOL     OW 3538   0.573   0.870  10.339
 1171SOL    HW1 3539   0.617   0.959  10.330
 1171SOL    HW2 3540   0.510   0.870  10.416
 1172SOL     OW 3541   1.360   0.862  10.355
 1172SOL    HW1 3542   1.285   0.862  10.289
 1172SOL    HW2 3543   1.397   0.770  10.364
 1173SOL     OW 3544   1.209   0.525   9.585
 1173SOL    HW1 3545   1.222   0.441   9.639
 1173SOL    HW2 3546   1.180   0.599   9.645
 1174SOL     OW 3547   0.307   0.213  10.541
 1174SOL    HW1 3548   0.284   0.250  10.631
 1174SOL    HW2 3549   0.277   0.118  10.535
 1175SOL     OW 3550   0.037   1.310  10.592
 1175SOL    HW1 3551   0.090   1.261  10.660
 1175SOL    HW2 3552   0.059   1.408  10.597
 1176SOL     OW 3553   0.732   0.634  10.374
 1176SOL    HW1 3554   0.791   0.608  10.298
 1176SOL    HW2 3555   0.704   0.730  10.363
 1177SOL     OW 3556   1.728   0.935  11.164
 1177SOL    HW1 3557   1.682   0.928  11.075
 1177SOL    HW2 3558   1.666   0.979  11.230
 1178SOL     OW 3559   0.307   0.063   9.928
 1178SOL    HW1 3560   0.296   0.157   9.961
 1178SOL    HW2 3561   0.302   0.000  10.005
 1179SOL     OW 3562   1.622   0.367   9.684
 1179SOL    HW1 3563   1.624   0.291   9.748
 1179SOL    HW2 3564   1.574   0.444   9.724
 1180SOL     OW 3565   1.023   0.766  10.276
 1180SOL    HW1 3566   1.038   0.787  10.372
 1180SOL    HW2 3567   0.993   0.671  10.267
 1181SOL     OW 3568   0.980   1.573  11.010
 1181SOL    HW1 3569   0.960   1.617  10.922
 1181SOL    HW2 3570   1.019   1.482  10.994
 1182SOL     OW 3571   1.859   1.518  10.915
 1182SOL    HW1 3572   1.873   1.545  10.820
 1182SOL    HW2 3573   1.942   1.540  10.968
 1183SOL     OW 3574   0.350   0.898  11.114
 1183SOL    HW1 3575   0.426   0.942  11.162
 1183SOL    HW2 3576   0.385   0.851  11.032
 1184SOL     OW 3577   1.540   0.274   9.435
 1184SOL    HW1 3578   1.479   0.199   9.458
 1184SOL    HW2 3579   1.562   0.326   9.518
 1185SOL     OW 3580   1.303   0.838   9.352
 1185SOL    HW1 3581   1.337   0.745   9.367
 1185SOL    HW2 3582   1.321   0.865   9.257
 1186SOL     OW 3583   1.068   1.333  10.159
 1186SOL    HW1 3584   1.075   1.249  10.104
 1186SOL    HW2 3585   1.130   1.402  10.123
 1187SOL     OW 3586   0.319   0.810  10.259
 1187SOL    HW1 3587   0.412   0.846  10.264
 1187SOL    HW2 3588   0.313   0.725  10.311
 1188SOL     OW 3589   0.339   0.509  10.316
 1188SOL    HW1 3590   0.287   0.426  10.299
 1188SOL    HW2 3591   0.416   0.514  10.252
 1189SOL     OW 3592   1.138   0.380  10.988
 1189SOL    HW1 3593   1.093   0.443  11.052
 1189SOL    HW2 3594   1.231   0.411  10.971
 1190SOL     OW 3595   1.160   0.207  10.787
 1190SOL    HW1 3596   1.160   0.271  10.864
 1190SOL    HW2 3597   1.188   0.255  10.704
 1191SOL     OW 3598   0.008   1.326   9.510
 1191SOL    HW1 3599  -0.085   1.347   9.479
 1191SOL    HW2 3600   0.018   1.227   9.523
 1192SOL     OW 3601   0.088   1.801  10.237
 1192SOL    HW1 3602   0.046   1.715  10.210
 1192SOL    HW2 3603   0.182   1.804  10.203
 1193SOL     OW 3604   0.504   1.568  10.220
 1193SOL    HW1 3605   0.570   1.642  10.229
 1193SOL    HW2 3606   0.548   1.489  10.178
 1194SOL     OW 3607   1.002   0.796  10.548
 1194SOL    HW1 3608   1.043   0.764  10.634
 1194SOL    HW2 3609   0.906   0.769  10.545
 1195SOL     OW 3610   0.040   0.544  10.424
 1195SOL    HW1 3611   0.125   0.511  10.383
 1195SOL    HW2 3612   0.053   0.559  10.522
 1196SOL     OW 3613   0.189   0.520  11.032
 1196SOL    HW1 3614   0.248   0.480  10.962
 1196SOL    HW2 3615   0.131   0.591  10.991
 1197SOL     OW 3616   1.369   0.950  10.970
 1197SOL    HW1 3617   1.408   1.039  10.990
 1197SOL    HW2 3618   1.379   0.930  10.873
 1198SOL     OW 3619   0.815   0.572   9.635
 1198SOL    HW1 3620   0.822   0.483   9.589
 1198SOL    HW2 3621   0.721   0.606   9.627
 1199SOL     OW 3622   1.657   0.604  10.516
 1199SOL    HW1 3623   1.619   0.535  10.578
 1199SOL    HW2 3624   1.739   0.568  10.472
 1200SOL     OW 3625   0.252   1.564  11.054
 1200SOL    HW1 3626   0.222   1.621  11.130
 1200SOL    HW2 3627   0.245   1.467  11.080
 1201SOL     OW 3628   0.671   0.464  10.579
 1201SOL    HW1 3629   0.637   0.375  10.549
 1201SOL    HW2 3630   0.697   0.518  10.499
 1202SOL     OW 3631   0.930   1.678  10.775
 1202SOL    HW1 3632   0.906   1.660  10.680
 1202SOL    HW2 3633   0.960   1.772  10.785
 1203SOL     OW 3634   0.473   0.500   9.501
 1203SOL    HW1 3635   0.534   0.580   9.505
 1203SOL    HW2 3636   0.378   0.531   9.508
 1204SOL     OW 3637   0.159   1.137  10.776
 1204SOL    HW1 3638   0.181   1.076  10.852
 1204SOL    HW2 3639   0.169   1.088  10.690
 1205SOL     OW 3640   1.347   1.059  10.544
 1205SOL    HW1 3641   1.371   0.996  10.470
 1205SOL    HW2 3642   1.257   1.099  10.526
 1206SOL     OW 3643   1.302   0.855   9.619
 1206SOL    HW1 3644   1.216   0.824   9.661
 1206SOL    HW2 3645   1.298   0.841   9.520
 1207SOL     OW 3646   1.759   1.747  10.464
 1207SOL    HW1 3647   1.820   1.777  10.391
 1207SOL    HW2 3648   1.721   1.658  10.442
 1208SOL     OW 3649   1.252   1.731  10.438
 1208SOL    HW1 3650   1.336   1.736  10.384
 1208SOL    HW2 3651   1.229   1.635  10.456
 1209SOL     OW 3652   0.083   1.258  10.332
 1209SOL    HW1 3653   0.078   1.257  10.432
 1209SOL    HW2 3654   0.000   1.217  10.294
 1210SOL     OW 3655   0.688   1.662  11.026
 1210SOL    HW1 3656   0.632   1.743  11.035
 1210SOL    HW2 3657   0.740   1.666  10.940
 1211SOL     OW 3658   1.726   0.135   9.833
 1211SOL    HW1 3659   1.799   0.118   9.766
 1211SOL    HW2 3660   1.695   0.048   9.871
 1212SOL     OW 3661   1.388   1.573   9.787
 1212SOL    HW1 3662   1.455   1.585   9.713
 1212SOL    HW2 3663   1.348   1.662   9.810
 1213SOL     OW 3664   0.130   1.794  11.161
 1213SOL    HW1 3665   0.089   1.720  11.214
 1213SOL    HW2 3666   0.194   1.845  11.219
 1214SOL     OW 3667   1.280   0.927   9.982
 1214SOL    HW1 3668   1.340   0.846   9.984
 1214SOL    HW2 3669   1.320   0.996   9.922
 1215SOL     OW 3670   0.830   1.273  10.732
 1215SOL    HW1 3671   0.825   1.306  10.827
 1215SOL    HW2 3672   0.744   1.292  10.686
 1216SOL     OW 3673   0.672   1.616   9.464
 1216SOL    HW1 3674   0.681   1.626   9.365
 1216SOL    HW2 3675   0.632   1.527   9.485
 1217SOL     OW 3676   1.650   1.720  10.704
 1217SOL    HW1 3677   1.703   1.730  10.620
 1217SOL    HW2 3678   1.623   1.810  10.738
 1218SOL     OW 3679   1.841   0.175  10.273
 1218SOL    HW1 3680   1.880   0.090  10.237
 1218SOL    HW2 3681   1.743   0.177  10.254
 1219SOL     OW 3682   0.263   0.326  10.030
 1219SOL    HW1 3683   0.184   0.377   9.996
 1219SOL    HW2 3684   0.254   0.311  10.128
 1220SOL     OW 3685   1.194   1.612   9.341
 1220SOL    HW1 3686   1.200   1.519   9.378
 1220SOL    HW2 3687   1.135   1.612   9.261
 1221SOL     OW 3688   0.822   1.002  10.682
 1221SOL    HW1 3689   0.862   1.001  10.590
 1221SOL    HW2 3690   0.832   1.094  10.722
 1222SOL     OW 3691   0.916   0.910   9.601
 1222SOL    HW1 3692   0.979   0.948   9.533
 1222SOL    HW2 3693   0.956   0.827   9.640
 1223SOL     OW 3694   1.504   1.607   9.354
 1223SOL    HW1 3695   1.412   1.644   9.361
 1223SOL    HW2 3696   1.542   1.627   9.264
 1224SOL     OW 3697   0.372   1.288  10.800
 1224SOL    HW1 3698   0.359   1.381  10.766
 1224SOL    HW2 3699   0.288   1.236  10.787
 1225SOL     OW 3700   1.614   1.292  10.599
 1225SOL    HW1 3701   1.674   1.295  10.679
 1225SOL    HW2 3702   1.539   1.356  10.612
 1226SOL     OW 3703   1.039   1.098  10.006
 1226SOL    HW1 3704   0.969   1.051  10.060
 1226SOL    HW2 3705   1.098   1.030   9.963
 1227SOL     OW 3706   1.014   0.236  10.281
 1227SOL    HW1 3707   1.006   0.200  10.188
 1227SOL    HW2 3708   1.012   0.160  10.346
 1228SOL     OW 3709   0.590   1.487   9.801
 1228SOL    HW1 3710   0.632   1.429   9.731
 1228SOL    HW2 3711   0.546   1.566   9.757
 1229SOL     OW 3712   1.709   0.385  10.691
 1229SOL    HW1 3713   1.782   0.454  10.695
 1229SOL    HW2 3714   1.737   0.310  10.632
 1230SOL     OW 3715   0.255   1.348   9.600
 1230SOL    HW1 3716   0.159   1.349   9.573
 1230SOL    HW2 3717   0.267   1.401   9.684
 1231SOL     OW 3718   0.105   1.013  11.036
 1231SOL    HW1 3719   0.028   0.980  11.090
 1231SOL    HW2 3720   0.190   0.983  11.078
 1232SOL     OW 3721   0.672   0.203  10.799
 1232SOL    HW1 3722   0.762   0.187  10.759
 1232SOL    HW2 3723   0.680   0.208  10.898
 1233SOL     OW 3724   0.075   0.345   9.343
 1233SOL    HW1 3725  -0.017   0.317   9.314
 1233SOL    HW2 3726   0.106   0.422   9.287
 1234SOL     OW 3727   1.440   0.856  10.708
 1234SOL    HW1 3728   1.383   0.908  10.645
 1234SOL    HW2 3729   1.536   0.868  10.684
 1235SOL     OW 3730   0.072   0.166   9.628
 1235SOL    HW1 3731   0.055   0.249   9.574
 1235SOL    HW2 3732   0.162   0.129   9.606
 1236SOL     OW 3733   1.183   1.335   9.429
 1236SOL    HW1 3734   1.084   1.324   9.431
 1236SOL    HW2 3735   1.217   1.350   9.522
 1237SOL     OW 3736   0.613   0.842  10.741
 1237SOL    HW1 3737   0.669   0.923  10.724
 1237SOL    HW2 3738   0.672   0.762  10.744
 1238SOL     OW 3739   1.493   1.767  10.269
 1238SOL    HW1 3740   1.526   1.831  10.200
 1238SOL    HW2 3741   1.559   1.761  10.344
 1239SOL     OW 3742   0.716   0.565  11.018
 1239SOL    HW1 3743   0.735   0.630  11.092
 1239SOL    HW2 3744   0.776   0.485  11.027
 1240SOL     OW 3745   1.450   1.220  10.943
 1240SOL    HW1 3746   1.441   1.210  11.042
 1240SOL    HW2 3747   1.546   1.213  10.917
 1241SOL     OW 3748   0.390   1.741  10.870
 1241SOL    HW1 3749   0.299   1.782  10.868
 1241SOL    HW2 3750   0.383   1.647  10.902
 1242SOL     OW 3751   1.674   0.883  10.564
 1242SOL    HW1 3752   1.647   0.794  10.527
 1242SOL    HW2 3753   1.675   0.951  10.491
 1243SOL     OW 3754   1.225   0.325   9.759
 1243SOL    HW1 3755   1.290   0.251   9.748
 1243SOL    HW2 3756   1.245   0.375   9.843
 1244SOL     OW 3757   0.594   0.745   9.962
 1244SOL    HW1 3758   0.644   0.830   9.943
 1244SOL    HW2 3759   0.506   0.747   9.914
 1245SOL     OW 3760   1.777   0.342  10.952
 1245SOL    HW1 3761   1.760   0.373  10.858
 1245SOL    HW2 3762   1.693   0.305  10.990
 1246SOL     OW 3763   1.730   0.934  10.827
 1246SOL    HW1 3764   1.768   1.025  10.842
 1246SOL    HW2 3765   1.722   0.917  10.728
 1247SOL     OW 3766   0.859   1.374   9.326
 1247SOL    HW1 3767   0.813   1.389   9.414
 1247SOL    HW2 3768   0.903   1.459   9.296
 1248SOL     OW 3769   0.661   1.790  10.263
 1248SOL    HW1 3770   0.615   1.878  10.250
 1248SOL    HW2 3771   0.760   1.802  10.256
 1249SOL     OW 3772   0.859   0.956  10.171
 1249SOL    HW1 3773   0.913   0.887  10.219
 1249SOL    HW2 3774   0.827   1.025  10.237
 1250SOL     OW 3775   1.083   0.984   9.397
 1250SOL    HW1 3776   1.060   1.037   9.315
 1250SOL    HW2 3777   1.164   0.928   9.378
 1251SOL     OW 3778   1.861   1.569  10.161
 1251SOL    HW1 3779   1.790   1.557  10.091
 1251SOL    HW2 3780   1.862   1.490  10.221
 1252SOL     OW 3781   0.221   1.314  11.154
 1252SOL    HW1 3782   0.156   1.241  11.133
 1252SOL    HW2 3783   0.225   1.328  11.252
 1253SOL     OW 3784   0.079   1.240   9.963
 1253SOL    HW1 3785   0.078   1.193  10.051
 1253SOL    HW2 3786   0.161   1.212   9.912
 1254SOL     OW 3787   0.672   1.391  10.934
 1254SOL    HW1 3788   0.594   1.341  10.972
 1254SOL    HW2 3789   0.669   1.486  10.965
 1255SOL     OW 3790   1.824   0.192  10.537
 1255SOL    HW1 3791   1.820   0.102  10.581
 1255SOL    HW2 3792   1.827   0.181  10.438
 1256SOL     OW 3793   0.428   0.424   9.830
 1256SOL    HW1 3794   0.458   0.352   9.768
 1256SOL    HW2 3795   0.389   0.384   9.913
 1257SOL     OW 3796   1.705   1.487  10.414
 1257SOL    HW1 3797   1.612   1.462  10.387
 1257SOL    HW2 3798   1.731   1.437  10.496
 1258SOL     OW 3799   0.317   0.547  10.590
 1258SOL    HW1 3800   0.355   0.488  10.662
 1258SOL    HW2 3801   0.357   0.521  10.502
 1259SOL     OW 3802   0.812   1.586   9.997
 1259SOL    HW1 3803   0.844   1.596   9.903
 1259SOL    HW2 3804   0.733   1.524   9.999
 1260SOL     OW 3805   1.424   0.214  10.422
 1260SOL    HW1 3806   1.476   0.149  10.477
 1260SOL    HW2 3807   1.375   0.277  10.483
 1261SOL     OW 3808   1.001   0.034  10.464
 1261SOL    HW1 3809   0.938  -0.038  10.433
 1261SOL    HW2 3810   1.094  -0.002  10.464
 1262SOL     OW 3811   0.770   1.330   9.611
 1262SOL    HW1 3812   0.724   1.243   9.628
 1262SOL    HW2 3813   0.861   1.327   9.652
 1263SOL     OW 3814   0.618   1.567  10.594
 1263SOL    HW1 3815   0.613   1.649  10.651
 1263SOL    HW2 3816   0.707   1.564  10.549
 1264SOL     OW 3817   1.352   0.052   9.478
 1264SOL    HW1 3818   1.387   0.011   9.394
 1264SOL    HW2 3819   1.262   0.014   9.498
 1265SOL     OW 3820   1.300   0.453  10.001
 1265SOL    HW1 3821   1.241   0.533  10.005
 1265SOL    HW2 3822   1.315   0.418  10.094
 1266SOL     OW 3823   1.593   0.221  10.192
 1266SOL    HW1 3824   1.509   0.220  10.246
 1266SOL    HW2 3825   1.595   0.304  10.136
 1267SOL     OW 3826   0.039   1.077   9.610
 1267SOL    HW1 3827   0.138   1.066   9.601
 1267SOL    HW2 3828  -0.001   0.991   9.642
 1268SOL     OW 3829   0.875   1.646   9.647
 1268SOL    HW1 3830   0.798   1.611   9.593
 1268SOL    HW2 3831   0.843   1.717   9.709
 1269SOL     OW 3832   0.230   0.628  11.285
 1269SOL    HW1 3833   0.137   0.626  11.322
 1269SOL    HW2 3834   0.231   0.589  11.193
 1270SOL     OW 3835   0.225   0.275  12.168
 1270SOL    HW1 3836   0.260   0.258  12.260
 1270SOL    HW2 3837   0.137   0.230  12.156
 1271SOL     OW 3838   0.019   0.368  11.819
 1271SOL    HW1 3839  -0.063   0.411  11.858
 1271SOL    HW2 3840  -0.009   0.295  11.756
 1272SOL     OW 3841   0.569   1.275  12.337
 1272SOL    HW1 3842   0.476   1.268  12.300
 1272SOL    HW2 3843   0.580   1.364  12.381
 1273SOL     OW 3844   1.555   1.511  11.875
 1273SOL    HW1 3845   1.498   1.495  11.956
 1273SOL    HW2 3846   1.496   1.521  11.795
 1274SOL     OW 3847   1.135   0.703  11.889
 1274SOL    HW1 3848   1.192   0.781  11.864
 1274SOL    HW2 3849   1.075   0.729  11.965
 1275SOL     OW 3850   1.755   0.607  11.403
 1275SOL    HW1 3851   1.743   0.594  11.304
 1275SOL    HW2 3852   1.725   0.526  11.452
 1276SOL     OW 3853   0.768   1.144  12.195
 1276SOL    HW1 3854   0.690   1.161  12.255
 1276SOL    HW2 3855   0.802   1.231  12.159
 1277SOL     OW 3856   0.685   1.012  11.837
 1277SOL    HW1 3857   0.754   0.996  11.907
 1277SOL    HW2 3858   0.612   1.069  11.875
 1278SOL     OW 3859   0.335   1.435  12.233
 1278SOL    HW1 3860   0.257   1.404  12.180
 1278SOL    HW2 3861   0.393   1.493  12.176
 1279SOL     OW 3862   1.460   1.505  12.511
 1279SOL    HW1 3863   1.484   1.599  12.537
 1279SOL    HW2 3864   1.444   1.451  12.593
 1280SOL     OW 3865   0.438   0.392  12.671
 1280SOL    HW1 3866   0.520   0.336  12.680
 1280SOL    HW2 3867   0.357   0.334  12.675
 1281SOL     OW 3868   1.603   0.447  11.909
 1281SOL    HW1 3869   1.529   0.493  11.859
 1281SOL    HW2 3870   1.654   0.515  11.962
 1282SOL     OW 3871   0.231   1.713  11.655
 1282SOL    HW1 3872   0.265   1.790  11.709
 1282SOL    HW2 3873   0.275   1.713  11.565
 1283SOL     OW 3874   0.230   1.434  11.710
 1283SOL    HW1 3875   0.204   1.530  11.710
 1283SOL    HW2 3876   0.159   1.380  11.755
 1284SOL     OW 3877   0.240   1.091  12.058
 1284SOL    HW1 3878   0.254   1.007  12.110
 1284SOL    HW2 3879   0.185   1.155  12.113
 1285SOL     OW 3880   0.620   1.786  12.611
 1285SOL    HW1 3881   0.528   1.769  12.646
 1285SOL    HW2 3882   0.648   1.878  12.637
 1286SOL     OW 3883   0.606   0.964  11.295
 1286SOL    HW1 3884   0.613   1.048  11.241
 1286SOL    HW2 3885   0.652   0.977  11.383
 1287SOL     OW 3886   1.594   0.114  12.652
 1287SOL    HW1 3887   1.576   0.181  12.580
 1287SOL    HW2 3888   1.591   0.160  12.741
 1288SOL     OW 3889   0.122   0.643  11.735
 1288SOL    HW1 3890   0.077   0.555  11.752
 1288SOL    HW2 3891   0.121   0.697  11.819
 1289SOL     OW 3892   1.842   1.767  11.531
 1289SOL    HW1 3893   1.896   1.738  11.611
 1289SOL    HW2 3894   1.872   1.857  11.502
 1290SOL     OW 3895   0.027   1.596  11.289
 1290SOL    HW1 3896   0.008   1.500  11.310
 1290SOL    HW2 3897  -0.006   1.654  11.364
 1291SOL     OW 3898   1.689   0.922  11.784
 1291SOL    HW1 3899   1.784   0.893  11.792
 1291SOL    HW2 3900   1.681   0.987  11.709
 1292SOL     OW 3901   1.641   1.108  11.604
 1292SOL    HW1 3902   1.727   1.110  11.552
 1292SOL    HW2 3903   1.655   1.155  11.692
 1293SOL     OW 3904   0.613   1.365  11.898
 1293SOL    HW1 3905   0.564   1.278  11.907
 1293SOL    HW2 3906   0.590   1.408  11.811
 1294SOL     OW 3907   0.809   0.004  11.674
 1294SOL    HW1 3908   0.849   0.095  11.665
 1294SOL    HW2 3909   0.709   0.012  11.680
 1295SOL     OW 3910   0.197   0.976  12.436
 1295SOL    HW1 3911   0.286   0.931  12.422
 1295SOL    HW2 3912   0.124   0.911  12.417
 1296SOL     OW 3913   1.525   0.999  11.362
 1296SOL    HW1 3914   1.462   0.923  11.375
 1296SOL    HW2 3915   1.573   1.017  11.448
 1297SOL     OW 3916   0.317   0.251  12.973
 1297SOL    HW1 3917   0.388   0.322  12.979
 1297SOL    HW2 3918   0.229   0.290  13.001
 1298SOL     OW 3919   1.466   1.417  12.125
 1298SOL    HW1 3920   1.407   1.423  12.205
 1298SOL    HW2 3921   1.451   1.329  12.079
 1299SOL     OW 3922   1.667   1.714  11.744
 1299SOL    HW1 3923   1.626   1.691  11.656
 1299SOL    HW2 3924   1.649   1.640  11.809
 1300SOL     OW 3925   0.598   0.729  11.442
 1300SOL    HW1 3926   0.622   0.798  11.374
 1300SOL    HW2 3927   0.520   0.762  11.496
 1301SOL     OW 3928   1.281   0.345  12.116
 1301SOL    HW1 3929   1.195   0.295  12.103
 1301SOL    HW2 3930   1.343   0.291  12.172
 1302SOL     OW 3931   1.576   1.662  11.479
 1302SOL    HW1 3932   1.665   1.708  11.482
 1302SOL    HW2 3933   1.555   1.638  11.384
 1303SOL     OW 3934   0.807   0.605  12.637
 1303SOL    HW1 3935   0.760   0.602  12.726
 1303SOL    HW2 3936   0.756   0.550  12.571
 1304SOL     OW 3937   0.991   0.410  12.414
 1304SOL    HW1 3938   0.914   0.444  12.468
 1304SOL    HW2 3939   0.957   0.359  12.335
 1305SOL     OW 3940   1.041   0.701  11.601
 1305SOL    HW1 3941   1.067   0.697  11.697
 1305SOL    HW2 3942   0.956   0.650  11.587
 1306SOL     OW 3943   0.076   0.811  11.961
 1306SOL    HW1 3944   0.175   0.799  11.970
 1306SOL    HW2 3945   0.052   0.906  11.982
 1307SOL     OW 3946   0.130   1.821  12.743
 1307SOL    HW1 3947   0.120   1.806  12.842
 1307SOL    HW2 3948   0.044   1.857  12.707
 1308SOL     OW 3949   0.865   0.348  11.367
 1308SOL    HW1 3950   0.924   0.411  11.318
 1308SOL    HW2 3951   0.884   0.254  11.338
 1309SOL     OW 3952   1.362   1.144  11.717
 1309SOL    HW1 3953   1.445   1.115  11.669
 1309SOL    HW2 3954   1.313   1.211  11.661
 1310SOL     OW 3955   0.550   0.196  12.057
 1310SOL    HW1 3956   0.545   0.191  12.157
 1310SOL    HW2 3957   0.552   0.292  12.028
 1311SOL     OW 3958   1.008   1.456  11.649
 1311SOL    HW1 3959   0.962   1.528  11.597
 1311SOL    HW2 3960   1.004   1.476  11.747
 1312SOL     OW 3961   0.351   1.801  12.025
 1312SOL    HW1 3962   0.401   1.715  12.031
 1312SOL    HW2 3963   0.416   1.878  12.022
 1313SOL     OW 3964   1.795   1.066  12.045
 1313SOL    HW1 3965   1.733   1.051  11.969
 1313SOL    HW2 3966   1.743   1.077  12.130
 1314SOL     OW 3967   0.321   0.943  11.414
 1314SOL    HW1 3968   0.403   0.982  11.372
 1314SOL    HW2 3969   0.294   0.861  11.365
 1315SOL     OW 3970   1.458   0.735  11.900
 1315SOL    HW1 3971   1.453   0.670  11.975
 1315SOL    HW2 3972   1.538   0.794  11.913
 1316SOL     OW 3973   1.111   1.776  11.409
 1316SOL    HW1 3974   1.051   1.714  11.459
 1316SOL    HW2 3975   1.142   1.732  11.324
 1317SOL     OW 3976   1.632   1.377  11.253
 1317SOL    HW1 3977   1.600   1.471  11.243
 1317SOL    HW2 3978   1.556   1.314  11.241
 1318SOL     OW 3979   0.464   1.743  11.495
 1318SOL    HW1 3980   0.497   1.782  11.581
 1318SOL    HW2 3981   0.540   1.736  11.430
 1319SOL     OW 3982   1.400   0.107  11.598
 1319SOL    HW1 3983   1.376   0.070  11.508
 1319SOL    HW2 3984   1.499   0.123  11.602
 1320SOL     OW 3985   0.249   1.785  12.413
 1320SOL    HW1 3986   0.306   1.720  12.463
 1320SOL    HW2 3987   0.233   1.752  12.320
 1321SOL     OW 3988   0.940   1.698  12.076
 1321SOL    HW1 3989   1.020   1.641  12.097
 1321SOL    HW2 3990   0.891   1.658  11.999
 1322SOL     OW 3991   0.382   0.700  11.652
 1322SOL    HW1 3992   0.427   0.610  11.649
 1322SOL    HW2 3993   0.288   0.689  11.685
 1323SOL     OW 3994   0.614   0.122  11.289
 1323SOL    HW1 3995   0.712   0.100  11.296
 1323SOL    HW2 3996   0.583   0.105  11.196
 1324SOL     OW 3997   0.888   1.514  12.367
 1324SOL    HW1 3998   0.865   1.489  12.273
 1324SOL    HW2 3999   0.949   1.445  12.406
 1325SOL     OW 4000   0.803   1.402  12.096
 1325SOL    HW1 4001   0.893   1.416  12.054
 1325SOL    HW2 4002   0.732   1.404  12.025
 1326SOL     OW 4003   0.922   0.503  12.071
 1326SOL    HW1 4004   0.897   0.494  11.975
 1326SOL    HW2 4005   0.970   0.421  12.102
 1327SOL     OW 4006   0.539   0.064  11.684
 1327SOL    HW1 4007   0.458   0.065  11.742
 1327SOL    HW2 4008   0.542   0.147  11.629
 1328SOL     OW 4009   1.434   1.188  11.213
 1328SOL    HW1 4010   1.466   1.112  11.270
 1328SOL    HW2 4011   1.342   1.215  11.243
 1329SOL     OW 4012   0.297   0.035  11.343
 1329SOL    HW1 4013   0.346   0.119  11.322
 1329SOL    HW2 4014   0.359  -0.030  11.388
 1330SOL     OW 4015   0.935   0.236  11.652
 1330SOL    HW1 4016   0.887   0.277  11.574
 1330SOL    HW2 4017   1.034   0.234  11.633
 1331SOL     OW 4018   1.227   1.570  11.965
 1331SOL    HW1 4019   1.248   1.644  11.900
 1331SOL    HW2 4020   1.295   1.570  12.038
 1332SOL     OW 4021   0.459   1.152  11.913
 1332SOL    HW1 4022   0.388   1.125  11.978
 1332SOL    HW2 4023   0.433   1.124  11.820
 1333SOL     OW 4024   1.271   1.797  11.763
 1333SOL    HW1 4025   1.315   1.861  11.699
 1333SOL    HW2 4026   1.221   1.849  11.833
 1334SOL     OW 4027   1.032   0.549  11.188
 1334SOL    HW1 4028   0.991   0.631  11.149
 1334SOL    HW2 4029   1.096   0.575  11.261
 1335SOL     OW 4030   0.078   0.556  12.558
 1335SOL    HW1 4031   0.170   0.555  12.517
 1335SOL    HW2 4032   0.072   0.630  12.625
 1336SOL     OW 4033   0.561   0.222  12.319
 1336SOL    HW1 4034   0.599   0.138  12.356
 1336SOL    HW2 4035   0.473   0.241  12.363
 1337SOL     OW 4036   0.866   0.454  11.814
 1337SOL    HW1 4037   0.834   0.526  11.752
 1337SOL    HW2 4038   0.890   0.373  11.761
 1338SOL     OW 4039   1.017   0.039  11.925
 1338SOL    HW1 4040   0.945   0.044  11.856
 1338SOL    HW2 4041   0.993  -0.030  11.994
 1339SOL     OW 4042   1.429   1.173  12.039
 1339SOL    HW1 4043   1.374   1.089  12.032
 1339SOL    HW2 4044   1.455   1.202  11.947
 1340SOL     OW 4045   1.466   0.590  12.164
 1340SOL    HW1 4046   1.436   0.495  12.171
 1340SOL    HW2 4047   1.539   0.606  12.230
 1341SOL     OW 4048   1.857   0.833  11.549
 1341SOL    HW1 4049   1.899   0.769  11.613
 1341SOL    HW2 4050   1.819   0.782  11.471
 1342SOL     OW 4051   0.488   1.385  11.346
 1342SOL    HW1 4052   0.401   1.370  11.393
 1342SOL    HW2 4053   0.471   1.411  11.251
 1343SOL     OW 4054   1.664   1.280  11.829
 1343SOL    HW1 4055   1.763   1.288  11.843
 1343SOL    HW2 4056   1.619   1.364  11.860
 1344SOL     OW 4057   1.390   0.575  11.250
 1344SOL    HW1 4058   1.336   0.554  11.331
 1344SOL    HW2 4059   1.481   0.534  11.259
 1345SOL     OW 4060   0.527   0.256  11.500
 1345SOL    HW1 4061   0.554   0.197  11.425
 1345SOL    HW2 4062   0.527   0.351  11.469
 1346SOL     OW 4063   1.064   1.347  12.512
 1346SOL    HW1 4064   0.984   1.324  12.567
 1346SOL    HW2 4065   1.147   1.321  12.561
 1347SOL     OW 4066   1.111   1.195  12.272
 1347SOL    HW1 4067   1.071   1.239  12.353
 1347SOL    HW2 4068   1.070   1.232  12.189
 1348SOL     OW 4069   1.638   1.099  12.251
 1348SOL    HW1 4070   1.643   1.180  12.310
 1348SOL    HW2 4071   1.552   1.101  12.200
 1349SOL     OW 4072   0.915   0.089  12.574
 1349SOL    HW1 4073   0.940   0.069  12.479
 1349SOL    HW2 4074   0.987   0.145  12.616
 1350SOL     OW 4075   0.705   1.050  11.540
 1350SOL    HW1 4076   0.691   1.057  11.639
 1350SOL    HW2 4077   0.789   0.999  11.522
 1351SOL     OW 4078   0.410   0.813  12.423
 1351SOL    HW1 4079   0.496   0.825  12.473
 1351SOL    HW2 4080   0.368   0.726  12.450
 1352SOL     OW 4081   1.274   0.386  12.434
 1352SOL    HW1 4082   1.295   0.460  12.498
 1352SOL    HW2 4083   1.185   0.403  12.391
 1353SOL     OW 4084   0.064   1.564  12.503
 1353SOL    HW1 4085   0.018   1.646  12.469
 1353SOL    HW2 4086   0.162   1.583  12.512
 1354SOL     OW 4087   0.367   1.100  11.673
 1354SOL    HW1 4088   0.360   1.183  11.617
 1354SOL    HW2 4089   0.371   1.020  11.613
 1355SOL     OW 4090   0.566   0.537  12.037
 1355SOL    HW1 4091   0.578   0.603  11.963
 1355SOL    HW2 4092   0.612   0.571  12.120
 1356SOL     OW 4093   1.252   1.348  11.560
 1356SOL    HW1 4094   1.302   1.425  11.600
 1356SOL    HW2 4095   1.157   1.350  11.592
 1357SOL     OW 4096   1.272   1.445  12.314
 1357SOL    HW1 4097   1.319   1.458  12.401
 1357SOL    HW2 4098   1.206   1.371  12.323
 1358SOL     OW 4099   1.582   0.639  11.644
 1358SOL    HW1 4100   1.551   0.700  11.717
 1358SOL    HW2 4101   1.632   0.691  11.575
 1359SOL     OW 4102   0.354   1.510  12.501
 1359SOL    HW1 4103   0.333   1.466  12.414
 1359SOL    HW2 4104   0.451   1.536  12.504
 1360SOL     OW 4105   0.402   0.751  12.770
 1360SOL    HW1 4106   0.470   0.806  12.723
 1360SOL    HW2 4107   0.442   0.663  12.797
 1361SOL     OW 4108   1.587   0.779  12.842
 1361SOL    HW1 4109   1.495   0.817  12.837
 1361SOL    HW2 4110   1.647   0.826  12.777
 1362SOL     OW 4111   0.573   0.870  12.201
 1362SOL    HW1 4112   0.617   0.959  12.192
 1362SOL    HW2 4113   0.510   0.870  12.278
 1363SOL     OW 4114   1.360   0.862  12.217
 1363SOL    HW1 4115   1.285   0.862  12.151
 1363SOL    HW2 4116   1.397   0.770  12.226
 1364SOL     OW 4117   1.209   0.525  11.447
 1364SOL    HW1 4118   1.222   0.441  11.501
 1364SOL    HW2 4119   1.180   0.599  11.507
 1365SOL     OW 4120   0.307   0.213  12.403
 1365SOL    HW1 4121   0.284   0.250  12.493
 1365SOL    HW2 4122   0.277   0.118  12.397
 1366SOL     OW 4123   0.037   1.310  12.454
 1366SOL    HW1 4124   0.090   1.261  12.522
 1366SOL    HW2 4125   0.059   1.408  12.459
 1367SOL     OW 4126   0.732   0.634  12.236
 1367SOL    HW1 4127   0.791   0.608  12.160
 1367SOL    HW2 4128   0.704   0.730  12.225
 1368SOL     OW 4129   0.307   0.063  11.790
 1368SOL    HW1 4130   0.296   0.157  11.823
 1368SOL    HW2 4131   0.302   0.000  11.867
 1369SOL     OW 4132   1.622   0.367  11.546
 1369SOL    HW1 4133   1.624   0.291  11.610
 1369SOL    HW2 4134   1.574   0.444  11.586
 1370SOL     OW 4135   1.023   0.766  12.138
 1370SOL    HW1 4136   1.038   0.787  12.234
 1370SOL    HW2 4137   0.993   0.671  12.129
 1371SOL     OW 4138   0.980   1.573  12.872
 1371SOL    HW1 4139   0.960   1.617  12.784
 1371SOL    HW2 4140   1.019   1.482  12.856
 1372SOL     OW 4141   1.540   0.274  11.297
 1372SOL    HW1 4142   1.479   0.199  11.320
 1372SOL    HW2 4143   1.562   0.326  11.380
 1373SOL     OW 4144   1.303   0.838  11.214
 1373SOL    HW1 4145   1.337   0.745  11.229
 1373SOL    HW2 4146   1.321   0.865  11.119
 1374SOL     OW 4147   1.068   1.333  12.021
 1374SOL    HW1 4148   1.075   1.249  11.966
 1374SOL    HW2 4149   1.130   1.402  11.985
 1375SOL     OW 4150   0.319   0.810  12.121
 1375SOL    HW1 4151   0.412   0.846  12.126
 1375SOL    HW2 4152   0.313   0.725  12.173
 1376SOL     OW 4153   0.339   0.509  12.178
 1376SOL    HW1 4154   0.287   0.426  12.161
 1376SOL    HW2 4155   0.416   0.514  12.114
 1377SOL     OW 4156   1.138   0.380  12.850
 1377SOL    HW1 4157   1.093   0.443  12.914
 1377SOL    HW2 4158   1.231   0.411  12.833
 1378SOL     OW 4159   1.160   0.207  12.649
 1378SOL    HW1 4160   1.160   0.271  12.726
 1378SOL    HW2 4161   1.188   0.255  12.566
 1379SOL     OW 4162   0.008   1.326  11.372
 1379SOL    HW1 4163  -0.085   1.347  11.341
 1379SOL    HW2 4164   0.018   1.227  11.385
 1380SOL     OW 4165   0.088   1.801  12.099
 1380SOL    HW1 4166   0.046   1.715  12.072
 1380SOL    HW2 4167   0.182   1.804  12.065
 1381SOL     OW 4168   0.504   1.568  12.082
 1381SOL    HW1 4169   0.570   1.642  12.091
 1381SOL    HW2 4170   0.548   1.489  12.040
 1382SOL     OW 4171   1.002   0.796  12.410
 1382SOL    HW1 4172   1.043   0.764  12.496
 1382SOL    HW2 4173   0.906   0.769  12.407
 1383SOL     OW 4174   0.040   0.544  12.286
 1383SOL    HW1 4175   0.125   0.511  12.245
 1383SOL    HW2 4176   0.053   0.559  12.384
 1384SOL     OW 4177   0.815   0.572  11.497
 1384SOL    HW1 4178   0.822   0.483  11.451
 1384SOL    HW2 4179   0.721   0.606  11.489
 1385SOL     OW 4180   1.657   0.604  12.378
 1385SOL    HW1 4181   1.619   0.535  12.440
 1385SOL    HW2 4182   1.739   0.568  12.334
 1386SOL     OW 4183   0.671   0.464  12.441
 1386SOL    HW1 4184   0.637   0.375  12.411
 1386SOL    HW2 4185   0.697   0.518  12.361
 1387SOL     OW 4186   0.930   1.678  12.637
 1387SOL    HW1 4187   0.906   1.660  12.542
 1387SOL    HW2 4188   0.960   1.772  12.647
 1388SOL     OW 4189   0.473   0.500  11.363
 1388SOL    HW1 4190   0.534   0.580  11.367
 1388SOL    HW2 4191   0.378   0.531  11.370
 1389SOL     OW 4192   0.159   1.137  12.638
 1389SOL    HW1 4193   0.181   1.076  12.714
 1389SOL    HW2 4194   0.169   1.088  12.552
 1390SOL     OW 4195   1.347   1.059  12.406
 1390SOL    HW1 4196   1.371   0.996  12.332
 1390SOL    HW2 4197   1.257   1.099  12.388
 1391SOL     OW 4198   1.302   0.855  11.481
 1391SOL    HW1 4199   1.216   0.824  11.523
 1391SOL    HW2 4200   1.298   0.841  11.382
 1392SOL     OW 4201   1.759   1.747  12.326
 1392SOL    HW1 4202   1.820   1.777  12.253
 1392SOL    HW2 4203   1.721   1.658  12.304
 1393SOL     OW 4204   1.252   1.731  12.300
 1393SOL    HW1 4205   1.336   1.736  12.246
 1393SOL    HW2 4206   1.229   1.635  12.318
 1394SOL     OW 4207   0.083   1.258  12.194
 1394SOL    HW1 4208   0.078   1.257  12.294
 1394SOL    HW2 4209   0.000   1.217  12.156
 1395SOL     OW 4210   1.726   0.135  11.695
 1395SOL    HW1 4211   1.799   0.118  11.628
 1395SOL    HW2 4212   1.695   0.048  11.733
 1396SOL     OW 4213   1.388   1.573  11.649
 1396SOL    HW1 4214   1.455   1.585  11.575
 1396SOL    HW2 4215   1.348   1.662  11.672
 1397SOL     OW 4216   1.280   0.927  11.844
 1397SOL    HW1 4217   1.340   0.846  11.846
 1397SOL    HW2 4218   1.320   0.996  11.784
 1398SOL     OW 4219   0.672   1.616  11.326
 1398SOL    HW1 4220   0.681   1.626  11.227
 1398SOL    HW2 4221   0.632   1.527  11.347
 1399SOL     OW 4222   1.650   1.720  12.566
 1399SOL    HW1 4223   1.703   1.730  12.482
 1399SOL    HW2 4224   1.623   1.810  12.600
 1400SOL     OW 4225   1.841   0.175  12.135
 1400SOL    HW1 4226   1.880   0.090  12.099
 1400SOL    HW2 4227   1.743   0.177  12.116
 1401SOL     OW 4228   0.263   0.326  11.892
 1401SOL    HW1 4229   0.184   0.377  11.858
 1401SOL    HW2 4230   0.254   0.311  11.990
 1402SOL     OW 4231   1.194   1.612  11.203
 1402SOL    HW1 4232   1.200   1.519  11.240
 1402SOL    HW2 4233   1.135   1.612  11.123
 1403SOL     OW 4234   0.822   1.002  12.544
 1403SOL    HW1 4235   0.862   1.001  12.452
 1403SOL    HW2 4236   0.832   1.094  12.584
 1404SOL     OW 4237   0.916   0.910  11.463
 1404SOL    HW1 4238   0.979   0.948  11.395
 1404SOL    HW2 4239   0.956   0.827  11.502
 1405SOL     OW 4240   1.504   1.607  11.216
 1405SOL    HW1 4241   1.412   1.644  11.223
 1405SOL    HW2 4242   1.542   1.627  11.126
 1406SOL     OW 4243   0.372   1.288  12.662
 1406SOL    HW1 4244   0.359   1.381  12.628
 1406SOL    HW2 4245   0.288   1.236  12.649
 1407SOL     OW 4246   1.614   1.292  12.461
 1407SOL    HW1 4247   1.674   1.295  12.541
 1407SOL    HW2 4248   1.539   1.356  12.474
 1408SOL     OW 4249   1.039   1.098  11.868
 1408SOL    HW1 4250   0.969   1.051  11.922
 1408SOL    HW2 4251   1.098   1.030  11.825
 1409SOL     OW 4252   1.014   0.236  12.143
 1409SOL    HW1 4253   1.006   0.200  12.050
 1409SOL    HW2 4254   1.012   0.160  12.208
 1410SOL     OW 4255   0.590   1.487  11.663
 1410SOL    HW1 4256   0.632   1.429  11.593
 1410SOL    HW2 4257   0.546   1.566  11.619
 1411SOL     OW 4258   1.709   0.385  12.553
 1411SOL    HW1 4259   1.782   0.454  12.557
 1411SOL    HW2 4260   1.737   0.310  12.494
 1412SOL     OW 4261   0.255   1.348  11.462
 1412SOL    HW1 4262   0.159   1.349  11.435
 1412SOL    HW2 4263   0.267   1.401  11.546
 1413SOL     OW 4264   0.075   0.345  11.205
 1413SOL    HW1 4265  -0.017   0.317  11.176
 1413SOL    HW2 4266   0.106   0.422  11.149
 1414SOL     OW 4267   1.440   0.856  12.570
 1414SOL    HW1 4268   1.383   0.908  12.507
 1414SOL    HW2 4269   1.536   0.868  12.546
 1415SOL     OW 4270   0.072   0.166  11.490
 1415SOL    HW1 4271   0.055   0.249  11.436
 1415SOL    HW2 4272   0.162   0.129  11.468
 1416SOL     OW 4273   1.183   1.335  11.291
 1416SOL    HW1 4274   1.084   1.324  11.293
 1416SOL    HW2 4275   1.217   1.350  11.384
 1417SOL     OW 4276   0.613   0.842  12.603
 1417SOL    HW1 4277   0.669   0.923  12.586
 1417SOL    HW2 4278   0.672   0.762  12.606
 1418SOL     OW 4279   1.493   1.767  12.131
 1418SOL    HW1 4280   1.526   1.831  12.062
 1418SOL    HW2 4281   1.559   1.761  12.206
 1419SOL     OW 4282   0.390   1.741  12.732
 1419SOL    HW1 4283   0.299   1.782  12.730
 1419SOL    HW2 4284   0.383   1.647  12.764
 1420SOL     OW 4285   1.674   0.883  12.426
 1420SOL    HW1 4286   1.647   0.794  12.389
 1420SOL    HW2 4287   1.675   0.951  12.353
 1421SOL     OW 4288   1.225   0.325  11.621
 1421SOL    HW1 4289   1.290   0.251  11.610
 1421SOL    HW2 4290   1.245   0.375  11.705
 1422SOL     OW 4291   0.594   0.745  11.824
 1422SOL    HW1 4292   0.644   0.830  11.805
 1422SOL    HW2 4293   0.506   0.747  11.776
 1423SOL     OW 4294   1.777   0.342  12.814
 1423SOL    HW1 4295   1.760   0.373  12.720
 1423SOL    HW2 4296   1.693   0.305  12.852
 1424SOL     OW 4297   1.730   0.934  12.689
 1424SOL    HW1 4298   1.768   1.025  12.704
 1424SOL    HW2 4299   1.722   0.917  12.590
 1425SOL     OW 4300   0.859   1.374  11.188
 1425SOL    HW1 4301   0.813   1.389  11.276
 1425SOL    HW2 4302   0.903   1.459  11.158
 1426SOL     OW 4303   0.661   1.790  12.125
 1426SOL    HW1 4304   0.615   1.878  12.112
 1426SOL    HW2 4305   0.760   1.802  12.118
 1427SOL     OW 4306   0.859   0.956  12.033
 1427SOL    HW1 4307   0.913   0.887  12.081
 1427SOL    HW2 4308   0.827   1.025  12.099
 1428SOL     OW 4309   1.083   0.984  11.259
 1428SOL    HW1 4310   1.060   1.037  11.177
 1428SOL    HW2 4311   1.164   0.928  11.240
 1429SOL     OW 4312   1.861   1.569  12.023
 1429SOL    HW1 4313   1.790   1.557  11.953
 1429SOL    HW2 4314   1.862   1.490  12.083
 1430SOL     OW 4315   0.079   1.240  11.825
 1430SOL    HW1 4316   0.078   1.193  11.913
 1430SOL    HW2 4317   0.161   1.212  11.774
 1431SOL     OW 4318   1.824   0.192  12.399
 1431SOL    HW1 4319   1.820   0.102  12.443
 1431SOL    HW2 4320   1.827   0.181  12.300
 1432SOL     OW 4321   0.428   0.424  11.692
 1432SOL    HW1 4322   0.458   0.352  11.630
 1432SOL    HW2 4323   0.389   0.384  11.775
 1433SOL     OW 4324   1.705   1.487  12.276
 1433SOL    HW1 4325   1.612   1.462  12.249
 1433SOL    HW2 4326   1.731   1.437  12.358
 1434SOL     OW 4327   0.317   0.547  12.452
 1434SOL    HW1 4328   0.355   0.488  12.524
 1434SOL    HW2 4329   0.357   0.521  12.364
 1435SOL     OW 4330   0.812   1.586  11.859
 1435SOL    HW1 4331   0.844   1.596  11.765
 1435SOL    HW2 4332   0.733   1.524  11.861
 1436SOL     OW 4333   1.424   0.214  12.284
 1436SOL    HW1 4334   1.476   0.149  12.339
 1436SOL    HW2 4335   1.375   0.277  12.345
 1437SOL     OW 4336   1.001   0.034  12.326
 1437SOL    HW1 4337   0.938  -0.038  12.295
 1437SOL    HW2 4338   1.094  -0.002  12.326
 1438SOL     OW 4339   0.770   1.330  11.473
 1438SOL    HW1 4340   0.724   1.243  11.490
 1438SOL    HW2 4341   0.861   1.327  11.514
 1439SOL     OW 4342   0.618   1.567  12.456
 1439SOL    HW1 4343   0.613   1.649  12.513
 1439SOL    HW2 4344   0.707   1.564  12.411
 1440SOL     OW 4345   1.352   0.052  11.340
 1440SOL    HW1 4346   1.387   0.011  11.256
 1440SOL    HW2 4347   1.262   0.014  11.360
 1441SOL     OW 4348   1.300   0.453  11.863
 1441SOL    HW1 4349   1.241   0.533  11.867
 1441SOL    HW2 4350   1.315   0.418  11.956
 1442SOL     OW 4351   1.593   0.221  12.054
 1442SOL    HW1 4352   1.509   0.220  12.108
 1442SOL    HW2 4353   1.595   0.304  11.998
 1443SOL     OW 4354   0.039   1.077  11.472
 1443SOL    HW1 4355   0.138   1.066  11.463
 1443SOL    HW2 4356  -0.001   0.991  11.504
 1444SOL     OW 4357   0.875   1.646  11.509
 1444SOL    HW1 4358   0.798   1.611  11.455
 1444SOL    HW2 4359   0.843   1.717  11.571
 1445SOL     OW 4360   0.230   2.490   0.113
 1445SOL    HW1 4361   0.137   2.488   0.150
 1445SOL    HW2 4362   0.231   2.451   0.021
 1446SOL     OW 4363   0.225   2.137   0.996
 1446SOL    HW1 4364   0.260   2.120   1.088
 1446SOL    HW2 4365   0.137   2.092   0.984
 1447SOL     OW 4366   0.019   2.230   0.647
 1447SOL    HW1 4367  -0.063   2.273   0.686
 1447SOL    HW2 4368  -0.009   2.157   0.584
 1448SOL     OW 4369   0.569   3.137   1.165
 1448SOL    HW1 4370   0.476   3.130   1.128
 1448SOL    HW2 4371   0.580   3.226   1.209
 1449SOL     OW 4372   1.555   3.373   0.703
 1449SOL    HW1 4373   1.498   3.357   0.784
 1449SOL    HW2 4374   1.496   3.383   0.623
 1450SOL     OW 4375   1.135   2.565   0.717
 1450SOL    HW1 4376   1.192   2.643   0.692
 1450SOL    HW2 4377   1.075   2.591   0.793
 1451SOL     OW 4378   1.755   2.469   0.231
 1451SOL    HW1 4379   1.743   2.456   0.132
 1451SOL    HW2 4380   1.725   2.388   0.280
 1452SOL     OW 4381   0.768   3.006   1.023
 1452SOL    HW1 4382   0.690   3.023   1.083
 1452SOL    HW2 4383   0.802   3.093   0.987
 1453SOL     OW 4384   0.850   2.660   1.823
 1453SOL    HW1 4385   0.846   2.736   1.888
 1453SOL    HW2 4386   0.872   2.696   1.732
 1454SOL     OW 4387   0.685   2.874   0.665
 1454SOL    HW1 4388   0.754   2.858   0.735
 1454SOL    HW2 4389   0.612   2.931   0.703
 1455SOL     OW 4390   0.686   3.023   1.803
 1455SOL    HW1 4391   0.746   3.102   1.817
 1455SOL    HW2 4392   0.600   3.054   1.762
 1456SOL     OW 4393   0.335   3.297   1.061
 1456SOL    HW1 4394   0.257   3.266   1.008
 1456SOL    HW2 4395   0.393   3.355   1.004
 1457SOL     OW 4396   1.460   3.367   1.339
 1457SOL    HW1 4397   1.484   3.461   1.365
 1457SOL    HW2 4398   1.444   3.313   1.421
 1458SOL     OW 4399   0.438   2.254   1.499
 1458SOL    HW1 4400   0.520   2.198   1.508
 1458SOL    HW2 4401   0.357   2.196   1.503
 1459SOL     OW 4402   1.603   2.309   0.737
 1459SOL    HW1 4403   1.529   2.355   0.687
 1459SOL    HW2 4404   1.654   2.377   0.790
 1460SOL     OW 4405   0.231   3.575   0.483
 1460SOL    HW1 4406   0.265   3.652   0.537
 1460SOL    HW2 4407   0.275   3.575   0.393
 1461SOL     OW 4408   1.127   3.203   1.690
 1461SOL    HW1 4409   1.174   3.203   1.778
 1461SOL    HW2 4410   1.079   3.116   1.679
 1462SOL     OW 4411   0.230   3.296   0.538
 1462SOL    HW1 4412   0.204   3.392   0.538
 1462SOL    HW2 4413   0.159   3.242   0.583
 1463SOL     OW 4414   0.240   2.953   0.886
 1463SOL    HW1 4415   0.254   2.869   0.938
 1463SOL    HW2 4416   0.185   3.017   0.941
 1464SOL     OW 4417   0.620   3.648   1.439
 1464SOL    HW1 4418   0.528   3.631   1.474
 1464SOL    HW2 4419   0.648   3.740   1.465
 1465SOL     OW 4420   0.606   2.826   0.123
 1465SOL    HW1 4421   0.613   2.910   0.069
 1465SOL    HW2 4422   0.652   2.839   0.211
 1466SOL     OW 4423   1.594   1.976   1.480
 1466SOL    HW1 4424   1.576   2.043   1.408
 1466SOL    HW2 4425   1.591   2.022   1.569
 1467SOL     OW 4426   0.122   2.505   0.563
 1467SOL    HW1 4427   0.077   2.417   0.580
 1467SOL    HW2 4428   0.121   2.559   0.647
 1468SOL     OW 4429   1.842   3.629   0.359
 1468SOL    HW1 4430   1.896   3.600   0.439
 1468SOL    HW2 4431   1.872   3.719   0.330
 1469SOL     OW 4432   0.027   3.458   0.117
 1469SOL    HW1 4433   0.008   3.362   0.138
 1469SOL    HW2 4434  -0.006   3.516   0.192
 1470SOL     OW 4435   1.689   2.784   0.612
 1470SOL    HW1 4436   1.784   2.755   0.620
 1470SOL    HW2 4437   1.681   2.849   0.537
 1471SOL     OW 4438   1.641   2.970   0.432
 1471SOL    HW1 4439   1.727   2.972   0.380
 1471SOL    HW2 4440   1.655   3.017   0.520
 1472SOL     OW 4441   0.113   2.599   1.597
 1472SOL    HW1 4442   0.201   2.586   1.642
 1472SOL    HW2 4443   0.100   2.696   1.575
 1473SOL     OW 4444   0.613   3.227   0.726
 1473SOL    HW1 4445   0.564   3.140   0.735
 1473SOL    HW2 4446   0.590   3.270   0.639
 1474SOL     OW 4447   1.293   3.090   1.423
 1474SOL    HW1 4448   1.330   3.017   1.365
 1474SOL    HW2 4449   1.345   3.095   1.508
 1475SOL     OW 4450   0.809   1.866   0.502
 1475SOL    HW1 4451   0.849   1.957   0.493
 1475SOL    HW2 4452   0.709   1.874   0.508
 1476SOL     OW 4453   0.197   2.838   1.264
 1476SOL    HW1 4454   0.286   2.793   1.250
 1476SOL    HW2 4455   0.124   2.773   1.245
 1477SOL     OW 4456   1.525   2.861   0.190
 1477SOL    HW1 4457   1.462   2.785   0.203
 1477SOL    HW2 4458   1.573   2.879   0.276
 1478SOL     OW 4459   1.187   3.654   1.616
 1478SOL    HW1 4460   1.211   3.714   1.540
 1478SOL    HW2 4461   1.194   3.559   1.586
 1479SOL     OW 4462   0.317   2.113   1.801
 1479SOL    HW1 4463   0.388   2.184   1.807
 1479SOL    HW2 4464   0.229   2.152   1.829
 1480SOL     OW 4465   1.466   3.279   0.953
 1480SOL    HW1 4466   1.407   3.285   1.033
 1480SOL    HW2 4467   1.451   3.191   0.907
 1481SOL     OW 4468   1.667   3.576   0.572
 1481SOL    HW1 4469   1.626   3.553   0.484
 1481SOL    HW2 4470   1.649   3.502   0.637
 1482SOL     OW 4471   0.598   2.591   0.270
 1482SOL    HW1 4472   0.622   2.660   0.202
 1482SOL    HW2 4473   0.520   2.624   0.324
 1483SOL     OW 4474   1.281   2.207   0.944
 1483SOL    HW1 4475   1.195   2.157   0.931
 1483SOL    HW2 4476   1.343   2.153   1.000
 1484SOL     OW 4477   1.576   3.524   0.307
 1484SOL    HW1 4478   1.665   3.570   0.310
 1484SOL    HW2 4479   1.555   3.500   0.212
 1485SOL     OW 4480   0.807   2.467   1.465
 1485SOL    HW1 4481   0.760   2.464   1.554
 1485SOL    HW2 4482   0.756   2.412   1.399
 1486SOL     OW 4483   1.394   2.331   1.674
 1486SOL    HW1 4484   1.374   2.374   1.762
 1486SOL    HW2 4485   1.472   2.269   1.683
 1487SOL     OW 4486   0.973   2.752   1.572
 1487SOL    HW1 4487   1.019   2.668   1.543
 1487SOL    HW2 4488   0.917   2.786   1.497
 1488SOL     OW 4489   0.991   2.272   1.242
 1488SOL    HW1 4490   0.914   2.306   1.296
 1488SOL    HW2 4491   0.957   2.221   1.163
 1489SOL     OW 4492   1.041   2.563   0.429
 1489SOL    HW1 4493   1.067   2.559   0.525
 1489SOL    HW2 4494   0.956   2.512   0.415
 1490SOL     OW 4495   0.076   2.673   0.789
 1490SOL    HW1 4496   0.175   2.661   0.798
 1490SOL    HW2 4497   0.052   2.768   0.810
 1491SOL     OW 4498   0.130   3.683   1.571
 1491SOL    HW1 4499   0.120   3.668   1.670
 1491SOL    HW2 4500   0.044   3.719   1.535
 1492SOL     OW 4501   0.865   2.210   0.195
 1492SOL    HW1 4502   0.924   2.273   0.146
 1492SOL    HW2 4503   0.884   2.116   0.166
 1493SOL     OW 4504   1.719   2.447   1.831
 1493SOL    HW1 4505   1.693   2.536   1.795
 1493SOL    HW2 4506   1.717   2.379   1.758
 1494SOL     OW 4507   1.362   3.006   0.545
 1494SOL    HW1 4508   1.445   2.977   0.497
 1494SOL    HW2 4509   1.313   3.073   0.489
 1495SOL     OW 4510   0.550   2.058   0.885
 1495SOL    HW1 4511   0.545   2.053   0.985
 1495SOL    HW2 4512   0.552   2.154   0.856
 1496SOL     OW 4513   1.008   3.318   0.477
 1496SOL    HW1 4514   0.962   3.390   0.425
 1496SOL    HW2 4515   1.004   3.338   0.575
 1497SOL     OW 4516   0.351   3.663   0.853
 1497SOL    HW1 4517   0.401   3.577   0.859
 1497SOL    HW2 4518   0.416   3.740   0.850
 1498SOL     OW 4519   1.795   2.928   0.873
 1498SOL    HW1 4520   1.733   2.913   0.797
 1498SOL    HW2 4521   1.743   2.939   0.958
 1499SOL     OW 4522   1.227   3.412   1.506
 1499SOL    HW1 4523   1.233   3.335   1.570
 1499SOL    HW2 4524   1.175   3.386   1.426
 1500SOL     OW 4525   0.321   2.805   0.242
 1500SOL    HW1 4526   0.403   2.844   0.200
 1500SOL    HW2 4527   0.294   2.723   0.193
 1501SOL     OW 4528   1.458   2.597   0.728
 1501SOL    HW1 4529   1.453   2.532   0.803
 1501SOL    HW2 4530   1.538   2.656   0.741
 1502SOL     OW 4531   0.461   3.128   1.727
 1502SOL    HW1 4532   0.411   3.129   1.641
 1502SOL    HW2 4533   0.398   3.110   1.803
 1503SOL     OW 4534   1.111   3.638   0.237
 1503SOL    HW1 4535   1.051   3.576   0.287
 1503SOL    HW2 4536   1.142   3.594   0.152
 1504SOL     OW 4537   0.202   2.147   1.498
 1504SOL    HW1 4538   0.122   2.207   1.485
 1504SOL    HW2 4539   0.192   2.098   1.584
 1505SOL     OW 4540   1.632   3.239   0.081
 1505SOL    HW1 4541   1.600   3.333   0.071
 1505SOL    HW2 4542   1.556   3.176   0.069
 1506SOL     OW 4543   0.464   3.605   0.323
 1506SOL    HW1 4544   0.497   3.644   0.409
 1506SOL    HW2 4545   0.540   3.598   0.258
 1507SOL     OW 4546   1.400   1.969   0.426
 1507SOL    HW1 4547   1.376   1.932   0.336
 1507SOL    HW2 4548   1.499   1.985   0.430
 1508SOL     OW 4549   0.249   3.647   1.241
 1508SOL    HW1 4550   0.306   3.582   1.291
 1508SOL    HW2 4551   0.233   3.614   1.148
 1509SOL     OW 4552   0.382   2.562   0.480
 1509SOL    HW1 4553   0.427   2.472   0.477
 1509SOL    HW2 4554   0.288   2.551   0.513
 1510SOL     OW 4555   1.547   2.084   1.729
 1510SOL    HW1 4556   1.542   2.121   1.821
 1510SOL    HW2 4557   1.475   2.015   1.717
 1511SOL     OW 4558   0.614   1.984   0.117
 1511SOL    HW1 4559   0.712   1.962   0.124
 1511SOL    HW2 4560   0.583   1.967   0.024
 1512SOL     OW 4561   0.781   2.126   1.749
 1512SOL    HW1 4562   0.848   2.065   1.792
 1512SOL    HW2 4563   0.708   2.145   1.814
 1513SOL     OW 4564   0.888   3.376   1.195
 1513SOL    HW1 4565   0.865   3.351   1.101
 1513SOL    HW2 4566   0.949   3.307   1.234
 1514SOL     OW 4567   1.351   2.452   1.433
 1514SOL    HW1 4568   1.379   2.409   1.518
 1514SOL    HW2 4569   1.376   2.548   1.434
 1515SOL     OW 4570   0.803   3.264   0.924
 1515SOL    HW1 4571   0.893   3.278   0.882
 1515SOL    HW2 4572   0.732   3.266   0.853
 1516SOL     OW 4573   0.922   2.365   0.899
 1516SOL    HW1 4574   0.897   2.356   0.803
 1516SOL    HW2 4575   0.970   2.283   0.930
 1517SOL     OW 4576   0.539   1.926   0.512
 1517SOL    HW1 4577   0.458   1.927   0.570
 1517SOL    HW2 4578   0.542   2.009   0.457
 1518SOL     OW 4579   1.434   3.050   0.041
 1518SOL    HW1 4580   1.466   2.974   0.098
 1518SOL    HW2 4581   1.342   3.077   0.071
 1519SOL     OW 4582   0.297   1.897   0.171
 1519SOL    HW1 4583   0.346   1.981   0.150
 1519SOL    HW2 4584   0.359   1.832   0.216
 1520SOL     OW 4585   0.935   2.098   0.480
 1520SOL    HW1 4586   0.887   2.139   0.402
 1520SOL    HW2 4587   1.034   2.096   0.461
 1521SOL     OW 4588   1.076   2.545   1.464
 1521SOL    HW1 4589   0.996   2.484   1.467
 1521SOL    HW2 4590   1.157   2.492   1.440
 1522SOL     OW 4591   1.227   3.432   0.793
 1522SOL    HW1 4592   1.248   3.506   0.728
 1522SOL    HW2 4593   1.295   3.432   0.866
 1523SOL     OW 4594   0.459   3.014   0.741
 1523SOL    HW1 4595   0.388   2.987   0.806
 1523SOL    HW2 4596   0.433   2.986   0.648
 1524SOL     OW 4597   1.271   3.659   0.591
 1524SOL    HW1 4598   1.315   3.723   0.527
 1524SOL    HW2 4599   1.221   3.711   0.661
 1525SOL     OW 4600   1.032   2.411   0.016
 1525SOL    HW1 4601   0.991   2.493  -0.023
 1525SOL    HW2 4602   1.096   2.437   0.089
 1526SOL     OW 4603   0.078   2.418   1.386
 1526SOL    HW1 4604   0.170   2.417   1.345
 1526SOL    HW2 4605   0.072   2.492   1.453
 1527SOL     OW 4606   0.561   2.084   1.147
 1527SOL    HW1 4607   0.599   2.000   1.184
 1527SOL    HW2 4608   0.473   2.103   1.191
 1528SOL     OW 4609   0.866   2.316   0.642
 1528SOL    HW1 4610   0.834   2.388   0.580
 1528SOL    HW2 4611   0.890   2.235   0.589
 1529SOL     OW 4612   1.017   1.901   0.753
 1529SOL    HW1 4613   0.945   1.906   0.684
 1529SOL    HW2 4614   0.993   1.832   0.822
 1530SOL     OW 4615   1.429   3.035   0.867
 1530SOL    HW1 4616   1.374   2.951   0.860
 1530SOL    HW2 4617   1.455   3.064   0.775
 1531SOL     OW 4618   1.466   2.452   0.992
 1531SOL    HW1 4619   1.436   2.357   0.999
 1531SOL    HW2 4620   1.539   2.468   1.058
 1532SOL     OW 4621   1.857   2.695   0.377
 1532SOL    HW1 4622   1.899   2.631   0.441
 1532SOL    HW2 4623   1.819   2.644   0.299
 1533SOL     OW 4624   0.488   3.247   0.174
 1533SOL    HW1 4625   0.401   3.232   0.221
 1533SOL    HW2 4626   0.471   3.273   0.079
 1534SOL     OW 4627   1.664   3.142   0.657
 1534SOL    HW1 4628   1.763   3.150   0.671
 1534SOL    HW2 4629   1.619   3.226   0.688
 1535SOL     OW 4630   1.390   2.437   0.078
 1535SOL    HW1 4631   1.336   2.416   0.159
 1535SOL    HW2 4632   1.481   2.396   0.087
 1536SOL     OW 4633   0.527   2.118   0.328
 1536SOL    HW1 4634   0.554   2.059   0.253
 1536SOL    HW2 4635   0.527   2.213   0.297
 1537SOL     OW 4636   1.754   3.085   1.588
 1537SOL    HW1 4637   1.845   3.046   1.575
 1537SOL    HW2 4638   1.762   3.181   1.612
 1538SOL     OW 4639   1.064   3.209   1.340
 1538SOL    HW1 4640   0.984   3.186   1.395
 1538SOL    HW2 4641   1.147   3.183   1.389
 1539SOL     OW 4642   1.592   3.491   1.625
 1539SOL    HW1 4643   1.619   3.525   1.535
 1539SOL    HW2 4644   1.671   3.453   1.671
 1540SOL     OW 4645   1.111   3.057   1.100
 1540SOL    HW1 4646   1.071   3.101   1.181
 1540SOL    HW2 4647   1.070   3.094   1.017
 1541SOL     OW 4648   1.638   2.961   1.079
 1541SOL    HW1 4649   1.643   3.042   1.138
 1541SOL    HW2 4650   1.552   2.963   1.028
 1542SOL     OW 4651   0.915   1.951   1.402
 1542SOL    HW1 4652   0.940   1.931   1.307
 1542SOL    HW2 4653   0.987   2.007   1.444
 1543SOL     OW 4654   0.980   2.978   1.719
 1543SOL    HW1 4655   0.881   2.984   1.729
 1543SOL    HW2 4656   1.003   2.898   1.663
 1544SOL     OW 4657   0.705   2.912   0.368
 1544SOL    HW1 4658   0.691   2.919   0.467
 1544SOL    HW2 4659   0.789   2.861   0.350
 1545SOL     OW 4660   0.410   2.675   1.251
 1545SOL    HW1 4661   0.496   2.687   1.301
 1545SOL    HW2 4662   0.368   2.588   1.278
 1546SOL     OW 4663   1.274   2.248   1.262
 1546SOL    HW1 4664   1.295   2.322   1.326
 1546SOL    HW2 4665   1.185   2.265   1.219
 1547SOL     OW 4666   0.064   3.426   1.331
 1547SOL    HW1 4667   0.018   3.508   1.297
 1547SOL    HW2 4668   0.162   3.445   1.340
 1548SOL     OW 4669   0.367   2.962   0.501
 1548SOL    HW1 4670   0.360   3.045   0.445
 1548SOL    HW2 4671   0.371   2.882   0.441
 1549SOL     OW 4672   0.566   2.399   0.865
 1549SOL    HW1 4673   0.578   2.465   0.791
 1549SOL    HW2 4674   0.612   2.433   0.948
 1550SOL     OW 4675   1.252   3.210   0.388
 1550SOL    HW1 4676   1.302   3.287   0.428
 1550SOL    HW2 4677   1.157   3.212   0.420
 1551SOL     OW 4678   1.272   3.307   1.142
 1551SOL    HW1 4679   1.319   3.320   1.229
 1551SOL    HW2 4680   1.206   3.233   1.151
 1552SOL     OW 4681   1.582   2.501   0.472
 1552SOL    HW1 4682   1.551   2.562   0.545
 1552SOL    HW2 4683   1.632   2.553   0.403
 1553SOL     OW 4684   0.354   3.372   1.329
 1553SOL    HW1 4685   0.333   3.328   1.242
 1553SOL    HW2 4686   0.451   3.398   1.332
 1554SOL     OW 4687   0.402   2.613   1.598
 1554SOL    HW1 4688   0.470   2.668   1.551
 1554SOL    HW2 4689   0.442   2.525   1.625
 1555SOL     OW 4690   1.587   2.641   1.670
 1555SOL    HW1 4691   1.495   2.679   1.665
 1555SOL    HW2 4692   1.647   2.688   1.605
 1556SOL     OW 4693   1.013   1.967   1.770
 1556SOL    HW1 4694   1.019   2.052   1.718
 1556SOL    HW2 4695   1.045   1.891   1.713
 1557SOL     OW 4696   0.504   1.912   1.740
 1557SOL    HW1 4697   0.462   1.855   1.670
 1557SOL    HW2 4698   0.438   1.981   1.772
 1558SOL     OW 4699   0.573   2.732   1.029
 1558SOL    HW1 4700   0.617   2.821   1.020
 1558SOL    HW2 4701   0.510   2.732   1.106
 1559SOL     OW 4702   1.360   2.724   1.045
 1559SOL    HW1 4703   1.285   2.724   0.979
 1559SOL    HW2 4704   1.397   2.632   1.054
 1560SOL     OW 4705   1.209   2.387   0.275
 1560SOL    HW1 4706   1.222   2.303   0.329
 1560SOL    HW2 4707   1.180   2.461   0.335
 1561SOL     OW 4708   0.307   2.075   1.231
 1561SOL    HW1 4709   0.284   2.112   1.321
 1561SOL    HW2 4710   0.277   1.980   1.225
 1562SOL     OW 4711   0.037   3.172   1.282
 1562SOL    HW1 4712   0.090   3.123   1.350
 1562SOL    HW2 4713   0.059   3.270   1.287
 1563SOL     OW 4714   1.728   2.797   1.854
 1563SOL    HW1 4715   1.682   2.790   1.765
 1563SOL    HW2 4716   1.666   2.841   1.920
 1564SOL     OW 4717   0.307   1.925   0.618
 1564SOL    HW1 4718   0.296   2.019   0.651
 1564SOL    HW2 4719   0.302   1.862   0.695
 1565SOL     OW 4720   1.622   2.229   0.374
 1565SOL    HW1 4721   1.624   2.153   0.438
 1565SOL    HW2 4722   1.574   2.306   0.414
 1566SOL     OW 4723   1.023   2.628   0.966
 1566SOL    HW1 4724   1.038   2.649   1.062
 1566SOL    HW2 4725   0.993   2.533   0.957
 1567SOL     OW 4726   0.980   3.435   1.700
 1567SOL    HW1 4727   0.960   3.479   1.612
 1567SOL    HW2 4728   1.019   3.344   1.684
 1568SOL     OW 4729   1.859   3.380   1.605
 1568SOL    HW1 4730   1.873   3.407   1.510
 1568SOL    HW2 4731   1.942   3.402   1.658
 1569SOL     OW 4732   0.350   2.760   1.804
 1569SOL    HW1 4733   0.426   2.804   1.852
 1569SOL    HW2 4734   0.385   2.713   1.722
 1570SOL     OW 4735   1.540   2.136   0.125
 1570SOL    HW1 4736   1.479   2.061   0.148
 1570SOL    HW2 4737   1.562   2.188   0.208
 1571SOL     OW 4738   1.303   2.700   0.042
 1571SOL    HW1 4739   1.337   2.607   0.057
 1571SOL    HW2 4740   1.321   2.727  -0.053
 1572SOL     OW 4741   1.068   3.195   0.849
 1572SOL    HW1 4742   1.075   3.111   0.794
 1572SOL    HW2 4743   1.130   3.264   0.813
 1573SOL     OW 4744   0.319   2.672   0.949
 1573SOL    HW1 4745   0.412   2.708   0.954
 1573SOL    HW2 4746   0.313   2.587   1.001
 1574SOL     OW 4747   0.339   2.371   1.006
 1574SOL    HW1 4748   0.287   2.288   0.989
 1574SOL    HW2 4749   0.416   2.376   0.942
 1575SOL     OW 4750   1.138   2.242   1.678
 1575SOL    HW1 4751   1.093   2.305   1.742
 1575SOL    HW2 4752   1.231   2.273   1.661
 1576SOL     OW 4753   1.160   2.069   1.477
 1576SOL    HW1 4754   1.160   2.133   1.554
 1576SOL    HW2 4755   1.188   2.117   1.394
 1577SOL     OW 4756   0.008   3.188   0.200
 1577SOL    HW1 4757  -0.085   3.209   0.169
 1577SOL    HW2 4758   0.018   3.089   0.213
 1578SOL     OW 4759   0.088   3.663   0.927
 1578SOL    HW1 4760   0.046   3.577   0.900
 1578SOL    HW2 4761   0.182   3.666   0.893
 1579SOL     OW 4762   0.504   3.430   0.910
 1579SOL    HW1 4763   0.570   3.504   0.919
 1579SOL    HW2 4764   0.548   3.351   0.868
 1580SOL     OW 4765   1.002   2.658   1.238
 1580SOL    HW1 4766   1.043   2.626   1.324
 1580SOL    HW2 4767   0.906   2.631   1.235
 1581SOL     OW 4768   0.040   2.406   1.114
 1581SOL    HW1 4769   0.125   2.373   1.073
 1581SOL    HW2 4770   0.053   2.421   1.212
 1582SOL     OW 4771   0.189   2.382   1.722
 1582SOL    HW1 4772   0.248   2.342   1.652
 1582SOL    HW2 4773   0.131   2.453   1.681
 1583SOL     OW 4774   1.369   2.812   1.660
 1583SOL    HW1 4775   1.408   2.901   1.680
 1583SOL    HW2 4776   1.379   2.792   1.563
 1584SOL     OW 4777   0.815   2.434   0.325
 1584SOL    HW1 4778   0.822   2.345   0.279
 1584SOL    HW2 4779   0.721   2.468   0.317
 1585SOL     OW 4780   1.657   2.466   1.206
 1585SOL    HW1 4781   1.619   2.397   1.268
 1585SOL    HW2 4782   1.739   2.430   1.162
 1586SOL     OW 4783   0.252   3.426   1.744
 1586SOL    HW1 4784   0.222   3.483   1.820
 1586SOL    HW2 4785   0.245   3.329   1.770
 1587SOL     OW 4786   0.671   2.326   1.269
 1587SOL    HW1 4787   0.637   2.237   1.239
 1587SOL    HW2 4788   0.697   2.380   1.189
 1588SOL     OW 4789   0.930   3.540   1.465
 1588SOL    HW1 4790   0.906   3.522   1.370
 1588SOL    HW2 4791   0.960   3.634   1.475
 1589SOL     OW 4792   0.473   2.362   0.191
 1589SOL    HW1 4793   0.534   2.442   0.195
 1589SOL    HW2 4794   0.378   2.393   0.198
 1590SOL     OW 4795   0.159   2.999   1.466
 1590SOL    HW1 4796   0.181   2.938   1.542
 1590SOL    HW2 4797   0.169   2.950   1.380
 1591SOL     OW 4798   1.347   2.921   1.234
 1591SOL    HW1 4799   1.371   2.858   1.160
 1591SOL    HW2 4800   1.257   2.961   1.216
 1592SOL     OW 4801   1.302   2.717   0.309
 1592SOL    HW1 4802   1.216   2.686   0.351
 1592SOL    HW2 4803   1.298   2.703   0.210
 1593SOL     OW 4804   1.759   3.609   1.154
 1593SOL    HW1 4805   1.820   3.639   1.081
 1593SOL    HW2 4806   1.721   3.520   1.132
 1594SOL     OW 4807   1.252   3.593   1.128
 1594SOL    HW1 4808   1.336   3.598   1.074
 1594SOL    HW2 4809   1.229   3.497   1.146
 1595SOL     OW 4810   0.083   3.120   1.022
 1595SOL    HW1 4811   0.078   3.119   1.122
 1595SOL    HW2 4812   0.000   3.079   0.984
 1596SOL     OW 4813   0.688   3.524   1.716
 1596SOL    HW1 4814   0.632   3.605   1.725
 1596SOL    HW2 4815   0.740   3.528   1.630
 1597SOL     OW 4816   0.903   1.948   0.133
 1597SOL    HW1 4817   0.954   1.949   0.047
 1597SOL    HW2 4818   0.959   1.906   0.204
 1598SOL     OW 4819   1.726   1.997   0.523
 1598SOL    HW1 4820   1.799   1.980   0.456
 1598SOL    HW2 4821   1.695   1.910   0.561
 1599SOL     OW 4822   1.388   3.435   0.477
 1599SOL    HW1 4823   1.455   3.447   0.403
 1599SOL    HW2 4824   1.348   3.524   0.500
 1600SOL     OW 4825   0.130   3.656   1.851
 1600SOL    HW1 4826   0.089   3.582   1.904
 1600SOL    HW2 4827   0.194   3.707   1.909
 1601SOL     OW 4828   1.280   2.789   0.672
 1601SOL    HW1 4829   1.340   2.708   0.674
 1601SOL    HW2 4830   1.320   2.858   0.612
 1602SOL     OW 4831   0.830   3.135   1.422
 1602SOL    HW1 4832   0.825   3.168   1.517
 1602SOL    HW2 4833   0.744   3.154   1.376
 1603SOL     OW 4834   0.672   3.478   0.154
 1603SOL    HW1 4835   0.681   3.488   0.055
 1603SOL    HW2 4836   0.632   3.389   0.175
 1604SOL     OW 4837   1.650   3.582   1.394
 1604SOL    HW1 4838   1.703   3.592   1.310
 1604SOL    HW2 4839   1.623   3.672   1.428
 1605SOL     OW 4840   1.841   2.037   0.963
 1605SOL    HW1 4841   1.880   1.952   0.927
 1605SOL    HW2 4842   1.743   2.039   0.944
 1606SOL     OW 4843   0.263   2.188   0.720
 1606SOL    HW1 4844   0.184   2.239   0.686
 1606SOL    HW2 4845   0.254   2.173   0.818
 1607SOL     OW 4846   1.194   3.474   0.031
 1607SOL    HW1 4847   1.200   3.381   0.068
 1607SOL    HW2 4848   1.135   3.474  -0.049
 1608SOL     OW 4849   0.822   2.864   1.372
 1608SOL    HW1 4850   0.862   2.863   1.280
 1608SOL    HW2 4851   0.832   2.956   1.412
 1609SOL     OW 4852   0.916   2.772   0.291
 1609SOL    HW1 4853   0.979   2.810   0.223
 1609SOL    HW2 4854   0.956   2.689   0.330
 1610SOL     OW 4855   1.504   3.469   0.044
 1610SOL    HW1 4856   1.412   3.506   0.051
 1610SOL    HW2 4857   1.542   3.489  -0.046
 1611SOL     OW 4858   0.372   3.150   1.490
 1611SOL    HW1 4859   0.359   3.243   1.456
 1611SOL    HW2 4860   0.288   3.098   1.477
 1612SOL     OW 4861   1.614   3.154   1.289
 1612SOL    HW1 4862   1.674   3.157   1.369
 1612SOL    HW2 4863   1.539   3.218   1.302
 1613SOL     OW 4864   1.039   2.960   0.696
 1613SOL    HW1 4865   0.969   2.913   0.750
 1613SOL    HW2 4866   1.098   2.892   0.653
 1614SOL     OW 4867   1.014   2.098   0.971
 1614SOL    HW1 4868   1.006   2.062   0.878
 1614SOL    HW2 4869   1.012   2.022   1.036
 1615SOL     OW 4870   0.590   3.349   0.491
 1615SOL    HW1 4871   0.632   3.291   0.421
 1615SOL    HW2 4872   0.546   3.428   0.447
 1616SOL     OW 4873   1.709   2.247   1.381
 1616SOL    HW1 4874   1.782   2.316   1.385
 1616SOL    HW2 4875   1.737   2.172   1.322
 1617SOL     OW 4876   0.255   3.210   0.290
 1617SOL    HW1 4877   0.159   3.211   0.263
 1617SOL    HW2 4878   0.267   3.263   0.374
 1618SOL     OW 4879   0.105   2.875   1.726
 1618SOL    HW1 4880   0.028   2.842   1.780
 1618SOL    HW2 4881   0.190   2.845   1.768
 1619SOL     OW 4882   0.672   2.065   1.489
 1619SOL    HW1 4883   0.762   2.049   1.449
 1619SOL    HW2 4884   0.680   2.070   1.588
 1620SOL     OW 4885   0.075   2.207   0.033
 1620SOL    HW1 4886  -0.017   2.179   0.004
 1620SOL    HW2 4887   0.106   2.284  -0.023
 1621SOL     OW 4888   1.440   2.718   1.398
 1621SOL    HW1 4889   1.383   2.770   1.335
 1621SOL    HW2 4890   1.536   2.730   1.374
 1622SOL     OW 4891   0.072   2.028   0.318
 1622SOL    HW1 4892   0.055   2.111   0.264
 1622SOL    HW2 4893   0.162   1.991   0.296
 1623SOL     OW 4894   1.183   3.197   0.119
 1623SOL    HW1 4895   1.084   3.186   0.121
 1623SOL    HW2 4896   1.217   3.212   0.212
 1624SOL     OW 4897   0.613   2.704   1.431
 1624SOL    HW1 4898   0.669   2.785   1.414
 1624SOL    HW2 4899   0.672   2.624   1.434
 1625SOL     OW 4900   1.493   3.629   0.959
 1625SOL    HW1 4901   1.526   3.693   0.890
 1625SOL    HW2 4902   1.559   3.623   1.034
 1626SOL     OW 4903   0.716   2.427   1.708
 1626SOL    HW1 4904   0.735   2.492   1.782
 1626SOL    HW2 4905   0.776   2.347   1.717
 1627SOL     OW 4906   1.450   3.082   1.633
 1627SOL    HW1 4907   1.441   3.072   1.732
 1627SOL    HW2 4908   1.546   3.075   1.607
 1628SOL     OW 4909   0.390   3.603   1.560
 1628SOL    HW1 4910   0.299   3.644   1.558
 1628SOL    HW2 4911   0.383   3.509   1.592
 1629SOL     OW 4912   1.674   2.745   1.254
 1629SOL    HW1 4913   1.647   2.656   1.217
 1629SOL    HW2 4914   1.675   2.813   1.181
 1630SOL     OW 4915   1.225   2.187   0.449
 1630SOL    HW1 4916   1.290   2.113   0.438
 1630SOL    HW2 4917   1.245   2.237   0.533
 1631SOL     OW 4918   0.594   2.607   0.652
 1631SOL    HW1 4919   0.644   2.692   0.633
 1631SOL    HW2 4920   0.506   2.609   0.604
 1632SOL     OW 4921   1.777   2.204   1.642
 1632SOL    HW1 4922   1.760   2.235   1.548
 1632SOL    HW2 4923   1.693   2.167   1.680
 1633SOL     OW 4924   1.730   2.796   1.517
 1633SOL    HW1 4925   1.768   2.887   1.532
 1633SOL    HW2 4926   1.722   2.779   1.418
 1634SOL     OW 4927   0.859   3.236   0.016
 1634SOL    HW1 4928   0.813   3.251   0.104
 1634SOL    HW2 4929   0.903   3.321  -0.014
 1635SOL     OW 4930   0.661   3.652   0.953
 1635SOL    HW1 4931   0.615   3.740   0.940
 1635SOL    HW2 4932   0.760   3.664   0.946
 1636SOL     OW 4933   0.859   2.818   0.861
 1636SOL    HW1 4934   0.913   2.749   0.909
 1636SOL    HW2 4935   0.827   2.887   0.927
 1637SOL     OW 4936   1.083   2.846   0.087
 1637SOL    HW1 4937   1.060   2.899   0.005
 1637SOL    HW2 4938   1.164   2.790   0.068
 1638SOL     OW 4939   1.861   3.431   0.851
 1638SOL    HW1 4940   1.790   3.419   0.781
 1638SOL    HW2 4941   1.862   3.352   0.911
 1639SOL     OW 4942   0.221   3.176   1.844
 1639SOL    HW1 4943   0.156   3.103   1.823
 1639SOL    HW2 4944   0.225   3.190   1.942
 1640SOL     OW 4945   0.079   3.102   0.653
 1640SOL    HW1 4946   0.078   3.055   0.741
 1640SOL    HW2 4947   0.161   3.074   0.602
 1641SOL     OW 4948   0.672   3.253   1.624
 1641SOL    HW1 4949   0.594   3.203   1.662
 1641SOL    HW2 4950   0.669   3.348   1.655
 1642SOL     OW 4951   1.824   2.054   1.227
 1642SOL    HW1 4952   1.820   1.964   1.271
 1642SOL    HW2 4953   1.827   2.043   1.128
 1643SOL     OW 4954   0.428   2.286   0.520
 1643SOL    HW1 4955   0.458   2.214   0.458
 1643SOL    HW2 4956   0.389   2.246   0.603
 1644SOL     OW 4957   1.705   3.349   1.104
 1644SOL    HW1 4958   1.612   3.324   1.077
 1644SOL    HW2 4959   1.731   3.299   1.186
 1645SOL     OW 4960   0.317   2.409   1.280
 1645SOL    HW1 4961   0.355   2.350   1.352
 1645SOL    HW2 4962   0.357   2.383   1.192
 1646SOL     OW 4963   0.812   3.448   0.687
 1646SOL    HW1 4964   0.844   3.458   0.593
 1646SOL    HW2 4965   0.733   3.386   0.689
 1647SOL     OW 4966   1.424   2.076   1.112
 1647SOL    HW1 4967   1.476   2.011   1.167
 1647SOL    HW2 4968   1.375   2.139   1.173
 1648SOL     OW 4969   1.001   1.896   1.154
 1648SOL    HW1 4970   0.938   1.824   1.123
 1648SOL    HW2 4971   1.094   1.860   1.154
 1649SOL     OW 4972   0.770   3.192   0.301
 1649SOL    HW1 4973   0.724   3.105   0.318
 1649SOL    HW2 4974   0.861   3.189   0.342
 1650SOL     OW 4975   0.618   3.429   1.284
 1650SOL    HW1 4976   0.613   3.511   1.341
 1650SOL    HW2 4977   0.707   3.426   1.239
 1651SOL     OW 4978   1.352   1.914   0.168
 1651SOL    HW1 4979   1.387   1.873   0.084
 1651SOL    HW2 4980   1.262   1.876   0.188
 1652SOL     OW 4981   1.300   2.315   0.691
 1652SOL    HW1 4982   1.241   2.395   0.695
 1652SOL    HW2 4983   1.315   2.280   0.784
 1653SOL     OW 4984   1.593   2.083   0.882
 1653SOL    HW1 4985   1.509   2.082   0.936
 1653SOL    HW2 4986   1.595   2.166   0.826
 1654SOL     OW 4987   0.039   2.939   0.300
 1654SOL    HW1 4988   0.138   2.928   0.291
 1654SOL    HW2 4989  -0.001   2.853   0.332
 1655SOL     OW 4990   0.875   3.508   0.337
 1655SOL    HW1 4991   0.798   3.473   0.283
 1655SOL    HW2 4992   0.843   3.579   0.399
 1656SOL     OW 4993   0.230   2.490   1.975
 1656SOL    HW1 4994   0.137   2.488   2.012
 1656SOL    HW2 4995   0.231   2.451   1.883
 1657SOL     OW 4996   0.225   2.137   2.858
 1657SOL    HW1 4997   0.260   2.120   2.950
 1657SOL    HW2 4998   0.137   2.092   2.846
 1658SOL     OW 4999   0.019   2.230   2.509
 1658SOL    HW1 5000  -0.063   2.273   2.548
 1658SOL    HW2 5001  -0.009   2.157   2.446
 1659SOL     OW 5002   0.569   3.137   3.027
 1659SOL    HW1 5003   0.476   3.130   2.990
 1659SOL    HW2 5004   0.580   3.226   3.071
 1660SOL     OW 5005   1.555   3.373   2.565
 1660SOL    HW1 5006   1.498   3.357   2.646
 1660SOL    HW2 5007   1.496   3.383   2.485
 1661SOL     OW 5008   1.135   2.565   2.579
 1661SOL    HW1 5009   1.192   2.643   2.554
 1661SOL    HW2 5010   1.075   2.591   2.655
 1662SOL     OW 5011   1.755   2.469   2.093
 1662SOL    HW1 5012   1.743   2.456   1.994
 1662SOL    HW2 5013   1.725   2.388   2.142
 1663SOL     OW 5014   0.768   3.006   2.885
 1663SOL    HW1 5015   0.690   3.023   2.945
 1663SOL    HW2 5016   0.802   3.093   2.849
 1664SOL     OW 5017   0.850   2.660   3.685
 1664SOL    HW1 5018   0.846   2.736   3.750
 1664SOL    HW2 5019   0.872   2.696   3.594
 1665SOL     OW 5020   0.685   2.874   2.527
 1665SOL    HW1 5021   0.754   2.858   2.597
 1665SOL    HW2 5022   0.612   2.931   2.565
 1666SOL     OW 5023   0.686   3.023   3.665
 1666SOL    HW1 5024   0.746   3.102   3.679
 1666SOL    HW2 5025   0.600   3.054   3.624
 1667SOL     OW 5026   0.335   3.297   2.923
 1667SOL    HW1 5027   0.257   3.266   2.870
 1667SOL    HW2 5028   0.393   3.355   2.866
 1668SOL     OW 5029   1.460   3.367   3.201
 1668SOL    HW1 5030   1.484   3.461   3.227
 1668SOL    HW2 5031   1.444   3.313   3.283
 1669SOL     OW 5032   0.438   2.254   3.361
 1669SOL    HW1 5033   0.520   2.198   3.370
 1669SOL    HW2 5034   0.357   2.196   3.365
 1670SOL     OW 5035   1.603   2.309   2.599
 1670SOL    HW1 5036   1.529   2.355   2.549
 1670SOL    HW2 5037   1.654   2.377   2.652
 1671SOL     OW 5038   0.231   3.575   2.345
 1671SOL    HW1 5039   0.265   3.652   2.399
 1671SOL    HW2 5040   0.275   3.575   2.255
 1672SOL     OW 5041   1.127   3.203   3.552
 1672SOL    HW1 5042   1.174   3.203   3.640
 1672SOL    HW2 5043   1.079   3.116   3.541
 1673SOL     OW 5044   0.230   3.296   2.400
 1673SOL    HW1 5045   0.204   3.392   2.400
 1673SOL    HW2 5046   0.159   3.242   2.445
 1674SOL     OW 5047   0.240   2.953   2.748
 1674SOL    HW1 5048   0.254   2.869   2.800
 1674SOL    HW2 5049   0.185   3.017   2.803
 1675SOL     OW 5050   0.620   3.648   3.301
 1675SOL    HW1 5051   0.528   3.631   3.336
 1675SOL    HW2 5052   0.648   3.740   3.327
 1676SOL     OW 5053   0.606   2.826   1.985
 1676SOL    HW1 5054   0.613   2.910   1.931
 1676SOL    HW2 5055   0.652   2.839   2.073
 1677SOL     OW 5056   1.594   1.976   3.342
 1677SOL    HW1 5057   1.576   2.043   3.270
 1677SOL    HW2 5058   1.591   2.022   3.431
 1678SOL     OW 5059   0.122   2.505   2.425
 1678SOL    HW1 5060   0.077   2.417   2.442
 1678SOL    HW2 5061   0.121   2.559   2.509
 1679SOL     OW 5062   1.842   3.629   2.221
 1679SOL    HW1 5063   1.896   3.600   2.301
 1679SOL    HW2 5064   1.872   3.719   2.192
 1680SOL     OW 5065   0.027   3.458   1.979
 1680SOL    HW1 5066   0.008   3.362   2.000
 1680SOL    HW2 5067  -0.006   3.516   2.054
 1681SOL     OW 5068   1.689   2.784   2.474
 1681SOL    HW1 5069   1.784   2.755   2.482
 1681SOL    HW2 5070   1.681   2.849   2.399
 1682SOL     OW 5071   1.641   2.970   2.294
 1682SOL    HW1 5072   1.727   2.972   2.242
 1682SOL    HW2 5073   1.655   3.017   2.382
 1683SOL     OW 5074   0.113   2.599   3.459
 1683SOL    HW1 5075   0.201   2.586   3.504
 1683SOL    HW2 5076   0.100   2.696   3.437
 1684SOL     OW 5077   0.613   3.227   2.588
 1684SOL    HW1 5078   0.564   3.140   2.597
 1684SOL    HW2 5079   0.590   3.270   2.501
 1685SOL     OW 5080   1.293   3.090   3.285
 1685SOL    HW1 5081   1.330   3.017   3.227
 1685SOL    HW2 5082   1.345   3.095   3.370
 1686SOL     OW 5083   0.809   1.866   2.364
 1686SOL    HW1 5084   0.849   1.957   2.355
 1686SOL    HW2 5085   0.709   1.874   2.370
 1687SOL     OW 5086   0.197   2.838   3.126
 1687SOL    HW1 5087   0.286   2.793   3.112
 1687SOL    HW2 5088   0.124   2.773   3.107
 1688SOL     OW 5089   1.525   2.861   2.052
 1688SOL    HW1 5090   1.462   2.785   2.065
 1688SOL    HW2 5091   1.573   2.879   2.138
 1689SOL     OW 5092   1.187   3.654   3.478
 1689SOL    HW1 5093   1.211   3.714   3.402
 1689SOL    HW2 5094   1.194   3.559   3.448
 1690SOL     OW 5095   0.317   2.113   3.663
 1690SOL    HW1 5096   0.388   2.184   3.669
 1690SOL    HW2 5097   0.229   2.152   3.691
 1691SOL     OW 5098   1.466   3.279   2.815
 1691SOL    HW1 5099   1.407   3.285   2.895
 1691SOL    HW2 5100   1.451   3.191   2.769
 1692SOL     OW 5101   1.667   3.576   2.434
 1692SOL    HW1 5102   1.626   3.553   2.346
 1692SOL    HW2 5103   1.649   3.502   2.499
 1693SOL     OW 5104   0.598   2.591   2.132
 1693SOL    HW1 5105   0.622   2.660   2.064
 1693SOL    HW2 5106   0.520   2.624   2.186
 1694SOL     OW 5107   1.281   2.207   2.806
 1694SOL    HW1 5108   1.195   2.157   2.793
 1694SOL    HW2 5109   1.343   2.153   2.862
 1695SOL     OW 5110   1.576   3.524   2.169
 1695SOL    HW1 5111   1.665   3.570   2.172
 1695SOL    HW2 5112   1.555   3.500   2.074
 1696SOL     OW 5113   0.807   2.467   3.327
 1696SOL    HW1 5114   0.760   2.464   3.416
 1696SOL    HW2 5115   0.756   2.412   3.261
 1697SOL     OW 5116   1.394   2.331   3.536
 1697SOL    HW1 5117   1.374   2.374   3.624
 1697SOL    HW2 5118   1.472   2.269   3.545
 1698SOL     OW 5119   0.973   2.752   3.434
 1698SOL    HW1 5120   1.019   2.668   3.405
 1698SOL    HW2 5121   0.917   2.786   3.359
 1699SOL     OW 5122   0.991   2.272   3.104
 1699SOL    HW1 5123   0.914   2.306   3.158
 1699SOL    HW2 5124   0.957   2.221   3.025
 1700SOL     OW 5125   1.041   2.563   2.291
 1700SOL    HW1 5126   1.067   2.559   2.387
 1700SOL    HW2 5127   0.956   2.512   2.277
 1701SOL     OW 5128   0.076   2.673   2.651
 1701SOL    HW1 5129   0.175   2.661   2.660
 1701SOL    HW2 5130   0.052   2.768   2.672
 1702SOL     OW 5131   0.130   3.683   3.433
 1702SOL    HW1 5132   0.120   3.668   3.532
 1702SOL    HW2 5133   0.044   3.719   3.397
 1703SOL     OW 5134   0.865   2.210   2.057
 1703SOL    HW1 5135   0.924   2.273   2.008
 1703SOL    HW2 5136   0.884   2.116   2.028
 1704SOL     OW 5137   1.719   2.447   3.693
 1704SOL    HW1 5138   1.693   2.536   3.657
 1704SOL    HW2 5139   1.717   2.379   3.620
 1705SOL     OW 5140   1.362   3.006   2.407
 1705SOL    HW1 5141   1.445   2.977   2.359
 1705SOL    HW2 5142   1.313   3.073   2.351
 1706SOL     OW 5143   0.550   2.058   2.747
 1706SOL    HW1 5144   0.545   2.053   2.847
 1706SOL    HW2 5145   0.552   2.154   2.718
 1707SOL     OW 5146   1.008   3.318   2.339
 1707SOL    HW1 5147   0.962   3.390   2.287
 1707SOL    HW2 5148   1.004   3.338   2.437
 1708SOL     OW 5149   0.351   3.663   2.715
 1708SOL    HW1 5150   0.401   3.577   2.721
 1708SOL    HW2 5151   0.416   3.740   2.712
 1709SOL     OW 5152   1.795   2.928   2.735
 1709SOL    HW1 5153   1.733   2.913   2.659
 1709SOL    HW2 5154   1.743   2.939   2.820
 1710SOL     OW 5155   1.227   3.412   3.368
 1710SOL    HW1 5156   1.233   3.335   3.432
 1710SOL    HW2 5157   1.175   3.386   3.288
 1711SOL     OW 5158   0.321   2.805   2.104
 1711SOL    HW1 5159   0.403   2.844   2.062
 1711SOL    HW2 5160   0.294   2.723   2.055
 1712SOL     OW 5161   1.458   2.597   2.590
 1712SOL    HW1 5162   1.453   2.532   2.665
 1712SOL    HW2 5163   1.538   2.656   2.603
 1713SOL     OW 5164   0.461   3.128   3.589
 1713SOL    HW1 5165   0.411   3.129   3.503
 1713SOL    HW2 5166   0.398   3.110   3.665
 1714SOL     OW 5167   1.111   3.638   2.099
 1714SOL    HW1 5168   1.051   3.576   2.149
 1714SOL    HW2 5169   1.142   3.594   2.014
 1715SOL     OW 5170   0.202   2.147   3.360
 1715SOL    HW1 5171   0.122   2.207   3.347
 1715SOL    HW2 5172   0.192   2.098   3.446
 1716SOL     OW 5173   1.632   3.239   1.943
 1716SOL    HW1 5174   1.600   3.333   1.933
 1716SOL    HW2 5175   1.556   3.176   1.931
 1717SOL     OW 5176   0.464   3.605   2.185
 1717SOL    HW1 5177   0.497   3.644   2.271
 1717SOL    HW2 5178   0.540   3.598   2.120
 1718SOL     OW 5179   1.400   1.969   2.288
 1718SOL    HW1 5180   1.376   1.932   2.198
 1718SOL    HW2 5181   1.499   1.985   2.292
 1719SOL     OW 5182   0.249   3.647   3.103
 1719SOL    HW1 5183   0.306   3.582   3.153
 1719SOL    HW2 5184   0.233   3.614   3.010
 1720SOL     OW 5185   0.940   3.560   2.766
 1720SOL    HW1 5186   1.020   3.503   2.787
 1720SOL    HW2 5187   0.891   3.520   2.689
 1721SOL     OW 5188   0.382   2.562   2.342
 1721SOL    HW1 5189   0.427   2.472   2.339
 1721SOL    HW2 5190   0.288   2.551   2.375
 1722SOL     OW 5191   1.547   2.084   3.591
 1722SOL    HW1 5192   1.542   2.121   3.683
 1722SOL    HW2 5193   1.475   2.015   3.579
 1723SOL     OW 5194   0.614   1.984   1.979
 1723SOL    HW1 5195   0.712   1.962   1.986
 1723SOL    HW2 5196   0.583   1.967   1.886
 1724SOL     OW 5197   0.781   2.126   3.611
 1724SOL    HW1 5198   0.848   2.065   3.654
 1724SOL    HW2 5199   0.708   2.145   3.676
 1725SOL     OW 5200   0.888   3.376   3.057
 1725SOL    HW1 5201   0.865   3.351   2.963
 1725SOL    HW2 5202   0.949   3.307   3.096
 1726SOL     OW 5203   1.351   2.452   3.295
 1726SOL    HW1 5204   1.379   2.409   3.380
 1726SOL    HW2 5205   1.376   2.548   3.296
 1727SOL     OW 5206   0.803   3.264   2.786
 1727SOL    HW1 5207   0.893   3.278   2.744
 1727SOL    HW2 5208   0.732   3.266   2.715
 1728SOL     OW 5209   0.922   2.365   2.761
 1728SOL    HW1 5210   0.897   2.356   2.665
 1728SOL    HW2 5211   0.970   2.283   2.792
 1729SOL     OW 5212   0.539   1.926   2.374
 1729SOL    HW1 5213   0.458   1.927   2.432
 1729SOL    HW2 5214   0.542   2.009   2.319
 1730SOL     OW 5215   1.434   3.050   1.903
 1730SOL    HW1 5216   1.466   2.974   1.960
 1730SOL    HW2 5217   1.342   3.077   1.933
 1731SOL     OW 5218   0.297   1.897   2.033
 1731SOL    HW1 5219   0.346   1.981   2.012
 1731SOL    HW2 5220   0.359   1.832   2.078
 1732SOL     OW 5221   0.935   2.098   2.342
 1732SOL    HW1 5222   0.887   2.139   2.264
 1732SOL    HW2 5223   1.034   2.096   2.323
 1733SOL     OW 5224   1.076   2.545   3.326
 1733SOL    HW1 5225   0.996   2.484   3.329
 1733SOL    HW2 5226   1.157   2.492   3.302
 1734SOL     OW 5227   1.227   3.432   2.655
 1734SOL    HW1 5228   1.248   3.506   2.590
 1734SOL    HW2 5229   1.295   3.432   2.728
 1735SOL     OW 5230   0.459   3.014   2.603
 1735SOL    HW1 5231   0.388   2.987   2.668
 1735SOL    HW2 5232   0.433   2.986   2.510
 1736SOL     OW 5233   1.271   3.659   2.453
 1736SOL    HW1 5234   1.315   3.723   2.389
 1736SOL    HW2 5235   1.221   3.711   2.523
 1737SOL     OW 5236   1.032   2.411   1.878
 1737SOL    HW1 5237   0.991   2.493   1.839
 1737SOL    HW2 5238   1.096   2.437   1.951
 1738SOL     OW 5239   0.078   2.418   3.248
 1738SOL    HW1 5240   0.170   2.417   3.207
 1738SOL    HW2 5241   0.072   2.492   3.315
 1739SOL     OW 5242   0.561   2.084   3.009
 1739SOL    HW1 5243   0.599   2.000   3.046
 1739SOL    HW2 5244   0.473   2.103   3.053
 1740SOL     OW 5245   0.866   2.316   2.504
 1740SOL    HW1 5246   0.834   2.388   2.442
 1740SOL    HW2 5247   0.890   2.235   2.451
 1741SOL     OW 5248   1.017   1.901   2.615
 1741SOL    HW1 5249   0.945   1.906   2.546
 1741SOL    HW2 5250   0.993   1.832   2.684
 1742SOL     OW 5251   1.429   3.035   2.729
 1742SOL    HW1 5252   1.374   2.951   2.722
 1742SOL    HW2 5253   1.455   3.064   2.637
 1743SOL     OW 5254   1.466   2.452   2.854
 1743SOL    HW1 5255   1.436   2.357   2.861
 1743SOL    HW2 5256   1.539   2.468   2.920
 1744SOL     OW 5257   1.857   2.695   2.239
 1744SOL    HW1 5258   1.899   2.631   2.303
 1744SOL    HW2 5259   1.819   2.644   2.161
 1745SOL     OW 5260   0.488   3.247   2.036
 1745SOL    HW1 5261   0.401   3.232   2.083
 1745SOL    HW2 5262   0.471   3.273   1.941
 1746SOL     OW 5263   1.664   3.142   2.519
 1746SOL    HW1 5264   1.763   3.150   2.533
 1746SOL    HW2 5265   1.619   3.226   2.550
 1747SOL     OW 5266   1.390   2.437   1.940
 1747SOL    HW1 5267   1.336   2.416   2.021
 1747SOL    HW2 5268   1.481   2.396   1.949
 1748SOL     OW 5269   0.527   2.118   2.190
 1748SOL    HW1 5270   0.554   2.059   2.115
 1748SOL    HW2 5271   0.527   2.213   2.159
 1749SOL     OW 5272   1.754   3.085   3.450
 1749SOL    HW1 5273   1.845   3.046   3.437
 1749SOL    HW2 5274   1.762   3.181   3.474
 1750SOL     OW 5275   1.064   3.209   3.202
 1750SOL    HW1 5276   0.984   3.186   3.257
 1750SOL    HW2 5277   1.147   3.183   3.251
 1751SOL     OW 5278   1.592   3.491   3.487
 1751SOL    HW1 5279   1.619   3.525   3.397
 1751SOL    HW2 5280   1.671   3.453   3.533
 1752SOL     OW 5281   1.111   3.057   2.962
 1752SOL    HW1 5282   1.071   3.101   3.043
 1752SOL    HW2 5283   1.070   3.094   2.879
 1753SOL     OW 5284   1.638   2.961   2.941
 1753SOL    HW1 5285   1.643   3.042   3.000
 1753SOL    HW2 5286   1.552   2.963   2.890
 1754SOL     OW 5287   0.915   1.951   3.264
 1754SOL    HW1 5288   0.940   1.931   3.169
 1754SOL    HW2 5289   0.987   2.007   3.306
 1755SOL     OW 5290   0.980   2.978   3.581
 1755SOL    HW1 5291   0.881   2.984   3.591
 1755SOL    HW2 5292   1.003   2.898   3.525
 1756SOL     OW 5293   0.705   2.912   2.230
 1756SOL    HW1 5294   0.691   2.919   2.329
 1756SOL    HW2 5295   0.789   2.861   2.212
 1757SOL     OW 5296   0.410   2.675   3.113
 1757SOL    HW1 5297   0.496   2.687   3.163
 1757SOL    HW2 5298   0.368   2.588   3.140
 1758SOL     OW 5299   1.274   2.248   3.124
 1758SOL    HW1 5300   1.295   2.322   3.188
 1758SOL    HW2 5301   1.185   2.265   3.081
 1759SOL     OW 5302   0.367   2.962   2.363
 1759SOL    HW1 5303   0.360   3.045   2.307
 1759SOL    HW2 5304   0.371   2.882   2.303
 1760SOL     OW 5305   0.566   2.399   2.727
 1760SOL    HW1 5306   0.578   2.465   2.653
 1760SOL    HW2 5307   0.612   2.433   2.810
 1761SOL     OW 5308   1.252   3.210   2.250
 1761SOL    HW1 5309   1.302   3.287   2.290
 1761SOL    HW2 5310   1.157   3.212   2.282
 1762SOL     OW 5311   1.272   3.307   3.004
 1762SOL    HW1 5312   1.319   3.320   3.091
 1762SOL    HW2 5313   1.206   3.233   3.013
 1763SOL     OW 5314   1.582   2.501   2.334
 1763SOL    HW1 5315   1.551   2.562   2.407
 1763SOL    HW2 5316   1.632   2.553   2.265
 1764SOL     OW 5317   0.354   3.372   3.191
 1764SOL    HW1 5318   0.333   3.328   3.104
 1764SOL    HW2 5319   0.451   3.398   3.194
 1765SOL     OW 5320   0.402   2.613   3.460
 1765SOL    HW1 5321   0.470   2.668   3.413
 1765SOL    HW2 5322   0.442   2.525   3.487
 1766SOL     OW 5323   1.587   2.641   3.532
 1766SOL    HW1 5324   1.495   2.679   3.527
 1766SOL    HW2 5325   1.647   2.688   3.467
 1767SOL     OW 5326   1.013   1.967   3.632
 1767SOL    HW1 5327   1.019   2.052   3.580
 1767SOL    HW2 5328   1.045   1.891   3.575
 1768SOL     OW 5329   0.504   1.912   3.602
 1768SOL    HW1 5330   0.462   1.855   3.532
 1768SOL    HW2 5331   0.438   1.981   3.634
 1769SOL     OW 5332   0.573   2.732   2.891
 1769SOL    HW1 5333   0.617   2.821   2.882
 1769SOL    HW2 5334   0.510   2.732   2.968
 1770SOL     OW 5335   1.360   2.724   2.907
 1770SOL    HW1 5336   1.285   2.724   2.841
 1770SOL    HW2 5337   1.397   2.632   2.916
 1771SOL     OW 5338   1.209   2.387   2.137
 1771SOL    HW1 5339   1.222   2.303   2.191
 1771SOL    HW2 5340   1.180   2.461   2.197
 1772SOL     OW 5341   0.307   2.075   3.093
 1772SOL    HW1 5342   0.284   2.112   3.183
 1772SOL    HW2 5343   0.277   1.980   3.087
 1773SOL     OW 5344   0.037   3.172   3.144
 1773SOL    HW1 5345   0.090   3.123   3.212
 1773SOL    HW2 5346   0.059   3.270   3.149
 1774SOL     OW 5347   0.732   2.496   2.926
 1774SOL    HW1 5348   0.791   2.470   2.850
 1774SOL    HW2 5349   0.704   2.592   2.915
 1775SOL     OW 5350   1.728   2.797   3.716
 1775SOL    HW1 5351   1.682   2.790   3.627
 1775SOL    HW2 5352   1.666   2.841   3.782
 1776SOL     OW 5353   0.307   1.925   2.480
 1776SOL    HW1 5354   0.296   2.019   2.513
 1776SOL    HW2 5355   0.302   1.862   2.557
 1777SOL     OW 5356   1.622   2.229   2.236
 1777SOL    HW1 5357   1.624   2.153   2.300
 1777SOL    HW2 5358   1.574   2.306   2.276
 1778SOL     OW 5359   1.023   2.628   2.828
 1778SOL    HW1 5360   1.038   2.649   2.924
 1778SOL    HW2 5361   0.993   2.533   2.819
 1779SOL     OW 5362   0.980   3.435   3.562
 1779SOL    HW1 5363   0.960   3.479   3.474
 1779SOL    HW2 5364   1.019   3.344   3.546
 1780SOL     OW 5365   1.859   3.380   3.467
 1780SOL    HW1 5366   1.873   3.407   3.372
 1780SOL    HW2 5367   1.942   3.402   3.520
 1781SOL     OW 5368   0.350   2.760   3.666
 1781SOL    HW1 5369   0.426   2.804   3.714
 1781SOL    HW2 5370   0.385   2.713   3.584
 1782SOL     OW 5371   1.540   2.136   1.987
 1782SOL    HW1 5372   1.479   2.061   2.010
 1782SOL    HW2 5373   1.562   2.188   2.070
 1783SOL     OW 5374   1.303   2.700   1.904
 1783SOL    HW1 5375   1.337   2.607   1.919
 1783SOL    HW2 5376   1.321   2.727   1.809
 1784SOL     OW 5377   1.068   3.195   2.711
 1784SOL    HW1 5378   1.075   3.111   2.656
 1784SOL    HW2 5379   1.130   3.264   2.675
 1785SOL     OW 5380   0.319   2.672   2.811
 1785SOL    HW1 5381   0.412   2.708   2.816
 1785SOL    HW2 5382   0.313   2.587   2.863
 1786SOL     OW 5383   0.339   2.371   2.868
 1786SOL    HW1 5384   0.287   2.288   2.851
 1786SOL    HW2 5385   0.416   2.376   2.804
 1787SOL     OW 5386   1.138   2.242   3.540
 1787SOL    HW1 5387   1.093   2.305   3.604
 1787SOL    HW2 5388   1.231   2.273   3.523
 1788SOL     OW 5389   1.160   2.069   3.339
 1788SOL    HW1 5390   1.160   2.133   3.416
 1788SOL    HW2 5391   1.188   2.117   3.256
 1789SOL     OW 5392   0.008   3.188   2.062
 1789SOL    HW1 5393  -0.085   3.209   2.031
 1789SOL    HW2 5394   0.018   3.089   2.075
 1790SOL     OW 5395   0.088   3.663   2.789
 1790SOL    HW1 5396   0.046   3.577   2.762
 1790SOL    HW2 5397   0.182   3.666   2.755
 1791SOL     OW 5398   0.504   3.430   2.772
 1791SOL    HW1 5399   0.570   3.504   2.781
 1791SOL    HW2 5400   0.548   3.351   2.730
 1792SOL     OW 5401   1.002   2.658   3.100
 1792SOL    HW1 5402   1.043   2.626   3.186
 1792SOL    HW2 5403   0.906   2.631   3.097
 1793SOL     OW 5404   0.040   2.406   2.976
 1793SOL    HW1 5405   0.125   2.373   2.935
 1793SOL    HW2 5406   0.053   2.421   3.074
 1794SOL     OW 5407   0.189   2.382   3.584
 1794SOL    HW1 5408   0.248   2.342   3.514
 1794SOL    HW2 5409   0.131   2.453   3.543
 1795SOL     OW 5410   1.369   2.812   3.522
 1795SOL    HW1 5411   1.408   2.901   3.542
 1795SOL    HW2 5412   1.379   2.792   3.425
 1796SOL     OW 5413   0.815   2.434   2.187
 1796SOL    HW1 5414   0.822   2.345   2.141
 1796SOL    HW2 5415   0.721   2.468   2.179
 1797SOL     OW 5416   1.657   2.466   3.068
 1797SOL    HW1 5417   1.619   2.397   3.130
 1797SOL    HW2 5418   1.739   2.430   3.024
 1798SOL     OW 5419   0.252   3.426   3.606
 1798SOL    HW1 5420   0.222   3.483   3.682
 1798SOL    HW2 5421   0.245   3.329   3.632
 1799SOL     OW 5422   0.671   2.326   3.131
 1799SOL    HW1 5423   0.637   2.237   3.101
 1799SOL    HW2 5424   0.697   2.380   3.051
 1800SOL     OW 5425   0.930   3.540   3.327
 1800SOL    HW1 5426   0.906   3.522   3.232
 1800SOL    HW2 5427   0.960   3.634   3.337
 1801SOL     OW 5428   0.473   2.362   2.053
 1801SOL    HW1 5429   0.534   2.442   2.057
 1801SOL    HW2 5430   0.378   2.393   2.060
 1802SOL     OW 5431   0.159   2.999   3.328
 1802SOL    HW1 5432   0.181   2.938   3.404
 1802SOL    HW2 5433   0.169   2.950   3.242
 1803SOL     OW 5434   1.347   2.921   3.096
 1803SOL    HW1 5435   1.371   2.858   3.022
 1803SOL    HW2 5436   1.257   2.961   3.078
 1804SOL     OW 5437   1.302   2.717   2.171
 1804SOL    HW1 5438   1.216   2.686   2.213
 1804SOL    HW2 5439   1.298   2.703   2.072
 1805SOL     OW 5440   1.759   3.609   3.016
 1805SOL    HW1 5441   1.820   3.639   2.943
 1805SOL    HW2 5442   1.721   3.520   2.994
 1806SOL     OW 5443   1.252   3.593   2.990
 1806SOL    HW1 5444   1.336   3.598   2.936
 1806SOL    HW2 5445   1.229   3.497   3.008
 1807SOL     OW 5446   0.083   3.120   2.884
 1807SOL    HW1 5447   0.078   3.119   2.984
 1807SOL    HW2 5448   0.000   3.079   2.846
 1808SOL     OW 5449   0.688   3.524   3.578
 1808SOL    HW1 5450   0.632   3.605   3.587
 1808SOL    HW2 5451   0.740   3.528   3.492
 1809SOL     OW 5452   1.726   1.997   2.385
 1809SOL    HW1 5453   1.799   1.980   2.318
 1809SOL    HW2 5454   1.695   1.910   2.423
 1810SOL     OW 5455   1.388   3.435   2.339
 1810SOL    HW1 5456   1.455   3.447   2.265
 1810SOL    HW2 5457   1.348   3.524   2.362
 1811SOL     OW 5458   0.130   3.656   3.713
 1811SOL    HW1 5459   0.089   3.582   3.766
 1811SOL    HW2 5460   0.194   3.707   3.771
 1812SOL     OW 5461   1.280   2.789   2.534
 1812SOL    HW1 5462   1.340   2.708   2.536
 1812SOL    HW2 5463   1.320   2.858   2.474
 1813SOL     OW 5464   0.830   3.135   3.284
 1813SOL    HW1 5465   0.825   3.168   3.379
 1813SOL    HW2 5466   0.744   3.154   3.238
 1814SOL     OW 5467   0.672   3.478   2.016
 1814SOL    HW1 5468   0.681   3.488   1.917
 1814SOL    HW2 5469   0.632   3.389   2.037
 1815SOL     OW 5470   1.650   3.582   3.256
 1815SOL    HW1 5471   1.703   3.592   3.172
 1815SOL    HW2 5472   1.623   3.672   3.290
 1816SOL     OW 5473   1.841   2.037   2.825
 1816SOL    HW1 5474   1.880   1.952   2.789
 1816SOL    HW2 5475   1.743   2.039   2.806
 1817SOL     OW 5476   0.263   2.188   2.582
 1817SOL    HW1 5477   0.184   2.239   2.548
 1817SOL    HW2 5478   0.254   2.173   2.680
 1818SOL     OW 5479   1.194   3.474   1.893
 1818SOL    HW1 5480   1.200   3.381   1.930
 1818SOL    HW2 5481   1.135   3.474   1.813
 1819SOL     OW 5482   0.822   2.864   3.234
 1819SOL    HW1 5483   0.862   2.863   3.142
 1819SOL    HW2 5484   0.832   2.956   3.274
 1820SOL     OW 5485   0.916   2.772   2.153
 1820SOL    HW1 5486   0.979   2.810   2.085
 1820SOL    HW2 5487   0.956   2.689   2.192
 1821SOL     OW 5488   1.504   3.469   1.906
 1821SOL    HW1 5489   1.412   3.506   1.913
 1821SOL    HW2 5490   1.542   3.489   1.816
 1822SOL     OW 5491   0.372   3.150   3.352
 1822SOL    HW1 5492   0.359   3.243   3.318
 1822SOL    HW2 5493   0.288   3.098   3.339
 1823SOL     OW 5494   1.614   3.154   3.151
 1823SOL    HW1 5495   1.674   3.157   3.231
 1823SOL    HW2 5496   1.539   3.218   3.164
 1824SOL     OW 5497   1.039   2.960   2.558
 1824SOL    HW1 5498   0.969   2.913   2.612
 1824SOL    HW2 5499   1.098   2.892   2.515
 1825SOL     OW 5500   1.014   2.098   2.833
 1825SOL    HW1 5501   1.006   2.062   2.740
 1825SOL    HW2 5502   1.012   2.022   2.898
 1826SOL     OW 5503   0.590   3.349   2.353
 1826SOL    HW1 5504   0.632   3.291   2.283
 1826SOL    HW2 5505   0.546   3.428   2.309
 1827SOL     OW 5506   1.709   2.247   3.243
 1827SOL    HW1 5507   1.782   2.316   3.247
 1827SOL    HW2 5508   1.737   2.172   3.184
 1828SOL     OW 5509   0.255   3.210   2.152
 1828SOL    HW1 5510   0.159   3.211   2.125
 1828SOL    HW2 5511   0.267   3.263   2.236
 1829SOL     OW 5512   0.105   2.875   3.588
 1829SOL    HW1 5513   0.028   2.842   3.642
 1829SOL    HW2 5514   0.190   2.845   3.630
 1830SOL     OW 5515   0.672   2.065   3.351
 1830SOL    HW1 5516   0.762   2.049   3.311
 1830SOL    HW2 5517   0.680   2.070   3.450
 1831SOL     OW 5518   0.075   2.207   1.895
 1831SOL    HW1 5519  -0.017   2.179   1.866
 1831SOL    HW2 5520   0.106   2.284   1.839
 1832SOL     OW 5521   1.440   2.718   3.260
 1832SOL    HW1 5522   1.383   2.770   3.197
 1832SOL    HW2 5523   1.536   2.730   3.236
 1833SOL     OW 5524   0.072   2.028   2.180
 1833SOL    HW1 5525   0.055   2.111   2.126
 1833SOL    HW2 5526   0.162   1.991   2.158
 1834SOL     OW 5527   1.183   3.197   1.981
 1834SOL    HW1 5528   1.084   3.186   1.983
 1834SOL    HW2 5529   1.217   3.212   2.074
 1835SOL     OW 5530   0.613   2.704   3.293
 1835SOL    HW1 5531   0.669   2.785   3.276
 1835SOL    HW2 5532   0.672   2.624   3.296
 1836SOL     OW 5533   1.493   3.629   2.821
 1836SOL    HW1 5534   1.526   3.693   2.752
 1836SOL    HW2 5535   1.559   3.623   2.896
 1837SOL     OW 5536   0.716   2.427   3.570
 1837SOL    HW1 5537   0.735   2.492   3.644
 1837SOL    HW2 5538   0.776   2.347   3.579
 1838SOL     OW 5539   1.450   3.082   3.495
 1838SOL    HW1 5540   1.441   3.072   3.594
 1838SOL    HW2 5541   1.546   3.075   3.469
 1839SOL     OW 5542   0.390   3.603   3.422
 1839SOL    HW1 5543   0.299   3.644   3.420
 1839SOL    HW2 5544   0.383   3.509   3.454
 1840SOL     OW 5545   1.674   2.745   3.116
 1840SOL    HW1 5546   1.647   2.656   3.079
 1840SOL    HW2 5547   1.675   2.813   3.043
 1841SOL     OW 5548   1.225   2.187   2.311
 1841SOL    HW1 5549   1.290   2.113   2.300
 1841SOL    HW2 5550   1.245   2.237   2.395
 1842SOL     OW 5551   0.594   2.607   2.514
 1842SOL    HW1 5552   0.644   2.692   2.495
 1842SOL    HW2 5553   0.506   2.609   2.466
 1843SOL     OW 5554   1.777   2.204   3.504
 1843SOL    HW1 5555   1.760   2.235   3.410
 1843SOL    HW2 5556   1.693   2.167   3.542
 1844SOL     OW 5557   1.730   2.796   3.379
 1844SOL    HW1 5558   1.768   2.887   3.394
 1844SOL    HW2 5559   1.722   2.779   3.280
 1845SOL     OW 5560   0.859   3.236   1.878
 1845SOL    HW1 5561   0.813   3.251   1.966
 1845SOL    HW2 5562   0.903   3.321   1.848
 1846SOL     OW 5563   0.661   3.652   2.815
 1846SOL    HW1 5564   0.615   3.740   2.802
 1846SOL    HW2 5565   0.760   3.664   2.808
 1847SOL     OW 5566   0.859   2.818   2.723
 1847SOL    HW1 5567   0.913   2.749   2.771
 1847SOL    HW2 5568   0.827   2.887   2.789
 1848SOL     OW 5569   1.083   2.846   1.949
 1848SOL    HW1 5570   1.060   2.899   1.867
 1848SOL    HW2 5571   1.164   2.790   1.930
 1849SOL     OW 5572   1.861   3.431   2.713
 1849SOL    HW1 5573   1.790   3.419   2.643
 1849SOL    HW2 5574   1.862   3.352   2.773
 1850SOL     OW 5575   0.221   3.176   3.706
 1850SOL    HW1 5576   0.156   3.103   3.685
 1850SOL    HW2 5577   0.225   3.190   3.804
 1851SOL     OW 5578   0.079   3.102   2.515
 1851SOL    HW1 5579   0.078   3.055   2.603
 1851SOL    HW2 5580   0.161   3.074   2.464
 1852SOL     OW 5581   0.672   3.253   3.486
 1852SOL    HW1 5582   0.594   3.203   3.524
 1852SOL    HW2 5583   0.669   3.348   3.517
 1853SOL     OW 5584   1.824   2.054   3.089
 1853SOL    HW1 5585   1.820   1.964   3.133
 1853SOL    HW2 5586   1.827   2.043   2.990
 1854SOL     OW 5587   0.428   2.286   2.382
 1854SOL    HW1 5588   0.458   2.214   2.320
 1854SOL    HW2 5589   0.389   2.246   2.465
 1855SOL     OW 5590   1.705   3.349   2.966
 1855SOL    HW1 5591   1.612   3.324   2.939
 1855SOL    HW2 5592   1.731   3.299   3.048
 1856SOL     OW 5593   0.317   2.409   3.142
 1856SOL    HW1 5594   0.355   2.350   3.214
 1856SOL    HW2 5595   0.357   2.383   3.054
 1857SOL     OW 5596   0.812   3.448   2.549
 1857SOL    HW1 5597   0.844   3.458   2.455
 1857SOL    HW2 5598   0.733   3.386   2.551
 1858SOL     OW 5599   1.424   2.076   2.974
 1858SOL    HW1 5600   1.476   2.011   3.029
 1858SOL    HW2 5601   1.375   2.139   3.035
 1859SOL     OW 5602   1.001   1.896   3.016
 1859SOL    HW1 5603   0.938   1.824   2.985
 1859SOL    HW2 5604   1.094   1.860   3.016
 1860SOL     OW 5605   0.770   3.192   2.163
 1860SOL    HW1 5606   0.724   3.105   2.180
 1860SOL    HW2 5607   0.861   3.189   2.204
 1861SOL     OW 5608   0.618   3.429   3.146
 1861SOL    HW1 5609   0.613   3.511   3.203
 1861SOL    HW2 5610   0.707   3.426   3.101
 1862SOL     OW 5611   1.352   1.914   2.030
 1862SOL    HW1 5612   1.387   1.873   1.946
 1862SOL    HW2 5613   1.262   1.876   2.050
 1863SOL     OW 5614   1.300   2.315   2.553
 1863SOL    HW1 5615   1.241   2.395   2.557
 1863SOL    HW2 5616   1.315   2.280   2.646
 1864SOL     OW 5617   1.593   2.083   2.744
 1864SOL    HW1 5618   1.509   2.082   2.798
 1864SOL    HW2 5619   1.595   2.166   2.688
 1865SOL     OW 5620   0.039   2.939   2.162
 1865SOL    HW1 5621   0.138   2.928   2.153
 1865SOL    HW2 5622  -0.001   2.853   2.194
 1866SOL     OW 5623   0.875   3.508   2.199
 1866SOL    HW1 5624   0.798   3.473   2.145
 1866SOL    HW2 5625   0.843   3.579   2.261
 1867SOL     OW 5626   0.230   2.490   3.837
 1867SOL    HW1 5627   0.137   2.488   3.874
 1867SOL    HW2 5628   0.231   2.451   3.745
 1868SOL     OW 5629   0.225   2.137   4.720
 1868SOL    HW1 5630   0.260   2.120   4.812
 1868SOL    HW2 5631   0.137   2.092   4.708
 1869SOL     OW 5632   0.019   2.230   4.371
 1869SOL    HW1 5633  -0.063   2.273   4.410
 1869SOL    HW2 5634  -0.009   2.157   4.308
 1870SOL     OW 5635   0.569   3.137   4.889
 1870SOL    HW1 5636   0.476   3.130   4.852
 1870SOL    HW2 5637   0.580   3.226   4.933
 1871SOL     OW 5638   1.555   3.373   4.427
 1871SOL    HW1 5639   1.498   3.357   4.508
 1871SOL    HW2 5640   1.496   3.383   4.347
 1872SOL     OW 5641   1.135   2.565   4.441
 1872SOL    HW1 5642   1.192   2.643   4.416
 1872SOL    HW2 5643   1.075   2.591   4.517
 1873SOL     OW 5644   1.755   2.469   3.955
 1873SOL    HW1 5645   1.743   2.456   3.856
 1873SOL    HW2 5646   1.725   2.388   4.004
 1874SOL     OW 5647   0.768   3.006   4.747
 1874SOL    HW1 5648   0.690   3.023   4.807
 1874SOL    HW2 5649   0.802   3.093   4.711
 1875SOL     OW 5650   0.850   2.660   5.547
 1875SOL    HW1 5651   0.846   2.736   5.612
 1875SOL    HW2 5652   0.872   2.696   5.456
 1876SOL     OW 5653   0.685   2.874   4.389
 1876SOL    HW1 5654   0.754   2.858   4.459
 1876SOL    HW2 5655   0.612   2.931   4.427
 1877SOL     OW 5656   0.686   3.023   5.527
 1877SOL    HW1 5657   0.746   3.102   5.541
 1877SOL    HW2 5658   0.600   3.054   5.486
 1878SOL     OW 5659   0.335   3.297   4.785
 1878SOL    HW1 5660   0.257   3.266   4.732
 1878SOL    HW2 5661   0.393   3.355   4.728
 1879SOL     OW 5662   1.460   3.367   5.063
 1879SOL    HW1 5663   1.484   3.461   5.089
 1879SOL    HW2 5664   1.444   3.313   5.145
 1880SOL     OW 5665   0.438   2.254   5.223
 1880SOL    HW1 5666   0.520   2.198   5.232
 1880SOL    HW2 5667   0.357   2.196   5.227
 1881SOL     OW 5668   1.603   2.309   4.461
 1881SOL    HW1 5669   1.529   2.355   4.411
 1881SOL    HW2 5670   1.654   2.377   4.514
 1882SOL     OW 5671   0.231   3.575   4.207
 1882SOL    HW1 5672   0.265   3.652   4.261
 1882SOL    HW2 5673   0.275   3.575   4.117
 1883SOL     OW 5674   1.127   3.203   5.414
 1883SOL    HW1 5675   1.174   3.203   5.502
 1883SOL    HW2 5676   1.079   3.116   5.403
 1884SOL     OW 5677   0.230   3.296   4.262
 1884SOL    HW1 5678   0.204   3.392   4.262
 1884SOL    HW2 5679   0.159   3.242   4.307
 1885SOL     OW 5680   0.240   2.953   4.610
 1885SOL    HW1 5681   0.254   2.869   4.662
 1885SOL    HW2 5682   0.185   3.017   4.665
 1886SOL     OW 5683   0.620   3.648   5.163
 1886SOL    HW1 5684   0.528   3.631   5.198
 1886SOL    HW2 5685   0.648   3.740   5.189
 1887SOL     OW 5686   0.606   2.826   3.847
 1887SOL    HW1 5687   0.613   2.910   3.793
 1887SOL    HW2 5688   0.652   2.839   3.935
 1888SOL     OW 5689   1.594   1.976   5.204
 1888SOL    HW1 5690   1.576   2.043   5.132
 1888SOL    HW2 5691   1.591   2.022   5.293
 1889SOL     OW 5692   0.122   2.505   4.287
 1889SOL    HW1 5693   0.077   2.417   4.304
 1889SOL    HW2 5694   0.121   2.559   4.371
 1890SOL     OW 5695   1.842   3.629   4.083
 1890SOL    HW1 5696   1.896   3.600   4.163
 1890SOL    HW2 5697   1.872   3.719   4.054
 1891SOL     OW 5698   0.027   3.458   3.841
 1891SOL    HW1 5699   0.008   3.362   3.862
 1891SOL    HW2 5700  -0.006   3.516   3.916
 1892SOL     OW 5701   1.689   2.784   4.336
 1892SOL    HW1 5702   1.784   2.755   4.344
 1892SOL    HW2 5703   1.681   2.849   4.261
 1893SOL     OW 5704   1.641   2.970   4.156
 1893SOL    HW1 5705   1.727   2.972   4.104
 1893SOL    HW2 5706   1.655   3.017   4.244
 1894SOL     OW 5707   0.113   2.599   5.321
 1894SOL    HW1 5708   0.201   2.586   5.366
 1894SOL    HW2 5709   0.100   2.696   5.299
 1895SOL     OW 5710   0.613   3.227   4.450
 1895SOL    HW1 5711   0.564   3.140   4.459
 1895SOL    HW2 5712   0.590   3.270   4.363
 1896SOL     OW 5713   1.293   3.090   5.147
 1896SOL    HW1 5714   1.330   3.017   5.089
 1896SOL    HW2 5715   1.345   3.095   5.232
 1897SOL     OW 5716   0.809   1.866   4.226
 1897SOL    HW1 5717   0.849   1.957   4.217
 1897SOL    HW2 5718   0.709   1.874   4.232
 1898SOL     OW 5719   0.197   2.838   4.988
 1898SOL    HW1 5720   0.286   2.793   4.974
 1898SOL    HW2 5721   0.124   2.773   4.969
 1899SOL     OW 5722   1.525   2.861   3.914
 1899SOL    HW1 5723   1.462   2.785   3.927
 1899SOL    HW2 5724   1.573   2.879   4.000
 1900SOL     OW 5725   1.187   3.654   5.340
 1900SOL    HW1 5726   1.211   3.714   5.264
 1900SOL    HW2 5727   1.194   3.559   5.310
 1901SOL     OW 5728   0.317   2.113   5.525
 1901SOL    HW1 5729   0.388   2.184   5.531
 1901SOL    HW2 5730   0.229   2.152   5.553
 1902SOL     OW 5731   1.466   3.279   4.677
 1902SOL    HW1 5732   1.407   3.285   4.757
 1902SOL    HW2 5733   1.451   3.191   4.631
 1903SOL     OW 5734   1.667   3.576   4.296
 1903SOL    HW1 5735   1.626   3.553   4.208
 1903SOL    HW2 5736   1.649   3.502   4.361
 1904SOL     OW 5737   0.598   2.591   3.994
 1904SOL    HW1 5738   0.622   2.660   3.926
 1904SOL    HW2 5739   0.520   2.624   4.048
 1905SOL     OW 5740   1.281   2.207   4.668
 1905SOL    HW1 5741   1.195   2.157   4.655
 1905SOL    HW2 5742   1.343   2.153   4.724
 1906SOL     OW 5743   1.576   3.524   4.031
 1906SOL    HW1 5744   1.665   3.570   4.034
 1906SOL    HW2 5745   1.555   3.500   3.936
 1907SOL     OW 5746   0.807   2.467   5.189
 1907SOL    HW1 5747   0.760   2.464   5.278
 1907SOL    HW2 5748   0.756   2.412   5.123
 1908SOL     OW 5749   1.394   2.331   5.398
 1908SOL    HW1 5750   1.374   2.374   5.486
 1908SOL    HW2 5751   1.472   2.269   5.407
 1909SOL     OW 5752   0.973   2.752   5.296
 1909SOL    HW1 5753   1.019   2.668   5.267
 1909SOL    HW2 5754   0.917   2.786   5.221
 1910SOL     OW 5755   0.991   2.272   4.966
 1910SOL    HW1 5756   0.914   2.306   5.020
 1910SOL    HW2 5757   0.957   2.221   4.887
 1911SOL     OW 5758   1.041   2.563   4.153
 1911SOL    HW1 5759   1.067   2.559   4.249
 1911SOL    HW2 5760   0.956   2.512   4.139
 1912SOL     OW 5761   0.076   2.673   4.513
 1912SOL    HW1 5762   0.175   2.661   4.522
 1912SOL    HW2 5763   0.052   2.768   4.534
 1913SOL     OW 5764   0.130   3.683   5.295
 1913SOL    HW1 5765   0.120   3.668   5.394
 1913SOL    HW2 5766   0.044   3.719   5.259
 1914SOL     OW 5767   0.865   2.210   3.919
 1914SOL    HW1 5768   0.924   2.273   3.870
 1914SOL    HW2 5769   0.884   2.116   3.890
 1915SOL     OW 5770   1.719   2.447   5.555
 1915SOL    HW1 5771   1.693   2.536   5.519
 1915SOL    HW2 5772   1.717   2.379   5.482
 1916SOL     OW 5773   1.362   3.006   4.269
 1916SOL    HW1 5774   1.445   2.977   4.221
 1916SOL    HW2 5775   1.313   3.073   4.213
 1917SOL     OW 5776   0.550   2.058   4.609
 1917SOL    HW1 5777   0.545   2.053   4.709
 1917SOL    HW2 5778   0.552   2.154   4.580
 1918SOL     OW 5779   1.008   3.318   4.201
 1918SOL    HW1 5780   0.962   3.390   4.149
 1918SOL    HW2 5781   1.004   3.338   4.299
 1919SOL     OW 5782   0.351   3.663   4.577
 1919SOL    HW1 5783   0.401   3.577   4.583
 1919SOL    HW2 5784   0.416   3.740   4.574
 1920SOL     OW 5785   1.795   2.928   4.597
 1920SOL    HW1 5786   1.733   2.913   4.521
 1920SOL    HW2 5787   1.743   2.939   4.682
 1921SOL     OW 5788   1.227   3.412   5.230
 1921SOL    HW1 5789   1.233   3.335   5.294
 1921SOL    HW2 5790   1.175   3.386   5.150
 1922SOL     OW 5791   0.321   2.805   3.966
 1922SOL    HW1 5792   0.403   2.844   3.924
 1922SOL    HW2 5793   0.294   2.723   3.917
 1923SOL     OW 5794   0.461   3.128   5.451
 1923SOL    HW1 5795   0.411   3.129   5.365
 1923SOL    HW2 5796   0.398   3.110   5.527
 1924SOL     OW 5797   1.111   3.638   3.961
 1924SOL    HW1 5798   1.051   3.576   4.011
 1924SOL    HW2 5799   1.142   3.594   3.876
 1925SOL     OW 5800   0.202   2.147   5.222
 1925SOL    HW1 5801   0.122   2.207   5.209
 1925SOL    HW2 5802   0.192   2.098   5.308
 1926SOL     OW 5803   1.632   3.239   3.805
 1926SOL    HW1 5804   1.600   3.333   3.795
 1926SOL    HW2 5805   1.556   3.176   3.793
 1927SOL     OW 5806   0.464   3.605   4.047
 1927SOL    HW1 5807   0.497   3.644   4.133
 1927SOL    HW2 5808   0.540   3.598   3.982
 1928SOL     OW 5809   1.400   1.969   4.150
 1928SOL    HW1 5810   1.376   1.932   4.060
 1928SOL    HW2 5811   1.499   1.985   4.154
 1929SOL     OW 5812   0.249   3.647   4.965
 1929SOL    HW1 5813   0.306   3.582   5.015
 1929SOL    HW2 5814   0.233   3.614   4.872
 1930SOL     OW 5815   0.940   3.560   4.628
 1930SOL    HW1 5816   1.020   3.503   4.649
 1930SOL    HW2 5817   0.891   3.520   4.551
 1931SOL     OW 5818   0.382   2.562   4.204
 1931SOL    HW1 5819   0.427   2.472   4.201
 1931SOL    HW2 5820   0.288   2.551   4.237
 1932SOL     OW 5821   1.547   2.084   5.453
 1932SOL    HW1 5822   1.542   2.121   5.545
 1932SOL    HW2 5823   1.475   2.015   5.441
 1933SOL     OW 5824   0.614   1.984   3.841
 1933SOL    HW1 5825   0.712   1.962   3.848
 1933SOL    HW2 5826   0.583   1.967   3.748
 1934SOL     OW 5827   0.781   2.126   5.473
 1934SOL    HW1 5828   0.848   2.065   5.516
 1934SOL    HW2 5829   0.708   2.145   5.538
 1935SOL     OW 5830   0.888   3.376   4.919
 1935SOL    HW1 5831   0.865   3.351   4.825
 1935SOL    HW2 5832   0.949   3.307   4.958
 1936SOL     OW 5833   1.351   2.452   5.157
 1936SOL    HW1 5834   1.379   2.409   5.242
 1936SOL    HW2 5835   1.376   2.548   5.158
 1937SOL     OW 5836   0.803   3.264   4.648
 1937SOL    HW1 5837   0.893   3.278   4.606
 1937SOL    HW2 5838   0.732   3.266   4.577
 1938SOL     OW 5839   0.922   2.365   4.623
 1938SOL    HW1 5840   0.897   2.356   4.527
 1938SOL    HW2 5841   0.970   2.283   4.654
 1939SOL     OW 5842   0.539   1.926   4.236
 1939SOL    HW1 5843   0.458   1.927   4.294
 1939SOL    HW2 5844   0.542   2.009   4.181
 1940SOL     OW 5845   1.434   3.050   3.765
 1940SOL    HW1 5846   1.466   2.974   3.822
 1940SOL    HW2 5847   1.342   3.077   3.795
 1941SOL     OW 5848   0.297   1.897   3.895
 1941SOL    HW1 5849   0.346   1.981   3.874
 1941SOL    HW2 5850   0.359   1.832   3.940
 1942SOL     OW 5851   0.935   2.098   4.204
 1942SOL    HW1 5852   0.887   2.139   4.126
 1942SOL    HW2 5853   1.034   2.096   4.185
 1943SOL     OW 5854   1.076   2.545   5.188
 1943SOL    HW1 5855   0.996   2.484   5.191
 1943SOL    HW2 5856   1.157   2.492   5.164
 1944SOL     OW 5857   1.227   3.432   4.517
 1944SOL    HW1 5858   1.248   3.506   4.452
 1944SOL    HW2 5859   1.295   3.432   4.590
 1945SOL     OW 5860   0.459   3.014   4.465
 1945SOL    HW1 5861   0.388   2.987   4.530
 1945SOL    HW2 5862   0.433   2.986   4.372
 1946SOL     OW 5863   1.271   3.659   4.315
 1946SOL    HW1 5864   1.315   3.723   4.251
 1946SOL    HW2 5865   1.221   3.711   4.385
 1947SOL     OW 5866   1.032   2.411   3.740
 1947SOL    HW1 5867   0.991   2.493   3.701
 1947SOL    HW2 5868   1.096   2.437   3.813
 1948SOL     OW 5869   0.078   2.418   5.110
 1948SOL    HW1 5870   0.170   2.417   5.069
 1948SOL    HW2 5871   0.072   2.492   5.177
 1949SOL     OW 5872   0.561   2.084   4.871
 1949SOL    HW1 5873   0.599   2.000   4.908
 1949SOL    HW2 5874   0.473   2.103   4.915
 1950SOL     OW 5875   0.866   2.316   4.366
 1950SOL    HW1 5876   0.834   2.388   4.304
 1950SOL    HW2 5877   0.890   2.235   4.313
 1951SOL     OW 5878   1.017   1.901   4.477
 1951SOL    HW1 5879   0.945   1.906   4.408
 1951SOL    HW2 5880   0.993   1.832   4.546
 1952SOL     OW 5881   1.429   3.035   4.591
 1952SOL    HW1 5882   1.374   2.951   4.584
 1952SOL    HW2 5883   1.455   3.064   4.499
 1953SOL     OW 5884   1.466   2.452   4.716
 1953SOL    HW1 5885   1.436   2.357   4.723
 1953SOL    HW2 5886   1.539   2.468   4.782
 1954SOL     OW 5887   1.857   2.695   4.101
 1954SOL    HW1 5888   1.899   2.631   4.165
 1954SOL    HW2 5889   1.819   2.644   4.023
 1955SOL     OW 5890   0.488   3.247   3.898
 1955SOL    HW1 5891   0.401   3.232   3.945
 1955SOL    HW2 5892   0.471   3.273   3.803
 1956SOL     OW 5893   1.664   3.142   4.381
 1956SOL    HW1 5894   1.763   3.150   4.395
 1956SOL    HW2 5895   1.619   3.226   4.412
 1957SOL     OW 5896   1.390   2.437   3.802
 1957SOL    HW1 5897   1.336   2.416   3.883
 1957SOL    HW2 5898   1.481   2.396   3.811
 1958SOL     OW 5899   0.527   2.118   4.052
 1958SOL    HW1 5900   0.554   2.059   3.977
 1958SOL    HW2 5901   0.527   2.213   4.021
 1959SOL     OW 5902   1.754   3.085   5.312
 1959SOL    HW1 5903   1.845   3.046   5.299
 1959SOL    HW2 5904   1.762   3.181   5.336
 1960SOL     OW 5905   1.064   3.209   5.064
 1960SOL    HW1 5906   0.984   3.186   5.119
 1960SOL    HW2 5907   1.147   3.183   5.113
 1961SOL     OW 5908   1.592   3.491   5.349
 1961SOL    HW1 5909   1.619   3.525   5.259
 1961SOL    HW2 5910   1.671   3.453   5.395
 1962SOL     OW 5911   1.111   3.057   4.824
 1962SOL    HW1 5912   1.071   3.101   4.905
 1962SOL    HW2 5913   1.070   3.094   4.741
 1963SOL     OW 5914   1.638   2.961   4.803
 1963SOL    HW1 5915   1.643   3.042   4.862
 1963SOL    HW2 5916   1.552   2.963   4.752
 1964SOL     OW 5917   0.915   1.951   5.126
 1964SOL    HW1 5918   0.940   1.931   5.031
 1964SOL    HW2 5919   0.987   2.007   5.168
 1965SOL     OW 5920   0.980   2.978   5.443
 1965SOL    HW1 5921   0.881   2.984   5.453
 1965SOL    HW2 5922   1.003   2.898   5.387
 1966SOL     OW 5923   0.705   2.912   4.092
 1966SOL    HW1 5924   0.691   2.919   4.191
 1966SOL    HW2 5925   0.789   2.861   4.074
 1967SOL     OW 5926   0.410   2.675   4.975
 1967SOL    HW1 5927   0.496   2.687   5.025
 1967SOL    HW2 5928   0.368   2.588   5.002
 1968SOL     OW 5929   1.274   2.248   4.986
 1968SOL    HW1 5930   1.295   2.322   5.050
 1968SOL    HW2 5931   1.185   2.265   4.943
 1969SOL     OW 5932   0.064   3.426   5.055
 1969SOL    HW1 5933   0.018   3.508   5.021
 1969SOL    HW2 5934   0.162   3.445   5.064
 1970SOL     OW 5935   0.367   2.962   4.225
 1970SOL    HW1 5936   0.360   3.045   4.169
 1970SOL    HW2 5937   0.371   2.882   4.165
 1971SOL     OW 5938   0.566   2.399   4.589
 1971SOL    HW1 5939   0.578   2.465   4.515
 1971SOL    HW2 5940   0.612   2.433   4.672
 1972SOL     OW 5941   1.252   3.210   4.112
 1972SOL    HW1 5942   1.302   3.287   4.152
 1972SOL    HW2 5943   1.157   3.212   4.144
 1973SOL     OW 5944   1.272   3.307   4.866
 1973SOL    HW1 5945   1.319   3.320   4.953
 1973SOL    HW2 5946   1.206   3.233   4.875
 1974SOL     OW 5947   1.582   2.501   4.196
 1974SOL    HW1 5948   1.551   2.562   4.269
 1974SOL    HW2 5949   1.632   2.553   4.127
 1975SOL     OW 5950   0.354   3.372   5.053
 1975SOL    HW1 5951   0.333   3.328   4.966
 1975SOL    HW2 5952   0.451   3.398   5.056
 1976SOL     OW 5953   0.402   2.613   5.322
 1976SOL    HW1 5954   0.470   2.668   5.275
 1976SOL    HW2 5955   0.442   2.525   5.349
 1977SOL     OW 5956   1.587   2.641   5.394
 1977SOL    HW1 5957   1.495   2.679   5.389
 1977SOL    HW2 5958   1.647   2.688   5.329
 1978SOL     OW 5959   1.013   1.967   5.494
 1978SOL    HW1 5960   1.019   2.052   5.442
 1978SOL    HW2 5961   1.045   1.891   5.437
 1979SOL     OW 5962   0.504   1.912   5.464
 1979SOL    HW1 5963   0.462   1.855   5.394
 1979SOL    HW2 5964   0.438   1.981   5.496
 1980SOL     OW 5965   0.573   2.732   4.753
 1980SOL    HW1 5966   0.617   2.821   4.744
 1980SOL    HW2 5967   0.510   2.732   4.830
 1981SOL     OW 5968   1.360   2.724   4.769
 1981SOL    HW1 5969   1.285   2.724   4.703
 1981SOL    HW2 5970   1.397   2.632   4.778
 1982SOL     OW 5971   1.209   2.387   3.999
 1982SOL    HW1 5972   1.222   2.303   4.053
 1982SOL    HW2 5973   1.180   2.461   4.059
 1983SOL     OW 5974   0.307   2.075   4.955
 1983SOL    HW1 5975   0.284   2.112   5.045
 1983SOL    HW2 5976   0.277   1.980   4.949
 1984SOL     OW 5977   0.037   3.172   5.006
 1984SOL    HW1 5978   0.090   3.123   5.074
 1984SOL    HW2 5979   0.059   3.270   5.011
 1985SOL     OW 5980   0.732   2.496   4.788
 1985SOL    HW1 5981   0.791   2.470   4.712
 1985SOL    HW2 5982   0.704   2.592   4.777
 1986SOL     OW 5983   1.728   2.797   5.578
 1986SOL    HW1 5984   1.682   2.790   5.489
 1986SOL    HW2 5985   1.666   2.841   5.644
 1987SOL     OW 5986   0.307   1.925   4.342
 1987SOL    HW1 5987   0.296   2.019   4.375
 1987SOL    HW2 5988   0.302   1.862   4.419
 1988SOL     OW 5989   1.622   2.229   4.098
 1988SOL    HW1 5990   1.624   2.153   4.162
 1988SOL    HW2 5991   1.574   2.306   4.138
 1989SOL     OW 5992   1.023   2.628   4.690
 1989SOL    HW1 5993   1.038   2.649   4.786
 1989SOL    HW2 5994   0.993   2.533   4.681
 1990SOL     OW 5995   0.980   3.435   5.424
 1990SOL    HW1 5996   0.960   3.479   5.336
 1990SOL    HW2 5997   1.019   3.344   5.408
 1991SOL     OW 5998   1.859   3.380   5.329
 1991SOL    HW1 5999   1.873   3.407   5.234
 1991SOL    HW2 6000   1.942   3.402   5.382
 1992SOL     OW 6001   0.350   2.760   5.528
 1992SOL    HW1 6002   0.426   2.804   5.576
 1992SOL    HW2 6003   0.385   2.713   5.446
 1993SOL     OW 6004   1.540   2.136   3.849
 1993SOL    HW1 6005   1.479   2.061   3.872
 1993SOL    HW2 6006   1.562   2.188   3.932
 1994SOL     OW 6007   1.303   2.700   3.766
 1994SOL    HW1 6008   1.337   2.607   3.781
 1994SOL    HW2 6009   1.321   2.727   3.671
 1995SOL     OW 6010   1.068   3.195   4.573
 1995SOL    HW1 6011   1.075   3.111   4.518
 1995SOL    HW2 6012   1.130   3.264   4.537
 1996SOL     OW 6013   0.319   2.672   4.673
 1996SOL    HW1 6014   0.412   2.708   4.678
 1996SOL    HW2 6015   0.313   2.587   4.725
 1997SOL     OW 6016   0.339   2.371   4.730
 1997SOL    HW1 6017   0.287   2.288   4.713
 1997SOL    HW2 6018   0.416   2.376   4.666
 1998SOL     OW 6019   1.138   2.242   5.402
 1998SOL    HW1 6020   1.093   2.305   5.466
 1998SOL    HW2 6021   1.231   2.273   5.385
 1999SOL     OW 6022   1.160   2.069   5.201
 1999SOL    HW1 6023   1.160   2.133   5.278
 1999SOL    HW2 6024   1.188   2.117   5.118
 2000SOL     OW 6025   0.008   3.188   3.924
 2000SOL    HW1 6026  -0.085   3.209   3.893
 2000SOL    HW2 6027   0.018   3.089   3.937
 2001SOL     OW 6028   0.088   3.663   4.651
 2001SOL    HW1 6029   0.046   3.577   4.624
 2001SOL    HW2 6030   0.182   3.666   4.617
 2002SOL     OW 6031   0.504   3.430   4.634
 2002SOL    HW1 6032   0.570   3.504   4.643
 2002SOL    HW2 6033   0.548   3.351   4.592
 2003SOL     OW 6034   1.002   2.658   4.962
 2003SOL    HW1 6035   1.043   2.626   5.048
 2003SOL    HW2 6036   0.906   2.631   4.959
 2004SOL     OW 6037   0.040   2.406   4.838
 2004SOL    HW1 6038   0.125   2.373   4.797
 2004SOL    HW2 6039   0.053   2.421   4.936
 2005SOL     OW 6040   0.189   2.382   5.446
 2005SOL    HW1 6041   0.248   2.342   5.376
 2005SOL    HW2 6042   0.131   2.453   5.405
 2006SOL     OW 6043   1.369   2.812   5.384
 2006SOL    HW1 6044   1.408   2.901   5.404
 2006SOL    HW2 6045   1.379   2.792   5.287
 2007SOL     OW 6046   0.815   2.434   4.049
 2007SOL    HW1 6047   0.822   2.345   4.003
 2007SOL    HW2 6048   0.721   2.468   4.041
 2008SOL     OW 6049   1.657   2.466   4.930
 2008SOL    HW1 6050   1.619   2.397   4.992
 2008SOL    HW2 6051   1.739   2.430   4.886
 2009SOL     OW 6052   0.252   3.426   5.468
 2009SOL    HW1 6053   0.222   3.483   5.544
 2009SOL    HW2 6054   0.245   3.329   5.494
 2010SOL     OW 6055   0.671   2.326   4.993
 2010SOL    HW1 6056   0.637   2.237   4.963
 2010SOL    HW2 6057   0.697   2.380   4.913
 2011SOL     OW 6058   0.930   3.540   5.189
 2011SOL    HW1 6059   0.906   3.522   5.094
 2011SOL    HW2 6060   0.960   3.634   5.199
 2012SOL     OW 6061   0.473   2.362   3.915
 2012SOL    HW1 6062   0.534   2.442   3.919
 2012SOL    HW2 6063   0.378   2.393   3.922
 2013SOL     OW 6064   0.159   2.999   5.190
 2013SOL    HW1 6065   0.181   2.938   5.266
 2013SOL    HW2 6066   0.169   2.950   5.104
 2014SOL     OW 6067   1.347   2.921   4.958
 2014SOL    HW1 6068   1.371   2.858   4.884
 2014SOL    HW2 6069   1.257   2.961   4.940
 2015SOL     OW 6070   1.302   2.717   4.033
 2015SOL    HW1 6071   1.216   2.686   4.075
 2015SOL    HW2 6072   1.298   2.703   3.934
 2016SOL     OW 6073   1.759   3.609   4.878
 2016SOL    HW1 6074   1.820   3.639   4.805
 2016SOL    HW2 6075   1.721   3.520   4.856
 2017SOL     OW 6076   1.252   3.593   4.852
 2017SOL    HW1 6077   1.336   3.598   4.798
 2017SOL    HW2 6078   1.229   3.497   4.870
 2018SOL     OW 6079   0.083   3.120   4.746
 2018SOL    HW1 6080   0.078   3.119   4.846
 2018SOL    HW2 6081   0.000   3.079   4.708
 2019SOL     OW 6082   0.688   3.524   5.440
 2019SOL    HW1 6083   0.632   3.605   5.449
 2019SOL    HW2 6084   0.740   3.528   5.354
 2020SOL     OW 6085   1.726   1.997   4.247
 2020SOL    HW1 6086   1.799   1.980   4.180
 2020SOL    HW2 6087   1.695   1.910   4.285
 2021SOL     OW 6088   1.388   3.435   4.201
 2021SOL    HW1 6089   1.455   3.447   4.127
 2021SOL    HW2 6090   1.348   3.524   4.224
 2022SOL     OW 6091   0.130   3.656   5.575
 2022SOL    HW1 6092   0.089   3.582   5.628
 2022SOL    HW2 6093   0.194   3.707   5.633
 2023SOL     OW 6094   1.280   2.789   4.396
 2023SOL    HW1 6095   1.340   2.708   4.398
 2023SOL    HW2 6096   1.320   2.858   4.336
 2024SOL     OW 6097   0.830   3.135   5.146
 2024SOL    HW1 6098   0.825   3.168   5.241
 2024SOL    HW2 6099   0.744   3.154   5.100
 2025SOL     OW 6100   0.672   3.478   3.878
 2025SOL    HW1 6101   0.681   3.488   3.779
 2025SOL    HW2 6102   0.632   3.389   3.899
 2026SOL     OW 6103   1.650   3.582   5.118
 2026SOL    HW1 6104   1.703   3.592   5.034
 2026SOL    HW2 6105   1.623   3.672   5.152
 2027SOL     OW 6106   1.841   2.037   4.687
 2027SOL    HW1 6107   1.880   1.952   4.651
 2027SOL    HW2 6108   1.743   2.039   4.668
 2028SOL     OW 6109   0.263   2.188   4.444
 2028SOL    HW1 6110   0.184   2.239   4.410
 2028SOL    HW2 6111   0.254   2.173   4.542
 2029SOL     OW 6112   1.194   3.474   3.755
 2029SOL    HW1 6113   1.200   3.381   3.792
 2029SOL    HW2 6114   1.135   3.474   3.675
 2030SOL     OW 6115   0.822   2.864   5.096
 2030SOL    HW1 6116   0.862   2.863   5.004
 2030SOL    HW2 6117   0.832   2.956   5.136
 2031SOL     OW 6118   0.916   2.772   4.015
 2031SOL    HW1 6119   0.979   2.810   3.947
 2031SOL    HW2 6120   0.956   2.689   4.054
 2032SOL     OW 6121   1.504   3.469   3.768
 2032SOL    HW1 6122   1.412   3.506   3.775
 2032SOL    HW2 6123   1.542   3.489   3.678
 2033SOL     OW 6124   0.372   3.150   5.214
 2033SOL    HW1 6125   0.359   3.243   5.180
 2033SOL    HW2 6126   0.288   3.098   5.201
 2034SOL     OW 6127   1.614   3.154   5.013
 2034SOL    HW1 6128   1.674   3.157   5.093
 2034SOL    HW2 6129   1.539   3.218   5.026
 2035SOL     OW 6130   1.039   2.960   4.420
 2035SOL    HW1 6131   0.969   2.913   4.474
 2035SOL    HW2 6132   1.098   2.892   4.377
 2036SOL     OW 6133   1.014   2.098   4.695
 2036SOL    HW1 6134   1.006   2.062   4.602
 2036SOL    HW2 6135   1.012   2.022   4.760
 2037SOL     OW 6136   0.590   3.349   4.215
 2037SOL    HW1 6137   0.632   3.291   4.145
 2037SOL    HW2 6138   0.546   3.428   4.171
 2038SOL     OW 6139   1.709   2.247   5.105
 2038SOL    HW1 6140   1.782   2.316   5.109
 2038SOL    HW2 6141   1.737   2.172   5.046
 2039SOL     OW 6142   0.255   3.210   4.014
 2039SOL    HW1 6143   0.159   3.211   3.987
 2039SOL    HW2 6144   0.267   3.263   4.098
 2040SOL     OW 6145   0.105   2.875   5.450
 2040SOL    HW1 6146   0.028   2.842   5.504
 2040SOL    HW2 6147   0.190   2.845   5.492
 2041SOL     OW 6148   0.672   2.065   5.213
 2041SOL    HW1 6149   0.762   2.049   5.173
 2041SOL    HW2 6150   0.680   2.070   5.312
 2042SOL     OW 6151   0.075   2.207   3.757
 2042SOL    HW1 6152  -0.017   2.179   3.728
 2042SOL    HW2 6153   0.106   2.284   3.701
 2043SOL     OW 6154   1.440   2.718   5.122
 2043SOL    HW1 6155   1.383   2.770   5.059
 2043SOL    HW2 6156   1.536   2.730   5.098
 2044SOL     OW 6157   0.072   2.028   4.042
 2044SOL    HW1 6158   0.055   2.111   3.988
 2044SOL    HW2 6159   0.162   1.991   4.020
 2045SOL     OW 6160   1.183   3.197   3.843
 2045SOL    HW1 6161   1.084   3.186   3.845
 2045SOL    HW2 6162   1.217   3.212   3.936
 2046SOL     OW 6163   0.613   2.704   5.155
 2046SOL    HW1 6164   0.669   2.785   5.138
 2046SOL    HW2 6165   0.672   2.624   5.158
 2047SOL     OW 6166   1.493   3.629   4.683
 2047SOL    HW1 6167   1.526   3.693   4.614
 2047SOL    HW2 6168   1.559   3.623   4.758
 2048SOL     OW 6169   0.716   2.427   5.432
 2048SOL    HW1 6170   0.735   2.492   5.506
 2048SOL    HW2 6171   0.776   2.347   5.441
 2049SOL     OW 6172   1.450   3.082   5.357
 2049SOL    HW1 6173   1.441   3.072   5.456
 2049SOL    HW2 6174   1.546   3.075   5.331
 2050SOL     OW 6175   0.390   3.603   5.284
 2050SOL    HW1 6176   0.299   3.644   5.282
 2050SOL    HW2 6177   0.383   3.509   5.316
 2051SOL     OW 6178   1.674   2.745   4.978
 2051SOL    HW1 6179   1.647   2.656   4.941
 2051SOL    HW2 6180   1.675   2.813   4.905
 2052SOL     OW 6181   1.225   2.187   4.173
 2052SOL    HW1 6182   1.290   2.113   4.162
 2052SOL    HW2 6183   1.245   2.237   4.257
 2053SOL     OW 6184   0.594   2.607   4.376
 2053SOL    HW1 6185   0.644   2.692   4.357
 2053SOL    HW2 6186   0.506   2.609   4.328
 2054SOL     OW 6187   1.777   2.204   5.366
 2054SOL    HW1 6188   1.760   2.235   5.272
 2054SOL    HW2 6189   1.693   2.167   5.404
 2055SOL     OW 6190   1.730   2.796   5.241
 2055SOL    HW1 6191   1.768   2.887   5.256
 2055SOL    HW2 6192   1.722   2.779   5.142
 2056SOL     OW 6193   0.859   3.236   3.740
 2056SOL    HW1 6194   0.813   3.251   3.828
 2056SOL    HW2 6195   0.903   3.321   3.710
 2057SOL     OW 6196   0.661   3.652   4.677
 2057SOL    HW1 6197   0.615   3.740   4.664
 2057SOL    HW2 6198   0.760   3.664   4.670
 2058SOL     OW 6199   0.859   2.818   4.585
 2058SOL    HW1 6200   0.913   2.749   4.633
 2058SOL    HW2 6201   0.827   2.887   4.651
 2059SOL     OW 6202   1.083   2.846   3.811
 2059SOL    HW1 6203   1.060   2.899   3.729
 2059SOL    HW2 6204   1.164   2.790   3.792
 2060SOL     OW 6205   1.861   3.431   4.575
 2060SOL    HW1 6206   1.790   3.419   4.505
 2060SOL    HW2 6207   1.862   3.352   4.635
 2061SOL     OW 6208   0.221   3.176   5.568
 2061SOL    HW1 6209   0.156   3.103   5.547
 2061SOL    HW2 6210   0.225   3.190   5.666
 2062SOL     OW 6211   0.079   3.102   4.377
 2062SOL    HW1 6212   0.078   3.055   4.465
 2062SOL    HW2 6213   0.161   3.074   4.326
 2063SOL     OW 6214   0.672   3.253   5.348
 2063SOL    HW1 6215   0.594   3.203   5.386
 2063SOL    HW2 6216   0.669   3.348   5.379
 2064SOL     OW 6217   1.824   2.054   4.951
 2064SOL    HW1 6218   1.820   1.964   4.995
 2064SOL    HW2 6219   1.827   2.043   4.852
 2065SOL     OW 6220   0.428   2.286   4.244
 2065SOL    HW1 6221   0.458   2.214   4.182
 2065SOL    HW2 6222   0.389   2.246   4.327
 2066SOL     OW 6223   1.705   3.349   4.828
 2066SOL    HW1 6224   1.612   3.324   4.801
 2066SOL    HW2 6225   1.731   3.299   4.910
 2067SOL     OW 6226   0.317   2.409   5.004
 2067SOL    HW1 6227   0.355   2.350   5.076
 2067SOL    HW2 6228   0.357   2.383   4.916
 2068SOL     OW 6229   0.812   3.448   4.411
 2068SOL    HW1 6230   0.844   3.458   4.317
 2068SOL    HW2 6231   0.733   3.386   4.413
 2069SOL     OW 6232   1.424   2.076   4.836
 2069SOL    HW1 6233   1.476   2.011   4.891
 2069SOL    HW2 6234   1.375   2.139   4.897
 2070SOL     OW 6235   1.001   1.896   4.878
 2070SOL    HW1 6236   0.938   1.824   4.847
 2070SOL    HW2 6237   1.094   1.860   4.878
 2071SOL     OW 6238   0.770   3.192   4.025
 2071SOL    HW1 6239   0.724   3.105   4.042
 2071SOL    HW2 6240   0.861   3.189   4.066
 2072SOL     OW 6241   0.618   3.429   5.008
 2072SOL    HW1 6242   0.613   3.511   5.065
 2072SOL    HW2 6243   0.707   3.426   4.963
 2073SOL     OW 6244   1.352   1.914   3.892
 2073SOL    HW1 6245   1.387   1.873   3.808
 2073SOL    HW2 6246   1.262   1.876   3.912
 2074SOL     OW 6247   1.300   2.315   4.415
 2074SOL    HW1 6248   1.241   2.395   4.419
 2074SOL    HW2 6249   1.315   2.280   4.508
 2075SOL     OW 6250   1.593   2.083   4.606
 2075SOL    HW1 6251   1.509   2.082   4.660
 2075SOL    HW2 6252   1.595   2.166   4.550
 2076SOL     OW 6253   0.039   2.939   4.024
 2076SOL    HW1 6254   0.138   2.928   4.015
 2076SOL    HW2 6255  -0.001   2.853   4.056
 2077SOL     OW 6256   0.875   3.508   4.061
 2077SOL    HW1 6257   0.798   3.473   4.007
 2077SOL    HW2 6258   0.843   3.579   4.123
 2078SOL     OW 6259   0.230   2.490   5.699
 2078SOL    HW1 6260   0.137   2.488   5.736
 2078SOL    HW2 6261   0.231   2.451   5.607
 2079SOL     OW 6262   0.225   2.137   6.582
 2079SOL    HW1 6263   0.260   2.120   6.674
 2079SOL    HW2 6264   0.137   2.092   6.570
 2080SOL     OW 6265   0.019   2.230   6.233
 2080SOL    HW1 6266  -0.063   2.273   6.272
 2080SOL    HW2 6267  -0.009   2.157   6.170
 2081SOL     OW 6268   0.569   3.137   6.751
 2081SOL    HW1 6269   0.476   3.130   6.714
 2081SOL    HW2 6270   0.580   3.226   6.795
 2082SOL     OW 6271   1.555   3.373   6.289
 2082SOL    HW1 6272   1.498   3.357   6.370
 2082SOL    HW2 6273   1.496   3.383   6.209
 2083SOL     OW 6274   1.135   2.565   6.303
 2083SOL    HW1 6275   1.192   2.643   6.278
 2083SOL    HW2 6276   1.075   2.591   6.379
 2084SOL     OW 6277   1.755   2.469   5.817
 2084SOL    HW1 6278   1.743   2.456   5.718
 2084SOL    HW2 6279   1.725   2.388   5.866
 2085SOL     OW 6280   0.768   3.006   6.609
 2085SOL    HW1 6281   0.690   3.023   6.669
 2085SOL    HW2 6282   0.802   3.093   6.573
 2086SOL     OW 6283   0.850   2.660   7.409
 2086SOL    HW1 6284   0.846   2.736   7.474
 2086SOL    HW2 6285   0.872   2.696   7.318
 2087SOL     OW 6286   0.685   2.874   6.251
 2087SOL    HW1 6287   0.754   2.858   6.321
 2087SOL    HW2 6288   0.612   2.931   6.289
 2088SOL     OW 6289   0.686   3.023   7.389
 2088SOL    HW1 6290   0.746   3.102   7.403
 2088SOL    HW2 6291   0.600   3.054   7.348
 2089SOL     OW 6292   0.335   3.297   6.647
 2089SOL    HW1 6293   0.257   3.266   6.594
 2089SOL    HW2 6294   0.393   3.355   6.590
 2090SOL     OW 6295   1.460   3.367   6.925
 2090SOL    HW1 6296   1.484   3.461   6.951
 2090SOL    HW2 6297   1.444   3.313   7.007
 2091SOL     OW 6298   0.438   2.254   7.085
 2091SOL    HW1 6299   0.520   2.198   7.094
 2091SOL    HW2 6300   0.357   2.196   7.089
 2092SOL     OW 6301   1.603   2.309   6.323
 2092SOL    HW1 6302   1.529   2.355   6.273
 2092SOL    HW2 6303   1.654   2.377   6.376
 2093SOL     OW 6304   0.231   3.575   6.069
 2093SOL    HW1 6305   0.265   3.652   6.123
 2093SOL    HW2 6306   0.275   3.575   5.979
 2094SOL     OW 6307   1.127   3.203   7.276
 2094SOL    HW1 6308   1.174   3.203   7.364
 2094SOL    HW2 6309   1.079   3.116   7.265
 2095SOL     OW 6310   0.230   3.296   6.124
 2095SOL    HW1 6311   0.204   3.392   6.124
 2095SOL    HW2 6312   0.159   3.242   6.169
 2096SOL     OW 6313   0.240   2.953   6.472
 2096SOL    HW1 6314   0.254   2.869   6.524
 2096SOL    HW2 6315   0.185   3.017   6.527
 2097SOL     OW 6316   0.620   3.648   7.025
 2097SOL    HW1 6317   0.528   3.631   7.060
 2097SOL    HW2 6318   0.648   3.740   7.051
 2098SOL     OW 6319   0.606   2.826   5.709
 2098SOL    HW1 6320   0.613   2.910   5.655
 2098SOL    HW2 6321   0.652   2.839   5.797
 2099SOL     OW 6322   1.594   1.976   7.066
 2099SOL    HW1 6323   1.576   2.043   6.994
 2099SOL    HW2 6324   1.591   2.022   7.155
 2100SOL     OW 6325   0.122   2.505   6.149
 2100SOL    HW1 6326   0.077   2.417   6.166
 2100SOL    HW2 6327   0.121   2.559   6.233
 2101SOL     OW 6328   1.842   3.629   5.945
 2101SOL    HW1 6329   1.896   3.600   6.025
 2101SOL    HW2 6330   1.872   3.719   5.916
 2102SOL     OW 6331   0.027   3.458   5.703
 2102SOL    HW1 6332   0.008   3.362   5.724
 2102SOL    HW2 6333  -0.006   3.516   5.778
 2103SOL     OW 6334   1.689   2.784   6.198
 2103SOL    HW1 6335   1.784   2.755   6.206
 2103SOL    HW2 6336   1.681   2.849   6.123
 2104SOL     OW 6337   1.641   2.970   6.018
 2104SOL    HW1 6338   1.727   2.972   5.966
 2104SOL    HW2 6339   1.655   3.017   6.106
 2105SOL     OW 6340   0.113   2.599   7.183
 2105SOL    HW1 6341   0.201   2.586   7.228
 2105SOL    HW2 6342   0.100   2.696   7.161
 2106SOL     OW 6343   0.613   3.227   6.312
 2106SOL    HW1 6344   0.564   3.140   6.321
 2106SOL    HW2 6345   0.590   3.270   6.225
 2107SOL     OW 6346   1.293   3.090   7.009
 2107SOL    HW1 6347   1.330   3.017   6.951
 2107SOL    HW2 6348   1.345   3.095   7.094
 2108SOL     OW 6349   0.809   1.866   6.088
 2108SOL    HW1 6350   0.849   1.957   6.079
 2108SOL    HW2 6351   0.709   1.874   6.094
 2109SOL     OW 6352   0.197   2.838   6.850
 2109SOL    HW1 6353   0.286   2.793   6.836
 2109SOL    HW2 6354   0.124   2.773   6.831
 2110SOL     OW 6355   1.525   2.861   5.776
 2110SOL    HW1 6356   1.462   2.785   5.789
 2110SOL    HW2 6357   1.573   2.879   5.862
 2111SOL     OW 6358   1.187   3.654   7.202
 2111SOL    HW1 6359   1.211   3.714   7.126
 2111SOL    HW2 6360   1.194   3.559   7.172
 2112SOL     OW 6361   0.317   2.113   7.387
 2112SOL    HW1 6362   0.388   2.184   7.393
 2112SOL    HW2 6363   0.229   2.152   7.415
 2113SOL     OW 6364   1.466   3.279   6.539
 2113SOL    HW1 6365   1.407   3.285   6.619
 2113SOL    HW2 6366   1.451   3.191   6.493
 2114SOL     OW 6367   1.667   3.576   6.158
 2114SOL    HW1 6368   1.626   3.553   6.070
 2114SOL    HW2 6369   1.649   3.502   6.223
 2115SOL     OW 6370   0.598   2.591   5.856
 2115SOL    HW1 6371   0.622   2.660   5.788
 2115SOL    HW2 6372   0.520   2.624   5.910
 2116SOL     OW 6373   1.281   2.207   6.530
 2116SOL    HW1 6374   1.195   2.157   6.517
 2116SOL    HW2 6375   1.343   2.153   6.586
 2117SOL     OW 6376   1.576   3.524   5.893
 2117SOL    HW1 6377   1.665   3.570   5.896
 2117SOL    HW2 6378   1.555   3.500   5.798
 2118SOL     OW 6379   0.807   2.467   7.051
 2118SOL    HW1 6380   0.760   2.464   7.140
 2118SOL    HW2 6381   0.756   2.412   6.985
 2119SOL     OW 6382   1.394   2.331   7.260
 2119SOL    HW1 6383   1.374   2.374   7.348
 2119SOL    HW2 6384   1.472   2.269   7.269
 2120SOL     OW 6385   0.973   2.752   7.158
 2120SOL    HW1 6386   1.019   2.668   7.129
 2120SOL    HW2 6387   0.917   2.786   7.083
 2121SOL     OW 6388   0.991   2.272   6.828
 2121SOL    HW1 6389   0.914   2.306   6.882
 2121SOL    HW2 6390   0.957   2.221   6.749
 2122SOL     OW 6391   1.041   2.563   6.015
 2122SOL    HW1 6392   1.067   2.559   6.111
 2122SOL    HW2 6393   0.956   2.512   6.001
 2123SOL     OW 6394   0.076   2.673   6.375
 2123SOL    HW1 6395   0.175   2.661   6.384
 2123SOL    HW2 6396   0.052   2.768   6.396
 2124SOL     OW 6397   0.130   3.683   7.157
 2124SOL    HW1 6398   0.120   3.668   7.256
 2124SOL    HW2 6399   0.044   3.719   7.121
 2125SOL     OW 6400   0.865   2.210   5.781
 2125SOL    HW1 6401   0.924   2.273   5.732
 2125SOL    HW2 6402   0.884   2.116   5.752
 2126SOL     OW 6403   1.719   2.447   7.417
 2126SOL    HW1 6404   1.693   2.536   7.381
 2126SOL    HW2 6405   1.717   2.379   7.344
 2127SOL     OW 6406   1.362   3.006   6.131
 2127SOL    HW1 6407   1.445   2.977   6.083
 2127SOL    HW2 6408   1.313   3.073   6.075
 2128SOL     OW 6409   0.550   2.058   6.471
 2128SOL    HW1 6410   0.545   2.053   6.571
 2128SOL    HW2 6411   0.552   2.154   6.442
 2129SOL     OW 6412   1.008   3.318   6.063
 2129SOL    HW1 6413   0.962   3.390   6.011
 2129SOL    HW2 6414   1.004   3.338   6.161
 2130SOL     OW 6415   0.351   3.663   6.439
 2130SOL    HW1 6416   0.401   3.577   6.445
 2130SOL    HW2 6417   0.416   3.740   6.436
 2131SOL     OW 6418   1.795   2.928   6.459
 2131SOL    HW1 6419   1.733   2.913   6.383
 2131SOL    HW2 6420   1.743   2.939   6.544
 2132SOL     OW 6421   1.227   3.412   7.092
 2132SOL    HW1 6422   1.233   3.335   7.156
 2132SOL    HW2 6423   1.175   3.386   7.012
 2133SOL     OW 6424   0.321   2.805   5.828
 2133SOL    HW1 6425   0.403   2.844   5.786
 2133SOL    HW2 6426   0.294   2.723   5.779
 2134SOL     OW 6427   1.458   2.597   6.314
 2134SOL    HW1 6428   1.453   2.532   6.389
 2134SOL    HW2 6429   1.538   2.656   6.327
 2135SOL     OW 6430   0.461   3.128   7.313
 2135SOL    HW1 6431   0.411   3.129   7.227
 2135SOL    HW2 6432   0.398   3.110   7.389
 2136SOL     OW 6433   1.111   3.638   5.823
 2136SOL    HW1 6434   1.051   3.576   5.873
 2136SOL    HW2 6435   1.142   3.594   5.738
 2137SOL     OW 6436   0.202   2.147   7.084
 2137SOL    HW1 6437   0.122   2.207   7.071
 2137SOL    HW2 6438   0.192   2.098   7.170
 2138SOL     OW 6439   1.632   3.239   5.667
 2138SOL    HW1 6440   1.600   3.333   5.657
 2138SOL    HW2 6441   1.556   3.176   5.655
 2139SOL     OW 6442   0.464   3.605   5.909
 2139SOL    HW1 6443   0.497   3.644   5.995
 2139SOL    HW2 6444   0.540   3.598   5.844
 2140SOL     OW 6445   1.400   1.969   6.012
 2140SOL    HW1 6446   1.376   1.932   5.922
 2140SOL    HW2 6447   1.499   1.985   6.016
 2141SOL     OW 6448   0.249   3.647   6.827
 2141SOL    HW1 6449   0.306   3.582   6.877
 2141SOL    HW2 6450   0.233   3.614   6.734
 2142SOL     OW 6451   0.940   3.560   6.490
 2142SOL    HW1 6452   1.020   3.503   6.511
 2142SOL    HW2 6453   0.891   3.520   6.413
 2143SOL     OW 6454   0.382   2.562   6.066
 2143SOL    HW1 6455   0.427   2.472   6.063
 2143SOL    HW2 6456   0.288   2.551   6.099
 2144SOL     OW 6457   1.547   2.084   7.315
 2144SOL    HW1 6458   1.542   2.121   7.407
 2144SOL    HW2 6459   1.475   2.015   7.303
 2145SOL     OW 6460   0.614   1.984   5.703
 2145SOL    HW1 6461   0.712   1.962   5.710
 2145SOL    HW2 6462   0.583   1.967   5.610
 2146SOL     OW 6463   0.781   2.126   7.335
 2146SOL    HW1 6464   0.848   2.065   7.378
 2146SOL    HW2 6465   0.708   2.145   7.400
 2147SOL     OW 6466   0.888   3.376   6.781
 2147SOL    HW1 6467   0.865   3.351   6.687
 2147SOL    HW2 6468   0.949   3.307   6.820
 2148SOL     OW 6469   1.351   2.452   7.019
 2148SOL    HW1 6470   1.379   2.409   7.104
 2148SOL    HW2 6471   1.376   2.548   7.020
 2149SOL     OW 6472   0.803   3.264   6.510
 2149SOL    HW1 6473   0.893   3.278   6.468
 2149SOL    HW2 6474   0.732   3.266   6.439
 2150SOL     OW 6475   0.922   2.365   6.485
 2150SOL    HW1 6476   0.897   2.356   6.389
 2150SOL    HW2 6477   0.970   2.283   6.516
 2151SOL     OW 6478   0.539   1.926   6.098
 2151SOL    HW1 6479   0.458   1.927   6.156
 2151SOL    HW2 6480   0.542   2.009   6.043
 2152SOL     OW 6481   1.434   3.050   5.627
 2152SOL    HW1 6482   1.466   2.974   5.684
 2152SOL    HW2 6483   1.342   3.077   5.657
 2153SOL     OW 6484   0.297   1.897   5.757
 2153SOL    HW1 6485   0.346   1.981   5.736
 2153SOL    HW2 6486   0.359   1.832   5.802
 2154SOL     OW 6487   0.935   2.098   6.066
 2154SOL    HW1 6488   0.887   2.139   5.988
 2154SOL    HW2 6489   1.034   2.096   6.047
 2155SOL     OW 6490   1.076   2.545   7.050
 2155SOL    HW1 6491   0.996   2.484   7.053
 2155SOL    HW2 6492   1.157   2.492   7.026
 2156SOL     OW 6493   1.227   3.432   6.379
 2156SOL    HW1 6494   1.248   3.506   6.314
 2156SOL    HW2 6495   1.295   3.432   6.452
 2157SOL     OW 6496   0.459   3.014   6.327
 2157SOL    HW1 6497   0.388   2.987   6.392
 2157SOL    HW2 6498   0.433   2.986   6.234
 2158SOL     OW 6499   1.271   3.659   6.177
 2158SOL    HW1 6500   1.315   3.723   6.113
 2158SOL    HW2 6501   1.221   3.711   6.247
 2159SOL     OW 6502   1.032   2.411   5.602
 2159SOL    HW1 6503   0.991   2.493   5.563
 2159SOL    HW2 6504   1.096   2.437   5.675
 2160SOL     OW 6505   0.078   2.418   6.972
 2160SOL    HW1 6506   0.170   2.417   6.931
 2160SOL    HW2 6507   0.072   2.492   7.039
 2161SOL     OW 6508   0.561   2.084   6.733
 2161SOL    HW1 6509   0.599   2.000   6.770
 2161SOL    HW2 6510   0.473   2.103   6.777
 2162SOL     OW 6511   0.866   2.316   6.228
 2162SOL    HW1 6512   0.834   2.388   6.166
 2162SOL    HW2 6513   0.890   2.235   6.175
 2163SOL     OW 6514   1.017   1.901   6.339
 2163SOL    HW1 6515   0.945   1.906   6.270
 2163SOL    HW2 6516   0.993   1.832   6.408
 2164SOL     OW 6517   1.429   3.035   6.453
 2164SOL    HW1 6518   1.374   2.951   6.446
 2164SOL    HW2 6519   1.455   3.064   6.361
 2165SOL     OW 6520   1.466   2.452   6.578
 2165SOL    HW1 6521   1.436   2.357   6.585
 2165SOL    HW2 6522   1.539   2.468   6.644
 2166SOL     OW 6523   1.857   2.695   5.963
 2166SOL    HW1 6524   1.899   2.631   6.027
 2166SOL    HW2 6525   1.819   2.644   5.885
 2167SOL     OW 6526   0.488   3.247   5.760
 2167SOL    HW1 6527   0.401   3.232   5.807
 2167SOL    HW2 6528   0.471   3.273   5.665
 2168SOL     OW 6529   1.664   3.142   6.243
 2168SOL    HW1 6530   1.763   3.150   6.257
 2168SOL    HW2 6531   1.619   3.226   6.274
 2169SOL     OW 6532   1.390   2.437   5.664
 2169SOL    HW1 6533   1.336   2.416   5.745
 2169SOL    HW2 6534   1.481   2.396   5.673
 2170SOL     OW 6535   0.527   2.118   5.914
 2170SOL    HW1 6536   0.554   2.059   5.839
 2170SOL    HW2 6537   0.527   2.213   5.883
 2171SOL     OW 6538   1.754   3.085   7.174
 2171SOL    HW1 6539   1.845   3.046   7.161
 2171SOL    HW2 6540   1.762   3.181   7.198
 2172SOL     OW 6541   1.064   3.209   6.926
 2172SOL    HW1 6542   0.984   3.186   6.981
 2172SOL    HW2 6543   1.147   3.183   6.975
 2173SOL     OW 6544   1.592   3.491   7.211
 2173SOL    HW1 6545   1.619   3.525   7.121
 2173SOL    HW2 6546   1.671   3.453   7.257
 2174SOL     OW 6547   1.111   3.057   6.686
 2174SOL    HW1 6548   1.071   3.101   6.767
 2174SOL    HW2 6549   1.070   3.094   6.603
 2175SOL     OW 6550   1.638   2.961   6.665
 2175SOL    HW1 6551   1.643   3.042   6.724
 2175SOL    HW2 6552   1.552   2.963   6.614
 2176SOL     OW 6553   0.915   1.951   6.988
 2176SOL    HW1 6554   0.940   1.931   6.893
 2176SOL    HW2 6555   0.987   2.007   7.030
 2177SOL     OW 6556   0.980   2.978   7.305
 2177SOL    HW1 6557   0.881   2.984   7.315
 2177SOL    HW2 6558   1.003   2.898   7.249
 2178SOL     OW 6559   0.705   2.912   5.954
 2178SOL    HW1 6560   0.691   2.919   6.053
 2178SOL    HW2 6561   0.789   2.861   5.936
 2179SOL     OW 6562   0.410   2.675   6.837
 2179SOL    HW1 6563   0.496   2.687   6.887
 2179SOL    HW2 6564   0.368   2.588   6.864
 2180SOL     OW 6565   1.274   2.248   6.848
 2180SOL    HW1 6566   1.295   2.322   6.912
 2180SOL    HW2 6567   1.185   2.265   6.805
 2181SOL     OW 6568   0.064   3.426   6.917
 2181SOL    HW1 6569   0.018   3.508   6.883
 2181SOL    HW2 6570   0.162   3.445   6.926
 2182SOL     OW 6571   0.367   2.962   6.087
 2182SOL    HW1 6572   0.360   3.045   6.031
 2182SOL    HW2 6573   0.371   2.882   6.027
 2183SOL     OW 6574   0.566   2.399   6.451
 2183SOL    HW1 6575   0.578   2.465   6.377
 2183SOL    HW2 6576   0.612   2.433   6.534
 2184SOL     OW 6577   1.252   3.210   5.974
 2184SOL    HW1 6578   1.302   3.287   6.014
 2184SOL    HW2 6579   1.157   3.212   6.006
 2185SOL     OW 6580   1.272   3.307   6.728
 2185SOL    HW1 6581   1.319   3.320   6.815
 2185SOL    HW2 6582   1.206   3.233   6.737
 2186SOL     OW 6583   1.582   2.501   6.058
 2186SOL    HW1 6584   1.551   2.562   6.131
 2186SOL    HW2 6585   1.632   2.553   5.989
 2187SOL     OW 6586   0.354   3.372   6.915
 2187SOL    HW1 6587   0.333   3.328   6.828
 2187SOL    HW2 6588   0.451   3.398   6.918
 2188SOL     OW 6589   0.402   2.613   7.184
 2188SOL    HW1 6590   0.470   2.668   7.137
 2188SOL    HW2 6591   0.442   2.525   7.211
 2189SOL     OW 6592   1.587   2.641   7.256
 2189SOL    HW1 6593   1.495   2.679   7.251
 2189SOL    HW2 6594   1.647   2.688   7.191
 2190SOL     OW 6595   1.013   1.967   7.356
 2190SOL    HW1 6596   1.019   2.052   7.304
 2190SOL    HW2 6597   1.045   1.891   7.299
 2191SOL     OW 6598   0.504   1.912   7.326
 2191SOL    HW1 6599   0.462   1.855   7.256
 2191SOL    HW2 6600   0.438   1.981   7.358
 2192SOL     OW 6601   0.573   2.732   6.615
 2192SOL    HW1 6602   0.617   2.821   6.606
 2192SOL    HW2 6603   0.510   2.732   6.692
 2193SOL     OW 6604   1.360   2.724   6.631
 2193SOL    HW1 6605   1.285   2.724   6.565
 2193SOL    HW2 6606   1.397   2.632   6.640
 2194SOL     OW 6607   1.209   2.387   5.861
 2194SOL    HW1 6608   1.222   2.303   5.915
 2194SOL    HW2 6609   1.180   2.461   5.921
 2195SOL     OW 6610   0.307   2.075   6.817
 2195SOL    HW1 6611   0.284   2.112   6.907
 2195SOL    HW2 6612   0.277   1.980   6.811
 2196SOL     OW 6613   0.037   3.172   6.868
 2196SOL    HW1 6614   0.090   3.123   6.936
 2196SOL    HW2 6615   0.059   3.270   6.873
 2197SOL     OW 6616   0.732   2.496   6.650
 2197SOL    HW1 6617   0.791   2.470   6.574
 2197SOL    HW2 6618   0.704   2.592   6.639
 2198SOL     OW 6619   1.728   2.797   7.440
 2198SOL    HW1 6620   1.682   2.790   7.351
 2198SOL    HW2 6621   1.666   2.841   7.506
 2199SOL     OW 6622   0.307   1.925   6.204
 2199SOL    HW1 6623   0.296   2.019   6.237
 2199SOL    HW2 6624   0.302   1.862   6.281
 2200SOL     OW 6625   1.622   2.229   5.960
 2200SOL    HW1 6626   1.624   2.153   6.024
 2200SOL    HW2 6627   1.574   2.306   6.000
 2201SOL     OW 6628   1.023   2.628   6.552
 2201SOL    HW1 6629   1.038   2.649   6.648
 2201SOL    HW2 6630   0.993   2.533   6.543
 2202SOL     OW 6631   0.980   3.435   7.286
 2202SOL    HW1 6632   0.960   3.479   7.198
 2202SOL    HW2 6633   1.019   3.344   7.270
 2203SOL     OW 6634   1.859   3.380   7.191
 2203SOL    HW1 6635   1.873   3.407   7.096
 2203SOL    HW2 6636   1.942   3.402   7.244
 2204SOL     OW 6637   0.350   2.760   7.390
 2204SOL    HW1 6638   0.426   2.804   7.438
 2204SOL    HW2 6639   0.385   2.713   7.308
 2205SOL     OW 6640   1.540   2.136   5.711
 2205SOL    HW1 6641   1.479   2.061   5.734
 2205SOL    HW2 6642   1.562   2.188   5.794
 2206SOL     OW 6643   1.303   2.700   5.628
 2206SOL    HW1 6644   1.337   2.607   5.643
 2206SOL    HW2 6645   1.321   2.727   5.533
 2207SOL     OW 6646   1.068   3.195   6.435
 2207SOL    HW1 6647   1.075   3.111   6.380
 2207SOL    HW2 6648   1.130   3.264   6.399
 2208SOL     OW 6649   0.319   2.672   6.535
 2208SOL    HW1 6650   0.412   2.708   6.540
 2208SOL    HW2 6651   0.313   2.587   6.587
 2209SOL     OW 6652   0.339   2.371   6.592
 2209SOL    HW1 6653   0.287   2.288   6.575
 2209SOL    HW2 6654   0.416   2.376   6.528
 2210SOL     OW 6655   1.138   2.242   7.264
 2210SOL    HW1 6656   1.093   2.305   7.328
 2210SOL    HW2 6657   1.231   2.273   7.247
 2211SOL     OW 6658   1.160   2.069   7.063
 2211SOL    HW1 6659   1.160   2.133   7.140
 2211SOL    HW2 6660   1.188   2.117   6.980
 2212SOL     OW 6661   0.008   3.188   5.786
 2212SOL    HW1 6662  -0.085   3.209   5.755
 2212SOL    HW2 6663   0.018   3.089   5.799
 2213SOL     OW 6664   0.088   3.663   6.513
 2213SOL    HW1 6665   0.046   3.577   6.486
 2213SOL    HW2 6666   0.182   3.666   6.479
 2214SOL     OW 6667   0.504   3.430   6.496
 2214SOL    HW1 6668   0.570   3.504   6.505
 2214SOL    HW2 6669   0.548   3.351   6.454
 2215SOL     OW 6670   1.002   2.658   6.824
 2215SOL    HW1 6671   1.043   2.626   6.910
 2215SOL    HW2 6672   0.906   2.631   6.821
 2216SOL     OW 6673   0.040   2.406   6.700
 2216SOL    HW1 6674   0.125   2.373   6.659
 2216SOL    HW2 6675   0.053   2.421   6.798
 2217SOL     OW 6676   0.189   2.382   7.308
 2217SOL    HW1 6677   0.248   2.342   7.238
 2217SOL    HW2 6678   0.131   2.453   7.267
 2218SOL     OW 6679   1.369   2.812   7.246
 2218SOL    HW1 6680   1.408   2.901   7.266
 2218SOL    HW2 6681   1.379   2.792   7.149
 2219SOL     OW 6682   0.815   2.434   5.911
 2219SOL    HW1 6683   0.822   2.345   5.865
 2219SOL    HW2 6684   0.721   2.468   5.903
 2220SOL     OW 6685   1.657   2.466   6.792
 2220SOL    HW1 6686   1.619   2.397   6.854
 2220SOL    HW2 6687   1.739   2.430   6.748
 2221SOL     OW 6688   0.252   3.426   7.330
 2221SOL    HW1 6689   0.222   3.483   7.406
 2221SOL    HW2 6690   0.245   3.329   7.356
 2222SOL     OW 6691   0.671   2.326   6.855
 2222SOL    HW1 6692   0.637   2.237   6.825
 2222SOL    HW2 6693   0.697   2.380   6.775
 2223SOL     OW 6694   0.930   3.540   7.051
 2223SOL    HW1 6695   0.906   3.522   6.956
 2223SOL    HW2 6696   0.960   3.634   7.061
 2224SOL     OW 6697   0.473   2.362   5.777
 2224SOL    HW1 6698   0.534   2.442   5.781
 2224SOL    HW2 6699   0.378   2.393   5.784
 2225SOL     OW 6700   0.159   2.999   7.052
 2225SOL    HW1 6701   0.181   2.938   7.128
 2225SOL    HW2 6702   0.169   2.950   6.966
 2226SOL     OW 6703   1.347   2.921   6.820
 2226SOL    HW1 6704   1.371   2.858   6.746
 2226SOL    HW2 6705   1.257   2.961   6.802
 2227SOL     OW 6706   1.302   2.717   5.895
 2227SOL    HW1 6707   1.216   2.686   5.937
 2227SOL    HW2 6708   1.298   2.703   5.796
 2228SOL     OW 6709   1.759   3.609   6.740
 2228SOL    HW1 6710   1.820   3.639   6.667
 2228SOL    HW2 6711   1.721   3.520   6.718
 2229SOL     OW 6712   1.252   3.593   6.714
 2229SOL    HW1 6713   1.336   3.598   6.660
 2229SOL    HW2 6714   1.229   3.497   6.732
 2230SOL     OW 6715   0.083   3.120   6.608
 2230SOL    HW1 6716   0.078   3.119   6.708
 2230SOL    HW2 6717   0.000   3.079   6.570
 2231SOL     OW 6718   0.688   3.524   7.302
 2231SOL    HW1 6719   0.632   3.605   7.311
 2231SOL    HW2 6720   0.740   3.528   7.216
 2232SOL     OW 6721   1.726   1.997   6.109
 2232SOL    HW1 6722   1.799   1.980   6.042
 2232SOL    HW2 6723   1.695   1.910   6.147
 2233SOL     OW 6724   1.388   3.435   6.063
 2233SOL    HW1 6725   1.455   3.447   5.989
 2233SOL    HW2 6726   1.348   3.524   6.086
 2234SOL     OW 6727   0.130   3.656   7.437
 2234SOL    HW1 6728   0.089   3.582   7.490
 2234SOL    HW2 6729   0.194   3.707   7.495
 2235SOL     OW 6730   1.280   2.789   6.258
 2235SOL    HW1 6731   1.340   2.708   6.260
 2235SOL    HW2 6732   1.320   2.858   6.198
 2236SOL     OW 6733   0.830   3.135   7.008
 2236SOL    HW1 6734   0.825   3.168   7.103
 2236SOL    HW2 6735   0.744   3.154   6.962
 2237SOL     OW 6736   0.672   3.478   5.740
 2237SOL    HW1 6737   0.681   3.488   5.641
 2237SOL    HW2 6738   0.632   3.389   5.761
 2238SOL     OW 6739   1.650   3.582   6.980
 2238SOL    HW1 6740   1.703   3.592   6.896
 2238SOL    HW2 6741   1.623   3.672   7.014
 2239SOL     OW 6742   1.841   2.037   6.549
 2239SOL    HW1 6743   1.880   1.952   6.513
 2239SOL    HW2 6744   1.743   2.039   6.530
 2240SOL     OW 6745   0.263   2.188   6.306
 2240SOL    HW1 6746   0.184   2.239   6.272
 2240SOL    HW2 6747   0.254   2.173   6.404
 2241SOL     OW 6748   1.194   3.474   5.617
 2241SOL    HW1 6749   1.200   3.381   5.654
 2241SOL    HW2 6750   1.135   3.474   5.537
 2242SOL     OW 6751   0.822   2.864   6.958
 2242SOL    HW1 6752   0.862   2.863   6.866
 2242SOL    HW2 6753   0.832   2.956   6.998
 2243SOL     OW 6754   0.916   2.772   5.877
 2243SOL    HW1 6755   0.979   2.810   5.809
 2243SOL    HW2 6756   0.956   2.689   5.916
 2244SOL     OW 6757   1.504   3.469   5.630
 2244SOL    HW1 6758   1.412   3.506   5.637
 2244SOL    HW2 6759   1.542   3.489   5.540
 2245SOL     OW 6760   0.372   3.150   7.076
 2245SOL    HW1 6761   0.359   3.243   7.042
 2245SOL    HW2 6762   0.288   3.098   7.063
 2246SOL     OW 6763   1.614   3.154   6.875
 2246SOL    HW1 6764   1.674   3.157   6.955
 2246SOL    HW2 6765   1.539   3.218   6.888
 2247SOL     OW 6766   1.039   2.960   6.282
 2247SOL    HW1 6767   0.969   2.913   6.336
 2247SOL    HW2 6768   1.098   2.892   6.239
 2248SOL     OW 6769   1.014   2.098   6.557
 2248SOL    HW1 6770   1.006   2.062   6.464
 2248SOL    HW2 6771   1.012   2.022   6.622
 2249SOL     OW 6772   0.590   3.349   6.077
 2249SOL    HW1 6773   0.632   3.291   6.007
 2249SOL    HW2 6774   0.546   3.428   6.033
 2250SOL     OW 6775   1.709   2.247   6.967
 2250SOL    HW1 6776   1.782   2.316   6.971
 2250SOL    HW2 6777   1.737   2.172   6.908
 2251SOL     OW 6778   0.255   3.210   5.876
 2251SOL    HW1 6779   0.159   3.211   5.849
 2251SOL    HW2 6780   0.267   3.263   5.960
 2252SOL     OW 6781   0.105   2.875   7.312
 2252SOL    HW1 6782   0.028   2.842   7.366
 2252SOL    HW2 6783   0.190   2.845   7.354
 2253SOL     OW 6784   0.672   2.065   7.075
 2253SOL    HW1 6785   0.762   2.049   7.035
 2253SOL    HW2 6786   0.680   2.070   7.174
 2254SOL     OW 6787   0.075   2.207   5.619
 2254SOL    HW1 6788  -0.017   2.179   5.590
 2254SOL    HW2 6789   0.106   2.284   5.563
 2255SOL     OW 6790   1.440   2.718   6.984
 2255SOL    HW1 6791   1.383   2.770   6.921
 2255SOL    HW2 6792   1.536   2.730   6.960
 2256SOL     OW 6793   0.072   2.028   5.904
 2256SOL    HW1 6794   0.055   2.111   5.850
 2256SOL    HW2 6795   0.162   1.991   5.882
 2257SOL     OW 6796   1.183   3.197   5.705
 2257SOL    HW1 6797   1.084   3.186   5.707
 2257SOL    HW2 6798   1.217   3.212   5.798
 2258SOL     OW 6799   1.493   3.629   6.545
 2258SOL    HW1 6800   1.526   3.693   6.476
 2258SOL    HW2 6801   1.559   3.623   6.620
 2259SOL     OW 6802   0.716   2.427   7.294
 2259SOL    HW1 6803   0.735   2.492   7.368
 2259SOL    HW2 6804   0.776   2.347   7.303
 2260SOL     OW 6805   1.450   3.082   7.219
 2260SOL    HW1 6806   1.441   3.072   7.318
 2260SOL    HW2 6807   1.546   3.075   7.193
 2261SOL     OW 6808   0.390   3.603   7.146
 2261SOL    HW1 6809   0.299   3.644   7.144
 2261SOL    HW2 6810   0.383   3.509   7.178
 2262SOL     OW 6811   1.674   2.745   6.840
 2262SOL    HW1 6812   1.647   2.656   6.803
 2262SOL    HW2 6813   1.675   2.813   6.767
 2263SOL     OW 6814   1.225   2.187   6.035
 2263SOL    HW1 6815   1.290   2.113   6.024
 2263SOL    HW2 6816   1.245   2.237   6.119
 2264SOL     OW 6817   0.594   2.607   6.238
 2264SOL    HW1 6818   0.644   2.692   6.219
 2264SOL    HW2 6819   0.506   2.609   6.190
 2265SOL     OW 6820   1.777   2.204   7.228
 2265SOL    HW1 6821   1.760   2.235   7.134
 2265SOL    HW2 6822   1.693   2.167   7.266
 2266SOL     OW 6823   1.730   2.796   7.103
 2266SOL    HW1 6824   1.768   2.887   7.118
 2266SOL    HW2 6825   1.722   2.779   7.004
 2267SOL     OW 6826   0.859   3.236   5.602
 2267SOL    HW1 6827   0.813   3.251   5.690
 2267SOL    HW2 6828   0.903   3.321   5.572
 2268SOL     OW 6829   0.661   3.652   6.539
 2268SOL    HW1 6830   0.615   3.740   6.526
 2268SOL    HW2 6831   0.760   3.664   6.532
 2269SOL     OW 6832   0.859   2.818   6.447
 2269SOL    HW1 6833   0.913   2.749   6.495
 2269SOL    HW2 6834   0.827   2.887   6.513
 2270SOL     OW 6835   1.083   2.846   5.673
 2270SOL    HW1 6836   1.060   2.899   5.591
 2270SOL    HW2 6837   1.164   2.790   5.654
 2271SOL     OW 6838   1.861   3.431   6.437
 2271SOL    HW1 6839   1.790   3.419   6.367
 2271SOL    HW2 6840   1.862   3.352   6.497
 2272SOL     OW 6841   0.079   3.102   6.239
 2272SOL    HW1 6842   0.078   3.055   6.327
 2272SOL    HW2 6843   0.161   3.074   6.188
 2273SOL     OW 6844   0.672   3.253   7.210
 2273SOL    HW1 6845   0.594   3.203   7.248
 2273SOL    HW2 6846   0.669   3.348   7.241
 2274SOL     OW 6847   1.824   2.054   6.813
 2274SOL    HW1 6848   1.820   1.964   6.857
 2274SOL    HW2 6849   1.827   2.043   6.714
 2275SOL     OW 6850   0.428   2.286   6.106
 2275SOL    HW1 6851   0.458   2.214   6.044
 2275SOL    HW2 6852   0.389   2.246   6.189
 2276SOL     OW 6853   1.705   3.349   6.690
 2276SOL    HW1 6854   1.612   3.324   6.663
 2276SOL    HW2 6855   1.731   3.299   6.772
 2277SOL     OW 6856   0.317   2.409   6.866
 2277SOL    HW1 6857   0.355   2.350   6.938
 2277SOL    HW2 6858   0.357   2.383   6.778
 2278SOL     OW 6859   0.812   3.448   6.273
 2278SOL    HW1 6860   0.844   3.458   6.179
 2278SOL    HW2 6861   0.733   3.386   6.275
 2279SOL     OW 6862   1.424   2.076   6.698
 2279SOL    HW1 6863   1.476   2.011   6.753
 2279SOL    HW2 6864   1.375   2.139   6.759
 2280SOL     OW 6865   1.001   1.896   6.740
 2280SOL    HW1 6866   0.938   1.824   6.709
 2280SOL    HW2 6867   1.094   1.860   6.740
 2281SOL     OW 6868   0.770   3.192   5.887
 2281SOL    HW1 6869   0.724   3.105   5.904
 2281SOL    HW2 6870   0.861   3.189   5.928
 2282SOL     OW 6871   0.618   3.429   6.870
 2282SOL    HW1 6872   0.613   3.511   6.927
 2282SOL    HW2 6873   0.707   3.426   6.825
 2283SOL     OW 6874   1.352   1.914   5.754
 2283SOL    HW1 6875   1.387   1.873   5.670
 2283SOL    HW2 6876   1.262   1.876   5.774
 2284SOL     OW 6877   1.300   2.315   6.277
 2284SOL    HW1 6878   1.241   2.395   6.281
 2284SOL    HW2 6879   1.315   2.280   6.370
 2285SOL     OW 6880   1.593   2.083   6.468
 2285SOL    HW1 6881   1.509   2.082   6.522
 2285SOL    HW2 6882   1.595   2.166   6.412
 2286SOL     OW 6883   0.039   2.939   5.886
 2286SOL    HW1 6884   0.138   2.928   5.877
 2286SOL    HW2 6885  -0.001   2.853   5.918
 2287SOL     OW 6886   0.875   3.508   5.923
 2287SOL    HW1 6887   0.798   3.473   5.869
 2287SOL    HW2 6888   0.843   3.579   5.985
 2288SOL     OW 6889   0.230   2.490   7.561
 2288SOL    HW1 6890   0.137   2.488   7.598
 2288SOL    HW2 6891   0.231   2.451   7.469
 2289SOL     OW 6892   0.225   2.137   8.444
 2289SOL    HW1 6893   0.260   2.120   8.536
 2289SOL    HW2 6894   0.137   2.092   8.432
 2290SOL     OW 6895   0.019   2.230   8.095
 2290SOL    HW1 6896  -0.063   2.273   8.134
 2290SOL    HW2 6897  -0.009   2.157   8.032
 2291SOL     OW 6898   0.569   3.137   8.613
 2291SOL    HW1 6899   0.476   3.130   8.576
 2291SOL    HW2 6900   0.580   3.226   8.657
 2292SOL     OW 6901   1.555   3.373   8.151
 2292SOL    HW1 6902   1.498   3.357   8.232
 2292SOL    HW2 6903   1.496   3.383   8.071
 2293SOL     OW 6904   1.135   2.565   8.165
 2293SOL    HW1 6905   1.192   2.643   8.140
 2293SOL    HW2 6906   1.075   2.591   8.241
 2294SOL     OW 6907   1.755   2.469   7.679
 2294SOL    HW1 6908   1.743   2.456   7.580
 2294SOL    HW2 6909   1.725   2.388   7.728
 2295SOL     OW 6910   0.768   3.006   8.471
 2295SOL    HW1 6911   0.690   3.023   8.531
 2295SOL    HW2 6912   0.802   3.093   8.435
 2296SOL     OW 6913   0.850   2.660   9.271
 2296SOL    HW1 6914   0.846   2.736   9.336
 2296SOL    HW2 6915   0.872   2.696   9.180
 2297SOL     OW 6916   0.685   2.874   8.113
 2297SOL    HW1 6917   0.754   2.858   8.183
 2297SOL    HW2 6918   0.612   2.931   8.151
 2298SOL     OW 6919   0.686   3.023   9.251
 2298SOL    HW1 6920   0.746   3.102   9.265
 2298SOL    HW2 6921   0.600   3.054   9.210
 2299SOL     OW 6922   0.335   3.297   8.509
 2299SOL    HW1 6923   0.257   3.266   8.456
 2299SOL    HW2 6924   0.393   3.355   8.452
 2300SOL     OW 6925   1.460   3.367   8.787
 2300SOL    HW1 6926   1.484   3.461   8.813
 2300SOL    HW2 6927   1.444   3.313   8.869
 2301SOL     OW 6928   0.438   2.254   8.947
 2301SOL    HW1 6929   0.520   2.198   8.956
 2301SOL    HW2 6930   0.357   2.196   8.951
 2302SOL     OW 6931   1.603   2.309   8.185
 2302SOL    HW1 6932   1.529   2.355   8.135
 2302SOL    HW2 6933   1.654   2.377   8.238
 2303SOL     OW 6934   0.231   3.575   7.931
 2303SOL    HW1 6935   0.265   3.652   7.985
 2303SOL    HW2 6936   0.275   3.575   7.841
 2304SOL     OW 6937   1.127   3.203   9.138
 2304SOL    HW1 6938   1.174   3.203   9.226
 2304SOL    HW2 6939   1.079   3.116   9.127
 2305SOL     OW 6940   0.230   3.296   7.986
 2305SOL    HW1 6941   0.204   3.392   7.986
 2305SOL    HW2 6942   0.159   3.242   8.031
 2306SOL     OW 6943   0.240   2.953   8.334
 2306SOL    HW1 6944   0.254   2.869   8.386
 2306SOL    HW2 6945   0.185   3.017   8.389
 2307SOL     OW 6946   0.620   3.648   8.887
 2307SOL    HW1 6947   0.528   3.631   8.922
 2307SOL    HW2 6948   0.648   3.740   8.913
 2308SOL     OW 6949   0.606   2.826   7.571
 2308SOL    HW1 6950   0.613   2.910   7.517
 2308SOL    HW2 6951   0.652   2.839   7.659
 2309SOL     OW 6952   1.594   1.976   8.928
 2309SOL    HW1 6953   1.576   2.043   8.856
 2309SOL    HW2 6954   1.591   2.022   9.017
 2310SOL     OW 6955   0.122   2.505   8.011
 2310SOL    HW1 6956   0.077   2.417   8.028
 2310SOL    HW2 6957   0.121   2.559   8.095
 2311SOL     OW 6958   1.842   3.629   7.807
 2311SOL    HW1 6959   1.896   3.600   7.887
 2311SOL    HW2 6960   1.872   3.719   7.778
 2312SOL     OW 6961   0.027   3.458   7.565
 2312SOL    HW1 6962   0.008   3.362   7.586
 2312SOL    HW2 6963  -0.006   3.516   7.640
 2313SOL     OW 6964   1.689   2.784   8.060
 2313SOL    HW1 6965   1.784   2.755   8.068
 2313SOL    HW2 6966   1.681   2.849   7.985
 2314SOL     OW 6967   1.641   2.970   7.880
 2314SOL    HW1 6968   1.727   2.972   7.828
 2314SOL    HW2 6969   1.655   3.017   7.968
 2315SOL     OW 6970   0.113   2.599   9.045
 2315SOL    HW1 6971   0.201   2.586   9.090
 2315SOL    HW2 6972   0.100   2.696   9.023
 2316SOL     OW 6973   0.613   3.227   8.174
 2316SOL    HW1 6974   0.564   3.140   8.183
 2316SOL    HW2 6975   0.590   3.270   8.087
 2317SOL     OW 6976   1.293   3.090   8.871
 2317SOL    HW1 6977   1.330   3.017   8.813
 2317SOL    HW2 6978   1.345   3.095   8.956
 2318SOL     OW 6979   0.809   1.866   7.950
 2318SOL    HW1 6980   0.849   1.957   7.941
 2318SOL    HW2 6981   0.709   1.874   7.956
 2319SOL     OW 6982   0.197   2.838   8.712
 2319SOL    HW1 6983   0.286   2.793   8.698
 2319SOL    HW2 6984   0.124   2.773   8.693
 2320SOL     OW 6985   1.525   2.861   7.638
 2320SOL    HW1 6986   1.462   2.785   7.651
 2320SOL    HW2 6987   1.573   2.879   7.724
 2321SOL     OW 6988   1.187   3.654   9.064
 2321SOL    HW1 6989   1.211   3.714   8.988
 2321SOL    HW2 6990   1.194   3.559   9.034
 2322SOL     OW 6991   0.317   2.113   9.249
 2322SOL    HW1 6992   0.388   2.184   9.255
 2322SOL    HW2 6993   0.229   2.152   9.277
 2323SOL     OW 6994   1.466   3.279   8.401
 2323SOL    HW1 6995   1.407   3.285   8.481
 2323SOL    HW2 6996   1.451   3.191   8.355
 2324SOL     OW 6997   1.667   3.576   8.020
 2324SOL    HW1 6998   1.626   3.553   7.932
 2324SOL    HW2 6999   1.649   3.502   8.085
 2325SOL     OW 7000   0.598   2.591   7.718
 2325SOL    HW1 7001   0.622   2.660   7.650
 2325SOL    HW2 7002   0.520   2.624   7.772
 2326SOL     OW 7003   1.281   2.207   8.392
 2326SOL    HW1 7004   1.195   2.157   8.379
 2326SOL    HW2 7005   1.343   2.153   8.448
 2327SOL     OW 7006   1.576   3.524   7.755
 2327SOL    HW1 7007   1.665   3.570   7.758
 2327SOL    HW2 7008   1.555   3.500   7.660
 2328SOL     OW 7009   0.807   2.467   8.913
 2328SOL    HW1 7010   0.760   2.464   9.002
 2328SOL    HW2 7011   0.756   2.412   8.847
 2329SOL     OW 7012   1.394   2.331   9.122
 2329SOL    HW1 7013   1.374   2.374   9.210
 2329SOL    HW2 7014   1.472   2.269   9.131
 2330SOL     OW 7015   0.973   2.752   9.020
 2330SOL    HW1 7016   1.019   2.668   8.991
 2330SOL    HW2 7017   0.917   2.786   8.945
 2331SOL     OW 7018   0.991   2.272   8.690
 2331SOL    HW1 7019   0.914   2.306   8.744
 2331SOL    HW2 7020   0.957   2.221   8.611
 2332SOL     OW 7021   1.041   2.563   7.877
 2332SOL    HW1 7022   1.067   2.559   7.973
 2332SOL    HW2 7023   0.956   2.512   7.863
 2333SOL     OW 7024   0.076   2.673   8.237
 2333SOL    HW1 7025   0.175   2.661   8.246
 2333SOL    HW2 7026   0.052   2.768   8.258
 2334SOL     OW 7027   0.130   3.683   9.019
 2334SOL    HW1 7028   0.120   3.668   9.118
 2334SOL    HW2 7029   0.044   3.719   8.983
 2335SOL     OW 7030   0.865   2.210   7.643
 2335SOL    HW1 7031   0.924   2.273   7.594
 2335SOL    HW2 7032   0.884   2.116   7.614
 2336SOL     OW 7033   1.719   2.447   9.279
 2336SOL    HW1 7034   1.693   2.536   9.243
 2336SOL    HW2 7035   1.717   2.379   9.206
 2337SOL     OW 7036   1.362   3.006   7.993
 2337SOL    HW1 7037   1.445   2.977   7.945
 2337SOL    HW2 7038   1.313   3.073   7.937
 2338SOL     OW 7039   0.550   2.058   8.333
 2338SOL    HW1 7040   0.545   2.053   8.433
 2338SOL    HW2 7041   0.552   2.154   8.304
 2339SOL     OW 7042   1.008   3.318   7.925
 2339SOL    HW1 7043   0.962   3.390   7.873
 2339SOL    HW2 7044   1.004   3.338   8.023
 2340SOL     OW 7045   0.351   3.663   8.301
 2340SOL    HW1 7046   0.401   3.577   8.307
 2340SOL    HW2 7047   0.416   3.740   8.298
 2341SOL     OW 7048   1.795   2.928   8.321
 2341SOL    HW1 7049   1.733   2.913   8.245
 2341SOL    HW2 7050   1.743   2.939   8.406
 2342SOL     OW 7051   1.227   3.412   8.954
 2342SOL    HW1 7052   1.233   3.335   9.018
 2342SOL    HW2 7053   1.175   3.386   8.874
 2343SOL     OW 7054   0.321   2.805   7.690
 2343SOL    HW1 7055   0.403   2.844   7.648
 2343SOL    HW2 7056   0.294   2.723   7.641
 2344SOL     OW 7057   1.458   2.597   8.176
 2344SOL    HW1 7058   1.453   2.532   8.251
 2344SOL    HW2 7059   1.538   2.656   8.189
 2345SOL     OW 7060   0.461   3.128   9.175
 2345SOL    HW1 7061   0.411   3.129   9.089
 2345SOL    HW2 7062   0.398   3.110   9.251
 2346SOL     OW 7063   1.111   3.638   7.685
 2346SOL    HW1 7064   1.051   3.576   7.735
 2346SOL    HW2 7065   1.142   3.594   7.600
 2347SOL     OW 7066   0.202   2.147   8.946
 2347SOL    HW1 7067   0.122   2.207   8.933
 2347SOL    HW2 7068   0.192   2.098   9.032
 2348SOL     OW 7069   1.632   3.239   7.529
 2348SOL    HW1 7070   1.600   3.333   7.519
 2348SOL    HW2 7071   1.556   3.176   7.517
 2349SOL     OW 7072   0.464   3.605   7.771
 2349SOL    HW1 7073   0.497   3.644   7.857
 2349SOL    HW2 7074   0.540   3.598   7.706
 2350SOL     OW 7075   1.400   1.969   7.874
 2350SOL    HW1 7076   1.376   1.932   7.784
 2350SOL    HW2 7077   1.499   1.985   7.878
 2351SOL     OW 7078   0.249   3.647   8.689
 2351SOL    HW1 7079   0.306   3.582   8.739
 2351SOL    HW2 7080   0.233   3.614   8.596
 2352SOL     OW 7081   0.940   3.560   8.352
 2352SOL    HW1 7082   1.020   3.503   8.373
 2352SOL    HW2 7083   0.891   3.520   8.275
 2353SOL     OW 7084   0.382   2.562   7.928
 2353SOL    HW1 7085   0.427   2.472   7.925
 2353SOL    HW2 7086   0.288   2.551   7.961
 2354SOL     OW 7087   1.547   2.084   9.177
 2354SOL    HW1 7088   1.542   2.121   9.269
 2354SOL    HW2 7089   1.475   2.015   9.165
 2355SOL     OW 7090   0.614   1.984   7.565
 2355SOL    HW1 7091   0.712   1.962   7.572
 2355SOL    HW2 7092   0.583   1.967   7.472
 2356SOL     OW 7093   0.781   2.126   9.197
 2356SOL    HW1 7094   0.848   2.065   9.240
 2356SOL    HW2 7095   0.708   2.145   9.262
 2357SOL     OW 7096   0.888   3.376   8.643
 2357SOL    HW1 7097   0.865   3.351   8.549
 2357SOL    HW2 7098   0.949   3.307   8.682
 2358SOL     OW 7099   1.351   2.452   8.881
 2358SOL    HW1 7100   1.379   2.409   8.966
 2358SOL    HW2 7101   1.376   2.548   8.882
 2359SOL     OW 7102   0.803   3.264   8.372
 2359SOL    HW1 7103   0.893   3.278   8.330
 2359SOL    HW2 7104   0.732   3.266   8.301
 2360SOL     OW 7105   0.922   2.365   8.347
 2360SOL    HW1 7106   0.897   2.356   8.251
 2360SOL    HW2 7107   0.970   2.283   8.378
 2361SOL     OW 7108   0.539   1.926   7.960
 2361SOL    HW1 7109   0.458   1.927   8.018
 2361SOL    HW2 7110   0.542   2.009   7.905
 2362SOL     OW 7111   1.434   3.050   7.489
 2362SOL    HW1 7112   1.466   2.974   7.546
 2362SOL    HW2 7113   1.342   3.077   7.519
 2363SOL     OW 7114   0.297   1.897   7.619
 2363SOL    HW1 7115   0.346   1.981   7.598
 2363SOL    HW2 7116   0.359   1.832   7.664
 2364SOL     OW 7117   0.935   2.098   7.928
 2364SOL    HW1 7118   0.887   2.139   7.850
 2364SOL    HW2 7119   1.034   2.096   7.909
 2365SOL     OW 7120   1.076   2.545   8.912
 2365SOL    HW1 7121   0.996   2.484   8.915
 2365SOL    HW2 7122   1.157   2.492   8.888
 2366SOL     OW 7123   1.227   3.432   8.241
 2366SOL    HW1 7124   1.248   3.506   8.176
 2366SOL    HW2 7125   1.295   3.432   8.314
 2367SOL     OW 7126   0.459   3.014   8.189
 2367SOL    HW1 7127   0.388   2.987   8.254
 2367SOL    HW2 7128   0.433   2.986   8.096
 2368SOL     OW 7129   1.271   3.659   8.039
 2368SOL    HW1 7130   1.315   3.723   7.975
 2368SOL    HW2 7131   1.221   3.711   8.109
 2369SOL     OW 7132   1.032   2.411   7.464
 2369SOL    HW1 7133   0.991   2.493   7.425
 2369SOL    HW2 7134   1.096   2.437   7.537
 2370SOL     OW 7135   0.078   2.418   8.834
 2370SOL    HW1 7136   0.170   2.417   8.793
 2370SOL    HW2 7137   0.072   2.492   8.901
 2371SOL     OW 7138   0.561   2.084   8.595
 2371SOL    HW1 7139   0.599   2.000   8.632
 2371SOL    HW2 7140   0.473   2.103   8.639
 2372SOL     OW 7141   0.866   2.316   8.090
 2372SOL    HW1 7142   0.834   2.388   8.028
 2372SOL    HW2 7143   0.890   2.235   8.037
 2373SOL     OW 7144   1.017   1.901   8.201
 2373SOL    HW1 7145   0.945   1.906   8.132
 2373SOL    HW2 7146   0.993   1.832   8.270
 2374SOL     OW 7147   1.429   3.035   8.315
 2374SOL    HW1 7148   1.374   2.951   8.308
 2374SOL    HW2 7149   1.455   3.064   8.223
 2375SOL     OW 7150   1.466   2.452   8.440
 2375SOL    HW1 7151   1.436   2.357   8.447
 2375SOL    HW2 7152   1.539   2.468   8.506
 2376SOL     OW 7153   1.857   2.695   7.825
 2376SOL    HW1 7154   1.899   2.631   7.889
 2376SOL    HW2 7155   1.819   2.644   7.747
 2377SOL     OW 7156   0.488   3.247   7.622
 2377SOL    HW1 7157   0.401   3.232   7.669
 2377SOL    HW2 7158   0.471   3.273   7.527
 2378SOL     OW 7159   1.664   3.142   8.105
 2378SOL    HW1 7160   1.763   3.150   8.119
 2378SOL    HW2 7161   1.619   3.226   8.136
 2379SOL     OW 7162   1.390   2.437   7.526
 2379SOL    HW1 7163   1.336   2.416   7.607
 2379SOL    HW2 7164   1.481   2.396   7.535
 2380SOL     OW 7165   0.527   2.118   7.776
 2380SOL    HW1 7166   0.554   2.059   7.701
 2380SOL    HW2 7167   0.527   2.213   7.745
 2381SOL     OW 7168   1.754   3.085   9.036
 2381SOL    HW1 7169   1.845   3.046   9.023
 2381SOL    HW2 7170   1.762   3.181   9.060
 2382SOL     OW 7171   1.064   3.209   8.788
 2382SOL    HW1 7172   0.984   3.186   8.843
 2382SOL    HW2 7173   1.147   3.183   8.837
 2383SOL     OW 7174   1.592   3.491   9.073
 2383SOL    HW1 7175   1.619   3.525   8.983
 2383SOL    HW2 7176   1.671   3.453   9.119
 2384SOL     OW 7177   1.111   3.057   8.548
 2384SOL    HW1 7178   1.071   3.101   8.629
 2384SOL    HW2 7179   1.070   3.094   8.465
 2385SOL     OW 7180   1.638   2.961   8.527
 2385SOL    HW1 7181   1.643   3.042   8.586
 2385SOL    HW2 7182   1.552   2.963   8.476
 2386SOL     OW 7183   0.915   1.951   8.850
 2386SOL    HW1 7184   0.940   1.931   8.755
 2386SOL    HW2 7185   0.987   2.007   8.892
 2387SOL     OW 7186   0.980   2.978   9.167
 2387SOL    HW1 7187   0.881   2.984   9.177
 2387SOL    HW2 7188   1.003   2.898   9.111
 2388SOL     OW 7189   0.705   2.912   7.816
 2388SOL    HW1 7190   0.691   2.919   7.915
 2388SOL    HW2 7191   0.789   2.861   7.798
 2389SOL     OW 7192   0.410   2.675   8.699
 2389SOL    HW1 7193   0.496   2.687   8.749
 2389SOL    HW2 7194   0.368   2.588   8.726
 2390SOL     OW 7195   1.274   2.248   8.710
 2390SOL    HW1 7196   1.295   2.322   8.774
 2390SOL    HW2 7197   1.185   2.265   8.667
 2391SOL     OW 7198   0.064   3.426   8.779
 2391SOL    HW1 7199   0.018   3.508   8.745
 2391SOL    HW2 7200   0.162   3.445   8.788
 2392SOL     OW 7201   0.367   2.962   7.949
 2392SOL    HW1 7202   0.360   3.045   7.893
 2392SOL    HW2 7203   0.371   2.882   7.889
 2393SOL     OW 7204   0.566   2.399   8.313
 2393SOL    HW1 7205   0.578   2.465   8.239
 2393SOL    HW2 7206   0.612   2.433   8.396
 2394SOL     OW 7207   1.252   3.210   7.836
 2394SOL    HW1 7208   1.302   3.287   7.876
 2394SOL    HW2 7209   1.157   3.212   7.868
 2395SOL     OW 7210   1.272   3.307   8.590
 2395SOL    HW1 7211   1.319   3.320   8.677
 2395SOL    HW2 7212   1.206   3.233   8.599
 2396SOL     OW 7213   1.582   2.501   7.920
 2396SOL    HW1 7214   1.551   2.562   7.993
 2396SOL    HW2 7215   1.632   2.553   7.851
 2397SOL     OW 7216   0.354   3.372   8.777
 2397SOL    HW1 7217   0.333   3.328   8.690
 2397SOL    HW2 7218   0.451   3.398   8.780
 2398SOL     OW 7219   0.402   2.613   9.046
 2398SOL    HW1 7220   0.470   2.668   8.999
 2398SOL    HW2 7221   0.442   2.525   9.073
 2399SOL     OW 7222   1.587   2.641   9.118
 2399SOL    HW1 7223   1.495   2.679   9.113
 2399SOL    HW2 7224   1.647   2.688   9.053
 2400SOL     OW 7225   1.013   1.967   9.218
 2400SOL    HW1 7226   1.019   2.052   9.166
 2400SOL    HW2 7227   1.045   1.891   9.161
 2401SOL     OW 7228   0.504   1.912   9.188
 2401SOL    HW1 7229   0.462   1.855   9.118
 2401SOL    HW2 7230   0.438   1.981   9.220
 2402SOL     OW 7231   0.573   2.732   8.477
 2402SOL    HW1 7232   0.617   2.821   8.468
 2402SOL    HW2 7233   0.510   2.732   8.554
 2403SOL     OW 7234   1.360   2.724   8.493
 2403SOL    HW1 7235   1.285   2.724   8.427
 2403SOL    HW2 7236   1.397   2.632   8.502
 2404SOL     OW 7237   1.209   2.387   7.723
 2404SOL    HW1 7238   1.222   2.303   7.777
 2404SOL    HW2 7239   1.180   2.461   7.783
 2405SOL     OW 7240   0.307   2.075   8.679
 2405SOL    HW1 7241   0.284   2.112   8.769
 2405SOL    HW2 7242   0.277   1.980   8.673
 2406SOL     OW 7243   0.037   3.172   8.730
 2406SOL    HW1 7244   0.090   3.123   8.798
 2406SOL    HW2 7245   0.059   3.270   8.735
 2407SOL     OW 7246   0.732   2.496   8.512
 2407SOL    HW1 7247   0.791   2.470   8.436
 2407SOL    HW2 7248   0.704   2.592   8.501
 2408SOL     OW 7249   1.728   2.797   9.302
 2408SOL    HW1 7250   1.682   2.790   9.213
 2408SOL    HW2 7251   1.666   2.841   9.368
 2409SOL     OW 7252   0.307   1.925   8.066
 2409SOL    HW1 7253   0.296   2.019   8.099
 2409SOL    HW2 7254   0.302   1.862   8.143
 2410SOL     OW 7255   1.622   2.229   7.822
 2410SOL    HW1 7256   1.624   2.153   7.886
 2410SOL    HW2 7257   1.574   2.306   7.862
 2411SOL     OW 7258   1.023   2.628   8.414
 2411SOL    HW1 7259   1.038   2.649   8.510
 2411SOL    HW2 7260   0.993   2.533   8.405
 2412SOL     OW 7261   0.980   3.435   9.148
 2412SOL    HW1 7262   0.960   3.479   9.060
 2412SOL    HW2 7263   1.019   3.344   9.132
 2413SOL     OW 7264   1.859   3.380   9.053
 2413SOL    HW1 7265   1.873   3.407   8.958
 2413SOL    HW2 7266   1.942   3.402   9.106
 2414SOL     OW 7267   0.350   2.760   9.252
 2414SOL    HW1 7268   0.426   2.804   9.300
 2414SOL    HW2 7269   0.385   2.713   9.170
 2415SOL     OW 7270   1.540   2.136   7.573
 2415SOL    HW1 7271   1.479   2.061   7.596
 2415SOL    HW2 7272   1.562   2.188   7.656
 2416SOL     OW 7273   1.303   2.700   7.490
 2416SOL    HW1 7274   1.337   2.607   7.505
 2416SOL    HW2 7275   1.321   2.727   7.395
 2417SOL     OW 7276   1.068   3.195   8.297
 2417SOL    HW1 7277   1.075   3.111   8.242
 2417SOL    HW2 7278   1.130   3.264   8.261
 2418SOL     OW 7279   0.319   2.672   8.397
 2418SOL    HW1 7280   0.412   2.708   8.402
 2418SOL    HW2 7281   0.313   2.587   8.449
 2419SOL     OW 7282   0.339   2.371   8.454
 2419SOL    HW1 7283   0.287   2.288   8.437
 2419SOL    HW2 7284   0.416   2.376   8.390
 2420SOL     OW 7285   1.138   2.242   9.126
 2420SOL    HW1 7286   1.093   2.305   9.190
 2420SOL    HW2 7287   1.231   2.273   9.109
 2421SOL     OW 7288   1.160   2.069   8.925
 2421SOL    HW1 7289   1.160   2.133   9.002
 2421SOL    HW2 7290   1.188   2.117   8.842
 2422SOL     OW 7291   0.008   3.188   7.648
 2422SOL    HW1 7292  -0.085   3.209   7.617
 2422SOL    HW2 7293   0.018   3.089   7.661
 2423SOL     OW 7294   0.088   3.663   8.375
 2423SOL    HW1 7295   0.046   3.577   8.348
 2423SOL    HW2 7296   0.182   3.666   8.341
 2424SOL     OW 7297   0.504   3.430   8.358
 2424SOL    HW1 7298   0.570   3.504   8.367
 2424SOL    HW2 7299   0.548   3.351   8.316
 2425SOL     OW 7300   1.002   2.658   8.686
 2425SOL    HW1 7301   1.043   2.626   8.772
 2425SOL    HW2 7302   0.906   2.631   8.683
 2426SOL     OW 7303   0.040   2.406   8.562
 2426SOL    HW1 7304   0.125   2.373   8.521
 2426SOL    HW2 7305   0.053   2.421   8.660
 2427SOL     OW 7306   0.189   2.382   9.170
 2427SOL    HW1 7307   0.248   2.342   9.100
 2427SOL    HW2 7308   0.131   2.453   9.129
 2428SOL     OW 7309   1.369   2.812   9.108
 2428SOL    HW1 7310   1.408   2.901   9.128
 2428SOL    HW2 7311   1.379   2.792   9.011
 2429SOL     OW 7312   0.815   2.434   7.773
 2429SOL    HW1 7313   0.822   2.345   7.727
 2429SOL    HW2 7314   0.721   2.468   7.765
 2430SOL     OW 7315   1.657   2.466   8.654
 2430SOL    HW1 7316   1.619   2.397   8.716
 2430SOL    HW2 7317   1.739   2.430   8.610
 2431SOL     OW 7318   0.252   3.426   9.192
 2431SOL    HW1 7319   0.222   3.483   9.268
 2431SOL    HW2 7320   0.245   3.329   9.218
 2432SOL     OW 7321   0.671   2.326   8.717
 2432SOL    HW1 7322   0.637   2.237   8.687
 2432SOL    HW2 7323   0.697   2.380   8.637
 2433SOL     OW 7324   0.930   3.540   8.913
 2433SOL    HW1 7325   0.906   3.522   8.818
 2433SOL    HW2 7326   0.960   3.634   8.923
 2434SOL     OW 7327   0.473   2.362   7.639
 2434SOL    HW1 7328   0.534   2.442   7.643
 2434SOL    HW2 7329   0.378   2.393   7.646
 2435SOL     OW 7330   0.159   2.999   8.914
 2435SOL    HW1 7331   0.181   2.938   8.990
 2435SOL    HW2 7332   0.169   2.950   8.828
 2436SOL     OW 7333   1.347   2.921   8.682
 2436SOL    HW1 7334   1.371   2.858   8.608
 2436SOL    HW2 7335   1.257   2.961   8.664
 2437SOL     OW 7336   1.302   2.717   7.757
 2437SOL    HW1 7337   1.216   2.686   7.799
 2437SOL    HW2 7338   1.298   2.703   7.658
 2438SOL     OW 7339   1.759   3.609   8.602
 2438SOL    HW1 7340   1.820   3.639   8.529
 2438SOL    HW2 7341   1.721   3.520   8.580
 2439SOL     OW 7342   1.252   3.593   8.576
 2439SOL    HW1 7343   1.336   3.598   8.522
 2439SOL    HW2 7344   1.229   3.497   8.594
 2440SOL     OW 7345   0.083   3.120   8.470
 2440SOL    HW1 7346   0.078   3.119   8.570
 2440SOL    HW2 7347   0.000   3.079   8.432
 2441SOL     OW 7348   0.688   3.524   9.164
 2441SOL    HW1 7349   0.632   3.605   9.173
 2441SOL    HW2 7350   0.740   3.528   9.078
 2442SOL     OW 7351   1.726   1.997   7.971
 2442SOL    HW1 7352   1.799   1.980   7.904
 2442SOL    HW2 7353   1.695   1.910   8.009
 2443SOL     OW 7354   1.388   3.435   7.925
 2443SOL    HW1 7355   1.455   3.447   7.851
 2443SOL    HW2 7356   1.348   3.524   7.948
 2444SOL     OW 7357   0.130   3.656   9.299
 2444SOL    HW1 7358   0.089   3.582   9.352
 2444SOL    HW2 7359   0.194   3.707   9.357
 2445SOL     OW 7360   1.280   2.789   8.120
 2445SOL    HW1 7361   1.340   2.708   8.122
 2445SOL    HW2 7362   1.320   2.858   8.060
 2446SOL     OW 7363   0.830   3.135   8.870
 2446SOL    HW1 7364   0.825   3.168   8.965
 2446SOL    HW2 7365   0.744   3.154   8.824
 2447SOL     OW 7366   0.672   3.478   7.602
 2447SOL    HW1 7367   0.681   3.488   7.503
 2447SOL    HW2 7368   0.632   3.389   7.623
 2448SOL     OW 7369   1.650   3.582   8.842
 2448SOL    HW1 7370   1.703   3.592   8.758
 2448SOL    HW2 7371   1.623   3.672   8.876
 2449SOL     OW 7372   1.841   2.037   8.411
 2449SOL    HW1 7373   1.880   1.952   8.375
 2449SOL    HW2 7374   1.743   2.039   8.392
 2450SOL     OW 7375   0.263   2.188   8.168
 2450SOL    HW1 7376   0.184   2.239   8.134
 2450SOL    HW2 7377   0.254   2.173   8.266
 2451SOL     OW 7378   1.194   3.474   7.479
 2451SOL    HW1 7379   1.200   3.381   7.516
 2451SOL    HW2 7380   1.135   3.474   7.399
 2452SOL     OW 7381   0.822   2.864   8.820
 2452SOL    HW1 7382   0.862   2.863   8.728
 2452SOL    HW2 7383   0.832   2.956   8.860
 2453SOL     OW 7384   0.916   2.772   7.739
 2453SOL    HW1 7385   0.979   2.810   7.671
 2453SOL    HW2 7386   0.956   2.689   7.778
 2454SOL     OW 7387   1.504   3.469   7.492
 2454SOL    HW1 7388   1.412   3.506   7.499
 2454SOL    HW2 7389   1.542   3.489   7.402
 2455SOL     OW 7390   0.372   3.150   8.938
 2455SOL    HW1 7391   0.359   3.243   8.904
 2455SOL    HW2 7392   0.288   3.098   8.925
 2456SOL     OW 7393   1.614   3.154   8.737
 2456SOL    HW1 7394   1.674   3.157   8.817
 2456SOL    HW2 7395   1.539   3.218   8.750
 2457SOL     OW 7396   1.039   2.960   8.144
 2457SOL    HW1 7397   0.969   2.913   8.198
 2457SOL    HW2 7398   1.098   2.892   8.101
 2458SOL     OW 7399   1.014   2.098   8.419
 2458SOL    HW1 7400   1.006   2.062   8.326
 2458SOL    HW2 7401   1.012   2.022   8.484
 2459SOL     OW 7402   0.590   3.349   7.939
 2459SOL    HW1 7403   0.632   3.291   7.869
 2459SOL    HW2 7404   0.546   3.428   7.895
 2460SOL     OW 7405   1.709   2.247   8.829
 2460SOL    HW1 7406   1.782   2.316   8.833
 2460SOL    HW2 7407   1.737   2.172   8.770
 2461SOL     OW 7408   0.255   3.210   7.738
 2461SOL    HW1 7409   0.159   3.211   7.711
 2461SOL    HW2 7410   0.267   3.263   7.822
 2462SOL     OW 7411   0.105   2.875   9.174
 2462SOL    HW1 7412   0.028   2.842   9.228
 2462SOL    HW2 7413   0.190   2.845   9.216
 2463SOL     OW 7414   0.672   2.065   8.937
 2463SOL    HW1 7415   0.762   2.049   8.897
 2463SOL    HW2 7416   0.680   2.070   9.036
 2464SOL     OW 7417   0.075   2.207   7.481
 2464SOL    HW1 7418  -0.017   2.179   7.452
 2464SOL    HW2 7419   0.106   2.284   7.425
 2465SOL     OW 7420   1.440   2.718   8.846
 2465SOL    HW1 7421   1.383   2.770   8.783
 2465SOL    HW2 7422   1.536   2.730   8.822
 2466SOL     OW 7423   0.072   2.028   7.766
 2466SOL    HW1 7424   0.055   2.111   7.712
 2466SOL    HW2 7425   0.162   1.991   7.744
 2467SOL     OW 7426   1.183   3.197   7.567
 2467SOL    HW1 7427   1.084   3.186   7.569
 2467SOL    HW2 7428   1.217   3.212   7.660
 2468SOL     OW 7429   0.613   2.704   8.879
 2468SOL    HW1 7430   0.669   2.785   8.862
 2468SOL    HW2 7431   0.672   2.624   8.882
 2469SOL     OW 7432   1.493   3.629   8.407
 2469SOL    HW1 7433   1.526   3.693   8.338
 2469SOL    HW2 7434   1.559   3.623   8.482
 2470SOL     OW 7435   0.716   2.427   9.156
 2470SOL    HW1 7436   0.735   2.492   9.230
 2470SOL    HW2 7437   0.776   2.347   9.165
 2471SOL     OW 7438   1.450   3.082   9.081
 2471SOL    HW1 7439   1.441   3.072   9.180
 2471SOL    HW2 7440   1.546   3.075   9.055
 2472SOL     OW 7441   0.390   3.603   9.008
 2472SOL    HW1 7442   0.299   3.644   9.006
 2472SOL    HW2 7443   0.383   3.509   9.040
 2473SOL     OW 7444   1.674   2.745   8.702
 2473SOL    HW1 7445   1.647   2.656   8.665
 2473SOL    HW2 7446   1.675   2.813   8.629
 2474SOL     OW 7447   1.225   2.187   7.897
 2474SOL    HW1 7448   1.290   2.113   7.886
 2474SOL    HW2 7449   1.245   2.237   7.981
 2475SOL     OW 7450   0.594   2.607   8.100
 2475SOL    HW1 7451   0.644   2.692   8.081
 2475SOL    HW2 7452   0.506   2.609   8.052
 2476SOL     OW 7453   1.777   2.204   9.090
 2476SOL    HW1 7454   1.760   2.235   8.996
 2476SOL    HW2 7455   1.693   2.167   9.128
 2477SOL     OW 7456   1.730   2.796   8.965
 2477SOL    HW1 7457   1.768   2.887   8.980
 2477SOL    HW2 7458   1.722   2.779   8.866
 2478SOL     OW 7459   0.859   3.236   7.464
 2478SOL    HW1 7460   0.813   3.251   7.552
 2478SOL    HW2 7461   0.903   3.321   7.434
 2479SOL     OW 7462   0.661   3.652   8.401
 2479SOL    HW1 7463   0.615   3.740   8.388
 2479SOL    HW2 7464   0.760   3.664   8.394
 2480SOL     OW 7465   0.859   2.818   8.309
 2480SOL    HW1 7466   0.913   2.749   8.357
 2480SOL    HW2 7467   0.827   2.887   8.375
 2481SOL     OW 7468   1.083   2.846   7.535
 2481SOL    HW1 7469   1.060   2.899   7.453
 2481SOL    HW2 7470   1.164   2.790   7.516
 2482SOL     OW 7471   1.861   3.431   8.299
 2482SOL    HW1 7472   1.790   3.419   8.229
 2482SOL    HW2 7473   1.862   3.352   8.359
 2483SOL     OW 7474   0.221   3.176   9.292
 2483SOL    HW1 7475   0.156   3.103   9.271
 2483SOL    HW2 7476   0.225   3.190   9.390
 2484SOL     OW 7477   0.079   3.102   8.101
 2484SOL    HW1 7478   0.078   3.055   8.189
 2484SOL    HW2 7479   0.161   3.074   8.050
 2485SOL     OW 7480   0.672   3.253   9.072
 2485SOL    HW1 7481   0.594   3.203   9.110
 2485SOL    HW2 7482   0.669   3.348   9.103
 2486SOL     OW 7483   1.824   2.054   8.675
 2486SOL    HW1 7484   1.820   1.964   8.719
 2486SOL    HW2 7485   1.827   2.043   8.576
 2487SOL     OW 7486   0.428   2.286   7.968
 2487SOL    HW1 7487   0.458   2.214   7.906
 2487SOL    HW2 7488   0.389   2.246   8.051
 2488SOL     OW 7489   1.705   3.349   8.552
 2488SOL    HW1 7490   1.612   3.324   8.525
 2488SOL    HW2 7491   1.731   3.299   8.634
 2489SOL     OW 7492   0.317   2.409   8.728
 2489SOL    HW1 7493   0.355   2.350   8.800
 2489SOL    HW2 7494   0.357   2.383   8.640
 2490SOL     OW 7495   0.812   3.448   8.135
 2490SOL    HW1 7496   0.844   3.458   8.041
 2490SOL    HW2 7497   0.733   3.386   8.137
 2491SOL     OW 7498   1.424   2.076   8.560
 2491SOL    HW1 7499   1.476   2.011   8.615
 2491SOL    HW2 7500   1.375   2.139   8.621
 2492SOL     OW 7501   1.001   1.896   8.602
 2492SOL    HW1 7502   0.938   1.824   8.571
 2492SOL    HW2 7503   1.094   1.860   8.602
 2493SOL     OW 7504   0.770   3.192   7.749
 2493SOL    HW1 7505   0.724   3.105   7.766
 2493SOL    HW2 7506   0.861   3.189   7.790
 2494SOL     OW 7507   0.618   3.429   8.732
 2494SOL    HW1 7508   0.613   3.511   8.789
 2494SOL    HW2 7509   0.707   3.426   8.687
 2495SOL     OW 7510   1.352   1.914   7.616
 2495SOL    HW1 7511   1.387   1.873   7.532
 2495SOL    HW2 7512   1.262   1.876   7.636
 2496SOL     OW 7513   1.300   2.315   8.139
 2496SOL    HW1 7514   1.241   2.395   8.143
 2496SOL    HW2 7515   1.315   2.280   8.232
 2497SOL     OW 7516   1.593   2.083   8.330
 2497SOL    HW1 7517   1.509   2.082   8.384
 2497SOL    HW2 7518   1.595   2.166   8.274
 2498SOL     OW 7519   0.039   2.939   7.748
 2498SOL    HW1 7520   0.138   2.928   7.739
 2498SOL    HW2 7521  -0.001   2.853   7.780
 2499SOL     OW 7522   0.875   3.508   7.785
 2499SOL    HW1 7523   0.798   3.473   7.731
 2499SOL    HW2 7524   0.843   3.579   7.847
 2500SOL     OW 7525   0.230   2.490   9.423
 2500SOL    HW1 7526   0.137   2.488   9.460
 2500SOL    HW2 7527   0.231   2.451   9.331
 2501SOL     OW 7528   0.225   2.137  10.306
 2501SOL    HW1 7529   0.260   2.120  10.398
 2501SOL    HW2 7530   0.137   2.092  10.294
 2502SOL     OW 7531   0.019   2.230   9.957
 2502SOL    HW1 7532  -0.063   2.273   9.996
 2502SOL    HW2 7533  -0.009   2.157   9.894
 2503SOL     OW 7534   0.569   3.137  10.475
 2503SOL    HW1 7535   0.476   3.130  10.438
 2503SOL    HW2 7536   0.580   3.226  10.519
 2504SOL     OW 7537   1.555   3.373  10.013
 2504SOL    HW1 7538   1.498   3.357  10.094
 2504SOL    HW2 7539   1.496   3.383   9.933
 2505SOL     OW 7540   1.135   2.565  10.027
 2505SOL    HW1 7541   1.192   2.643  10.002
 2505SOL    HW2 7542   1.075   2.591  10.103
 2506SOL     OW 7543   1.755   2.469   9.541
 2506SOL    HW1 7544   1.743   2.456   9.442
 2506SOL    HW2 7545   1.725   2.388   9.590
 2507SOL     OW 7546   0.768   3.006  10.333
 2507SOL    HW1 7547   0.690   3.023  10.393
 2507SOL    HW2 7548   0.802   3.093  10.297
 2508SOL     OW 7549   0.850   2.660  11.133
 2508SOL    HW1 7550   0.846   2.736  11.198
 2508SOL    HW2 7551   0.872   2.696  11.042
 2509SOL     OW 7552   0.685   2.874   9.975
 2509SOL    HW1 7553   0.754   2.858  10.045
 2509SOL    HW2 7554   0.612   2.931  10.013
 2510SOL     OW 7555   0.686   3.023  11.113
 2510SOL    HW1 7556   0.746   3.102  11.127
 2510SOL    HW2 7557   0.600   3.054  11.072
 2511SOL     OW 7558   0.335   3.297  10.371
 2511SOL    HW1 7559   0.257   3.266  10.318
 2511SOL    HW2 7560   0.393   3.355  10.314
 2512SOL     OW 7561   1.460   3.367  10.649
 2512SOL    HW1 7562   1.484   3.461  10.675
 2512SOL    HW2 7563   1.444   3.313  10.731
 2513SOL     OW 7564   0.438   2.254  10.809
 2513SOL    HW1 7565   0.520   2.198  10.818
 2513SOL    HW2 7566   0.357   2.196  10.813
 2514SOL     OW 7567   1.603   2.309  10.047
 2514SOL    HW1 7568   1.529   2.355   9.997
 2514SOL    HW2 7569   1.654   2.377  10.100
 2515SOL     OW 7570   0.231   3.575   9.793
 2515SOL    HW1 7571   0.265   3.652   9.847
 2515SOL    HW2 7572   0.275   3.575   9.703
 2516SOL     OW 7573   1.127   3.203  11.000
 2516SOL    HW1 7574   1.174   3.203  11.088
 2516SOL    HW2 7575   1.079   3.116  10.989
 2517SOL     OW 7576   0.230   3.296   9.848
 2517SOL    HW1 7577   0.204   3.392   9.848
 2517SOL    HW2 7578   0.159   3.242   9.893
 2518SOL     OW 7579   0.240   2.953  10.196
 2518SOL    HW1 7580   0.254   2.869  10.248
 2518SOL    HW2 7581   0.185   3.017  10.251
 2519SOL     OW 7582   0.620   3.648  10.749
 2519SOL    HW1 7583   0.528   3.631  10.784
 2519SOL    HW2 7584   0.648   3.740  10.775
 2520SOL     OW 7585   0.606   2.826   9.433
 2520SOL    HW1 7586   0.613   2.910   9.379
 2520SOL    HW2 7587   0.652   2.839   9.521
 2521SOL     OW 7588   1.594   1.976  10.790
 2521SOL    HW1 7589   1.576   2.043  10.718
 2521SOL    HW2 7590   1.591   2.022  10.879
 2522SOL     OW 7591   0.122   2.505   9.873
 2522SOL    HW1 7592   0.077   2.417   9.890
 2522SOL    HW2 7593   0.121   2.559   9.957
 2523SOL     OW 7594   1.842   3.629   9.669
 2523SOL    HW1 7595   1.896   3.600   9.749
 2523SOL    HW2 7596   1.872   3.719   9.640
 2524SOL     OW 7597   0.027   3.458   9.427
 2524SOL    HW1 7598   0.008   3.362   9.448
 2524SOL    HW2 7599  -0.006   3.516   9.502
 2525SOL     OW 7600   1.689   2.784   9.922
 2525SOL    HW1 7601   1.784   2.755   9.930
 2525SOL    HW2 7602   1.681   2.849   9.847
 2526SOL     OW 7603   1.641   2.970   9.742
 2526SOL    HW1 7604   1.727   2.972   9.690
 2526SOL    HW2 7605   1.655   3.017   9.830
 2527SOL     OW 7606   0.113   2.599  10.907
 2527SOL    HW1 7607   0.201   2.586  10.952
 2527SOL    HW2 7608   0.100   2.696  10.885
 2528SOL     OW 7609   0.613   3.227  10.036
 2528SOL    HW1 7610   0.564   3.140  10.045
 2528SOL    HW2 7611   0.590   3.270   9.949
 2529SOL     OW 7612   1.293   3.090  10.733
 2529SOL    HW1 7613   1.330   3.017  10.675
 2529SOL    HW2 7614   1.345   3.095  10.818
 2530SOL     OW 7615   0.809   1.866   9.812
 2530SOL    HW1 7616   0.849   1.957   9.803
 2530SOL    HW2 7617   0.709   1.874   9.818
 2531SOL     OW 7618   0.197   2.838  10.574
 2531SOL    HW1 7619   0.286   2.793  10.560
 2531SOL    HW2 7620   0.124   2.773  10.555
 2532SOL     OW 7621   1.525   2.861   9.500
 2532SOL    HW1 7622   1.462   2.785   9.513
 2532SOL    HW2 7623   1.573   2.879   9.586
 2533SOL     OW 7624   1.187   3.654  10.926
 2533SOL    HW1 7625   1.211   3.714  10.850
 2533SOL    HW2 7626   1.194   3.559  10.896
 2534SOL     OW 7627   0.317   2.113  11.111
 2534SOL    HW1 7628   0.388   2.184  11.117
 2534SOL    HW2 7629   0.229   2.152  11.139
 2535SOL     OW 7630   1.466   3.279  10.263
 2535SOL    HW1 7631   1.407   3.285  10.343
 2535SOL    HW2 7632   1.451   3.191  10.217
 2536SOL     OW 7633   1.667   3.576   9.882
 2536SOL    HW1 7634   1.626   3.553   9.794
 2536SOL    HW2 7635   1.649   3.502   9.947
 2537SOL     OW 7636   0.598   2.591   9.580
 2537SOL    HW1 7637   0.622   2.660   9.512
 2537SOL    HW2 7638   0.520   2.624   9.634
 2538SOL     OW 7639   1.281   2.207  10.254
 2538SOL    HW1 7640   1.195   2.157  10.241
 2538SOL    HW2 7641   1.343   2.153  10.310
 2539SOL     OW 7642   1.576   3.524   9.617
 2539SOL    HW1 7643   1.665   3.570   9.620
 2539SOL    HW2 7644   1.555   3.500   9.522
 2540SOL     OW 7645   0.807   2.467  10.775
 2540SOL    HW1 7646   0.760   2.464  10.864
 2540SOL    HW2 7647   0.756   2.412  10.709
 2541SOL     OW 7648   1.394   2.331  10.984
 2541SOL    HW1 7649   1.374   2.374  11.072
 2541SOL    HW2 7650   1.472   2.269  10.993
 2542SOL     OW 7651   0.973   2.752  10.882
 2542SOL    HW1 7652   1.019   2.668  10.853
 2542SOL    HW2 7653   0.917   2.786  10.807
 2543SOL     OW 7654   0.991   2.272  10.552
 2543SOL    HW1 7655   0.914   2.306  10.606
 2543SOL    HW2 7656   0.957   2.221  10.473
 2544SOL     OW 7657   1.041   2.563   9.739
 2544SOL    HW1 7658   1.067   2.559   9.835
 2544SOL    HW2 7659   0.956   2.512   9.725
 2545SOL     OW 7660   0.076   2.673  10.099
 2545SOL    HW1 7661   0.175   2.661  10.108
 2545SOL    HW2 7662   0.052   2.768  10.120
 2546SOL     OW 7663   0.130   3.683  10.881
 2546SOL    HW1 7664   0.120   3.668  10.980
 2546SOL    HW2 7665   0.044   3.719  10.845
 2547SOL     OW 7666   0.865   2.210   9.505
 2547SOL    HW1 7667   0.924   2.273   9.456
 2547SOL    HW2 7668   0.884   2.116   9.476
 2548SOL     OW 7669   1.719   2.447  11.141
 2548SOL    HW1 7670   1.693   2.536  11.105
 2548SOL    HW2 7671   1.717   2.379  11.068
 2549SOL     OW 7672   1.362   3.006   9.855
 2549SOL    HW1 7673   1.445   2.977   9.807
 2549SOL    HW2 7674   1.313   3.073   9.799
 2550SOL     OW 7675   0.550   2.058  10.195
 2550SOL    HW1 7676   0.545   2.053  10.295
 2550SOL    HW2 7677   0.552   2.154  10.166
 2551SOL     OW 7678   1.008   3.318   9.787
 2551SOL    HW1 7679   0.962   3.390   9.735
 2551SOL    HW2 7680   1.004   3.338   9.885
 2552SOL     OW 7681   0.351   3.663  10.163
 2552SOL    HW1 7682   0.401   3.577  10.169
 2552SOL    HW2 7683   0.416   3.740  10.160
 2553SOL     OW 7684   1.795   2.928  10.183
 2553SOL    HW1 7685   1.733   2.913  10.107
 2553SOL    HW2 7686   1.743   2.939  10.268
 2554SOL     OW 7687   1.227   3.412  10.816
 2554SOL    HW1 7688   1.233   3.335  10.880
 2554SOL    HW2 7689   1.175   3.386  10.736
 2555SOL     OW 7690   0.321   2.805   9.552
 2555SOL    HW1 7691   0.403   2.844   9.510
 2555SOL    HW2 7692   0.294   2.723   9.503
 2556SOL     OW 7693   1.458   2.597  10.038
 2556SOL    HW1 7694   1.453   2.532  10.113
 2556SOL    HW2 7695   1.538   2.656  10.051
 2557SOL     OW 7696   0.461   3.128  11.037
 2557SOL    HW1 7697   0.411   3.129  10.951
 2557SOL    HW2 7698   0.398   3.110  11.113
 2558SOL     OW 7699   1.111   3.638   9.547
 2558SOL    HW1 7700   1.051   3.576   9.597
 2558SOL    HW2 7701   1.142   3.594   9.462
 2559SOL     OW 7702   0.202   2.147  10.808
 2559SOL    HW1 7703   0.122   2.207  10.795
 2559SOL    HW2 7704   0.192   2.098  10.894
 2560SOL     OW 7705   1.632   3.239   9.391
 2560SOL    HW1 7706   1.600   3.333   9.381
 2560SOL    HW2 7707   1.556   3.176   9.379
 2561SOL     OW 7708   0.464   3.605   9.633
 2561SOL    HW1 7709   0.497   3.644   9.719
 2561SOL    HW2 7710   0.540   3.598   9.568
 2562SOL     OW 7711   1.400   1.969   9.736
 2562SOL    HW1 7712   1.376   1.932   9.646
 2562SOL    HW2 7713   1.499   1.985   9.740
 2563SOL     OW 7714   0.249   3.647  10.551
 2563SOL    HW1 7715   0.306   3.582  10.601
 2563SOL    HW2 7716   0.233   3.614  10.458
 2564SOL     OW 7717   0.940   3.560  10.214
 2564SOL    HW1 7718   1.020   3.503  10.235
 2564SOL    HW2 7719   0.891   3.520  10.137
 2565SOL     OW 7720   0.382   2.562   9.790
 2565SOL    HW1 7721   0.427   2.472   9.787
 2565SOL    HW2 7722   0.288   2.551   9.823
 2566SOL     OW 7723   1.547   2.084  11.039
 2566SOL    HW1 7724   1.542   2.121  11.131
 2566SOL    HW2 7725   1.475   2.015  11.027
 2567SOL     OW 7726   0.614   1.984   9.427
 2567SOL    HW1 7727   0.712   1.962   9.434
 2567SOL    HW2 7728   0.583   1.967   9.334
 2568SOL     OW 7729   0.781   2.126  11.059
 2568SOL    HW1 7730   0.848   2.065  11.102
 2568SOL    HW2 7731   0.708   2.145  11.124
 2569SOL     OW 7732   0.888   3.376  10.505
 2569SOL    HW1 7733   0.865   3.351  10.411
 2569SOL    HW2 7734   0.949   3.307  10.544
 2570SOL     OW 7735   1.351   2.452  10.743
 2570SOL    HW1 7736   1.379   2.409  10.828
 2570SOL    HW2 7737   1.376   2.548  10.744
 2571SOL     OW 7738   0.803   3.264  10.234
 2571SOL    HW1 7739   0.893   3.278  10.192
 2571SOL    HW2 7740   0.732   3.266  10.163
 2572SOL     OW 7741   0.922   2.365  10.209
 2572SOL    HW1 7742   0.897   2.356  10.113
 2572SOL    HW2 7743   0.970   2.283  10.240
 2573SOL     OW 7744   0.539   1.926   9.822
 2573SOL    HW1 7745   0.458   1.927   9.880
 2573SOL    HW2 7746   0.542   2.009   9.767
 2574SOL     OW 7747   1.434   3.050   9.351
 2574SOL    HW1 7748   1.466   2.974   9.408
 2574SOL    HW2 7749   1.342   3.077   9.381
 2575SOL     OW 7750   0.297   1.897   9.481
 2575SOL    HW1 7751   0.346   1.981   9.460
 2575SOL    HW2 7752   0.359   1.832   9.526
 2576SOL     OW 7753   0.935   2.098   9.790
 2576SOL    HW1 7754   0.887   2.139   9.712
 2576SOL    HW2 7755   1.034   2.096   9.771
 2577SOL     OW 7756   1.076   2.545  10.774
 2577SOL    HW1 7757   0.996   2.484  10.777
 2577SOL    HW2 7758   1.157   2.492  10.750
 2578SOL     OW 7759   1.227   3.432  10.103
 2578SOL    HW1 7760   1.248   3.506  10.038
 2578SOL    HW2 7761   1.295   3.432  10.176
 2579SOL     OW 7762   0.459   3.014  10.051
 2579SOL    HW1 7763   0.388   2.987  10.116
 2579SOL    HW2 7764   0.433   2.986   9.958
 2580SOL     OW 7765   1.271   3.659   9.901
 2580SOL    HW1 7766   1.315   3.723   9.837
 2580SOL    HW2 7767   1.221   3.711   9.971
 2581SOL     OW 7768   1.032   2.411   9.326
 2581SOL    HW1 7769   0.991   2.493   9.287
 2581SOL    HW2 7770   1.096   2.437   9.399
 2582SOL     OW 7771   0.078   2.418  10.696
 2582SOL    HW1 7772   0.170   2.417  10.655
 2582SOL    HW2 7773   0.072   2.492  10.763
 2583SOL     OW 7774   0.561   2.084  10.457
 2583SOL    HW1 7775   0.599   2.000  10.494
 2583SOL    HW2 7776   0.473   2.103  10.501
 2584SOL     OW 7777   0.866   2.316   9.952
 2584SOL    HW1 7778   0.834   2.388   9.890
 2584SOL    HW2 7779   0.890   2.235   9.899
 2585SOL     OW 7780   1.017   1.901  10.063
 2585SOL    HW1 7781   0.945   1.906   9.994
 2585SOL    HW2 7782   0.993   1.832  10.132
 2586SOL     OW 7783   1.429   3.035  10.177
 2586SOL    HW1 7784   1.374   2.951  10.170
 2586SOL    HW2 7785   1.455   3.064  10.085
 2587SOL     OW 7786   1.466   2.452  10.302
 2587SOL    HW1 7787   1.436   2.357  10.309
 2587SOL    HW2 7788   1.539   2.468  10.368
 2588SOL     OW 7789   1.857   2.695   9.687
 2588SOL    HW1 7790   1.899   2.631   9.751
 2588SOL    HW2 7791   1.819   2.644   9.609
 2589SOL     OW 7792   0.488   3.247   9.484
 2589SOL    HW1 7793   0.401   3.232   9.531
 2589SOL    HW2 7794   0.471   3.273   9.389
 2590SOL     OW 7795   1.664   3.142   9.967
 2590SOL    HW1 7796   1.763   3.150   9.981
 2590SOL    HW2 7797   1.619   3.226   9.998
 2591SOL     OW 7798   1.390   2.437   9.388
 2591SOL    HW1 7799   1.336   2.416   9.469
 2591SOL    HW2 7800   1.481   2.396   9.397
 2592SOL     OW 7801   0.527   2.118   9.638
 2592SOL    HW1 7802   0.554   2.059   9.563
 2592SOL    HW2 7803   0.527   2.213   9.607
 2593SOL     OW 7804   1.754   3.085  10.898
 2593SOL    HW1 7805   1.845   3.046  10.885
 2593SOL    HW2 7806   1.762   3.181  10.922
 2594SOL     OW 7807   1.064   3.209  10.650
 2594SOL    HW1 7808   0.984   3.186  10.705
 2594SOL    HW2 7809   1.147   3.183  10.699
 2595SOL     OW 7810   1.592   3.491  10.935
 2595SOL    HW1 7811   1.619   3.525  10.845
 2595SOL    HW2 7812   1.671   3.453  10.981
 2596SOL     OW 7813   1.111   3.057  10.410
 2596SOL    HW1 7814   1.071   3.101  10.491
 2596SOL    HW2 7815   1.070   3.094  10.327
 2597SOL     OW 7816   1.638   2.961  10.389
 2597SOL    HW1 7817   1.643   3.042  10.448
 2597SOL    HW2 7818   1.552   2.963  10.338
 2598SOL     OW 7819   0.915   1.951  10.712
 2598SOL    HW1 7820   0.940   1.931  10.617
 2598SOL    HW2 7821   0.987   2.007  10.754
 2599SOL     OW 7822   0.980   2.978  11.029
 2599SOL    HW1 7823   0.881   2.984  11.039
 2599SOL    HW2 7824   1.003   2.898  10.973
 2600SOL     OW 7825   0.705   2.912   9.678
 2600SOL    HW1 7826   0.691   2.919   9.777
 2600SOL    HW2 7827   0.789   2.861   9.660
 2601SOL     OW 7828   0.410   2.675  10.561
 2601SOL    HW1 7829   0.496   2.687  10.611
 2601SOL    HW2 7830   0.368   2.588  10.588
 2602SOL     OW 7831   1.274   2.248  10.572
 2602SOL    HW1 7832   1.295   2.322  10.636
 2602SOL    HW2 7833   1.185   2.265  10.529
 2603SOL     OW 7834   0.064   3.426  10.641
 2603SOL    HW1 7835   0.018   3.508  10.607
 2603SOL    HW2 7836   0.162   3.445  10.650
 2604SOL     OW 7837   0.367   2.962   9.811
 2604SOL    HW1 7838   0.360   3.045   9.755
 2604SOL    HW2 7839   0.371   2.882   9.751
 2605SOL     OW 7840   0.566   2.399  10.175
 2605SOL    HW1 7841   0.578   2.465  10.101
 2605SOL    HW2 7842   0.612   2.433  10.258
 2606SOL     OW 7843   1.252   3.210   9.698
 2606SOL    HW1 7844   1.302   3.287   9.738
 2606SOL    HW2 7845   1.157   3.212   9.730
 2607SOL     OW 7846   1.272   3.307  10.452
 2607SOL    HW1 7847   1.319   3.320  10.539
 2607SOL    HW2 7848   1.206   3.233  10.461
 2608SOL     OW 7849   1.582   2.501   9.782
 2608SOL    HW1 7850   1.551   2.562   9.855
 2608SOL    HW2 7851   1.632   2.553   9.713
 2609SOL     OW 7852   0.354   3.372  10.639
 2609SOL    HW1 7853   0.333   3.328  10.552
 2609SOL    HW2 7854   0.451   3.398  10.642
 2610SOL     OW 7855   0.402   2.613  10.908
 2610SOL    HW1 7856   0.470   2.668  10.861
 2610SOL    HW2 7857   0.442   2.525  10.935
 2611SOL     OW 7858   1.587   2.641  10.980
 2611SOL    HW1 7859   1.495   2.679  10.975
 2611SOL    HW2 7860   1.647   2.688  10.915
 2612SOL     OW 7861   1.013   1.967  11.080
 2612SOL    HW1 7862   1.019   2.052  11.028
 2612SOL    HW2 7863   1.045   1.891  11.023
 2613SOL     OW 7864   0.504   1.912  11.050
 2613SOL    HW1 7865   0.462   1.855  10.980
 2613SOL    HW2 7866   0.438   1.981  11.082
 2614SOL     OW 7867   0.573   2.732  10.339
 2614SOL    HW1 7868   0.617   2.821  10.330
 2614SOL    HW2 7869   0.510   2.732  10.416
 2615SOL     OW 7870   1.360   2.724  10.355
 2615SOL    HW1 7871   1.285   2.724  10.289
 2615SOL    HW2 7872   1.397   2.632  10.364
 2616SOL     OW 7873   1.209   2.387   9.585
 2616SOL    HW1 7874   1.222   2.303   9.639
 2616SOL    HW2 7875   1.180   2.461   9.645
 2617SOL     OW 7876   0.307   2.075  10.541
 2617SOL    HW1 7877   0.284   2.112  10.631
 2617SOL    HW2 7878   0.277   1.980  10.535
 2618SOL     OW 7879   0.037   3.172  10.592
 2618SOL    HW1 7880   0.090   3.123  10.660
 2618SOL    HW2 7881   0.059   3.270  10.597
 2619SOL     OW 7882   0.732   2.496  10.374
 2619SOL    HW1 7883   0.791   2.470  10.298
 2619SOL    HW2 7884   0.704   2.592  10.363
 2620SOL     OW 7885   1.728   2.797  11.164
 2620SOL    HW1 7886   1.682   2.790  11.075
 2620SOL    HW2 7887   1.666   2.841  11.230
 2621SOL     OW 7888   0.307   1.925   9.928
 2621SOL    HW1 7889   0.296   2.019   9.961
 2621SOL    HW2 7890   0.302   1.862  10.005
 2622SOL     OW 7891   1.622   2.229   9.684
 2622SOL    HW1 7892   1.624   2.153   9.748
 2622SOL    HW2 7893   1.574   2.306   9.724
 2623SOL     OW 7894   1.023   2.628  10.276
 2623SOL    HW1 7895   1.038   2.649  10.372
 2623SOL    HW2 7896   0.993   2.533  10.267
 2624SOL     OW 7897   0.980   3.435  11.010
 2624SOL    HW1 7898   0.960   3.479  10.922
 2624SOL    HW2 7899   1.019   3.344  10.994
 2625SOL     OW 7900   1.859   3.380  10.915
 2625SOL    HW1 7901   1.873   3.407  10.820
 2625SOL    HW2 7902   1.942   3.402  10.968
 2626SOL     OW 7903   0.350   2.760  11.114
 2626SOL    HW1 7904   0.426   2.804  11.162
 2626SOL    HW2 7905   0.385   2.713  11.032
 2627SOL     OW 7906   1.540   2.136   9.435
 2627SOL    HW1 7907   1.479   2.061   9.458
 2627SOL    HW2 7908   1.562   2.188   9.518
 2628SOL     OW 7909   1.303   2.700   9.352
 2628SOL    HW1 7910   1.337   2.607   9.367
 2628SOL    HW2 7911   1.321   2.727   9.257
 2629SOL     OW 7912   1.068   3.195  10.159
 2629SOL    HW1 7913   1.075   3.111  10.104
 2629SOL    HW2 7914   1.130   3.264  10.123
 2630SOL     OW 7915   0.319   2.672  10.259
 2630SOL    HW1 7916   0.412   2.708  10.264
 2630SOL    HW2 7917   0.313   2.587  10.311
 2631SOL     OW 7918   0.339   2.371  10.316
 2631SOL    HW1 7919   0.287   2.288  10.299
 2631SOL    HW2 7920   0.416   2.376  10.252
 2632SOL     OW 7921   1.138   2.242  10.988
 2632SOL    HW1 7922   1.093   2.305  11.052
 2632SOL    HW2 7923   1.231   2.273  10.971
 2633SOL     OW 7924   1.160   2.069  10.787
 2633SOL    HW1 7925   1.160   2.133  10.864
 2633SOL    HW2 7926   1.188   2.117  10.704
 2634SOL     OW 7927   0.008   3.188   9.510
 2634SOL    HW1 7928  -0.085   3.209   9.479
 2634SOL    HW2 7929   0.018   3.089   9.523
 2635SOL     OW 7930   0.088   3.663  10.237
 2635SOL    HW1 7931   0.046   3.577  10.210
 2635SOL    HW2 7932   0.182   3.666  10.203
 2636SOL     OW 7933   0.504   3.430  10.220
 2636SOL    HW1 7934   0.570   3.504  10.229
 2636SOL    HW2 7935   0.548   3.351  10.178
 2637SOL     OW 7936   1.002   2.658  10.548
 2637SOL    HW1 7937   1.043   2.626  10.634
 2637SOL    HW2 7938   0.906   2.631  10.545
 2638SOL     OW 7939   0.040   2.406  10.424
 2638SOL    HW1 7940   0.125   2.373  10.383
 2638SOL    HW2 7941   0.053   2.421  10.522
 2639SOL     OW 7942   0.189   2.382  11.032
 2639SOL    HW1 7943   0.248   2.342  10.962
 2639SOL    HW2 7944   0.131   2.453  10.991
 2640SOL     OW 7945   1.369   2.812  10.970
 2640SOL    HW1 7946   1.408   2.901  10.990
 2640SOL    HW2 7947   1.379   2.792  10.873
 2641SOL     OW 7948   0.815   2.434   9.635
 2641SOL    HW1 7949   0.822   2.345   9.589
 2641SOL    HW2 7950   0.721   2.468   9.627
 2642SOL     OW 7951   1.657   2.466  10.516
 2642SOL    HW1 7952   1.619   2.397  10.578
 2642SOL    HW2 7953   1.739   2.430  10.472
 2643SOL     OW 7954   0.252   3.426  11.054
 2643SOL    HW1 7955   0.222   3.483  11.130
 2643SOL    HW2 7956   0.245   3.329  11.080
 2644SOL     OW 7957   0.671   2.326  10.579
 2644SOL    HW1 7958   0.637   2.237  10.549
 2644SOL    HW2 7959   0.697   2.380  10.499
 2645SOL     OW 7960   0.930   3.540  10.775
 2645SOL    HW1 7961   0.906   3.522  10.680
 2645SOL    HW2 7962   0.960   3.634  10.785
 2646SOL     OW 7963   0.473   2.362   9.501
 2646SOL    HW1 7964   0.534   2.442   9.505
 2646SOL    HW2 7965   0.378   2.393   9.508
 2647SOL     OW 7966   0.159   2.999  10.776
 2647SOL    HW1 7967   0.181   2.938  10.852
 2647SOL    HW2 7968   0.169   2.950  10.690
 2648SOL     OW 7969   1.347   2.921  10.544
 2648SOL    HW1 7970   1.371   2.858  10.470
 2648SOL    HW2 7971   1.257   2.961  10.526
 2649SOL     OW 7972   1.302   2.717   9.619
 2649SOL    HW1 7973   1.216   2.686   9.661
 2649SOL    HW2 7974   1.298   2.703   9.520
 2650SOL     OW 7975   1.759   3.609  10.464
 2650SOL    HW1 7976   1.820   3.639  10.391
 2650SOL    HW2 7977   1.721   3.520  10.442
 2651SOL     OW 7978   1.252   3.593  10.438
 2651SOL    HW1 7979   1.336   3.598  10.384
 2651SOL    HW2 7980   1.229   3.497  10.456
 2652SOL     OW 7981   0.083   3.120  10.332
 2652SOL    HW1 7982   0.078   3.119  10.432
 2652SOL    HW2 7983   0.000   3.079  10.294
 2653SOL     OW 7984   0.688   3.524  11.026
 2653SOL    HW1 7985   0.632   3.605  11.035
 2653SOL    HW2 7986   0.740   3.528  10.940
 2654SOL     OW 7987   1.726   1.997   9.833
 2654SOL    HW1 7988   1.799   1.980   9.766
 2654SOL    HW2 7989   1.695   1.910   9.871
 2655SOL     OW 7990   1.388   3.435   9.787
 2655SOL    HW1 7991   1.455   3.447   9.713
 2655SOL    HW2 7992   1.348   3.524   9.810
 2656SOL     OW 7993   0.130   3.656  11.161
 2656SOL    HW1 7994   0.089   3.582  11.214
 2656SOL    HW2 7995   0.194   3.707  11.219
 2657SOL     OW 7996   1.280   2.789   9.982
 2657SOL    HW1 7997   1.340   2.708   9.984
 2657SOL    HW2 7998   1.320   2.858   9.922
 2658SOL     OW 7999   0.830   3.135  10.732
 2658SOL    HW1 8000   0.825   3.168  10.827
 2658SOL    HW2 8001   0.744   3.154  10.686
 2659SOL     OW 8002   0.672   3.478   9.464
 2659SOL    HW1 8003   0.681   3.488   9.365
 2659SOL    HW2 8004   0.632   3.389   9.485
 2660SOL     OW 8005   1.650   3.582  10.704
 2660SOL    HW1 8006   1.703   3.592  10.620
 2660SOL    HW2 8007   1.623   3.672  10.738
 2661SOL     OW 8008   1.841   2.037  10.273
 2661SOL    HW1 8009   1.880   1.952  10.237
 2661SOL    HW2 8010   1.743   2.039  10.254
 2662SOL     OW 8011   0.263   2.188  10.030
 2662SOL    HW1 8012   0.184   2.239   9.996
 2662SOL    HW2 8013   0.254   2.173  10.128
 2663SOL     OW 8014   1.194   3.474   9.341
 2663SOL    HW1 8015   1.200   3.381   9.378
 2663SOL    HW2 8016   1.135   3.474   9.261
 2664SOL     OW 8017   0.822   2.864  10.682
 2664SOL    HW1 8018   0.862   2.863  10.590
 2664SOL    HW2 8019   0.832   2.956  10.722
 2665SOL     OW 8020   0.916   2.772   9.601
 2665SOL    HW1 8021   0.979   2.810   9.533
 2665SOL    HW2 8022   0.956   2.689   9.640
 2666SOL     OW 8023   1.504   3.469   9.354
 2666SOL    HW1 8024   1.412   3.506   9.361
 2666SOL    HW2 8025   1.542   3.489   9.264
 2667SOL     OW 8026   0.372   3.150  10.800
 2667SOL    HW1 8027   0.359   3.243  10.766
 2667SOL    HW2 8028   0.288   3.098  10.787
 2668SOL     OW 8029   1.614   3.154  10.599
 2668SOL    HW1 8030   1.674   3.157  10.679
 2668SOL    HW2 8031   1.539   3.218  10.612
 2669SOL     OW 8032   1.039   2.960  10.006
 2669SOL    HW1 8033   0.969   2.913  10.060
 2669SOL    HW2 8034   1.098   2.892   9.963
 2670SOL     OW 8035   1.014   2.098  10.281
 2670SOL    HW1 8036   1.006   2.062  10.188
 2670SOL    HW2 8037   1.012   2.022  10.346
 2671SOL     OW 8038   0.590   3.349   9.801
 2671SOL    HW1 8039   0.632   3.291   9.731
 2671SOL    HW2 8040   0.546   3.428   9.757
 2672SOL     OW 8041   1.709   2.247  10.691
 2672SOL    HW1 8042   1.782   2.316  10.695
 2672SOL    HW2 8043   1.737   2.172  10.632
 2673SOL     OW 8044   0.255   3.210   9.600
 2673SOL    HW1 8045   0.159   3.211   9.573
 2673SOL    HW2 8046   0.267   3.263   9.684
 2674SOL     OW 8047   0.105   2.875  11.036
 2674SOL    HW1 8048   0.028   2.842  11.090
 2674SOL    HW2 8049   0.190   2.845  11.078
 2675SOL     OW 8050   0.672   2.065  10.799
 2675SOL    HW1 8051   0.762   2.049  10.759
 2675SOL    HW2 8052   0.680   2.070  10.898
 2676SOL     OW 8053   0.075   2.207   9.343
 2676SOL    HW1 8054  -0.017   2.179   9.314
 2676SOL    HW2 8055   0.106   2.284   9.287
 2677SOL     OW 8056   1.440   2.718  10.708
 2677SOL    HW1 8057   1.383   2.770  10.645
 2677SOL    HW2 8058   1.536   2.730  10.684
 2678SOL     OW 8059   0.072   2.028   9.628
 2678SOL    HW1 8060   0.055   2.111   9.574
 2678SOL    HW2 8061   0.162   1.991   9.606
 2679SOL     OW 8062   1.183   3.197   9.429
 2679SOL    HW1 8063   1.084   3.186   9.431
 2679SOL    HW2 8064   1.217   3.212   9.522
 2680SOL     OW 8065   0.613   2.704  10.741
 2680SOL    HW1 8066   0.669   2.785  10.724
 2680SOL    HW2 8067   0.672   2.624  10.744
 2681SOL     OW 8068   1.493   3.629  10.269
 2681SOL    HW1 8069   1.526   3.693  10.200
 2681SOL    HW2 8070   1.559   3.623  10.344
 2682SOL     OW 8071   0.716   2.427  11.018
 2682SOL    HW1 8072   0.735   2.492  11.092
 2682SOL    HW2 8073   0.776   2.347  11.027
 2683SOL     OW 8074   1.450   3.082  10.943
 2683SOL    HW1 8075   1.441   3.072  11.042
 2683SOL    HW2 8076   1.546   3.075  10.917
 2684SOL     OW 8077   0.390   3.603  10.870
 2684SOL    HW1 8078   0.299   3.644  10.868
 2684SOL    HW2 8079   0.383   3.509  10.902
 2685SOL     OW 8080   1.674   2.745  10.564
 2685SOL    HW1 8081   1.647   2.656  10.527
 2685SOL    HW2 8082   1.675   2.813  10.491
 2686SOL     OW 8083   1.225   2.187   9.759
 2686SOL    HW1 8084   1.290   2.113   9.748
 2686SOL    HW2 8085   1.245   2.237   9.843
 2687SOL     OW 8086   0.594   2.607   9.962
 2687SOL    HW1 8087   0.644   2.692   9.943
 2687SOL    HW2 8088   0.506   2.609   9.914
 2688SOL     OW 8089   1.777   2.204  10.952
 2688SOL    HW1 8090   1.760   2.235  10.858
 2688SOL    HW2 8091   1.693   2.167  10.990
 2689SOL     OW 8092   1.730   2.796  10.827
 2689SOL    HW1 8093   1.768   2.887  10.842
 2689SOL    HW2 8094   1.722   2.779  10.728
 2690SOL     OW 8095   0.859   3.236   9.326
 2690SOL    HW1 8096   0.813   3.251   9.414
 2690SOL    HW2 8097   0.903   3.321   9.296
 2691SOL     OW 8098   0.661   3.652  10.263
 2691SOL    HW1 8099   0.615   3.740  10.250
 2691SOL    HW2 8100   0.760   3.664  10.256
 2692SOL     OW 8101   0.859   2.818  10.171
 2692SOL    HW1 8102   0.913   2.749  10.219
 2692SOL    HW2 8103   0.827   2.887  10.237
 2693SOL     OW 8104   1.083   2.846   9.397
 2693SOL    HW1 8105   1.060   2.899   9.315
 2693SOL    HW2 8106   1.164   2.790   9.378
 2694SOL     OW 8107   1.861   3.431  10.161
 2694SOL    HW1 8108   1.790   3.419  10.091
 2694SOL    HW2 8109   1.862   3.352  10.221
 2695SOL     OW 8110   0.221   3.176  11.154
 2695SOL    HW1 8111   0.156   3.103  11.133
 2695SOL    HW2 8112   0.225   3.190  11.252
 2696SOL     OW 8113   0.079   3.102   9.963
 2696SOL    HW1 8114   0.078   3.055  10.051
 2696SOL    HW2 8115   0.161   3.074   9.912
 2697SOL     OW 8116   0.672   3.253  10.934
 2697SOL    HW1 8117   0.594   3.203  10.972
 2697SOL    HW2 8118   0.669   3.348  10.965
 2698SOL     OW 8119   1.824   2.054  10.537
 2698SOL    HW1 8120   1.820   1.964  10.581
 2698SOL    HW2 8121   1.827   2.043  10.438
 2699SOL     OW 8122   0.428   2.286   9.830
 2699SOL    HW1 8123   0.458   2.214   9.768
 2699SOL    HW2 8124   0.389   2.246   9.913
 2700SOL     OW 8125   1.705   3.349  10.414
 2700SOL    HW1 8126   1.612   3.324  10.387
 2700SOL    HW2 8127   1.731   3.299  10.496
 2701SOL     OW 8128   0.317   2.409  10.590
 2701SOL    HW1 8129   0.355   2.350  10.662
 2701SOL    HW2 8130   0.357   2.383  10.502
 2702SOL     OW 8131   0.812   3.448   9.997
 2702SOL    HW1 8132   0.844   3.458   9.903
 2702SOL    HW2 8133   0.733   3.386   9.999
 2703SOL     OW 8134   1.424   2.076  10.422
 2703SOL    HW1 8135   1.476   2.011  10.477
 2703SOL    HW2 8136   1.375   2.139  10.483
 2704SOL     OW 8137   1.001   1.896  10.464
 2704SOL    HW1 8138   0.938   1.824  10.433
 2704SOL    HW2 8139   1.094   1.860  10.464
 2705SOL     OW 8140   0.770   3.192   9.611
 2705SOL    HW1 8141   0.724   3.105   9.628
 2705SOL    HW2 8142   0.861   3.189   9.652
 2706SOL     OW 8143   0.618   3.429  10.594
 2706SOL    HW1 8144   0.613   3.511  10.651
 2706SOL    HW2 8145   0.707   3.426  10.549
 2707SOL     OW 8146   1.352   1.914   9.478
 2707SOL    HW1 8147   1.387   1.873   9.394
 2707SOL    HW2 8148   1.262   1.876   9.498
 2708SOL     OW 8149   1.300   2.315  10.001
 2708SOL    HW1 8150   1.241   2.395  10.005
 2708SOL    HW2 8151   1.315   2.280  10.094
 2709SOL     OW 8152   1.593   2.083  10.192
 2709SOL    HW1 8153   1.509   2.082  10.246
 2709SOL    HW2 8154   1.595   2.166  10.136
 2710SOL     OW 8155   0.039   2.939   9.610
 2710SOL    HW1 8156   0.138   2.928   9.601
 2710SOL    HW2 8157  -0.001   2.853   9.642
 2711SOL     OW 8158   0.875   3.508   9.647
 2711SOL    HW1 8159   0.798   3.473   9.593
 2711SOL    HW2 8160   0.843   3.579   9.709
 2712SOL     OW 8161   0.230   2.490  11.285
 2712SOL    HW1 8162   0.137   2.488  11.322
 2712SOL    HW2 8163   0.231   2.451  11.193
 2713SOL     OW 8164   0.225   2.137  12.168
 2713SOL    HW1 8165   0.260   2.120  12.260
 2713SOL    HW2 8166   0.137   2.092  12.156
 2714SOL     OW 8167   0.019   2.230  11.819
 2714SOL    HW1 8168  -0.063   2.273  11.858
 2714SOL    HW2 8169  -0.009   2.157  11.756
 2715SOL     OW 8170   0.569   3.137  12.337
 2715SOL    HW1 8171   0.476   3.130  12.300
 2715SOL    HW2 8172   0.580   3.226  12.381
 2716SOL     OW 8173   1.555   3.373  11.875
 2716SOL    HW1 8174   1.498   3.357  11.956
 2716SOL    HW2 8175   1.496   3.383  11.795
 2717SOL     OW 8176   1.135   2.565  11.889
 2717SOL    HW1 8177   1.192   2.643  11.864
 2717SOL    HW2 8178   1.075   2.591  11.965
 2718SOL     OW 8179   1.755   2.469  11.403
 2718SOL    HW1 8180   1.743   2.456  11.304
 2718SOL    HW2 8181   1.725   2.388  11.452
 2719SOL     OW 8182   0.768   3.006  12.195
 2719SOL    HW1 8183   0.690   3.023  12.255
 2719SOL    HW2 8184   0.802   3.093  12.159
 2720SOL     OW 8185   0.685   2.874  11.837
 2720SOL    HW1 8186   0.754   2.858  11.907
 2720SOL    HW2 8187   0.612   2.931  11.875
 2721SOL     OW 8188   0.335   3.297  12.233
 2721SOL    HW1 8189   0.257   3.266  12.180
 2721SOL    HW2 8190   0.393   3.355  12.176
 2722SOL     OW 8191   1.460   3.367  12.511
 2722SOL    HW1 8192   1.484   3.461  12.537
 2722SOL    HW2 8193   1.444   3.313  12.593
 2723SOL     OW 8194   0.438   2.254  12.671
 2723SOL    HW1 8195   0.520   2.198  12.680
 2723SOL    HW2 8196   0.357   2.196  12.675
 2724SOL     OW 8197   1.603   2.309  11.909
 2724SOL    HW1 8198   1.529   2.355  11.859
 2724SOL    HW2 8199   1.654   2.377  11.962
 2725SOL     OW 8200   0.231   3.575  11.655
 2725SOL    HW1 8201   0.265   3.652  11.709
 2725SOL    HW2 8202   0.275   3.575  11.565
 2726SOL     OW 8203   0.230   3.296  11.710
 2726SOL    HW1 8204   0.204   3.392  11.710
 2726SOL    HW2 8205   0.159   3.242  11.755
 2727SOL     OW 8206   0.240   2.953  12.058
 2727SOL    HW1 8207   0.254   2.869  12.110
 2727SOL    HW2 8208   0.185   3.017  12.113
 2728SOL     OW 8209   0.620   3.648  12.611
 2728SOL    HW1 8210   0.528   3.631  12.646
 2728SOL    HW2 8211   0.648   3.740  12.637
 2729SOL     OW 8212   0.606   2.826  11.295
 2729SOL    HW1 8213   0.613   2.910  11.241
 2729SOL    HW2 8214   0.652   2.839  11.383
 2730SOL     OW 8215   1.594   1.976  12.652
 2730SOL    HW1 8216   1.576   2.043  12.580
 2730SOL    HW2 8217   1.591   2.022  12.741
 2731SOL     OW 8218   0.122   2.505  11.735
 2731SOL    HW1 8219   0.077   2.417  11.752
 2731SOL    HW2 8220   0.121   2.559  11.819
 2732SOL     OW 8221   1.842   3.629  11.531
 2732SOL    HW1 8222   1.896   3.600  11.611
 2732SOL    HW2 8223   1.872   3.719  11.502
 2733SOL     OW 8224   0.027   3.458  11.289
 2733SOL    HW1 8225   0.008   3.362  11.310
 2733SOL    HW2 8226  -0.006   3.516  11.364
 2734SOL     OW 8227   1.689   2.784  11.784
 2734SOL    HW1 8228   1.784   2.755  11.792
 2734SOL    HW2 8229   1.681   2.849  11.709
 2735SOL     OW 8230   1.641   2.970  11.604
 2735SOL    HW1 8231   1.727   2.972  11.552
 2735SOL    HW2 8232   1.655   3.017  11.692
 2736SOL     OW 8233   0.613   3.227  11.898
 2736SOL    HW1 8234   0.564   3.140  11.907
 2736SOL    HW2 8235   0.590   3.270  11.811
 2737SOL     OW 8236   0.809   1.866  11.674
 2737SOL    HW1 8237   0.849   1.957  11.665
 2737SOL    HW2 8238   0.709   1.874  11.680
 2738SOL     OW 8239   0.197   2.838  12.436
 2738SOL    HW1 8240   0.286   2.793  12.422
 2738SOL    HW2 8241   0.124   2.773  12.417
 2739SOL     OW 8242   1.525   2.861  11.362
 2739SOL    HW1 8243   1.462   2.785  11.375
 2739SOL    HW2 8244   1.573   2.879  11.448
 2740SOL     OW 8245   1.466   3.279  12.125
 2740SOL    HW1 8246   1.407   3.285  12.205
 2740SOL    HW2 8247   1.451   3.191  12.079
 2741SOL     OW 8248   1.667   3.576  11.744
 2741SOL    HW1 8249   1.626   3.553  11.656
 2741SOL    HW2 8250   1.649   3.502  11.809
 2742SOL     OW 8251   0.598   2.591  11.442
 2742SOL    HW1 8252   0.622   2.660  11.374
 2742SOL    HW2 8253   0.520   2.624  11.496
 2743SOL     OW 8254   1.281   2.207  12.116
 2743SOL    HW1 8255   1.195   2.157  12.103
 2743SOL    HW2 8256   1.343   2.153  12.172
 2744SOL     OW 8257   1.576   3.524  11.479
 2744SOL    HW1 8258   1.665   3.570  11.482
 2744SOL    HW2 8259   1.555   3.500  11.384
 2745SOL     OW 8260   0.807   2.467  12.637
 2745SOL    HW1 8261   0.760   2.464  12.726
 2745SOL    HW2 8262   0.756   2.412  12.571
 2746SOL     OW 8263   0.991   2.272  12.414
 2746SOL    HW1 8264   0.914   2.306  12.468
 2746SOL    HW2 8265   0.957   2.221  12.335
 2747SOL     OW 8266   1.041   2.563  11.601
 2747SOL    HW1 8267   1.067   2.559  11.697
 2747SOL    HW2 8268   0.956   2.512  11.587
 2748SOL     OW 8269   0.076   2.673  11.961
 2748SOL    HW1 8270   0.175   2.661  11.970
 2748SOL    HW2 8271   0.052   2.768  11.982
 2749SOL     OW 8272   0.130   3.683  12.743
 2749SOL    HW1 8273   0.120   3.668  12.842
 2749SOL    HW2 8274   0.044   3.719  12.707
 2750SOL     OW 8275   0.865   2.210  11.367
 2750SOL    HW1 8276   0.924   2.273  11.318
 2750SOL    HW2 8277   0.884   2.116  11.338
 2751SOL     OW 8278   1.362   3.006  11.717
 2751SOL    HW1 8279   1.445   2.977  11.669
 2751SOL    HW2 8280   1.313   3.073  11.661
 2752SOL     OW 8281   0.550   2.058  12.057
 2752SOL    HW1 8282   0.545   2.053  12.157
 2752SOL    HW2 8283   0.552   2.154  12.028
 2753SOL     OW 8284   1.008   3.318  11.649
 2753SOL    HW1 8285   0.962   3.390  11.597
 2753SOL    HW2 8286   1.004   3.338  11.747
 2754SOL     OW 8287   0.351   3.663  12.025
 2754SOL    HW1 8288   0.401   3.577  12.031
 2754SOL    HW2 8289   0.416   3.740  12.022
 2755SOL     OW 8290   1.795   2.928  12.045
 2755SOL    HW1 8291   1.733   2.913  11.969
 2755SOL    HW2 8292   1.743   2.939  12.130
 2756SOL     OW 8293   0.321   2.805  11.414
 2756SOL    HW1 8294   0.403   2.844  11.372
 2756SOL    HW2 8295   0.294   2.723  11.365
 2757SOL     OW 8296   1.458   2.597  11.900
 2757SOL    HW1 8297   1.453   2.532  11.975
 2757SOL    HW2 8298   1.538   2.656  11.913
 2758SOL     OW 8299   1.111   3.638  11.409
 2758SOL    HW1 8300   1.051   3.576  11.459
 2758SOL    HW2 8301   1.142   3.594  11.324
 2759SOL     OW 8302   1.632   3.239  11.253
 2759SOL    HW1 8303   1.600   3.333  11.243
 2759SOL    HW2 8304   1.556   3.176  11.241
 2760SOL     OW 8305   0.464   3.605  11.495
 2760SOL    HW1 8306   0.497   3.644  11.581
 2760SOL    HW2 8307   0.540   3.598  11.430
 2761SOL     OW 8308   1.400   1.969  11.598
 2761SOL    HW1 8309   1.376   1.932  11.508
 2761SOL    HW2 8310   1.499   1.985  11.602
 2762SOL     OW 8311   0.249   3.647  12.413
 2762SOL    HW1 8312   0.306   3.582  12.463
 2762SOL    HW2 8313   0.233   3.614  12.320
 2763SOL     OW 8314   0.940   3.560  12.076
 2763SOL    HW1 8315   1.020   3.503  12.097
 2763SOL    HW2 8316   0.891   3.520  11.999
 2764SOL     OW 8317   0.382   2.562  11.652
 2764SOL    HW1 8318   0.427   2.472  11.649
 2764SOL    HW2 8319   0.288   2.551  11.685
 2765SOL     OW 8320   0.614   1.984  11.289
 2765SOL    HW1 8321   0.712   1.962  11.296
 2765SOL    HW2 8322   0.583   1.967  11.196
 2766SOL     OW 8323   0.888   3.376  12.367
 2766SOL    HW1 8324   0.865   3.351  12.273
 2766SOL    HW2 8325   0.949   3.307  12.406
 2767SOL     OW 8326   0.803   3.264  12.096
 2767SOL    HW1 8327   0.893   3.278  12.054
 2767SOL    HW2 8328   0.732   3.266  12.025
 2768SOL     OW 8329   0.922   2.365  12.071
 2768SOL    HW1 8330   0.897   2.356  11.975
 2768SOL    HW2 8331   0.970   2.283  12.102
 2769SOL     OW 8332   0.539   1.926  11.684
 2769SOL    HW1 8333   0.458   1.927  11.742
 2769SOL    HW2 8334   0.542   2.009  11.629
 2770SOL     OW 8335   1.434   3.050  11.213
 2770SOL    HW1 8336   1.466   2.974  11.270
 2770SOL    HW2 8337   1.342   3.077  11.243
 2771SOL     OW 8338   0.297   1.897  11.343
 2771SOL    HW1 8339   0.346   1.981  11.322
 2771SOL    HW2 8340   0.359   1.832  11.388
 2772SOL     OW 8341   0.935   2.098  11.652
 2772SOL    HW1 8342   0.887   2.139  11.574
 2772SOL    HW2 8343   1.034   2.096  11.633
 2773SOL     OW 8344   1.227   3.432  11.965
 2773SOL    HW1 8345   1.248   3.506  11.900
 2773SOL    HW2 8346   1.295   3.432  12.038
 2774SOL     OW 8347   0.459   3.014  11.913
 2774SOL    HW1 8348   0.388   2.987  11.978
 2774SOL    HW2 8349   0.433   2.986  11.820
 2775SOL     OW 8350   1.271   3.659  11.763
 2775SOL    HW1 8351   1.315   3.723  11.699
 2775SOL    HW2 8352   1.221   3.711  11.833
 2776SOL     OW 8353   1.032   2.411  11.188
 2776SOL    HW1 8354   0.991   2.493  11.149
 2776SOL    HW2 8355   1.096   2.437  11.261
 2777SOL     OW 8356   0.078   2.418  12.558
 2777SOL    HW1 8357   0.170   2.417  12.517
 2777SOL    HW2 8358   0.072   2.492  12.625
 2778SOL     OW 8359   0.561   2.084  12.319
 2778SOL    HW1 8360   0.599   2.000  12.356
 2778SOL    HW2 8361   0.473   2.103  12.363
 2779SOL     OW 8362   0.866   2.316  11.814
 2779SOL    HW1 8363   0.834   2.388  11.752
 2779SOL    HW2 8364   0.890   2.235  11.761
 2780SOL     OW 8365   1.017   1.901  11.925
 2780SOL    HW1 8366   0.945   1.906  11.856
 2780SOL    HW2 8367   0.993   1.832  11.994
 2781SOL     OW 8368   1.429   3.035  12.039
 2781SOL    HW1 8369   1.374   2.951  12.032
 2781SOL    HW2 8370   1.455   3.064  11.947
 2782SOL     OW 8371   1.466   2.452  12.164
 2782SOL    HW1 8372   1.436   2.357  12.171
 2782SOL    HW2 8373   1.539   2.468  12.230
 2783SOL     OW 8374   1.857   2.695  11.549
 2783SOL    HW1 8375   1.899   2.631  11.613
 2783SOL    HW2 8376   1.819   2.644  11.471
 2784SOL     OW 8377   0.488   3.247  11.346
 2784SOL    HW1 8378   0.401   3.232  11.393
 2784SOL    HW2 8379   0.471   3.273  11.251
 2785SOL     OW 8380   1.664   3.142  11.829
 2785SOL    HW1 8381   1.763   3.150  11.843
 2785SOL    HW2 8382   1.619   3.226  11.860
 2786SOL     OW 8383   1.390   2.437  11.250
 2786SOL    HW1 8384   1.336   2.416  11.331
 2786SOL    HW2 8385   1.481   2.396  11.259
 2787SOL     OW 8386   0.527   2.118  11.500
 2787SOL    HW1 8387   0.554   2.059  11.425
 2787SOL    HW2 8388   0.527   2.213  11.469
 2788SOL     OW 8389   1.064   3.209  12.512
 2788SOL    HW1 8390   0.984   3.186  12.567
 2788SOL    HW2 8391   1.147   3.183  12.561
 2789SOL     OW 8392   1.111   3.057  12.272
 2789SOL    HW1 8393   1.071   3.101  12.353
 2789SOL    HW2 8394   1.070   3.094  12.189
 2790SOL     OW 8395   1.638   2.961  12.251
 2790SOL    HW1 8396   1.643   3.042  12.310
 2790SOL    HW2 8397   1.552   2.963  12.200
 2791SOL     OW 8398   0.915   1.951  12.574
 2791SOL    HW1 8399   0.940   1.931  12.479
 2791SOL    HW2 8400   0.987   2.007  12.616
 2792SOL     OW 8401   0.705   2.912  11.540
 2792SOL    HW1 8402   0.691   2.919  11.639
 2792SOL    HW2 8403   0.789   2.861  11.522
 2793SOL     OW 8404   0.410   2.675  12.423
 2793SOL    HW1 8405   0.496   2.687  12.473
 2793SOL    HW2 8406   0.368   2.588  12.450
 2794SOL     OW 8407   1.274   2.248  12.434
 2794SOL    HW1 8408   1.295   2.322  12.498
 2794SOL    HW2 8409   1.185   2.265  12.391
 2795SOL     OW 8410   0.064   3.426  12.503
 2795SOL    HW1 8411   0.018   3.508  12.469
 2795SOL    HW2 8412   0.162   3.445  12.512
 2796SOL     OW 8413   0.367   2.962  11.673
 2796SOL    HW1 8414   0.360   3.045  11.617
 2796SOL    HW2 8415   0.371   2.882  11.613
 2797SOL     OW 8416   0.566   2.399  12.037
 2797SOL    HW1 8417   0.578   2.465  11.963
 2797SOL    HW2 8418   0.612   2.433  12.120
 2798SOL     OW 8419   1.252   3.210  11.560
 2798SOL    HW1 8420   1.302   3.287  11.600
 2798SOL    HW2 8421   1.157   3.212  11.592
 2799SOL     OW 8422   1.272   3.307  12.314
 2799SOL    HW1 8423   1.319   3.320  12.401
 2799SOL    HW2 8424   1.206   3.233  12.323
 2800SOL     OW 8425   1.582   2.501  11.644
 2800SOL    HW1 8426   1.551   2.562  11.717
 2800SOL    HW2 8427   1.632   2.553  11.575
 2801SOL     OW 8428   0.354   3.372  12.501
 2801SOL    HW1 8429   0.333   3.328  12.414
 2801SOL    HW2 8430   0.451   3.398  12.504
 2802SOL     OW 8431   0.402   2.613  12.770
 2802SOL    HW1 8432   0.470   2.668  12.723
 2802SOL    HW2 8433   0.442   2.525  12.797
 2803SOL     OW 8434   1.587   2.641  12.842
 2803SOL    HW1 8435   1.495   2.679  12.837
 2803SOL    HW2 8436   1.647   2.688  12.777
 2804SOL     OW 8437   0.573   2.732  12.201
 2804SOL    HW1 8438   0.617   2.821  12.192
 2804SOL    HW2 8439   0.510   2.732  12.278
 2805SOL     OW 8440   1.360   2.724  12.217
 2805SOL    HW1 8441   1.285   2.724  12.151
 2805SOL    HW2 8442   1.397   2.632  12.226
 2806SOL     OW 8443   1.209   2.387  11.447
 2806SOL    HW1 8444   1.222   2.303  11.501
 2806SOL    HW2 8445   1.180   2.461  11.507
 2807SOL     OW 8446   0.307   2.075  12.403
 2807SOL    HW1 8447   0.284   2.112  12.493
 2807SOL    HW2 8448   0.277   1.980  12.397
 2808SOL     OW 8449   0.037   3.172  12.454
 2808SOL    HW1 8450   0.090   3.123  12.522
 2808SOL    HW2 8451   0.059   3.270  12.459
 2809SOL     OW 8452   0.732   2.496  12.236
 2809SOL    HW1 8453   0.791   2.470  12.160
 2809SOL    HW2 8454   0.704   2.592  12.225
 2810SOL     OW 8455   0.307   1.925  11.790
 2810SOL    HW1 8456   0.296   2.019  11.823
 2810SOL    HW2 8457   0.302   1.862  11.867
 2811SOL     OW 8458   1.622   2.229  11.546
 2811SOL    HW1 8459   1.624   2.153  11.610
 2811SOL    HW2 8460   1.574   2.306  11.586
 2812SOL     OW 8461   1.023   2.628  12.138
 2812SOL    HW1 8462   1.038   2.649  12.234
 2812SOL    HW2 8463   0.993   2.533  12.129
 2813SOL     OW 8464   0.980   3.435  12.872
 2813SOL    HW1 8465   0.960   3.479  12.784
 2813SOL    HW2 8466   1.019   3.344  12.856
 2814SOL     OW 8467   1.540   2.136  11.297
 2814SOL    HW1 8468   1.479   2.061  11.320
 2814SOL    HW2 8469   1.562   2.188  11.380
 2815SOL     OW 8470   1.303   2.700  11.214
 2815SOL    HW1 8471   1.337   2.607  11.229
 2815SOL    HW2 8472   1.321   2.727  11.119
 2816SOL     OW 8473   1.068   3.195  12.021
 2816SOL    HW1 8474   1.075   3.111  11.966
 2816SOL    HW2 8475   1.130   3.264  11.985
 2817SOL     OW 8476   0.319   2.672  12.121
 2817SOL    HW1 8477   0.412   2.708  12.126
 2817SOL    HW2 8478   0.313   2.587  12.173
 2818SOL     OW 8479   0.339   2.371  12.178
 2818SOL    HW1 8480   0.287   2.288  12.161
 2818SOL    HW2 8481   0.416   2.376  12.114
 2819SOL     OW 8482   1.138   2.242  12.850
 2819SOL    HW1 8483   1.093   2.305  12.914
 2819SOL    HW2 8484   1.231   2.273  12.833
 2820SOL     OW 8485   1.160   2.069  12.649
 2820SOL    HW1 8486   1.160   2.133  12.726
 2820SOL    HW2 8487   1.188   2.117  12.566
 2821SOL     OW 8488   0.008   3.188  11.372
 2821SOL    HW1 8489  -0.085   3.209  11.341
 2821SOL    HW2 8490   0.018   3.089  11.385
 2822SOL     OW 8491   0.088   3.663  12.099
 2822SOL    HW1 8492   0.046   3.577  12.072
 2822SOL    HW2 8493   0.182   3.666  12.065
 2823SOL     OW 8494   0.504   3.430  12.082
 2823SOL    HW1 8495   0.570   3.504  12.091
 2823SOL    HW2 8496   0.548   3.351  12.040
 2824SOL     OW 8497   1.002   2.658  12.410
 2824SOL    HW1 8498   1.043   2.626  12.496
 2824SOL    HW2 8499   0.906   2.631  12.407
 2825SOL     OW 8500   0.040   2.406  12.286
 2825SOL    HW1 8501   0.125   2.373  12.245
 2825SOL    HW2 8502   0.053   2.421  12.384
 2826SOL     OW 8503   0.815   2.434  11.497
 2826SOL    HW1 8504   0.822   2.345  11.451
 2826SOL    HW2 8505   0.721   2.468  11.489
 2827SOL     OW 8506   1.657   2.466  12.378
 2827SOL    HW1 8507   1.619   2.397  12.440
 2827SOL    HW2 8508   1.739   2.430  12.334
 2828SOL     OW 8509   0.671   2.326  12.441
 2828SOL    HW1 8510   0.637   2.237  12.411
 2828SOL    HW2 8511   0.697   2.380  12.361
 2829SOL     OW 8512   0.930   3.540  12.637
 2829SOL    HW1 8513   0.906   3.522  12.542
 2829SOL    HW2 8514   0.960   3.634  12.647
 2830SOL     OW 8515   0.473   2.362  11.363
 2830SOL    HW1 8516   0.534   2.442  11.367
 2830SOL    HW2 8517   0.378   2.393  11.370
 2831SOL     OW 8518   0.159   2.999  12.638
 2831SOL    HW1 8519   0.181   2.938  12.714
 2831SOL    HW2 8520   0.169   2.950  12.552
 2832SOL     OW 8521   1.347   2.921  12.406
 2832SOL    HW1 8522   1.371   2.858  12.332
 2832SOL    HW2 8523   1.257   2.961  12.388
 2833SOL     OW 8524   1.302   2.717  11.481
 2833SOL    HW1 8525   1.216   2.686  11.523
 2833SOL    HW2 8526   1.298   2.703  11.382
 2834SOL     OW 8527   1.759   3.609  12.326
 2834SOL    HW1 8528   1.820   3.639  12.253
 2834SOL    HW2 8529   1.721   3.520  12.304
 2835SOL     OW 8530   1.252   3.593  12.300
 2835SOL    HW1 8531   1.336   3.598  12.246
 2835SOL    HW2 8532   1.229   3.497  12.318
 2836SOL     OW 8533   0.083   3.120  12.194
 2836SOL    HW1 8534   0.078   3.119  12.294
 2836SOL    HW2 8535   0.000   3.079  12.156
 2837SOL     OW 8536   1.726   1.997  11.695
 2837SOL    HW1 8537   1.799   1.980  11.628
 2837SOL    HW2 8538   1.695   1.910  11.733
 2838SOL     OW 8539   1.388   3.435  11.649
 2838SOL    HW1 8540   1.455   3.447  11.575
 2838SOL    HW2 8541   1.348   3.524  11.672
 2839SOL     OW 8542   1.280   2.789  11.844
 2839SOL    HW1 8543   1.340   2.708  11.846
 2839SOL    HW2 8544   1.320   2.858  11.784
 2840SOL     OW 8545   0.672   3.478  11.326
 2840SOL    HW1 8546   0.681   3.488  11.227
 2840SOL    HW2 8547   0.632   3.389  11.347
 2841SOL     OW 8548   1.650   3.582  12.566
 2841SOL    HW1 8549   1.703   3.592  12.482
 2841SOL    HW2 8550   1.623   3.672  12.600
 2842SOL     OW 8551   1.841   2.037  12.135
 2842SOL    HW1 8552   1.880   1.952  12.099
 2842SOL    HW2 8553   1.743   2.039  12.116
 2843SOL     OW 8554   0.263   2.188  11.892
 2843SOL    HW1 8555   0.184   2.239  11.858
 2843SOL    HW2 8556   0.254   2.173  11.990
 2844SOL     OW 8557   1.194   3.474  11.203
 2844SOL    HW1 8558   1.200   3.381  11.240
 2844SOL    HW2 8559   1.135   3.474  11.123
 2845SOL     OW 8560   0.822   2.864  12.544
 2845SOL    HW1 8561   0.862   2.863  12.452
 2845SOL    HW2 8562   0.832   2.956  12.584
 2846SOL     OW 8563   0.916   2.772  11.463
 2846SOL    HW1 8564   0.979   2.810  11.395
 2846SOL    HW2 8565   0.956   2.689  11.502
 2847SOL     OW 8566   1.504   3.469  11.216
 2847SOL    HW1 8567   1.412   3.506  11.223
 2847SOL    HW2 8568   1.542   3.489  11.126
 2848SOL     OW 8569   0.372   3.150  12.662
 2848SOL    HW1 8570   0.359   3.243  12.628
 2848SOL    HW2 8571   0.288   3.098  12.649
 2849SOL     OW 8572   1.614   3.154  12.461
 2849SOL    HW1 8573   1.674   3.157  12.541
 2849SOL    HW2 8574   1.539   3.218  12.474
 2850SOL     OW 8575   1.039   2.960  11.868
 2850SOL    HW1 8576   0.969   2.913  11.922
 2850SOL    HW2 8577   1.098   2.892  11.825
 2851SOL     OW 8578   1.014   2.098  12.143
 2851SOL    HW1 8579   1.006   2.062  12.050
 2851SOL    HW2 8580   1.012   2.022  12.208
 2852SOL     OW 8581   0.590   3.349  11.663
 2852SOL    HW1 8582   0.632   3.291  11.593
 2852SOL    HW2 8583   0.546   3.428  11.619
 2853SOL     OW 8584   1.709   2.247  12.553
 2853SOL    HW1 8585   1.782   2.316  12.557
 2853SOL    HW2 8586   1.737   2.172  12.494
 2854SOL     OW 8587   0.255   3.210  11.462
 2854SOL    HW1 8588   0.159   3.211  11.435
 2854SOL    HW2 8589   0.267   3.263  11.546
 2855SOL     OW 8590   0.075   2.207  11.205
 2855SOL    HW1 8591  -0.017   2.179  11.176
 2855SOL    HW2 8592   0.106   2.284  11.149
 2856SOL     OW 8593   1.440   2.718  12.570
 2856SOL    HW1 8594   1.383   2.770  12.507
 2856SOL    HW2 8595   1.536   2.730  12.546
 2857SOL     OW 8596   0.072   2.028  11.490
 2857SOL    HW1 8597   0.055   2.111  11.436
 2857SOL    HW2 8598   0.162   1.991  11.468
 2858SOL     OW 8599   1.183   3.197  11.291
 2858SOL    HW1 8600   1.084   3.186  11.293
 2858SOL    HW2 8601   1.217   3.212  11.384
 2859SOL     OW 8602   0.613   2.704  12.603
 2859SOL    HW1 8603   0.669   2.785  12.586
 2859SOL    HW2 8604   0.672   2.624  12.606
 2860SOL     OW 8605   1.493   3.629  12.131
 2860SOL    HW1 8606   1.526   3.693  12.062
 2860SOL    HW2 8607   1.559   3.623  12.206
 2861SOL     OW 8608   0.390   3.603  12.732
 2861SOL    HW1 8609   0.299   3.644  12.730
 2861SOL    HW2 8610   0.383   3.509  12.764
 2862SOL     OW 8611   1.674   2.745  12.426
 2862SOL    HW1 8612   1.647   2.656  12.389
 2862SOL    HW2 8613   1.675   2.813  12.353
 2863SOL     OW 8614   1.225   2.187  11.621
 2863SOL    HW1 8615   1.290   2.113  11.610
 2863SOL    HW2 8616   1.245   2.237  11.705
 2864SOL     OW 8617   0.594   2.607  11.824
 2864SOL    HW1 8618   0.644   2.692  11.805
 2864SOL    HW2 8619   0.506   2.609  11.776
 2865SOL     OW 8620   1.777   2.204  12.814
 2865SOL    HW1 8621   1.760   2.235  12.720
 2865SOL    HW2 8622   1.693   2.167  12.852
 2866SOL     OW 8623   1.730   2.796  12.689
 2866SOL    HW1 8624   1.768   2.887  12.704
 2866SOL    HW2 8625   1.722   2.779  12.590
 2867SOL     OW 8626   0.859   3.236  11.188
 2867SOL    HW1 8627   0.813   3.251  11.276
 2867SOL    HW2 8628   0.903   3.321  11.158
 2868SOL     OW 8629   0.661   3.652  12.125
 2868SOL    HW1 8630   0.615   3.740  12.112
 2868SOL    HW2 8631   0.760   3.664  12.118
 2869SOL     OW 8632   0.859   2.818  12.033
 2869SOL    HW1 8633   0.913   2.749  12.081
 2869SOL    HW2 8634   0.827   2.887  12.099
 2870SOL     OW 8635   1.083   2.846  11.259
 2870SOL    HW1 8636   1.060   2.899  11.177
 2870SOL    HW2 8637   1.164   2.790  11.240
 2871SOL     OW 8638   1.861   3.431  12.023
 2871SOL    HW1 8639   1.790   3.419  11.953
 2871SOL    HW2 8640   1.862   3.352  12.083
 2872SOL     OW 8641   0.079   3.102  11.825
 2872SOL    HW1 8642   0.078   3.055  11.913
 2872SOL    HW2 8643   0.161   3.074  11.774
 2873SOL     OW 8644   1.824   2.054  12.399
 2873SOL    HW1 8645   1.820   1.964  12.443
 2873SOL    HW2 8646   1.827   2.043  12.300
 2874SOL     OW 8647   0.428   2.286  11.692
 2874SOL    HW1 8648   0.458   2.214  11.630
 2874SOL    HW2 8649   0.389   2.246  11.775
 2875SOL     OW 8650   1.705   3.349  12.276
 2875SOL    HW1 8651   1.612   3.324  12.249
 2875SOL    HW2 8652   1.731   3.299  12.358
 2876SOL     OW 8653   0.317   2.409  12.452
 2876SOL    HW1 8654   0.355   2.350  12.524
 2876SOL    HW2 8655   0.357   2.383  12.364
 2877SOL     OW 8656   0.812   3.448  11.859
 2877SOL    HW1 8657   0.844   3.458  11.765
 2877SOL    HW2 8658   0.733   3.386  11.861
 2878SOL     OW 8659   1.424   2.076  12.284
 2878SOL    HW1 8660   1.476   2.011  12.339
 2878SOL    HW2 8661   1.375   2.139  12.345
 2879SOL     OW 8662   1.001   1.896  12.326
 2879SOL    HW1 8663   0.938   1.824  12.295
 2879SOL    HW2 8664   1.094   1.860  12.326
 2880SOL     OW 8665   0.770   3.192  11.473
 2880SOL    HW1 8666   0.724   3.105  11.490
 2880SOL    HW2 8667   0.861   3.189  11.514
 2881SOL     OW 8668   0.618   3.429  12.456
 2881SOL    HW1 8669   0.613   3.511  12.513
 2881SOL    HW2 8670   0.707   3.426  12.411
 2882SOL     OW 8671   1.352   1.914  11.340
 2882SOL    HW1 8672   1.387   1.873  11.256
 2882SOL    HW2 8673   1.262   1.876  11.360
 2883SOL     OW 8674   1.300   2.315  11.863
 2883SOL    HW1 8675   1.241   2.395  11.867
 2883SOL    HW2 8676   1.315   2.280  11.956
 2884SOL     OW 8677   1.593   2.083  12.054
 2884SOL    HW1 8678   1.509   2.082  12.108
 2884SOL    HW2 8679   1.595   2.166  11.998
 2885SOL     OW 8680   0.039   2.939  11.472
 2885SOL    HW1 8681   0.138   2.928  11.463
 2885SOL    HW2 8682  -0.001   2.853  11.504
 2886SOL     OW 8683   0.230   4.352   0.113
 2886SOL    HW1 8684   0.137   4.350   0.150
 2886SOL    HW2 8685   0.231   4.313   0.021
 2887SOL     OW 8686   0.225   3.999   0.996
 2887SOL    HW1 8687   0.260   3.982   1.088
 2887SOL    HW2 8688   0.137   3.954   0.984
 2888SOL     OW 8689   0.019   4.092   0.647
 2888SOL    HW1 8690  -0.063   4.135   0.686
 2888SOL    HW2 8691  -0.009   4.019   0.584
 2889SOL     OW 8692   0.569   4.999   1.165
 2889SOL    HW1 8693   0.476   4.992   1.128
 2889SOL    HW2 8694   0.580   5.088   1.209
 2890SOL     OW 8695   1.555   5.235   0.703
 2890SOL    HW1 8696   1.498   5.219   0.784
 2890SOL    HW2 8697   1.496   5.245   0.623
 2891SOL     OW 8698   1.135   4.427   0.717
 2891SOL    HW1 8699   1.192   4.505   0.692
 2891SOL    HW2 8700   1.075   4.453   0.793
 2892SOL     OW 8701   1.755   4.331   0.231
 2892SOL    HW1 8702   1.743   4.318   0.132
 2892SOL    HW2 8703   1.725   4.250   0.280
 2893SOL     OW 8704   0.768   4.868   1.023
 2893SOL    HW1 8705   0.690   4.885   1.083
 2893SOL    HW2 8706   0.802   4.955   0.987
 2894SOL     OW 8707   0.850   4.522   1.823
 2894SOL    HW1 8708   0.846   4.598   1.888
 2894SOL    HW2 8709   0.872   4.558   1.732
 2895SOL     OW 8710   0.685   4.736   0.665
 2895SOL    HW1 8711   0.754   4.720   0.735
 2895SOL    HW2 8712   0.612   4.793   0.703
 2896SOL     OW 8713   0.686   4.885   1.803
 2896SOL    HW1 8714   0.746   4.964   1.817
 2896SOL    HW2 8715   0.600   4.916   1.762
 2897SOL     OW 8716   0.335   5.159   1.061
 2897SOL    HW1 8717   0.257   5.128   1.008
 2897SOL    HW2 8718   0.393   5.217   1.004
 2898SOL     OW 8719   1.460   5.229   1.339
 2898SOL    HW1 8720   1.484   5.323   1.365
 2898SOL    HW2 8721   1.444   5.175   1.421
 2899SOL     OW 8722   0.438   4.116   1.499
 2899SOL    HW1 8723   0.520   4.060   1.508
 2899SOL    HW2 8724   0.357   4.058   1.503
 2900SOL     OW 8725   1.603   4.171   0.737
 2900SOL    HW1 8726   1.529   4.217   0.687
 2900SOL    HW2 8727   1.654   4.239   0.790
 2901SOL     OW 8728   0.231   5.437   0.483
 2901SOL    HW1 8729   0.265   5.514   0.537
 2901SOL    HW2 8730   0.275   5.437   0.393
 2902SOL     OW 8731   1.127   5.065   1.690
 2902SOL    HW1 8732   1.174   5.065   1.778
 2902SOL    HW2 8733   1.079   4.978   1.679
 2903SOL     OW 8734   0.230   5.158   0.538
 2903SOL    HW1 8735   0.204   5.254   0.538
 2903SOL    HW2 8736   0.159   5.104   0.583
 2904SOL     OW 8737   0.240   4.815   0.886
 2904SOL    HW1 8738   0.254   4.731   0.938
 2904SOL    HW2 8739   0.185   4.879   0.941
 2905SOL     OW 8740   0.620   5.510   1.439
 2905SOL    HW1 8741   0.528   5.493   1.474
 2905SOL    HW2 8742   0.648   5.602   1.465
 2906SOL     OW 8743   0.606   4.688   0.123
 2906SOL    HW1 8744   0.613   4.772   0.069
 2906SOL    HW2 8745   0.652   4.701   0.211
 2907SOL     OW 8746   1.594   3.838   1.480
 2907SOL    HW1 8747   1.576   3.905   1.408
 2907SOL    HW2 8748   1.591   3.884   1.569
 2908SOL     OW 8749   0.122   4.367   0.563
 2908SOL    HW1 8750   0.077   4.279   0.580
 2908SOL    HW2 8751   0.121   4.421   0.647
 2909SOL     OW 8752   1.842   5.491   0.359
 2909SOL    HW1 8753   1.896   5.462   0.439
 2909SOL    HW2 8754   1.872   5.581   0.330
 2910SOL     OW 8755   0.027   5.320   0.117
 2910SOL    HW1 8756   0.008   5.224   0.138
 2910SOL    HW2 8757  -0.006   5.378   0.192
 2911SOL     OW 8758   1.689   4.646   0.612
 2911SOL    HW1 8759   1.784   4.617   0.620
 2911SOL    HW2 8760   1.681   4.711   0.537
 2912SOL     OW 8761   1.641   4.832   0.432
 2912SOL    HW1 8762   1.727   4.834   0.380
 2912SOL    HW2 8763   1.655   4.879   0.520
 2913SOL     OW 8764   0.113   4.461   1.597
 2913SOL    HW1 8765   0.201   4.448   1.642
 2913SOL    HW2 8766   0.100   4.558   1.575
 2914SOL     OW 8767   0.613   5.089   0.726
 2914SOL    HW1 8768   0.564   5.002   0.735
 2914SOL    HW2 8769   0.590   5.132   0.639
 2915SOL     OW 8770   1.293   4.952   1.423
 2915SOL    HW1 8771   1.330   4.879   1.365
 2915SOL    HW2 8772   1.345   4.957   1.508
 2916SOL     OW 8773   0.809   3.728   0.502
 2916SOL    HW1 8774   0.849   3.819   0.493
 2916SOL    HW2 8775   0.709   3.736   0.508
 2917SOL     OW 8776   0.197   4.700   1.264
 2917SOL    HW1 8777   0.286   4.655   1.250
 2917SOL    HW2 8778   0.124   4.635   1.245
 2918SOL     OW 8779   1.525   4.723   0.190
 2918SOL    HW1 8780   1.462   4.647   0.203
 2918SOL    HW2 8781   1.573   4.741   0.276
 2919SOL     OW 8782   1.187   5.516   1.616
 2919SOL    HW1 8783   1.211   5.576   1.540
 2919SOL    HW2 8784   1.194   5.421   1.586
 2920SOL     OW 8785   0.317   3.975   1.801
 2920SOL    HW1 8786   0.388   4.046   1.807
 2920SOL    HW2 8787   0.229   4.014   1.829
 2921SOL     OW 8788   1.466   5.141   0.953
 2921SOL    HW1 8789   1.407   5.147   1.033
 2921SOL    HW2 8790   1.451   5.053   0.907
 2922SOL     OW 8791   1.667   5.438   0.572
 2922SOL    HW1 8792   1.626   5.415   0.484
 2922SOL    HW2 8793   1.649   5.364   0.637
 2923SOL     OW 8794   0.598   4.453   0.270
 2923SOL    HW1 8795   0.622   4.522   0.202
 2923SOL    HW2 8796   0.520   4.486   0.324
 2924SOL     OW 8797   1.281   4.069   0.944
 2924SOL    HW1 8798   1.195   4.019   0.931
 2924SOL    HW2 8799   1.343   4.015   1.000
 2925SOL     OW 8800   1.576   5.386   0.307
 2925SOL    HW1 8801   1.665   5.432   0.310
 2925SOL    HW2 8802   1.555   5.362   0.212
 2926SOL     OW 8803   0.807   4.329   1.465
 2926SOL    HW1 8804   0.760   4.326   1.554
 2926SOL    HW2 8805   0.756   4.274   1.399
 2927SOL     OW 8806   1.394   4.193   1.674
 2927SOL    HW1 8807   1.374   4.236   1.762
 2927SOL    HW2 8808   1.472   4.131   1.683
 2928SOL     OW 8809   0.973   4.614   1.572
 2928SOL    HW1 8810   1.019   4.530   1.543
 2928SOL    HW2 8811   0.917   4.648   1.497
 2929SOL     OW 8812   0.991   4.134   1.242
 2929SOL    HW1 8813   0.914   4.168   1.296
 2929SOL    HW2 8814   0.957   4.083   1.163
 2930SOL     OW 8815   1.041   4.425   0.429
 2930SOL    HW1 8816   1.067   4.421   0.525
 2930SOL    HW2 8817   0.956   4.374   0.415
 2931SOL     OW 8818   0.076   4.535   0.789
 2931SOL    HW1 8819   0.175   4.523   0.798
 2931SOL    HW2 8820   0.052   4.630   0.810
 2932SOL     OW 8821   0.130   5.545   1.571
 2932SOL    HW1 8822   0.120   5.530   1.670
 2932SOL    HW2 8823   0.044   5.581   1.535
 2933SOL     OW 8824   0.865   4.072   0.195
 2933SOL    HW1 8825   0.924   4.135   0.146
 2933SOL    HW2 8826   0.884   3.978   0.166
 2934SOL     OW 8827   1.719   4.309   1.831
 2934SOL    HW1 8828   1.693   4.398   1.795
 2934SOL    HW2 8829   1.717   4.241   1.758
 2935SOL     OW 8830   1.362   4.868   0.545
 2935SOL    HW1 8831   1.445   4.839   0.497
 2935SOL    HW2 8832   1.313   4.935   0.489
 2936SOL     OW 8833   0.550   3.920   0.885
 2936SOL    HW1 8834   0.545   3.915   0.985
 2936SOL    HW2 8835   0.552   4.016   0.856
 2937SOL     OW 8836   1.008   5.180   0.477
 2937SOL    HW1 8837   0.962   5.252   0.425
 2937SOL    HW2 8838   1.004   5.200   0.575
 2938SOL     OW 8839   0.351   5.525   0.853
 2938SOL    HW1 8840   0.401   5.439   0.859
 2938SOL    HW2 8841   0.416   5.602   0.850
 2939SOL     OW 8842   1.795   4.790   0.873
 2939SOL    HW1 8843   1.733   4.775   0.797
 2939SOL    HW2 8844   1.743   4.801   0.958
 2940SOL     OW 8845   1.227   5.274   1.506
 2940SOL    HW1 8846   1.233   5.197   1.570
 2940SOL    HW2 8847   1.175   5.248   1.426
 2941SOL     OW 8848   0.321   4.667   0.242
 2941SOL    HW1 8849   0.403   4.706   0.200
 2941SOL    HW2 8850   0.294   4.585   0.193
 2942SOL     OW 8851   1.458   4.459   0.728
 2942SOL    HW1 8852   1.453   4.394   0.803
 2942SOL    HW2 8853   1.538   4.518   0.741
 2943SOL     OW 8854   0.461   4.990   1.727
 2943SOL    HW1 8855   0.411   4.991   1.641
 2943SOL    HW2 8856   0.398   4.972   1.803
 2944SOL     OW 8857   1.111   5.500   0.237
 2944SOL    HW1 8858   1.051   5.438   0.287
 2944SOL    HW2 8859   1.142   5.456   0.152
 2945SOL     OW 8860   0.202   4.009   1.498
 2945SOL    HW1 8861   0.122   4.069   1.485
 2945SOL    HW2 8862   0.192   3.960   1.584
 2946SOL     OW 8863   1.632   5.101   0.081
 2946SOL    HW1 8864   1.600   5.195   0.071
 2946SOL    HW2 8865   1.556   5.038   0.069
 2947SOL     OW 8866   0.464   5.467   0.323
 2947SOL    HW1 8867   0.497   5.506   0.409
 2947SOL    HW2 8868   0.540   5.460   0.258
 2948SOL     OW 8869   1.400   3.831   0.426
 2948SOL    HW1 8870   1.376   3.794   0.336
 2948SOL    HW2 8871   1.499   3.847   0.430
 2949SOL     OW 8872   0.249   5.509   1.241
 2949SOL    HW1 8873   0.306   5.444   1.291
 2949SOL    HW2 8874   0.233   5.476   1.148
 2950SOL     OW 8875   0.940   5.422   0.904
 2950SOL    HW1 8876   1.020   5.365   0.925
 2950SOL    HW2 8877   0.891   5.382   0.827
 2951SOL     OW 8878   0.382   4.424   0.480
 2951SOL    HW1 8879   0.427   4.334   0.477
 2951SOL    HW2 8880   0.288   4.413   0.513
 2952SOL     OW 8881   1.547   3.946   1.729
 2952SOL    HW1 8882   1.542   3.983   1.821
 2952SOL    HW2 8883   1.475   3.877   1.717
 2953SOL     OW 8884   0.614   3.846   0.117
 2953SOL    HW1 8885   0.712   3.824   0.124
 2953SOL    HW2 8886   0.583   3.829   0.024
 2954SOL     OW 8887   0.781   3.988   1.749
 2954SOL    HW1 8888   0.848   3.927   1.792
 2954SOL    HW2 8889   0.708   4.007   1.814
 2955SOL     OW 8890   0.888   5.238   1.195
 2955SOL    HW1 8891   0.865   5.213   1.101
 2955SOL    HW2 8892   0.949   5.169   1.234
 2956SOL     OW 8893   1.351   4.314   1.433
 2956SOL    HW1 8894   1.379   4.271   1.518
 2956SOL    HW2 8895   1.376   4.410   1.434
 2957SOL     OW 8896   0.803   5.126   0.924
 2957SOL    HW1 8897   0.893   5.140   0.882
 2957SOL    HW2 8898   0.732   5.128   0.853
 2958SOL     OW 8899   0.922   4.227   0.899
 2958SOL    HW1 8900   0.897   4.218   0.803
 2958SOL    HW2 8901   0.970   4.145   0.930
 2959SOL     OW 8902   0.539   3.788   0.512
 2959SOL    HW1 8903   0.458   3.789   0.570
 2959SOL    HW2 8904   0.542   3.871   0.457
 2960SOL     OW 8905   1.434   4.912   0.041
 2960SOL    HW1 8906   1.466   4.836   0.098
 2960SOL    HW2 8907   1.342   4.939   0.071
 2961SOL     OW 8908   0.297   3.759   0.171
 2961SOL    HW1 8909   0.346   3.843   0.150
 2961SOL    HW2 8910   0.359   3.694   0.216
 2962SOL     OW 8911   0.935   3.960   0.480
 2962SOL    HW1 8912   0.887   4.001   0.402
 2962SOL    HW2 8913   1.034   3.958   0.461
 2963SOL     OW 8914   1.076   4.407   1.464
 2963SOL    HW1 8915   0.996   4.346   1.467
 2963SOL    HW2 8916   1.157   4.354   1.440
 2964SOL     OW 8917   1.227   5.294   0.793
 2964SOL    HW1 8918   1.248   5.368   0.728
 2964SOL    HW2 8919   1.295   5.294   0.866
 2965SOL     OW 8920   0.459   4.876   0.741
 2965SOL    HW1 8921   0.388   4.849   0.806
 2965SOL    HW2 8922   0.433   4.848   0.648
 2966SOL     OW 8923   1.271   5.521   0.591
 2966SOL    HW1 8924   1.315   5.585   0.527
 2966SOL    HW2 8925   1.221   5.573   0.661
 2967SOL     OW 8926   1.032   4.273   0.016
 2967SOL    HW1 8927   0.991   4.355  -0.023
 2967SOL    HW2 8928   1.096   4.299   0.089
 2968SOL     OW 8929   0.078   4.280   1.386
 2968SOL    HW1 8930   0.170   4.279   1.345
 2968SOL    HW2 8931   0.072   4.354   1.453
 2969SOL     OW 8932   0.561   3.946   1.147
 2969SOL    HW1 8933   0.599   3.862   1.184
 2969SOL    HW2 8934   0.473   3.965   1.191
 2970SOL     OW 8935   0.866   4.178   0.642
 2970SOL    HW1 8936   0.834   4.250   0.580
 2970SOL    HW2 8937   0.890   4.097   0.589
 2971SOL     OW 8938   1.017   3.763   0.753
 2971SOL    HW1 8939   0.945   3.768   0.684
 2971SOL    HW2 8940   0.993   3.694   0.822
 2972SOL     OW 8941   1.429   4.897   0.867
 2972SOL    HW1 8942   1.374   4.813   0.860
 2972SOL    HW2 8943   1.455   4.926   0.775
 2973SOL     OW 8944   1.466   4.314   0.992
 2973SOL    HW1 8945   1.436   4.219   0.999
 2973SOL    HW2 8946   1.539   4.330   1.058
 2974SOL     OW 8947   1.857   4.557   0.377
 2974SOL    HW1 8948   1.899   4.493   0.441
 2974SOL    HW2 8949   1.819   4.506   0.299
 2975SOL     OW 8950   0.488   5.109   0.174
 2975SOL    HW1 8951   0.401   5.094   0.221
 2975SOL    HW2 8952   0.471   5.135   0.079
 2976SOL     OW 8953   1.664   5.004   0.657
 2976SOL    HW1 8954   1.763   5.012   0.671
 2976SOL    HW2 8955   1.619   5.088   0.688
 2977SOL     OW 8956   1.390   4.299   0.078
 2977SOL    HW1 8957   1.336   4.278   0.159
 2977SOL    HW2 8958   1.481   4.258   0.087
 2978SOL     OW 8959   0.527   3.980   0.328
 2978SOL    HW1 8960   0.554   3.921   0.253
 2978SOL    HW2 8961   0.527   4.075   0.297
 2979SOL     OW 8962   1.754   4.947   1.588
 2979SOL    HW1 8963   1.845   4.908   1.575
 2979SOL    HW2 8964   1.762   5.043   1.612
 2980SOL     OW 8965   1.064   5.071   1.340
 2980SOL    HW1 8966   0.984   5.048   1.395
 2980SOL    HW2 8967   1.147   5.045   1.389
 2981SOL     OW 8968   1.592   5.353   1.625
 2981SOL    HW1 8969   1.619   5.387   1.535
 2981SOL    HW2 8970   1.671   5.315   1.671
 2982SOL     OW 8971   1.111   4.919   1.100
 2982SOL    HW1 8972   1.071   4.963   1.181
 2982SOL    HW2 8973   1.070   4.956   1.017
 2983SOL     OW 8974   1.638   4.823   1.079
 2983SOL    HW1 8975   1.643   4.904   1.138
 2983SOL    HW2 8976   1.552   4.825   1.028
 2984SOL     OW 8977   0.915   3.813   1.402
 2984SOL    HW1 8978   0.940   3.793   1.307
 2984SOL    HW2 8979   0.987   3.869   1.444
 2985SOL     OW 8980   0.980   4.840   1.719
 2985SOL    HW1 8981   0.881   4.846   1.729
 2985SOL    HW2 8982   1.003   4.760   1.663
 2986SOL     OW 8983   0.705   4.774   0.368
 2986SOL    HW1 8984   0.691   4.781   0.467
 2986SOL    HW2 8985   0.789   4.723   0.350
 2987SOL     OW 8986   0.410   4.537   1.251
 2987SOL    HW1 8987   0.496   4.549   1.301
 2987SOL    HW2 8988   0.368   4.450   1.278
 2988SOL     OW 8989   1.274   4.110   1.262
 2988SOL    HW1 8990   1.295   4.184   1.326
 2988SOL    HW2 8991   1.185   4.127   1.219
 2989SOL     OW 8992   0.064   5.288   1.331
 2989SOL    HW1 8993   0.018   5.370   1.297
 2989SOL    HW2 8994   0.162   5.307   1.340
 2990SOL     OW 8995   0.367   4.824   0.501
 2990SOL    HW1 8996   0.360   4.907   0.445
 2990SOL    HW2 8997   0.371   4.744   0.441
 2991SOL     OW 8998   0.566   4.261   0.865
 2991SOL    HW1 8999   0.578   4.327   0.791
 2991SOL    HW2 9000   0.612   4.295   0.948
 2992SOL     OW 9001   1.252   5.072   0.388
 2992SOL    HW1 9002   1.302   5.149   0.428
 2992SOL    HW2 9003   1.157   5.074   0.420
 2993SOL     OW 9004   1.272   5.169   1.142
 2993SOL    HW1 9005   1.319   5.182   1.229
 2993SOL    HW2 9006   1.206   5.095   1.151
 2994SOL     OW 9007   1.582   4.363   0.472
 2994SOL    HW1 9008   1.551   4.424   0.545
 2994SOL    HW2 9009   1.632   4.415   0.403
 2995SOL     OW 9010   0.354   5.234   1.329
 2995SOL    HW1 9011   0.333   5.190   1.242
 2995SOL    HW2 9012   0.451   5.260   1.332
 2996SOL     OW 9013   0.402   4.475   1.598
 2996SOL    HW1 9014   0.470   4.530   1.551
 2996SOL    HW2 9015   0.442   4.387   1.625
 2997SOL     OW 9016   1.587   4.503   1.670
 2997SOL    HW1 9017   1.495   4.541   1.665
 2997SOL    HW2 9018   1.647   4.550   1.605
 2998SOL     OW 9019   1.013   3.829   1.770
 2998SOL    HW1 9020   1.019   3.914   1.718
 2998SOL    HW2 9021   1.045   3.753   1.713
 2999SOL     OW 9022   0.504   3.774   1.740
 2999SOL    HW1 9023   0.462   3.717   1.670
 2999SOL    HW2 9024   0.438   3.843   1.772
 3000SOL     OW 9025   0.573   4.594   1.029
 3000SOL    HW1 9026   0.617   4.683   1.020
 3000SOL    HW2 9027   0.510   4.594   1.106
 3001SOL     OW 9028   1.360   4.586   1.045
 3001SOL    HW1 9029   1.285   4.586   0.979
 3001SOL    HW2 9030   1.397   4.494   1.054
 3002SOL     OW 9031   1.209   4.249   0.275
 3002SOL    HW1 9032   1.222   4.165   0.329
 3002SOL    HW2 9033   1.180   4.323   0.335
 3003SOL     OW 9034   0.307   3.937   1.231
 3003SOL    HW1 9035   0.284   3.974   1.321
 3003SOL    HW2 9036   0.277   3.842   1.225
 3004SOL     OW 9037   0.037   5.034   1.282
 3004SOL    HW1 9038   0.090   4.985   1.350
 3004SOL    HW2 9039   0.059   5.132   1.287
 3005SOL     OW 9040   0.732   4.358   1.064
 3005SOL    HW1 9041   0.791   4.332   0.988
 3005SOL    HW2 9042   0.704   4.454   1.053
 3006SOL     OW 9043   1.728   4.659   1.854
 3006SOL    HW1 9044   1.682   4.652   1.765
 3006SOL    HW2 9045   1.666   4.703   1.920
 3007SOL     OW 9046   0.307   3.787   0.618
 3007SOL    HW1 9047   0.296   3.881   0.651
 3007SOL    HW2 9048   0.302   3.724   0.695
 3008SOL     OW 9049   1.622   4.091   0.374
 3008SOL    HW1 9050   1.624   4.015   0.438
 3008SOL    HW2 9051   1.574   4.168   0.414
 3009SOL     OW 9052   1.023   4.490   0.966
 3009SOL    HW1 9053   1.038   4.511   1.062
 3009SOL    HW2 9054   0.993   4.395   0.957
 3010SOL     OW 9055   0.980   5.297   1.700
 3010SOL    HW1 9056   0.960   5.341   1.612
 3010SOL    HW2 9057   1.019   5.206   1.684
 3011SOL     OW 9058   1.859   5.242   1.605
 3011SOL    HW1 9059   1.873   5.269   1.510
 3011SOL    HW2 9060   1.942   5.264   1.658
 3012SOL     OW 9061   0.350   4.622   1.804
 3012SOL    HW1 9062   0.426   4.666   1.852
 3012SOL    HW2 9063   0.385   4.575   1.722
 3013SOL     OW 9064   1.540   3.998   0.125
 3013SOL    HW1 9065   1.479   3.923   0.148
 3013SOL    HW2 9066   1.562   4.050   0.208
 3014SOL     OW 9067   1.303   4.562   0.042
 3014SOL    HW1 9068   1.337   4.469   0.057
 3014SOL    HW2 9069   1.321   4.589  -0.053
 3015SOL     OW 9070   1.068   5.057   0.849
 3015SOL    HW1 9071   1.075   4.973   0.794
 3015SOL    HW2 9072   1.130   5.126   0.813
 3016SOL     OW 9073   0.319   4.534   0.949
 3016SOL    HW1 9074   0.412   4.570   0.954
 3016SOL    HW2 9075   0.313   4.449   1.001
 3017SOL     OW 9076   0.339   4.233   1.006
 3017SOL    HW1 9077   0.287   4.150   0.989
 3017SOL    HW2 9078   0.416   4.238   0.942
 3018SOL     OW 9079   1.138   4.104   1.678
 3018SOL    HW1 9080   1.093   4.167   1.742
 3018SOL    HW2 9081   1.231   4.135   1.661
 3019SOL     OW 9082   1.160   3.931   1.477
 3019SOL    HW1 9083   1.160   3.995   1.554
 3019SOL    HW2 9084   1.188   3.979   1.394
 3020SOL     OW 9085   0.008   5.050   0.200
 3020SOL    HW1 9086  -0.085   5.071   0.169
 3020SOL    HW2 9087   0.018   4.951   0.213
 3021SOL     OW 9088   0.088   5.525   0.927
 3021SOL    HW1 9089   0.046   5.439   0.900
 3021SOL    HW2 9090   0.182   5.528   0.893
 3022SOL     OW 9091   0.504   5.292   0.910
 3022SOL    HW1 9092   0.570   5.366   0.919
 3022SOL    HW2 9093   0.548   5.213   0.868
 3023SOL     OW 9094   1.002   4.520   1.238
 3023SOL    HW1 9095   1.043   4.488   1.324
 3023SOL    HW2 9096   0.906   4.493   1.235
 3024SOL     OW 9097   0.040   4.268   1.114
 3024SOL    HW1 9098   0.125   4.235   1.073
 3024SOL    HW2 9099   0.053   4.283   1.212
 3025SOL     OW 9100   0.189   4.244   1.722
 3025SOL    HW1 9101   0.248   4.204   1.652
 3025SOL    HW2 9102   0.131   4.315   1.681
 3026SOL     OW 9103   1.369   4.674   1.660
 3026SOL    HW1 9104   1.408   4.763   1.680
 3026SOL    HW2 9105   1.379   4.654   1.563
 3027SOL     OW 9106   0.815   4.296   0.325
 3027SOL    HW1 9107   0.822   4.207   0.279
 3027SOL    HW2 9108   0.721   4.330   0.317
 3028SOL     OW 9109   1.657   4.328   1.206
 3028SOL    HW1 9110   1.619   4.259   1.268
 3028SOL    HW2 9111   1.739   4.292   1.162
 3029SOL     OW 9112   0.252   5.288   1.744
 3029SOL    HW1 9113   0.222   5.345   1.820
 3029SOL    HW2 9114   0.245   5.191   1.770
 3030SOL     OW 9115   0.671   4.188   1.269
 3030SOL    HW1 9116   0.637   4.099   1.239
 3030SOL    HW2 9117   0.697   4.242   1.189
 3031SOL     OW 9118   0.930   5.402   1.465
 3031SOL    HW1 9119   0.906   5.384   1.370
 3031SOL    HW2 9120   0.960   5.496   1.475
 3032SOL     OW 9121   0.473   4.224   0.191
 3032SOL    HW1 9122   0.534   4.304   0.195
 3032SOL    HW2 9123   0.378   4.255   0.198
 3033SOL     OW 9124   0.159   4.861   1.466
 3033SOL    HW1 9125   0.181   4.800   1.542
 3033SOL    HW2 9126   0.169   4.812   1.380
 3034SOL     OW 9127   1.347   4.783   1.234
 3034SOL    HW1 9128   1.371   4.720   1.160
 3034SOL    HW2 9129   1.257   4.823   1.216
 3035SOL     OW 9130   1.302   4.579   0.309
 3035SOL    HW1 9131   1.216   4.548   0.351
 3035SOL    HW2 9132   1.298   4.565   0.210
 3036SOL     OW 9133   1.759   5.471   1.154
 3036SOL    HW1 9134   1.820   5.501   1.081
 3036SOL    HW2 9135   1.721   5.382   1.132
 3037SOL     OW 9136   1.252   5.455   1.128
 3037SOL    HW1 9137   1.336   5.460   1.074
 3037SOL    HW2 9138   1.229   5.359   1.146
 3038SOL     OW 9139   0.083   4.982   1.022
 3038SOL    HW1 9140   0.078   4.981   1.122
 3038SOL    HW2 9141   0.000   4.941   0.984
 3039SOL     OW 9142   0.688   5.386   1.716
 3039SOL    HW1 9143   0.632   5.467   1.725
 3039SOL    HW2 9144   0.740   5.390   1.630
 3040SOL     OW 9145   0.903   3.810   0.133
 3040SOL    HW1 9146   0.954   3.811   0.047
 3040SOL    HW2 9147   0.959   3.768   0.204
 3041SOL     OW 9148   1.726   3.859   0.523
 3041SOL    HW1 9149   1.799   3.842   0.456
 3041SOL    HW2 9150   1.695   3.772   0.561
 3042SOL     OW 9151   1.388   5.297   0.477
 3042SOL    HW1 9152   1.455   5.309   0.403
 3042SOL    HW2 9153   1.348   5.386   0.500
 3043SOL     OW 9154   0.130   5.518   1.851
 3043SOL    HW1 9155   0.089   5.444   1.904
 3043SOL    HW2 9156   0.194   5.569   1.909
 3044SOL     OW 9157   1.280   4.651   0.672
 3044SOL    HW1 9158   1.340   4.570   0.674
 3044SOL    HW2 9159   1.320   4.720   0.612
 3045SOL     OW 9160   0.830   4.997   1.422
 3045SOL    HW1 9161   0.825   5.030   1.517
 3045SOL    HW2 9162   0.744   5.016   1.376
 3046SOL     OW 9163   0.672   5.340   0.154
 3046SOL    HW1 9164   0.681   5.350   0.055
 3046SOL    HW2 9165   0.632   5.251   0.175
 3047SOL     OW 9166   1.650   5.444   1.394
 3047SOL    HW1 9167   1.703   5.454   1.310
 3047SOL    HW2 9168   1.623   5.534   1.428
 3048SOL     OW 9169   1.841   3.899   0.963
 3048SOL    HW1 9170   1.880   3.814   0.927
 3048SOL    HW2 9171   1.743   3.901   0.944
 3049SOL     OW 9172   0.263   4.050   0.720
 3049SOL    HW1 9173   0.184   4.101   0.686
 3049SOL    HW2 9174   0.254   4.035   0.818
 3050SOL     OW 9175   1.194   5.336   0.031
 3050SOL    HW1 9176   1.200   5.243   0.068
 3050SOL    HW2 9177   1.135   5.336  -0.049
 3051SOL     OW 9178   0.822   4.726   1.372
 3051SOL    HW1 9179   0.862   4.725   1.280
 3051SOL    HW2 9180   0.832   4.818   1.412
 3052SOL     OW 9181   0.916   4.634   0.291
 3052SOL    HW1 9182   0.979   4.672   0.223
 3052SOL    HW2 9183   0.956   4.551   0.330
 3053SOL     OW 9184   1.504   5.331   0.044
 3053SOL    HW1 9185   1.412   5.368   0.051
 3053SOL    HW2 9186   1.542   5.351  -0.046
 3054SOL     OW 9187   0.372   5.012   1.490
 3054SOL    HW1 9188   0.359   5.105   1.456
 3054SOL    HW2 9189   0.288   4.960   1.477
 3055SOL     OW 9190   1.614   5.016   1.289
 3055SOL    HW1 9191   1.674   5.019   1.369
 3055SOL    HW2 9192   1.539   5.080   1.302
 3056SOL     OW 9193   1.039   4.822   0.696
 3056SOL    HW1 9194   0.969   4.775   0.750
 3056SOL    HW2 9195   1.098   4.754   0.653
 3057SOL     OW 9196   1.014   3.960   0.971
 3057SOL    HW1 9197   1.006   3.924   0.878
 3057SOL    HW2 9198   1.012   3.884   1.036
 3058SOL     OW 9199   0.590   5.211   0.491
 3058SOL    HW1 9200   0.632   5.153   0.421
 3058SOL    HW2 9201   0.546   5.290   0.447
 3059SOL     OW 9202   1.709   4.109   1.381
 3059SOL    HW1 9203   1.782   4.178   1.385
 3059SOL    HW2 9204   1.737   4.034   1.322
 3060SOL     OW 9205   0.255   5.072   0.290
 3060SOL    HW1 9206   0.159   5.073   0.263
 3060SOL    HW2 9207   0.267   5.125   0.374
 3061SOL     OW 9208   0.105   4.737   1.726
 3061SOL    HW1 9209   0.028   4.704   1.780
 3061SOL    HW2 9210   0.190   4.707   1.768
 3062SOL     OW 9211   0.672   3.927   1.489
 3062SOL    HW1 9212   0.762   3.911   1.449
 3062SOL    HW2 9213   0.680   3.932   1.588
 3063SOL     OW 9214   0.075   4.069   0.033
 3063SOL    HW1 9215  -0.017   4.041   0.004
 3063SOL    HW2 9216   0.106   4.146  -0.023
 3064SOL     OW 9217   1.440   4.580   1.398
 3064SOL    HW1 9218   1.383   4.632   1.335
 3064SOL    HW2 9219   1.536   4.592   1.374
 3065SOL     OW 9220   0.072   3.890   0.318
 3065SOL    HW1 9221   0.055   3.973   0.264
 3065SOL    HW2 9222   0.162   3.853   0.296
 3066SOL     OW 9223   1.183   5.059   0.119
 3066SOL    HW1 9224   1.084   5.048   0.121
 3066SOL    HW2 9225   1.217   5.074   0.212
 3067SOL     OW 9226   0.613   4.566   1.431
 3067SOL    HW1 9227   0.669   4.647   1.414
 3067SOL    HW2 9228   0.672   4.486   1.434
 3068SOL     OW 9229   1.493   5.491   0.959
 3068SOL    HW1 9230   1.526   5.555   0.890
 3068SOL    HW2 9231   1.559   5.485   1.034
 3069SOL     OW 9232   0.716   4.289   1.708
 3069SOL    HW1 9233   0.735   4.354   1.782
 3069SOL    HW2 9234   0.776   4.209   1.717
 3070SOL     OW 9235   1.450   4.944   1.633
 3070SOL    HW1 9236   1.441   4.934   1.732
 3070SOL    HW2 9237   1.546   4.937   1.607
 3071SOL     OW 9238   0.390   5.465   1.560
 3071SOL    HW1 9239   0.299   5.506   1.558
 3071SOL    HW2 9240   0.383   5.371   1.592
 3072SOL     OW 9241   1.674   4.607   1.254
 3072SOL    HW1 9242   1.647   4.518   1.217
 3072SOL    HW2 9243   1.675   4.675   1.181
 3073SOL     OW 9244   1.225   4.049   0.449
 3073SOL    HW1 9245   1.290   3.975   0.438
 3073SOL    HW2 9246   1.245   4.099   0.533
 3074SOL     OW 9247   0.594   4.469   0.652
 3074SOL    HW1 9248   0.644   4.554   0.633
 3074SOL    HW2 9249   0.506   4.471   0.604
 3075SOL     OW 9250   1.777   4.066   1.642
 3075SOL    HW1 9251   1.760   4.097   1.548
 3075SOL    HW2 9252   1.693   4.029   1.680
 3076SOL     OW 9253   1.730   4.658   1.517
 3076SOL    HW1 9254   1.768   4.749   1.532
 3076SOL    HW2 9255   1.722   4.641   1.418
 3077SOL     OW 9256   0.859   5.098   0.016
 3077SOL    HW1 9257   0.813   5.113   0.104
 3077SOL    HW2 9258   0.903   5.183  -0.014
 3078SOL     OW 9259   0.661   5.514   0.953
 3078SOL    HW1 9260   0.615   5.602   0.940
 3078SOL    HW2 9261   0.760   5.526   0.946
 3079SOL     OW 9262   0.859   4.680   0.861
 3079SOL    HW1 9263   0.913   4.611   0.909
 3079SOL    HW2 9264   0.827   4.749   0.927
 3080SOL     OW 9265   1.083   4.708   0.087
 3080SOL    HW1 9266   1.060   4.761   0.005
 3080SOL    HW2 9267   1.164   4.652   0.068
 3081SOL     OW 9268   1.861   5.293   0.851
 3081SOL    HW1 9269   1.790   5.281   0.781
 3081SOL    HW2 9270   1.862   5.214   0.911
 3082SOL     OW 9271   0.221   5.038   1.844
 3082SOL    HW1 9272   0.156   4.965   1.823
 3082SOL    HW2 9273   0.225   5.052   1.942
 3083SOL     OW 9274   0.079   4.964   0.653
 3083SOL    HW1 9275   0.078   4.917   0.741
 3083SOL    HW2 9276   0.161   4.936   0.602
 3084SOL     OW 9277   0.672   5.115   1.624
 3084SOL    HW1 9278   0.594   5.065   1.662
 3084SOL    HW2 9279   0.669   5.210   1.655
 3085SOL     OW 9280   1.824   3.916   1.227
 3085SOL    HW1 9281   1.820   3.826   1.271
 3085SOL    HW2 9282   1.827   3.905   1.128
 3086SOL     OW 9283   0.428   4.148   0.520
 3086SOL    HW1 9284   0.458   4.076   0.458
 3086SOL    HW2 9285   0.389   4.108   0.603
 3087SOL     OW 9286   1.705   5.211   1.104
 3087SOL    HW1 9287   1.612   5.186   1.077
 3087SOL    HW2 9288   1.731   5.161   1.186
 3088SOL     OW 9289   0.317   4.271   1.280
 3088SOL    HW1 9290   0.355   4.212   1.352
 3088SOL    HW2 9291   0.357   4.245   1.192
 3089SOL     OW 9292   0.812   5.310   0.687
 3089SOL    HW1 9293   0.844   5.320   0.593
 3089SOL    HW2 9294   0.733   5.248   0.689
 3090SOL     OW 9295   1.424   3.938   1.112
 3090SOL    HW1 9296   1.476   3.873   1.167
 3090SOL    HW2 9297   1.375   4.001   1.173
 3091SOL     OW 9298   1.001   3.758   1.154
 3091SOL    HW1 9299   0.938   3.686   1.123
 3091SOL    HW2 9300   1.094   3.722   1.154
 3092SOL     OW 9301   0.770   5.054   0.301
 3092SOL    HW1 9302   0.724   4.967   0.318
 3092SOL    HW2 9303   0.861   5.051   0.342
 3093SOL     OW 9304   0.618   5.291   1.284
 3093SOL    HW1 9305   0.613   5.373   1.341
 3093SOL    HW2 9306   0.707   5.288   1.239
 3094SOL     OW 9307   1.352   3.776   0.168
 3094SOL    HW1 9308   1.387   3.735   0.084
 3094SOL    HW2 9309   1.262   3.738   0.188
 3095SOL     OW 9310   1.300   4.177   0.691
 3095SOL    HW1 9311   1.241   4.257   0.695
 3095SOL    HW2 9312   1.315   4.142   0.784
 3096SOL     OW 9313   1.593   3.945   0.882
 3096SOL    HW1 9314   1.509   3.944   0.936
 3096SOL    HW2 9315   1.595   4.028   0.826
 3097SOL     OW 9316   0.039   4.801   0.300
 3097SOL    HW1 9317   0.138   4.790   0.291
 3097SOL    HW2 9318  -0.001   4.715   0.332
 3098SOL     OW 9319   0.875   5.370   0.337
 3098SOL    HW1 9320   0.798   5.335   0.283
 3098SOL    HW2 9321   0.843   5.441   0.399
 3099SOL     OW 9322   0.230   4.352   1.975
 3099SOL    HW1 9323   0.137   4.350   2.012
 3099SOL    HW2 9324   0.231   4.313   1.883
 3100SOL     OW 9325   0.225   3.999   2.858
 3100SOL    HW1 9326   0.260   3.982   2.950
 3100SOL    HW2 9327   0.137   3.954   2.846
 3101SOL     OW 9328   0.019   4.092   2.509
 3101SOL    HW1 9329  -0.063   4.135   2.548
 3101SOL    HW2 9330  -0.009   4.019   2.446
 3102SOL     OW 9331   0.569   4.999   3.027
 3102SOL    HW1 9332   0.476   4.992   2.990
 3102SOL    HW2 9333   0.580   5.088   3.071
 3103SOL     OW 9334   1.555   5.235   2.565
 3103SOL    HW1 9335   1.498   5.219   2.646
 3103SOL    HW2 9336   1.496   5.245   2.485
 3104SOL     OW 9337   1.135   4.427   2.579
 3104SOL    HW1 9338   1.192   4.505   2.554
 3104SOL    HW2 9339   1.075   4.453   2.655
 3105SOL     OW 9340   1.755   4.331   2.093
 3105SOL    HW1 9341   1.743   4.318   1.994
 3105SOL    HW2 9342   1.725   4.250   2.142
 3106SOL     OW 9343   0.768   4.868   2.885
 3106SOL    HW1 9344   0.690   4.885   2.945
 3106SOL    HW2 9345   0.802   4.955   2.849
 3107SOL     OW 9346   0.850   4.522   3.685
 3107SOL    HW1 9347   0.846   4.598   3.750
 3107SOL    HW2 9348   0.872   4.558   3.594
 3108SOL     OW 9349   0.685   4.736   2.527
 3108SOL    HW1 9350   0.754   4.720   2.597
 3108SOL    HW2 9351   0.612   4.793   2.565
 3109SOL     OW 9352   0.686   4.885   3.665
 3109SOL    HW1 9353   0.746   4.964   3.679
 3109SOL    HW2 9354   0.600   4.916   3.624
 3110SOL     OW 9355   0.335   5.159   2.923
 3110SOL    HW1 9356   0.257   5.128   2.870
 3110SOL    HW2 9357   0.393   5.217   2.866
 3111SOL     OW 9358   1.460   5.229   3.201
 3111SOL    HW1 9359   1.484   5.323   3.227
 3111SOL    HW2 9360   1.444   5.175   3.283
 3112SOL     OW 9361   0.438   4.116   3.361
 3112SOL    HW1 9362   0.520   4.060   3.370
 3112SOL    HW2 9363   0.357   4.058   3.365
 3113SOL     OW 9364   1.603   4.171   2.599
 3113SOL    HW1 9365   1.529   4.217   2.549
 3113SOL    HW2 9366   1.654   4.239   2.652
 3114SOL     OW 9367   0.231   5.437   2.345
 3114SOL    HW1 9368   0.265   5.514   2.399
 3114SOL    HW2 9369   0.275   5.437   2.255
 3115SOL     OW 9370   1.127   5.065   3.552
 3115SOL    HW1 9371   1.174   5.065   3.640
 3115SOL    HW2 9372   1.079   4.978   3.541
 3116SOL     OW 9373   0.230   5.158   2.400
 3116SOL    HW1 9374   0.204   5.254   2.400
 3116SOL    HW2 9375   0.159   5.104   2.445
 3117SOL     OW 9376   0.240   4.815   2.748
 3117SOL    HW1 9377   0.254   4.731   2.800
 3117SOL    HW2 9378   0.185   4.879   2.803
 3118SOL     OW 9379   0.620   5.510   3.301
 3118SOL    HW1 9380   0.528   5.493   3.336
 3118SOL    HW2 9381   0.648   5.602   3.327
 3119SOL     OW 9382   0.606   4.688   1.985
 3119SOL    HW1 9383   0.613   4.772   1.931
 3119SOL    HW2 9384   0.652   4.701   2.073
 3120SOL     OW 9385   1.594   3.838   3.342
 3120SOL    HW1 9386   1.576   3.905   3.270
 3120SOL    HW2 9387   1.591   3.884   3.431
 3121SOL     OW 9388   0.122   4.367   2.425
 3121SOL    HW1 9389   0.077   4.279   2.442
 3121SOL    HW2 9390   0.121   4.421   2.509
 3122SOL     OW 9391   1.842   5.491   2.221
 3122SOL    HW1 9392   1.896   5.462   2.301
 3122SOL    HW2 9393   1.872   5.581   2.192
 3123SOL     OW 9394   0.027   5.320   1.979
 3123SOL    HW1 9395   0.008   5.224   2.000
 3123SOL    HW2 9396  -0.006   5.378   2.054
 3124SOL     OW 9397   1.689   4.646   2.474
 3124SOL    HW1 9398   1.784   4.617   2.482
 3124SOL    HW2 9399   1.681   4.711   2.399
 3125SOL     OW 9400   1.641   4.832   2.294
 3125SOL    HW1 9401   1.727   4.834   2.242
 3125SOL    HW2 9402   1.655   4.879   2.382
 3126SOL     OW 9403   0.113   4.461   3.459
 3126SOL    HW1 9404   0.201   4.448   3.504
 3126SOL    HW2 9405   0.100   4.558   3.437
 3127SOL     OW 9406   0.613   5.089   2.588
 3127SOL    HW1 9407   0.564   5.002   2.597
 3127SOL    HW2 9408   0.590   5.132   2.501
 3128SOL     OW 9409   1.293   4.952   3.285
 3128SOL    HW1 9410   1.330   4.879   3.227
 3128SOL    HW2 9411   1.345   4.957   3.370
 3129SOL     OW 9412   0.809   3.728   2.364
 3129SOL    HW1 9413   0.849   3.819   2.355
 3129SOL    HW2 9414   0.709   3.736   2.370
 3130SOL     OW 9415   0.197   4.700   3.126
 3130SOL    HW1 9416   0.286   4.655   3.112
 3130SOL    HW2 9417   0.124   4.635   3.107
 3131SOL     OW 9418   1.525   4.723   2.052
 3131SOL    HW1 9419   1.462   4.647   2.065
 3131SOL    HW2 9420   1.573   4.741   2.138
 3132SOL     OW 9421   1.187   5.516   3.478
 3132SOL    HW1 9422   1.211   5.576   3.402
 3132SOL    HW2 9423   1.194   5.421   3.448
 3133SOL     OW 9424   0.317   3.975   3.663
 3133SOL    HW1 9425   0.388   4.046   3.669
 3133SOL    HW2 9426   0.229   4.014   3.691
 3134SOL     OW 9427   1.466   5.141   2.815
 3134SOL    HW1 9428   1.407   5.147   2.895
 3134SOL    HW2 9429   1.451   5.053   2.769
 3135SOL     OW 9430   1.667   5.438   2.434
 3135SOL    HW1 9431   1.626   5.415   2.346
 3135SOL    HW2 9432   1.649   5.364   2.499
 3136SOL     OW 9433   0.598   4.453   2.132
 3136SOL    HW1 9434   0.622   4.522   2.064
 3136SOL    HW2 9435   0.520   4.486   2.186
 3137SOL     OW 9436   1.281   4.069   2.806
 3137SOL    HW1 9437   1.195   4.019   2.793
 3137SOL    HW2 9438   1.343   4.015   2.862
 3138SOL     OW 9439   1.576   5.386   2.169
 3138SOL    HW1 9440   1.665   5.432   2.172
 3138SOL    HW2 9441   1.555   5.362   2.074
 3139SOL     OW 9442   0.807   4.329   3.327
 3139SOL    HW1 9443   0.760   4.326   3.416
 3139SOL    HW2 9444   0.756   4.274   3.261
 3140SOL     OW 9445   1.394   4.193   3.536
 3140SOL    HW1 9446   1.374   4.236   3.624
 3140SOL    HW2 9447   1.472   4.131   3.545
 3141SOL     OW 9448   0.973   4.614   3.434
 3141SOL    HW1 9449   1.019   4.530   3.405
 3141SOL    HW2 9450   0.917   4.648   3.359
 3142SOL     OW 9451   0.991   4.134   3.104
 3142SOL    HW1 9452   0.914   4.168   3.158
 3142SOL    HW2 9453   0.957   4.083   3.025
 3143SOL     OW 9454   1.041   4.425   2.291
 3143SOL    HW1 9455   1.067   4.421   2.387
 3143SOL    HW2 9456   0.956   4.374   2.277
 3144SOL     OW 9457   0.076   4.535   2.651
 3144SOL    HW1 9458   0.175   4.523   2.660
 3144SOL    HW2 9459   0.052   4.630   2.672
 3145SOL     OW 9460   0.130   5.545   3.433
 3145SOL    HW1 9461   0.120   5.530   3.532
 3145SOL    HW2 9462   0.044   5.581   3.397
 3146SOL     OW 9463   0.865   4.072   2.057
 3146SOL    HW1 9464   0.924   4.135   2.008
 3146SOL    HW2 9465   0.884   3.978   2.028
 3147SOL     OW 9466   1.719   4.309   3.693
 3147SOL    HW1 9467   1.693   4.398   3.657
 3147SOL    HW2 9468   1.717   4.241   3.620
 3148SOL     OW 9469   1.362   4.868   2.407
 3148SOL    HW1 9470   1.445   4.839   2.359
 3148SOL    HW2 9471   1.313   4.935   2.351
 3149SOL     OW 9472   0.550   3.920   2.747
 3149SOL    HW1 9473   0.545   3.915   2.847
 3149SOL    HW2 9474   0.552   4.016   2.718
 3150SOL     OW 9475   1.008   5.180   2.339
 3150SOL    HW1 9476   0.962   5.252   2.287
 3150SOL    HW2 9477   1.004   5.200   2.437
 3151SOL     OW 9478   0.351   5.525   2.715
 3151SOL    HW1 9479   0.401   5.439   2.721
 3151SOL    HW2 9480   0.416   5.602   2.712
 3152SOL     OW 9481   1.795   4.790   2.735
 3152SOL    HW1 9482   1.733   4.775   2.659
 3152SOL    HW2 9483   1.743   4.801   2.820
 3153SOL     OW 9484   1.227   5.274   3.368
 3153SOL    HW1 9485   1.233   5.197   3.432
 3153SOL    HW2 9486   1.175   5.248   3.288
 3154SOL     OW 9487   0.321   4.667   2.104
 3154SOL    HW1 9488   0.403   4.706   2.062
 3154SOL    HW2 9489   0.294   4.585   2.055
 3155SOL     OW 9490   1.458   4.459   2.590
 3155SOL    HW1 9491   1.453   4.394   2.665
 3155SOL    HW2 9492   1.538   4.518   2.603
 3156SOL     OW 9493   0.461   4.990   3.589
 3156SOL    HW1 9494   0.411   4.991   3.503
 3156SOL    HW2 9495   0.398   4.972   3.665
 3157SOL     OW 9496   1.111   5.500   2.099
 3157SOL    HW1 9497   1.051   5.438   2.149
 3157SOL    HW2 9498   1.142   5.456   2.014
 3158SOL     OW 9499   0.202   4.009   3.360
 3158SOL    HW1 9500   0.122   4.069   3.347
 3158SOL    HW2 9501   0.192   3.960   3.446
 3159SOL     OW 9502   1.632   5.101   1.943
 3159SOL    HW1 9503   1.600   5.195   1.933
 3159SOL    HW2 9504   1.556   5.038   1.931
 3160SOL     OW 9505   0.464   5.467   2.185
 3160SOL    HW1 9506   0.497   5.506   2.271
 3160SOL    HW2 9507   0.540   5.460   2.120
 3161SOL     OW 9508   1.400   3.831   2.288
 3161SOL    HW1 9509   1.376   3.794   2.198
 3161SOL    HW2 9510   1.499   3.847   2.292
 3162SOL     OW 9511   0.249   5.509   3.103
 3162SOL    HW1 9512   0.306   5.444   3.153
 3162SOL    HW2 9513   0.233   5.476   3.010
 3163SOL     OW 9514   0.940   5.422   2.766
 3163SOL    HW1 9515   1.020   5.365   2.787
 3163SOL    HW2 9516   0.891   5.382   2.689
 3164SOL     OW 9517   0.382   4.424   2.342
 3164SOL    HW1 9518   0.427   4.334   2.339
 3164SOL    HW2 9519   0.288   4.413   2.375
 3165SOL     OW 9520   1.547   3.946   3.591
 3165SOL    HW1 9521   1.542   3.983   3.683
 3165SOL    HW2 9522   1.475   3.877   3.579
 3166SOL     OW 9523   0.614   3.846   1.979
 3166SOL    HW1 9524   0.712   3.824   1.986
 3166SOL    HW2 9525   0.583   3.829   1.886
 3167SOL     OW 9526   0.781   3.988   3.611
 3167SOL    HW1 9527   0.848   3.927   3.654
 3167SOL    HW2 9528   0.708   4.007   3.676
 3168SOL     OW 9529   0.888   5.238   3.057
 3168SOL    HW1 9530   0.865   5.213   2.963
 3168SOL    HW2 9531   0.949   5.169   3.096
 3169SOL     OW 9532   1.351   4.314   3.295
 3169SOL    HW1 9533   1.379   4.271   3.380
 3169SOL    HW2 9534   1.376   4.410   3.296
 3170SOL     OW 9535   0.803   5.126   2.786
 3170SOL    HW1 9536   0.893   5.140   2.744
 3170SOL    HW2 9537   0.732   5.128   2.715
 3171SOL     OW 9538   0.922   4.227   2.761
 3171SOL    HW1 9539   0.897   4.218   2.665
 3171SOL    HW2 9540   0.970   4.145   2.792
 3172SOL     OW 9541   0.539   3.788   2.374
 3172SOL    HW1 9542   0.458   3.789   2.432
 3172SOL    HW2 9543   0.542   3.871   2.319
 3173SOL     OW 9544   1.434   4.912   1.903
 3173SOL    HW1 9545   1.466   4.836   1.960
 3173SOL    HW2 9546   1.342   4.939   1.933
 3174SOL     OW 9547   0.297   3.759   2.033
 3174SOL    HW1 9548   0.346   3.843   2.012
 3174SOL    HW2 9549   0.359   3.694   2.078
 3175SOL     OW 9550   0.935   3.960   2.342
 3175SOL    HW1 9551   0.887   4.001   2.264
 3175SOL    HW2 9552   1.034   3.958   2.323
 3176SOL     OW 9553   1.076   4.407   3.326
 3176SOL    HW1 9554   0.996   4.346   3.329
 3176SOL    HW2 9555   1.157   4.354   3.302
 3177SOL     OW 9556   1.227   5.294   2.655
 3177SOL    HW1 9557   1.248   5.368   2.590
 3177SOL    HW2 9558   1.295   5.294   2.728
 3178SOL     OW 9559   0.459   4.876   2.603
 3178SOL    HW1 9560   0.388   4.849   2.668
 3178SOL    HW2 9561   0.433   4.848   2.510
 3179SOL     OW 9562   1.271   5.521   2.453
 3179SOL    HW1 9563   1.315   5.585   2.389
 3179SOL    HW2 9564   1.221   5.573   2.523
 3180SOL     OW 9565   1.032   4.273   1.878
 3180SOL    HW1 9566   0.991   4.355   1.839
 3180SOL    HW2 9567   1.096   4.299   1.951
 3181SOL     OW 9568   0.078   4.280   3.248
 3181SOL    HW1 9569   0.170   4.279   3.207
 3181SOL    HW2 9570   0.072   4.354   3.315
 3182SOL     OW 9571   0.561   3.946   3.009
 3182SOL    HW1 9572   0.599   3.862   3.046
 3182SOL    HW2 9573   0.473   3.965   3.053
 3183SOL     OW 9574   0.866   4.178   2.504
 3183SOL    HW1 9575   0.834   4.250   2.442
 3183SOL    HW2 9576   0.890   4.097   2.451
 3184SOL     OW 9577   1.017   3.763   2.615
 3184SOL    HW1 9578   0.945   3.768   2.546
 3184SOL    HW2 9579   0.993   3.694   2.684
 3185SOL     OW 9580   1.429   4.897   2.729
 3185SOL    HW1 9581   1.374   4.813   2.722
 3185SOL    HW2 9582   1.455   4.926   2.637
 3186SOL     OW 9583   1.466   4.314   2.854
 3186SOL    HW1 9584   1.436   4.219   2.861
 3186SOL    HW2 9585   1.539   4.330   2.920
 3187SOL     OW 9586   1.857   4.557   2.239
 3187SOL    HW1 9587   1.899   4.493   2.303
 3187SOL    HW2 9588   1.819   4.506   2.161
 3188SOL     OW 9589   0.488   5.109   2.036
 3188SOL    HW1 9590   0.401   5.094   2.083
 3188SOL    HW2 9591   0.471   5.135   1.941
 3189SOL     OW 9592   1.664   5.004   2.519
 3189SOL    HW1 9593   1.763   5.012   2.533
 3189SOL    HW2 9594   1.619   5.088   2.550
 3190SOL     OW 9595   1.390   4.299   1.940
 3190SOL    HW1 9596   1.336   4.278   2.021
 3190SOL    HW2 9597   1.481   4.258   1.949
 3191SOL     OW 9598   0.527   3.980   2.190
 3191SOL    HW1 9599   0.554   3.921   2.115
 3191SOL    HW2 9600   0.527   4.075   2.159
 3192SOL     OW 9601   1.754   4.947   3.450
 3192SOL    HW1 9602   1.845   4.908   3.437
 3192SOL    HW2 9603   1.762   5.043   3.474
 3193SOL     OW 9604   1.064   5.071   3.202
 3193SOL    HW1 9605   0.984   5.048   3.257
 3193SOL    HW2 9606   1.147   5.045   3.251
 3194SOL     OW 9607   1.592   5.353   3.487
 3194SOL    HW1 9608   1.619   5.387   3.397
 3194SOL    HW2 9609   1.671   5.315   3.533
 3195SOL     OW 9610   1.111   4.919   2.962
 3195SOL    HW1 9611   1.071   4.963   3.043
 3195SOL    HW2 9612   1.070   4.956   2.879
 3196SOL     OW 9613   1.638   4.823   2.941
 3196SOL    HW1 9614   1.643   4.904   3.000
 3196SOL    HW2 9615   1.552   4.825   2.890
 3197SOL     OW 9616   0.915   3.813   3.264
 3197SOL    HW1 9617   0.940   3.793   3.169
 3197SOL    HW2 9618   0.987   3.869   3.306
 3198SOL     OW 9619   0.980   4.840   3.581
 3198SOL    HW1 9620   0.881   4.846   3.591
 3198SOL    HW2 9621   1.003   4.760   3.525
 3199SOL     OW 9622   0.705   4.774   2.230
 3199SOL    HW1 9623   0.691   4.781   2.329
 3199SOL    HW2 9624   0.789   4.723   2.212
 3200SOL     OW 9625   0.410   4.537   3.113
 3200SOL    HW1 9626   0.496   4.549   3.163
 3200SOL    HW2 9627   0.368   4.450   3.140
 3201SOL     OW 9628   1.274   4.110   3.124
 3201SOL    HW1 9629   1.295   4.184   3.188
 3201SOL    HW2 9630   1.185   4.127   3.081
 3202SOL     OW 9631   0.064   5.288   3.193
 3202SOL    HW1 9632   0.018   5.370   3.159
 3202SOL    HW2 9633   0.162   5.307   3.202
 3203SOL     OW 9634   0.367   4.824   2.363
 3203SOL    HW1 9635   0.360   4.907   2.307
 3203SOL    HW2 9636   0.371   4.744   2.303
 3204SOL     OW 9637   0.566   4.261   2.727
 3204SOL    HW1 9638   0.578   4.327   2.653
 3204SOL    HW2 9639   0.612   4.295   2.810
 3205SOL     OW 9640   1.252   5.072   2.250
 3205SOL    HW1 9641   1.302   5.149   2.290
 3205SOL    HW2 9642   1.157   5.074   2.282
 3206SOL     OW 9643   1.272   5.169   3.004
 3206SOL    HW1 9644   1.319   5.182   3.091
 3206SOL    HW2 9645   1.206   5.095   3.013
 3207SOL     OW 9646   1.582   4.363   2.334
 3207SOL    HW1 9647   1.551   4.424   2.407
 3207SOL    HW2 9648   1.632   4.415   2.265
 3208SOL     OW 9649   0.354   5.234   3.191
 3208SOL    HW1 9650   0.333   5.190   3.104
 3208SOL    HW2 9651   0.451   5.260   3.194
 3209SOL     OW 9652   0.402   4.475   3.460
 3209SOL    HW1 9653   0.470   4.530   3.413
 3209SOL    HW2 9654   0.442   4.387   3.487
 3210SOL     OW 9655   1.587   4.503   3.532
 3210SOL    HW1 9656   1.495   4.541   3.527
 3210SOL    HW2 9657   1.647   4.550   3.467
 3211SOL     OW 9658   1.013   3.829   3.632
 3211SOL    HW1 9659   1.019   3.914   3.580
 3211SOL    HW2 9660   1.045   3.753   3.575
 3212SOL     OW 9661   0.504   3.774   3.602
 3212SOL    HW1 9662   0.462   3.717   3.532
 3212SOL    HW2 9663   0.438   3.843   3.634
 3213SOL     OW 9664   0.573   4.594   2.891
 3213SOL    HW1 9665   0.617   4.683   2.882
 3213SOL    HW2 9666   0.510   4.594   2.968
 3214SOL     OW 9667   1.360   4.586   2.907
 3214SOL    HW1 9668   1.285   4.586   2.841
 3214SOL    HW2 9669   1.397   4.494   2.916
 3215SOL     OW 9670   1.209   4.249   2.137
 3215SOL    HW1 9671   1.222   4.165   2.191
 3215SOL    HW2 9672   1.180   4.323   2.197
 3216SOL     OW 9673   0.307   3.937   3.093
 3216SOL    HW1 9674   0.284   3.974   3.183
 3216SOL    HW2 9675   0.277   3.842   3.087
 3217SOL     OW 9676   0.037   5.034   3.144
 3217SOL    HW1 9677   0.090   4.985   3.212
 3217SOL    HW2 9678   0.059   5.132   3.149
 3218SOL     OW 9679   0.732   4.358   2.926
 3218SOL    HW1 9680   0.791   4.332   2.850
 3218SOL    HW2 9681   0.704   4.454   2.915
 3219SOL     OW 9682   1.728   4.659   3.716
 3219SOL    HW1 9683   1.682   4.652   3.627
 3219SOL    HW2 9684   1.666   4.703   3.782
 3220SOL     OW 9685   0.307   3.787   2.480
 3220SOL    HW1 9686   0.296   3.881   2.513
 3220SOL    HW2 9687   0.302   3.724   2.557
 3221SOL     OW 9688   1.622   4.091   2.236
 3221SOL    HW1 9689   1.624   4.015   2.300
 3221SOL    HW2 9690   1.574   4.168   2.276
 3222SOL     OW 9691   1.023   4.490   2.828
 3222SOL    HW1 9692   1.038   4.511   2.924
 3222SOL    HW2 9693   0.993   4.395   2.819
 3223SOL     OW 9694   0.980   5.297   3.562
 3223SOL    HW1 9695   0.960   5.341   3.474
 3223SOL    HW2 9696   1.019   5.206   3.546
 3224SOL     OW 9697   1.859   5.242   3.467
 3224SOL    HW1 9698   1.873   5.269   3.372
 3224SOL    HW2 9699   1.942   5.264   3.520
 3225SOL     OW 9700   0.350   4.622   3.666
 3225SOL    HW1 9701   0.426   4.666   3.714
 3225SOL    HW2 9702   0.385   4.575   3.584
 3226SOL     OW 9703   1.540   3.998   1.987
 3226SOL    HW1 9704   1.479   3.923   2.010
 3226SOL    HW2 9705   1.562   4.050   2.070
 3227SOL     OW 9706   1.303   4.562   1.904
 3227SOL    HW1 9707   1.337   4.469   1.919
 3227SOL    HW2 9708   1.321   4.589   1.809
 3228SOL     OW 9709   1.068   5.057   2.711
 3228SOL    HW1 9710   1.075   4.973   2.656
 3228SOL    HW2 9711   1.130   5.126   2.675
 3229SOL     OW 9712   0.319   4.534   2.811
 3229SOL    HW1 9713   0.412   4.570   2.816
 3229SOL    HW2 9714   0.313   4.449   2.863
 3230SOL     OW 9715   0.339   4.233   2.868
 3230SOL    HW1 9716   0.287   4.150   2.851
 3230SOL    HW2 9717   0.416   4.238   2.804
 3231SOL     OW 9718   1.138   4.104   3.540
 3231SOL    HW1 9719   1.093   4.167   3.604
 3231SOL    HW2 9720   1.231   4.135   3.523
 3232SOL     OW 9721   1.160   3.931   3.339
 3232SOL    HW1 9722   1.160   3.995   3.416
 3232SOL    HW2 9723   1.188   3.979   3.256
 3233SOL     OW 9724   0.008   5.050   2.062
 3233SOL    HW1 9725  -0.085   5.071   2.031
 3233SOL    HW2 9726   0.018   4.951   2.075
 3234SOL     OW 9727   0.088   5.525   2.789
 3234SOL    HW1 9728   0.046   5.439   2.762
 3234SOL    HW2 9729   0.182   5.528   2.755
 3235SOL     OW 9730   0.504   5.292   2.772
 3235SOL    HW1 9731   0.570   5.366   2.781
 3235SOL    HW2 9732   0.548   5.213   2.730
 3236SOL     OW 9733   1.002   4.520   3.100
 3236SOL    HW1 9734   1.043   4.488   3.186
 3236SOL    HW2 9735   0.906   4.493   3.097
 3237SOL     OW 9736   0.040   4.268   2.976
 3237SOL    HW1 9737   0.125   4.235   2.935
 3237SOL    HW2 9738   0.053   4.283   3.074
 3238SOL     OW 9739   0.189   4.244   3.584
 3238SOL    HW1 9740   0.248   4.204   3.514
 3238SOL    HW2 9741   0.131   4.315   3.543
 3239SOL     OW 9742   1.369   4.674   3.522
 3239SOL    HW1 9743   1.408   4.763   3.542
 3239SOL    HW2 9744   1.379   4.654   3.425
 3240SOL     OW 9745   0.815   4.296   2.187
 3240SOL    HW1 9746   0.822   4.207   2.141
 3240SOL    HW2 9747   0.721   4.330   2.179
 3241SOL     OW 9748   1.657   4.328   3.068
 3241SOL    HW1 9749   1.619   4.259   3.130
 3241SOL    HW2 9750   1.739   4.292   3.024
 3242SOL     OW 9751   0.252   5.288   3.606
 3242SOL    HW1 9752   0.222   5.345   3.682
 3242SOL    HW2 9753   0.245   5.191   3.632
 3243SOL     OW 9754   0.671   4.188   3.131
 3243SOL    HW1 9755   0.637   4.099   3.101
 3243SOL    HW2 9756   0.697   4.242   3.051
 3244SOL     OW 9757   0.930   5.402   3.327
 3244SOL    HW1 9758   0.906   5.384   3.232
 3244SOL    HW2 9759   0.960   5.496   3.337
 3245SOL     OW 9760   0.473   4.224   2.053
 3245SOL    HW1 9761   0.534   4.304   2.057
 3245SOL    HW2 9762   0.378   4.255   2.060
 3246SOL     OW 9763   0.159   4.861   3.328
 3246SOL    HW1 9764   0.181   4.800   3.404
 3246SOL    HW2 9765   0.169   4.812   3.242
 3247SOL     OW 9766   1.347   4.783   3.096
 3247SOL    HW1 9767   1.371   4.720   3.022
 3247SOL    HW2 9768   1.257   4.823   3.078
 3248SOL     OW 9769   1.302   4.579   2.171
 3248SOL    HW1 9770   1.216   4.548   2.213
 3248SOL    HW2 9771   1.298   4.565   2.072
 3249SOL     OW 9772   1.759   5.471   3.016
 3249SOL    HW1 9773   1.820   5.501   2.943
 3249SOL    HW2 9774   1.721   5.382   2.994
 3250SOL     OW 9775   1.252   5.455   2.990
 3250SOL    HW1 9776   1.336   5.460   2.936
 3250SOL    HW2 9777   1.229   5.359   3.008
 3251SOL     OW 9778   0.083   4.982   2.884
 3251SOL    HW1 9779   0.078   4.981   2.984
 3251SOL    HW2 9780   0.000   4.941   2.846
 3252SOL     OW 9781   0.688   5.386   3.578
 3252SOL    HW1 9782   0.632   5.467   3.587
 3252SOL    HW2 9783   0.740   5.390   3.492
 3253SOL     OW 9784   1.726   3.859   2.385
 3253SOL    HW1 9785   1.799   3.842   2.318
 3253SOL    HW2 9786   1.695   3.772   2.423
 3254SOL     OW 9787   1.388   5.297   2.339
 3254SOL    HW1 9788   1.455   5.309   2.265
 3254SOL    HW2 9789   1.348   5.386   2.362
 3255SOL     OW 9790   0.130   5.518   3.713
 3255SOL    HW1 9791   0.089   5.444   3.766
 3255SOL    HW2 9792   0.194   5.569   3.771
 3256SOL     OW 9793   1.280   4.651   2.534
 3256SOL    HW1 9794   1.340   4.570   2.536
 3256SOL    HW2 9795   1.320   4.720   2.474
 3257SOL     OW 9796   0.830   4.997   3.284
 3257SOL    HW1 9797   0.825   5.030   3.379
 3257SOL    HW2 9798   0.744   5.016   3.238
 3258SOL     OW 9799   0.672   5.340   2.016
 3258SOL    HW1 9800   0.681   5.350   1.917
 3258SOL    HW2 9801   0.632   5.251   2.037
 3259SOL     OW 9802   1.650   5.444   3.256
 3259SOL    HW1 9803   1.703   5.454   3.172
 3259SOL    HW2 9804   1.623   5.534   3.290
 3260SOL     OW 9805   1.841   3.899   2.825
 3260SOL    HW1 9806   1.880   3.814   2.789
 3260SOL    HW2 9807   1.743   3.901   2.806
 3261SOL     OW 9808   0.263   4.050   2.582
 3261SOL    HW1 9809   0.184   4.101   2.548
 3261SOL    HW2 9810   0.254   4.035   2.680
 3262SOL     OW 9811   1.194   5.336   1.893
 3262SOL    HW1 9812   1.200   5.243   1.930
 3262SOL    HW2 9813   1.135   5.336   1.813
 3263SOL     OW 9814   0.822   4.726   3.234
 3263SOL    HW1 9815   0.862   4.725   3.142
 3263SOL    HW2 9816   0.832   4.818   3.274
 3264SOL     OW 9817   0.916   4.634   2.153
 3264SOL    HW1 9818   0.979   4.672   2.085
 3264SOL    HW2 9819   0.956   4.551   2.192
 3265SOL     OW 9820   1.504   5.331   1.906
 3265SOL    HW1 9821   1.412   5.368   1.913
 3265SOL    HW2 9822   1.542   5.351   1.816
 3266SOL     OW 9823   0.372   5.012   3.352
 3266SOL    HW1 9824   0.359   5.105   3.318
 3266SOL    HW2 9825   0.288   4.960   3.339
 3267SOL     OW 9826   1.614   5.016   3.151
 3267SOL    HW1 9827   1.674   5.019   3.231
 3267SOL    HW2 9828   1.539   5.080   3.164
 3268SOL     OW 9829   1.039   4.822   2.558
 3268SOL    HW1 9830   0.969   4.775   2.612
 3268SOL    HW2 9831   1.098   4.754   2.515
 3269SOL     OW 9832   1.014   3.960   2.833
 3269SOL    HW1 9833   1.006   3.924   2.740
 3269SOL    HW2 9834   1.012   3.884   2.898
 3270SOL     OW 9835   0.590   5.211   2.353
 3270SOL    HW1 9836   0.632   5.153   2.283
 3270SOL    HW2 9837   0.546   5.290   2.309
 3271SOL     OW 9838   1.709   4.109   3.243
 3271SOL    HW1 9839   1.782   4.178   3.247
 3271SOL    HW2 9840   1.737   4.034   3.184
 3272SOL     OW 9841   0.255   5.072   2.152
 3272SOL    HW1 9842   0.159   5.073   2.125
 3272SOL    HW2 9843   0.267   5.125   2.236
 3273SOL     OW 9844   0.105   4.737   3.588
 3273SOL    HW1 9845   0.028   4.704   3.642
 3273SOL    HW2 9846   0.190   4.707   3.630
 3274SOL     OW 9847   0.672   3.927   3.351
 3274SOL    HW1 9848   0.762   3.911   3.311
 3274SOL    HW2 9849   0.680   3.932   3.450
 3275SOL     OW 9850   0.075   4.069   1.895
 3275SOL    HW1 9851  -0.017   4.041   1.866
 3275SOL    HW2 9852   0.106   4.146   1.839
 3276SOL     OW 9853   1.440   4.580   3.260
 3276SOL    HW1 9854   1.383   4.632   3.197
 3276SOL    HW2 9855   1.536   4.592   3.236
 3277SOL     OW 9856   0.072   3.890   2.180
 3277SOL    HW1 9857   0.055   3.973   2.126
 3277SOL    HW2 9858   0.162   3.853   2.158
 3278SOL     OW 9859   1.183   5.059   1.981
 3278SOL    HW1 9860   1.084   5.048   1.983
 3278SOL    HW2 9861   1.217   5.074   2.074
 3279SOL     OW 9862   0.613   4.566   3.293
 3279SOL    HW1 9863   0.669   4.647   3.276
 3279SOL    HW2 9864   0.672   4.486   3.296
 3280SOL     OW 9865   1.493   5.491   2.821
 3280SOL    HW1 9866   1.526   5.555   2.752
 3280SOL    HW2 9867   1.559   5.485   2.896
 3281SOL     OW 9868   0.716   4.289   3.570
 3281SOL    HW1 9869   0.735   4.354   3.644
 3281SOL    HW2 9870   0.776   4.209   3.579
 3282SOL     OW 9871   1.450   4.944   3.495
 3282SOL    HW1 9872   1.441   4.934   3.594
 3282SOL    HW2 9873   1.546   4.937   3.469
 3283SOL     OW 9874   0.390   5.465   3.422
 3283SOL    HW1 9875   0.299   5.506   3.420
 3283SOL    HW2 9876   0.383   5.371   3.454
 3284SOL     OW 9877   1.674   4.607   3.116
 3284SOL    HW1 9878   1.647   4.518   3.079
 3284SOL    HW2 9879   1.675   4.675   3.043
 3285SOL     OW 9880   1.225   4.049   2.311
 3285SOL    HW1 9881   1.290   3.975   2.300
 3285SOL    HW2 9882   1.245   4.099   2.395
 3286SOL     OW 9883   0.594   4.469   2.514
 3286SOL    HW1 9884   0.644   4.554   2.495
 3286SOL    HW2 9885   0.506   4.471   2.466
 3287SOL     OW 9886   1.777   4.066   3.504
 3287SOL    HW1 9887   1.760   4.097   3.410
 3287SOL    HW2 9888   1.693   4.029   3.542
 3288SOL     OW 9889   1.730   4.658   3.379
 3288SOL    HW1 9890   1.768   4.749   3.394
 3288SOL    HW2 9891   1.722   4.641   3.280
 3289SOL     OW 9892   0.859   5.098   1.878
 3289SOL    HW1 9893   0.813   5.113   1.966
 3289SOL    HW2 9894   0.903   5.183   1.848
 3290SOL     OW 9895   0.661   5.514   2.815
 3290SOL    HW1 9896   0.615   5.602   2.802
 3290SOL    HW2 9897   0.760   5.526   2.808
 3291SOL     OW 9898   0.859   4.680   2.723
 3291SOL    HW1 9899   0.913   4.611   2.771
 3291SOL    HW2 9900   0.827   4.749   2.789
 3292SOL     OW 9901   1.083   4.708   1.949
 3292SOL    HW1 9902   1.060   4.761   1.867
 3292SOL    HW2 9903   1.164   4.652   1.930
 3293SOL     OW 9904   1.861   5.293   2.713
 3293SOL    HW1 9905   1.790   5.281   2.643
 3293SOL    HW2 9906   1.862   5.214   2.773
 3294SOL     OW 9907   0.221   5.038   3.706
 3294SOL    HW1 9908   0.156   4.965   3.685
 3294SOL    HW2 9909   0.225   5.052   3.804
 3295SOL     OW 9910   0.079   4.964   2.515
 3295SOL    HW1 9911   0.078   4.917   2.603
 3295SOL    HW2 9912   0.161   4.936   2.464
 3296SOL     OW 9913   0.672   5.115   3.486
 3296SOL    HW1 9914   0.594   5.065   3.524
 3296SOL    HW2 9915   0.669   5.210   3.517
 3297SOL     OW 9916   1.824   3.916   3.089
 3297SOL    HW1 9917   1.820   3.826   3.133
 3297SOL    HW2 9918   1.827   3.905   2.990
 3298SOL     OW 9919   0.428   4.148   2.382
 3298SOL    HW1 9920   0.458   4.076   2.320
 3298SOL    HW2 9921   0.389   4.108   2.465
 3299SOL     OW 9922   1.705   5.211   2.966
 3299SOL    HW1 9923   1.612   5.186   2.939
 3299SOL    HW2 9924   1.731   5.161   3.048
 3300SOL     OW 9925   0.317   4.271   3.142
 3300SOL    HW1 9926   0.355   4.212   3.214
 3300SOL    HW2 9927   0.357   4.245   3.054
 3301SOL     OW 9928   0.812   5.310   2.549
 3301SOL    HW1 9929   0.844   5.320   2.455
 3301SOL    HW2 9930   0.733   5.248   2.551
 3302SOL     OW 9931   1.424   3.938   2.974
 3302SOL    HW1 9932   1.476   3.873   3.029
 3302SOL    HW2 9933   1.375   4.001   3.035
 3303SOL     OW 9934   1.001   3.758   3.016
 3303SOL    HW1 9935   0.938   3.686   2.985
 3303SOL    HW2 9936   1.094   3.722   3.016
 3304SOL     OW 9937   0.770   5.054   2.163
 3304SOL    HW1 9938   0.724   4.967   2.180
 3304SOL    HW2 9939   0.861   5.051   2.204
 3305SOL     OW 9940   1.352   3.776   2.030
 3305SOL    HW1 9941   1.387   3.735   1.946
 3305SOL    HW2 9942   1.262   3.738   2.050
 3306SOL     OW 9943   1.300   4.177   2.553
 3306SOL    HW1 9944   1.241   4.257   2.557
 3306SOL    HW2 9945   1.315   4.142   2.646
 3307SOL     OW 9946   1.593   3.945   2.744
 3307SOL    HW1 9947   1.509   3.944   2.798
 3307SOL    HW2 9948   1.595   4.028   2.688
 3308SOL     OW 9949   0.039   4.801   2.162
 3308SOL    HW1 9950   0.138   4.790   2.153
 3308SOL    HW2 9951  -0.001   4.715   2.194
 3309SOL     OW 9952   0.875   5.370   2.199
 3309SOL    HW1 9953   0.798   5.335   2.145
 3309SOL    HW2 9954   0.843   5.441   2.261
 3310SOL     OW 9955   0.230   4.352   3.837
 3310SOL    HW1 9956   0.137   4.350   3.874
 3310SOL    HW2 9957   0.231   4.313   3.745
 3311SOL     OW 9958   0.225   3.999   4.720
 3311SOL    HW1 9959   0.260   3.982   4.812
 3311SOL    HW2 9960   0.137   3.954   4.708
 3312SOL     OW 9961   0.019   4.092   4.371
 3312SOL    HW1 9962  -0.063   4.135   4.410
 3312SOL    HW2 9963  -0.009   4.019   4.308
 3313SOL     OW 9964   0.569   4.999   4.889
 3313SOL    HW1 9965   0.476   4.992   4.852
 3313SOL    HW2 9966   0.580   5.088   4.933
 3314SOL     OW 9967   1.555   5.235   4.427
 3314SOL    HW1 9968   1.498   5.219   4.508
 3314SOL    HW2 9969   1.496   5.245   4.347
 3315SOL     OW 9970   1.135   4.427   4.441
 3315SOL    HW1 9971   1.192   4.505   4.416
 3315SOL    HW2 9972   1.075   4.453   4.517
 3316SOL     OW 9973   1.755   4.331   3.955
 3316SOL    HW1 9974   1.743   4.318   3.856
 3316SOL    HW2 9975   1.725   4.250   4.004
 3317SOL     OW 9976   0.768   4.868   4.747
 3317SOL    HW1 9977   0.690   4.885   4.807
 3317SOL    HW2 9978   0.802   4.955   4.711
 3318SOL     OW 9979   0.685   4.736   4.389
 3318SOL    HW1 9980   0.754   4.720   4.459
 3318SOL    HW2 9981   0.612   4.793   4.427
 3319SOL     OW 9982   0.686   4.885   5.527
 3319SOL    HW1 9983   0.746   4.964   5.541
 3319SOL    HW2 9984   0.600   4.916   5.486
 3320SOL     OW 9985   0.335   5.159   4.785
 3320SOL    HW1 9986   0.257   5.128   4.732
 3320SOL    HW2 9987   0.393   5.217   4.728
 3321SOL     OW 9988   1.460   5.229   5.063
 3321SOL    HW1 9989   1.484   5.323   5.089
 3321SOL    HW2 9990   1.444   5.175   5.145
 3322SOL     OW 9991   0.438   4.116   5.223
 3322SOL    HW1 9992   0.520   4.060   5.232
 3322SOL    HW2 9993   0.357   4.058   5.227
 3323SOL     OW 9994   1.603   4.171   4.461
 3323SOL    HW1 9995   1.529   4.217   4.411
 3323SOL    HW2 9996   1.654   4.239   4.514
 3324SOL     OW 9997   0.231   5.437   4.207
 3324SOL    HW1 9998   0.265   5.514   4.261
 3324SOL    HW2 9999   0.275   5.437   4.117
 3325SOL     OW10000   1.127   5.065   5.414
 3325SOL    HW110001   1.174   5.065   5.502
 3325SOL    HW210002   1.079   4.978   5.403
 3326SOL     OW10003   0.230   5.158   4.262
 3326SOL    HW110004   0.204   5.254   4.262
 3326SOL    HW210005   0.159   5.104   4.307
 3327SOL     OW10006   0.240   4.815   4.610
 3327SOL    HW110007   0.254   4.731   4.662
 3327SOL    HW210008   0.185   4.879   4.665
 3328SOL     OW10009   0.620   5.510   5.163
 3328SOL    HW110010   0.528   5.493   5.198
 3328SOL    HW210011   0.648   5.602   5.189
 3329SOL     OW10012   0.606   4.688   3.847
 3329SOL    HW110013   0.613   4.772   3.793
 3329SOL    HW210014   0.652   4.701   3.935
 3330SOL     OW10015   1.594   3.838   5.204
 3330SOL    HW110016   1.576   3.905   5.132
 3330SOL    HW210017   1.591   3.884   5.293
 3331SOL     OW10018   0.122   4.367   4.287
 3331SOL    HW110019   0.077   4.279   4.304
 3331SOL    HW210020   0.121   4.421   4.371
 3332SOL     OW10021   1.842   5.491   4.083
 3332SOL    HW110022   1.896   5.462   4.163
 3332SOL    HW210023   1.872   5.581   4.054
 3333SOL     OW10024   0.027   5.320   3.841
 3333SOL    HW110025   0.008   5.224   3.862
 3333SOL    HW210026  -0.006   5.378   3.916
 3334SOL     OW10027   1.689   4.646   4.336
 3334SOL    HW110028   1.784   4.617   4.344
 3334SOL    HW210029   1.681   4.711   4.261
 3335SOL     OW10030   1.641   4.832   4.156
 3335SOL    HW110031   1.727   4.834   4.104
 3335SOL    HW210032   1.655   4.879   4.244
 3336SOL     OW10033   0.113   4.461   5.321
 3336SOL    HW110034   0.201   4.448   5.366
 3336SOL    HW210035   0.100   4.558   5.299
 3337SOL     OW10036   0.613   5.089   4.450
 3337SOL    HW110037   0.564   5.002   4.459
 3337SOL    HW210038   0.590   5.132   4.363
 3338SOL     OW10039   1.293   4.952   5.147
 3338SOL    HW110040   1.330   4.879   5.089
 3338SOL    HW210041   1.345   4.957   5.232
 3339SOL     OW10042   0.809   3.728   4.226
 3339SOL    HW110043   0.849   3.819   4.217
 3339SOL    HW210044   0.709   3.736   4.232
 3340SOL     OW10045   0.197   4.700   4.988
 3340SOL    HW110046   0.286   4.655   4.974
 3340SOL    HW210047   0.124   4.635   4.969
 3341SOL     OW10048   1.525   4.723   3.914
 3341SOL    HW110049   1.462   4.647   3.927
 3341SOL    HW210050   1.573   4.741   4.000
 3342SOL     OW10051   1.187   5.516   5.340
 3342SOL    HW110052   1.211   5.576   5.264
 3342SOL    HW210053   1.194   5.421   5.310
 3343SOL     OW10054   0.317   3.975   5.525
 3343SOL    HW110055   0.388   4.046   5.531
 3343SOL    HW210056   0.229   4.014   5.553
 3344SOL     OW10057   1.466   5.141   4.677
 3344SOL    HW110058   1.407   5.147   4.757
 3344SOL    HW210059   1.451   5.053   4.631
 3345SOL     OW10060   1.667   5.438   4.296
 3345SOL    HW110061   1.626   5.415   4.208
 3345SOL    HW210062   1.649   5.364   4.361
 3346SOL     OW10063   0.598   4.453   3.994
 3346SOL    HW110064   0.622   4.522   3.926
 3346SOL    HW210065   0.520   4.486   4.048
 3347SOL     OW10066   1.281   4.069   4.668
 3347SOL    HW110067   1.195   4.019   4.655
 3347SOL    HW210068   1.343   4.015   4.724
 3348SOL     OW10069   1.576   5.386   4.031
 3348SOL    HW110070   1.665   5.432   4.034
 3348SOL    HW210071   1.555   5.362   3.936
 3349SOL     OW10072   0.807   4.329   5.189
 3349SOL    HW110073   0.760   4.326   5.278
 3349SOL    HW210074   0.756   4.274   5.123
 3350SOL     OW10075   1.394   4.193   5.398
 3350SOL    HW110076   1.374   4.236   5.486
 3350SOL    HW210077   1.472   4.131   5.407
 3351SOL     OW10078   0.973   4.614   5.296
 3351SOL    HW110079   1.019   4.530   5.267
 3351SOL    HW210080   0.917   4.648   5.221
 3352SOL     OW10081   0.991   4.134   4.966
 3352SOL    HW110082   0.914   4.168   5.020
 3352SOL    HW210083   0.957   4.083   4.887
 3353SOL     OW10084   1.041   4.425   4.153
 3353SOL    HW110085   1.067   4.421   4.249
 3353SOL    HW210086   0.956   4.374   4.139
 3354SOL     OW10087   0.076   4.535   4.513
 3354SOL    HW110088   0.175   4.523   4.522
 3354SOL    HW210089   0.052   4.630   4.534
 3355SOL     OW10090   0.130   5.545   5.295
 3355SOL    HW110091   0.120   5.530   5.394
 3355SOL    HW210092   0.044   5.581   5.259
 3356SOL     OW10093   0.865   4.072   3.919
 3356SOL    HW110094   0.924   4.135   3.870
 3356SOL    HW210095   0.884   3.978   3.890
 3357SOL     OW10096   1.719   4.309   5.555
 3357SOL    HW110097   1.693   4.398   5.519
 3357SOL    HW210098   1.717   4.241   5.482
 3358SOL     OW10099   1.362   4.868   4.269
 3358SOL    HW110100   1.445   4.839   4.221
 3358SOL    HW210101   1.313   4.935   4.213
 3359SOL     OW10102   0.550   3.920   4.609
 3359SOL    HW110103   0.545   3.915   4.709
 3359SOL    HW210104   0.552   4.016   4.580
 3360SOL     OW10105   1.008   5.180   4.201
 3360SOL    HW110106   0.962   5.252   4.149
 3360SOL    HW210107   1.004   5.200   4.299
 3361SOL     OW10108   0.351   5.525   4.577
 3361SOL    HW110109   0.401   5.439   4.583
 3361SOL    HW210110   0.416   5.602   4.574
 3362SOL     OW10111   1.795   4.790   4.597
 3362SOL    HW110112   1.733   4.775   4.521
 3362SOL    HW210113   1.743   4.801   4.682
 3363SOL     OW10114   1.227   5.274   5.230
 3363SOL    HW110115   1.233   5.197   5.294
 3363SOL    HW210116   1.175   5.248   5.150
 3364SOL     OW10117   0.321   4.667   3.966
 3364SOL    HW110118   0.403   4.706   3.924
 3364SOL    HW210119   0.294   4.585   3.917
 3365SOL     OW10120   1.458   4.459   4.452
 3365SOL    HW110121   1.453   4.394   4.527
 3365SOL    HW210122   1.538   4.518   4.465
 3366SOL     OW10123   0.461   4.990   5.451
 3366SOL    HW110124   0.411   4.991   5.365
 3366SOL    HW210125   0.398   4.972   5.527
 3367SOL     OW10126   1.111   5.500   3.961
 3367SOL    HW110127   1.051   5.438   4.011
 3367SOL    HW210128   1.142   5.456   3.876
 3368SOL     OW10129   0.202   4.009   5.222
 3368SOL    HW110130   0.122   4.069   5.209
 3368SOL    HW210131   0.192   3.960   5.308
 3369SOL     OW10132   1.632   5.101   3.805
 3369SOL    HW110133   1.600   5.195   3.795
 3369SOL    HW210134   1.556   5.038   3.793
 3370SOL     OW10135   0.464   5.467   4.047
 3370SOL    HW110136   0.497   5.506   4.133
 3370SOL    HW210137   0.540   5.460   3.982
 3371SOL     OW10138   1.400   3.831   4.150
 3371SOL    HW110139   1.376   3.794   4.060
 3371SOL    HW210140   1.499   3.847   4.154
 3372SOL     OW10141   0.249   5.509   4.965
 3372SOL    HW110142   0.306   5.444   5.015
 3372SOL    HW210143   0.233   5.476   4.872
 3373SOL     OW10144   0.940   5.422   4.628
 3373SOL    HW110145   1.020   5.365   4.649
 3373SOL    HW210146   0.891   5.382   4.551
 3374SOL     OW10147   0.382   4.424   4.204
 3374SOL    HW110148   0.427   4.334   4.201
 3374SOL    HW210149   0.288   4.413   4.237
 3375SOL     OW10150   1.547   3.946   5.453
 3375SOL    HW110151   1.542   3.983   5.545
 3375SOL    HW210152   1.475   3.877   5.441
 3376SOL     OW10153   0.614   3.846   3.841
 3376SOL    HW110154   0.712   3.824   3.848
 3376SOL    HW210155   0.583   3.829   3.748
 3377SOL     OW10156   0.781   3.988   5.473
 3377SOL    HW110157   0.848   3.927   5.516
 3377SOL    HW210158   0.708   4.007   5.538
 3378SOL     OW10159   0.888   5.238   4.919
 3378SOL    HW110160   0.865   5.213   4.825
 3378SOL    HW210161   0.949   5.169   4.958
 3379SOL     OW10162   1.351   4.314   5.157
 3379SOL    HW110163   1.379   4.271   5.242
 3379SOL    HW210164   1.376   4.410   5.158
 3380SOL     OW10165   0.803   5.126   4.648
 3380SOL    HW110166   0.893   5.140   4.606
 3380SOL    HW210167   0.732   5.128   4.577
 3381SOL     OW10168   0.922   4.227   4.623
 3381SOL    HW110169   0.897   4.218   4.527
 3381SOL    HW210170   0.970   4.145   4.654
 3382SOL     OW10171   0.539   3.788   4.236
 3382SOL    HW110172   0.458   3.789   4.294
 3382SOL    HW210173   0.542   3.871   4.181
 3383SOL     OW10174   1.434   4.912   3.765
 3383SOL    HW110175   1.466   4.836   3.822
 3383SOL    HW210176   1.342   4.939   3.795
 3384SOL     OW10177   0.297   3.759   3.895
 3384SOL    HW110178   0.346   3.843   3.874
 3384SOL    HW210179   0.359   3.694   3.940
 3385SOL     OW10180   0.935   3.960   4.204
 3385SOL    HW110181   0.887   4.001   4.126
 3385SOL    HW210182   1.034   3.958   4.185
 3386SOL     OW10183   1.076   4.407   5.188
 3386SOL    HW110184   0.996   4.346   5.191
 3386SOL    HW210185   1.157   4.354   5.164
 3387SOL     OW10186   1.227   5.294   4.517
 3387SOL    HW110187   1.248   5.368   4.452
 3387SOL    HW210188   1.295   5.294   4.590
 3388SOL     OW10189   0.459   4.876   4.465
 3388SOL    HW110190   0.388   4.849   4.530
 3388SOL    HW210191   0.433   4.848   4.372
 3389SOL     OW10192   1.271   5.521   4.315
 3389SOL    HW110193   1.315   5.585   4.251
 3389SOL    HW210194   1.221   5.573   4.385
 3390SOL     OW10195   1.032   4.273   3.740
 3390SOL    HW110196   0.991   4.355   3.701
 3390SOL    HW210197   1.096   4.299   3.813
 3391SOL     OW10198   0.078   4.280   5.110
 3391SOL    HW110199   0.170   4.279   5.069
 3391SOL    HW210200   0.072   4.354   5.177
 3392SOL     OW10201   0.561   3.946   4.871
 3392SOL    HW110202   0.599   3.862   4.908
 3392SOL    HW210203   0.473   3.965   4.915
 3393SOL     OW10204   0.866   4.178   4.366
 3393SOL    HW110205   0.834   4.250   4.304
 3393SOL    HW210206   0.890   4.097   4.313
 3394SOL     OW10207   1.017   3.763   4.477
 3394SOL    HW110208   0.945   3.768   4.408
 3394SOL    HW210209   0.993   3.694   4.546
 3395SOL     OW10210   1.429   4.897   4.591
 3395SOL    HW110211   1.374   4.813   4.584
 3395SOL    HW210212   1.455   4.926   4.499
 3396SOL     OW10213   1.466   4.314   4.716
 3396SOL    HW110214   1.436   4.219   4.723
 3396SOL    HW210215   1.539   4.330   4.782
 3397SOL     OW10216   1.857   4.557   4.101
 3397SOL    HW110217   1.899   4.493   4.165
 3397SOL    HW210218   1.819   4.506   4.023
 3398SOL     OW10219   0.488   5.109   3.898
 3398SOL    HW110220   0.401   5.094   3.945
 3398SOL    HW210221   0.471   5.135   3.803
 3399SOL     OW10222   1.664   5.004   4.381
 3399SOL    HW110223   1.763   5.012   4.395
 3399SOL    HW210224   1.619   5.088   4.412
 3400SOL     OW10225   1.390   4.299   3.802
 3400SOL    HW110226   1.336   4.278   3.883
 3400SOL    HW210227   1.481   4.258   3.811
 3401SOL     OW10228   0.527   3.980   4.052
 3401SOL    HW110229   0.554   3.921   3.977
 3401SOL    HW210230   0.527   4.075   4.021
 3402SOL     OW10231   1.754   4.947   5.312
 3402SOL    HW110232   1.845   4.908   5.299
 3402SOL    HW210233   1.762   5.043   5.336
 3403SOL     OW10234   1.064   5.071   5.064
 3403SOL    HW110235   0.984   5.048   5.119
 3403SOL    HW210236   1.147   5.045   5.113
 3404SOL     OW10237   1.592   5.353   5.349
 3404SOL    HW110238   1.619   5.387   5.259
 3404SOL    HW210239   1.671   5.315   5.395
 3405SOL     OW10240   1.111   4.919   4.824
 3405SOL    HW110241   1.071   4.963   4.905
 3405SOL    HW210242   1.070   4.956   4.741
 3406SOL     OW10243   1.638   4.823   4.803
 3406SOL    HW110244   1.643   4.904   4.862
 3406SOL    HW210245   1.552   4.825   4.752
 3407SOL     OW10246   0.915   3.813   5.126
 3407SOL    HW110247   0.940   3.793   5.031
 3407SOL    HW210248   0.987   3.869   5.168
 3408SOL     OW10249   0.980   4.840   5.443
 3408SOL    HW110250   0.881   4.846   5.453
 3408SOL    HW210251   1.003   4.760   5.387
 3409SOL     OW10252   0.705   4.774   4.092
 3409SOL    HW110253   0.691   4.781   4.191
 3409SOL    HW210254   0.789   4.723   4.074
 3410SOL     OW10255   0.410   4.537   4.975
 3410SOL    HW110256   0.496   4.549   5.025
 3410SOL    HW210257   0.368   4.450   5.002
 3411SOL     OW10258   1.274   4.110   4.986
 3411SOL    HW110259   1.295   4.184   5.050
 3411SOL    HW210260   1.185   4.127   4.943
 3412SOL     OW10261   0.064   5.288   5.055
 3412SOL    HW110262   0.018   5.370   5.021
 3412SOL    HW210263   0.162   5.307   5.064
 3413SOL     OW10264   0.367   4.824   4.225
 3413SOL    HW110265   0.360   4.907   4.169
 3413SOL    HW210266   0.371   4.744   4.165
 3414SOL     OW10267   1.252   5.072   4.112
 3414SOL    HW110268   1.302   5.149   4.152
 3414SOL    HW210269   1.157   5.074   4.144
 3415SOL     OW10270   1.272   5.169   4.866
 3415SOL    HW110271   1.319   5.182   4.953
 3415SOL    HW210272   1.206   5.095   4.875
 3416SOL     OW10273   1.582   4.363   4.196
 3416SOL    HW110274   1.551   4.424   4.269
 3416SOL    HW210275   1.632   4.415   4.127
 3417SOL     OW10276   0.354   5.234   5.053
 3417SOL    HW110277   0.333   5.190   4.966
 3417SOL    HW210278   0.451   5.260   5.056
 3418SOL     OW10279   0.402   4.475   5.322
 3418SOL    HW110280   0.470   4.530   5.275
 3418SOL    HW210281   0.442   4.387   5.349
 3419SOL     OW10282   1.587   4.503   5.394
 3419SOL    HW110283   1.495   4.541   5.389
 3419SOL    HW210284   1.647   4.550   5.329
 3420SOL     OW10285   1.013   3.829   5.494
 3420SOL    HW110286   1.019   3.914   5.442
 3420SOL    HW210287   1.045   3.753   5.437
 3421SOL     OW10288   0.504   3.774   5.464
 3421SOL    HW110289   0.462   3.717   5.394
 3421SOL    HW210290   0.438   3.843   5.496
 3422SOL     OW10291   0.573   4.594   4.753
 3422SOL    HW110292   0.617   4.683   4.744
 3422SOL    HW210293   0.510   4.594   4.830
 3423SOL     OW10294   1.360   4.586   4.769
 3423SOL    HW110295   1.285   4.586   4.703
 3423SOL    HW210296   1.397   4.494   4.778
 3424SOL     OW10297   1.209   4.249   3.999
 3424SOL    HW110298   1.222   4.165   4.053
 3424SOL    HW210299   1.180   4.323   4.059
 3425SOL     OW10300   0.307   3.937   4.955
 3425SOL    HW110301   0.284   3.974   5.045
 3425SOL    HW210302   0.277   3.842   4.949
 3426SOL     OW10303   0.037   5.034   5.006
 3426SOL    HW110304   0.090   4.985   5.074
 3426SOL    HW210305   0.059   5.132   5.011
 3427SOL     OW10306   0.732   4.358   4.788
 3427SOL    HW110307   0.791   4.332   4.712
 3427SOL    HW210308   0.704   4.454   4.777
 3428SOL     OW10309   1.728   4.659   5.578
 3428SOL    HW110310   1.682   4.652   5.489
 3428SOL    HW210311   1.666   4.703   5.644
 3429SOL     OW10312   0.307   3.787   4.342
 3429SOL    HW110313   0.296   3.881   4.375
 3429SOL    HW210314   0.302   3.724   4.419
 3430SOL     OW10315   1.622   4.091   4.098
 3430SOL    HW110316   1.624   4.015   4.162
 3430SOL    HW210317   1.574   4.168   4.138
 3431SOL     OW10318   1.023   4.490   4.690
 3431SOL    HW110319   1.038   4.511   4.786
 3431SOL    HW210320   0.993   4.395   4.681
 3432SOL     OW10321   0.980   5.297   5.424
 3432SOL    HW110322   0.960   5.341   5.336
 3432SOL    HW210323   1.019   5.206   5.408
 3433SOL     OW10324   1.859   5.242   5.329
 3433SOL    HW110325   1.873   5.269   5.234
 3433SOL    HW210326   1.942   5.264   5.382
 3434SOL     OW10327   0.350   4.622   5.528
 3434SOL    HW110328   0.426   4.666   5.576
 3434SOL    HW210329   0.385   4.575   5.446
 3435SOL     OW10330   1.540   3.998   3.849
 3435SOL    HW110331   1.479   3.923   3.872
 3435SOL    HW210332   1.562   4.050   3.932
 3436SOL     OW10333   1.303   4.562   3.766
 3436SOL    HW110334   1.337   4.469   3.781
 3436SOL    HW210335   1.321   4.589   3.671
 3437SOL     OW10336   1.068   5.057   4.573
 3437SOL    HW110337   1.075   4.973   4.518
 3437SOL    HW210338   1.130   5.126   4.537
 3438SOL     OW10339   0.319   4.534   4.673
 3438SOL    HW110340   0.412   4.570   4.678
 3438SOL    HW210341   0.313   4.449   4.725
 3439SOL     OW10342   0.339   4.233   4.730
 3439SOL    HW110343   0.287   4.150   4.713
 3439SOL    HW210344   0.416   4.238   4.666
 3440SOL     OW10345   1.138   4.104   5.402
 3440SOL    HW110346   1.093   4.167   5.466
 3440SOL    HW210347   1.231   4.135   5.385
 3441SOL     OW10348   1.160   3.931   5.201
 3441SOL    HW110349   1.160   3.995   5.278
 3441SOL    HW210350   1.188   3.979   5.118
 3442SOL     OW10351   0.008   5.050   3.924
 3442SOL    HW110352  -0.085   5.071   3.893
 3442SOL    HW210353   0.018   4.951   3.937
 3443SOL     OW10354   0.088   5.525   4.651
 3443SOL    HW110355   0.046   5.439   4.624
 3443SOL    HW210356   0.182   5.528   4.617
 3444SOL     OW10357   0.504   5.292   4.634
 3444SOL    HW110358   0.570   5.366   4.643
 3444SOL    HW210359   0.548   5.213   4.592
 3445SOL     OW10360   1.002   4.520   4.962
 3445SOL    HW110361   1.043   4.488   5.048
 3445SOL    HW210362   0.906   4.493   4.959
 3446SOL     OW10363   0.040   4.268   4.838
 3446SOL    HW110364   0.125   4.235   4.797
 3446SOL    HW210365   0.053   4.283   4.936
 3447SOL     OW10366   0.189   4.244   5.446
 3447SOL    HW110367   0.248   4.204   5.376
 3447SOL    HW210368   0.131   4.315   5.405
 3448SOL     OW10369   1.369   4.674   5.384
 3448SOL    HW110370   1.408   4.763   5.404
 3448SOL    HW210371   1.379   4.654   5.287
 3449SOL     OW10372   0.815   4.296   4.049
 3449SOL    HW110373   0.822   4.207   4.003
 3449SOL    HW210374   0.721   4.330   4.041
 3450SOL     OW10375   1.657   4.328   4.930
 3450SOL    HW110376   1.619   4.259   4.992
 3450SOL    HW210377   1.739   4.292   4.886
 3451SOL     OW10378   0.252   5.288   5.468
 3451SOL    HW110379   0.222   5.345   5.544
 3451SOL    HW210380   0.245   5.191   5.494
 3452SOL     OW10381   0.671   4.188   4.993
 3452SOL    HW110382   0.637   4.099   4.963
 3452SOL    HW210383   0.697   4.242   4.913
 3453SOL     OW10384   0.930   5.402   5.189
 3453SOL    HW110385   0.906   5.384   5.094
 3453SOL    HW210386   0.960   5.496   5.199
 3454SOL     OW10387   0.473   4.224   3.915
 3454SOL    HW110388   0.534   4.304   3.919
 3454SOL    HW210389   0.378   4.255   3.922
 3455SOL     OW10390   0.159   4.861   5.190
 3455SOL    HW110391   0.181   4.800   5.266
 3455SOL    HW210392   0.169   4.812   5.104
 3456SOL     OW10393   1.347   4.783   4.958
 3456SOL    HW110394   1.371   4.720   4.884
 3456SOL    HW210395   1.257   4.823   4.940
 3457SOL     OW10396   1.302   4.579   4.033
 3457SOL    HW110397   1.216   4.548   4.075
 3457SOL    HW210398   1.298   4.565   3.934
 3458SOL     OW10399   1.759   5.471   4.878
 3458SOL    HW110400   1.820   5.501   4.805
 3458SOL    HW210401   1.721   5.382   4.856
 3459SOL     OW10402   1.252   5.455   4.852
 3459SOL    HW110403   1.336   5.460   4.798
 3459SOL    HW210404   1.229   5.359   4.870
 3460SOL     OW10405   0.083   4.982   4.746
 3460SOL    HW110406   0.078   4.981   4.846
 3460SOL    HW210407   0.000   4.941   4.708
 3461SOL     OW10408   0.688   5.386   5.440
 3461SOL    HW110409   0.632   5.467   5.449
 3461SOL    HW210410   0.740   5.390   5.354
 3462SOL     OW10411   1.726   3.859   4.247
 3462SOL    HW110412   1.799   3.842   4.180
 3462SOL    HW210413   1.695   3.772   4.285
 3463SOL     OW10414   1.388   5.297   4.201
 3463SOL    HW110415   1.455   5.309   4.127
 3463SOL    HW210416   1.348   5.386   4.224
 3464SOL     OW10417   0.130   5.518   5.575
 3464SOL    HW110418   0.089   5.444   5.628
 3464SOL    HW210419   0.194   5.569   5.633
 3465SOL     OW10420   1.280   4.651   4.396
 3465SOL    HW110421   1.340   4.570   4.398
 3465SOL    HW210422   1.320   4.720   4.336
 3466SOL     OW10423   0.830   4.997   5.146
 3466SOL    HW110424   0.825   5.030   5.241
 3466SOL    HW210425   0.744   5.016   5.100
 3467SOL     OW10426   0.672   5.340   3.878
 3467SOL    HW110427   0.681   5.350   3.779
 3467SOL    HW210428   0.632   5.251   3.899
 3468SOL     OW10429   1.650   5.444   5.118
 3468SOL    HW110430   1.703   5.454   5.034
 3468SOL    HW210431   1.623   5.534   5.152
 3469SOL     OW10432   1.841   3.899   4.687
 3469SOL    HW110433   1.880   3.814   4.651
 3469SOL    HW210434   1.743   3.901   4.668
 3470SOL     OW10435   0.263   4.050   4.444
 3470SOL    HW110436   0.184   4.101   4.410
 3470SOL    HW210437   0.254   4.035   4.542
 3471SOL     OW10438   1.194   5.336   3.755
 3471SOL    HW110439   1.200   5.243   3.792
 3471SOL    HW210440   1.135   5.336   3.675
 3472SOL     OW10441   0.822   4.726   5.096
 3472SOL    HW110442   0.862   4.725   5.004
 3472SOL    HW210443   0.832   4.818   5.136
 3473SOL     OW10444   0.916   4.634   4.015
 3473SOL    HW110445   0.979   4.672   3.947
 3473SOL    HW210446   0.956   4.551   4.054
 3474SOL     OW10447   1.504   5.331   3.768
 3474SOL    HW110448   1.412   5.368   3.775
 3474SOL    HW210449   1.542   5.351   3.678
 3475SOL     OW10450   0.372   5.012   5.214
 3475SOL    HW110451   0.359   5.105   5.180
 3475SOL    HW210452   0.288   4.960   5.201
 3476SOL     OW10453   1.614   5.016   5.013
 3476SOL    HW110454   1.674   5.019   5.093
 3476SOL    HW210455   1.539   5.080   5.026
 3477SOL     OW10456   1.039   4.822   4.420
 3477SOL    HW110457   0.969   4.775   4.474
 3477SOL    HW210458   1.098   4.754   4.377
 3478SOL     OW10459   1.014   3.960   4.695
 3478SOL    HW110460   1.006   3.924   4.602
 3478SOL    HW210461   1.012   3.884   4.760
 3479SOL     OW10462   0.590   5.211   4.215
 3479SOL    HW110463   0.632   5.153   4.145
 3479SOL    HW210464   0.546   5.290   4.171
 3480SOL     OW10465   1.709   4.109   5.105
 3480SOL    HW110466   1.782   4.178   5.109
 3480SOL    HW210467   1.737   4.034   5.046
 3481SOL     OW10468   0.255   5.072   4.014
 3481SOL    HW110469   0.159   5.073   3.987
 3481SOL    HW210470   0.267   5.125   4.098
 3482SOL     OW10471   0.105   4.737   5.450
 3482SOL    HW110472   0.028   4.704   5.504
 3482SOL    HW210473   0.190   4.707   5.492
 3483SOL     OW10474   0.672   3.927   5.213
 3483SOL    HW110475   0.762   3.911   5.173
 3483SOL    HW210476   0.680   3.932   5.312
 3484SOL     OW10477   0.075   4.069   3.757
 3484SOL    HW110478  -0.017   4.041   3.728
 3484SOL    HW210479   0.106   4.146   3.701
 3485SOL     OW10480   1.440   4.580   5.122
 3485SOL    HW110481   1.383   4.632   5.059
 3485SOL    HW210482   1.536   4.592   5.098
 3486SOL     OW10483   0.072   3.890   4.042
 3486SOL    HW110484   0.055   3.973   3.988
 3486SOL    HW210485   0.162   3.853   4.020
 3487SOL     OW10486   1.183   5.059   3.843
 3487SOL    HW110487   1.084   5.048   3.845
 3487SOL    HW210488   1.217   5.074   3.936
 3488SOL     OW10489   0.613   4.566   5.155
 3488SOL    HW110490   0.669   4.647   5.138
 3488SOL    HW210491   0.672   4.486   5.158
 3489SOL     OW10492   1.493   5.491   4.683
 3489SOL    HW110493   1.526   5.555   4.614
 3489SOL    HW210494   1.559   5.485   4.758
 3490SOL     OW10495   0.716   4.289   5.432
 3490SOL    HW110496   0.735   4.354   5.506
 3490SOL    HW210497   0.776   4.209   5.441
 3491SOL     OW10498   1.450   4.944   5.357
 3491SOL    HW110499   1.441   4.934   5.456
 3491SOL    HW210500   1.546   4.937   5.331
 3492SOL     OW10501   0.390   5.465   5.284
 3492SOL    HW110502   0.299   5.506   5.282
 3492SOL    HW210503   0.383   5.371   5.316
 3493SOL     OW10504   1.674   4.607   4.978
 3493SOL    HW110505   1.647   4.518   4.941
 3493SOL    HW210506   1.675   4.675   4.905
 3494SOL     OW10507   1.225   4.049   4.173
 3494SOL    HW110508   1.290   3.975   4.162
 3494SOL    HW210509   1.245   4.099   4.257
 3495SOL     OW10510   0.594   4.469   4.376
 3495SOL    HW110511   0.644   4.554   4.357
 3495SOL    HW210512   0.506   4.471   4.328
 3496SOL     OW10513   1.777   4.066   5.366
 3496SOL    HW110514   1.760   4.097   5.272
 3496SOL    HW210515   1.693   4.029   5.404
 3497SOL     OW10516   1.730   4.658   5.241
 3497SOL    HW110517   1.768   4.749   5.256
 3497SOL    HW210518   1.722   4.641   5.142
 3498SOL     OW10519   0.859   5.098   3.740
 3498SOL    HW110520   0.813   5.113   3.828
 3498SOL    HW210521   0.903   5.183   3.710
 3499SOL     OW10522   0.661   5.514   4.677
 3499SOL    HW110523   0.615   5.602   4.664
 3499SOL    HW210524   0.760   5.526   4.670
 3500SOL     OW10525   0.859   4.680   4.585
 3500SOL    HW110526   0.913   4.611   4.633
 3500SOL    HW210527   0.827   4.749   4.651
 3501SOL     OW10528   1.083   4.708   3.811
 3501SOL    HW110529   1.060   4.761   3.729
 3501SOL    HW210530   1.164   4.652   3.792
 3502SOL     OW10531   1.861   5.293   4.575
 3502SOL    HW110532   1.790   5.281   4.505
 3502SOL    HW210533   1.862   5.214   4.635
 3503SOL     OW10534   0.221   5.038   5.568
 3503SOL    HW110535   0.156   4.965   5.547
 3503SOL    HW210536   0.225   5.052   5.666
 3504SOL     OW10537   0.079   4.964   4.377
 3504SOL    HW110538   0.078   4.917   4.465
 3504SOL    HW210539   0.161   4.936   4.326
 3505SOL     OW10540   0.672   5.115   5.348
 3505SOL    HW110541   0.594   5.065   5.386
 3505SOL    HW210542   0.669   5.210   5.379
 3506SOL     OW10543   1.824   3.916   4.951
 3506SOL    HW110544   1.820   3.826   4.995
 3506SOL    HW210545   1.827   3.905   4.852
 3507SOL     OW10546   0.428   4.148   4.244
 3507SOL    HW110547   0.458   4.076   4.182
 3507SOL    HW210548   0.389   4.108   4.327
 3508SOL     OW10549   1.705   5.211   4.828
 3508SOL    HW110550   1.612   5.186   4.801
 3508SOL    HW210551   1.731   5.161   4.910
 3509SOL     OW10552   0.317   4.271   5.004
 3509SOL    HW110553   0.355   4.212   5.076
 3509SOL    HW210554   0.357   4.245   4.916
 3510SOL     OW10555   0.812   5.310   4.411
 3510SOL    HW110556   0.844   5.320   4.317
 3510SOL    HW210557   0.733   5.248   4.413
 3511SOL     OW10558   1.424   3.938   4.836
 3511SOL    HW110559   1.476   3.873   4.891
 3511SOL    HW210560   1.375   4.001   4.897
 3512SOL     OW10561   1.001   3.758   4.878
 3512SOL    HW110562   0.938   3.686   4.847
 3512SOL    HW210563   1.094   3.722   4.878
 3513SOL     OW10564   0.770   5.054   4.025
 3513SOL    HW110565   0.724   4.967   4.042
 3513SOL    HW210566   0.861   5.051   4.066
 3514SOL     OW10567   0.618   5.291   5.008
 3514SOL    HW110568   0.613   5.373   5.065
 3514SOL    HW210569   0.707   5.288   4.963
 3515SOL     OW10570   1.352   3.776   3.892
 3515SOL    HW110571   1.387   3.735   3.808
 3515SOL    HW210572   1.262   3.738   3.912
 3516SOL     OW10573   1.300   4.177   4.415
 3516SOL    HW110574   1.241   4.257   4.419
 3516SOL    HW210575   1.315   4.142   4.508
 3517SOL     OW10576   1.593   3.945   4.606
 3517SOL    HW110577   1.509   3.944   4.660
 3517SOL    HW210578   1.595   4.028   4.550
 3518SOL     OW10579   0.039   4.801   4.024
 3518SOL    HW110580   0.138   4.790   4.015
 3518SOL    HW210581  -0.001   4.715   4.056
 3519SOL     OW10582   0.875   5.370   4.061
 3519SOL    HW110583   0.798   5.335   4.007
 3519SOL    HW210584   0.843   5.441   4.123
 3520SOL     OW10585   0.230   4.352   5.699
 3520SOL    HW110586   0.137   4.350   5.736
 3520SOL    HW210587   0.231   4.313   5.607
 3521SOL     OW10588   0.225   3.999   6.582
 3521SOL    HW110589   0.260   3.982   6.674
 3521SOL    HW210590   0.137   3.954   6.570
 3522SOL     OW10591   0.019   4.092   6.233
 3522SOL    HW110592  -0.063   4.135   6.272
 3522SOL    HW210593  -0.009   4.019   6.170
 3523SOL     OW10594   0.569   4.999   6.751
 3523SOL    HW110595   0.476   4.992   6.714
 3523SOL    HW210596   0.580   5.088   6.795
 3524SOL     OW10597   1.555   5.235   6.289
 3524SOL    HW110598   1.498   5.219   6.370
 3524SOL    HW210599   1.496   5.245   6.209
 3525SOL     OW10600   1.135   4.427   6.303
 3525SOL    HW110601   1.192   4.505   6.278
 3525SOL    HW210602   1.075   4.453   6.379
 3526SOL     OW10603   1.755   4.331   5.817
 3526SOL    HW110604   1.743   4.318   5.718
 3526SOL    HW210605   1.725   4.250   5.866
 3527SOL     OW10606   0.768   4.868   6.609
 3527SOL    HW110607   0.690   4.885   6.669
 3527SOL    HW210608   0.802   4.955   6.573
 3528SOL     OW10609   0.850   4.522   7.409
 3528SOL    HW110610   0.846   4.598   7.474
 3528SOL    HW210611   0.872   4.558   7.318
 3529SOL     OW10612   0.685   4.736   6.251
 3529SOL    HW110613   0.754   4.720   6.321
 3529SOL    HW210614   0.612   4.793   6.289
 3530SOL     OW10615   0.686   4.885   7.389
 3530SOL    HW110616   0.746   4.964   7.403
 3530SOL    HW210617   0.600   4.916   7.348
 3531SOL     OW10618   0.335   5.159   6.647
 3531SOL    HW110619   0.257   5.128   6.594
 3531SOL    HW210620   0.393   5.217   6.590
 3532SOL     OW10621   1.460   5.229   6.925
 3532SOL    HW110622   1.484   5.323   6.951
 3532SOL    HW210623   1.444   5.175   7.007
 3533SOL     OW10624   0.438   4.116   7.085
 3533SOL    HW110625   0.520   4.060   7.094
 3533SOL    HW210626   0.357   4.058   7.089
 3534SOL     OW10627   1.603   4.171   6.323
 3534SOL    HW110628   1.529   4.217   6.273
 3534SOL    HW210629   1.654   4.239   6.376
 3535SOL     OW10630   0.231   5.437   6.069
 3535SOL    HW110631   0.265   5.514   6.123
 3535SOL    HW210632   0.275   5.437   5.979
 3536SOL     OW10633   1.127   5.065   7.276
 3536SOL    HW110634   1.174   5.065   7.364
 3536SOL    HW210635   1.079   4.978   7.265
 3537SOL     OW10636   0.230   5.158   6.124
 3537SOL    HW110637   0.204   5.254   6.124
 3537SOL    HW210638   0.159   5.104   6.169
 3538SOL     OW10639   0.240   4.815   6.472
 3538SOL    HW110640   0.254   4.731   6.524
 3538SOL    HW210641   0.185   4.879   6.527
 3539SOL     OW10642   0.620   5.510   7.025
 3539SOL    HW110643   0.528   5.493   7.060
 3539SOL    HW210644   0.648   5.602   7.051
 3540SOL     OW10645   0.606   4.688   5.709
 3540SOL    HW110646   0.613   4.772   5.655
 3540SOL    HW210647   0.652   4.701   5.797
 3541SOL     OW10648   1.594   3.838   7.066
 3541SOL    HW110649   1.576   3.905   6.994
 3541SOL    HW210650   1.591   3.884   7.155
 3542SOL     OW10651   0.122   4.367   6.149
 3542SOL    HW110652   0.077   4.279   6.166
 3542SOL    HW210653   0.121   4.421   6.233
 3543SOL     OW10654   1.842   5.491   5.945
 3543SOL    HW110655   1.896   5.462   6.025
 3543SOL    HW210656   1.872   5.581   5.916
 3544SOL     OW10657   0.027   5.320   5.703
 3544SOL    HW110658   0.008   5.224   5.724
 3544SOL    HW210659  -0.006   5.378   5.778
 3545SOL     OW10660   1.689   4.646   6.198
 3545SOL    HW110661   1.784   4.617   6.206
 3545SOL    HW210662   1.681   4.711   6.123
 3546SOL     OW10663   1.641   4.832   6.018
 3546SOL    HW110664   1.727   4.834   5.966
 3546SOL    HW210665   1.655   4.879   6.106
 3547SOL     OW10666   0.113   4.461   7.183
 3547SOL    HW110667   0.201   4.448   7.228
 3547SOL    HW210668   0.100   4.558   7.161
 3548SOL     OW10669   0.613   5.089   6.312
 3548SOL    HW110670   0.564   5.002   6.321
 3548SOL    HW210671   0.590   5.132   6.225
 3549SOL     OW10672   1.293   4.952   7.009
 3549SOL    HW110673   1.330   4.879   6.951
 3549SOL    HW210674   1.345   4.957   7.094
 3550SOL     OW10675   0.809   3.728   6.088
 3550SOL    HW110676   0.849   3.819   6.079
 3550SOL    HW210677   0.709   3.736   6.094
 3551SOL     OW10678   0.197   4.700   6.850
 3551SOL    HW110679   0.286   4.655   6.836
 3551SOL    HW210680   0.124   4.635   6.831
 3552SOL     OW10681   1.525   4.723   5.776
 3552SOL    HW110682   1.462   4.647   5.789
 3552SOL    HW210683   1.573   4.741   5.862
 3553SOL     OW10684   1.187   5.516   7.202
 3553SOL    HW110685   1.211   5.576   7.126
 3553SOL    HW210686   1.194   5.421   7.172
 3554SOL     OW10687   0.317   3.975   7.387
 3554SOL    HW110688   0.388   4.046   7.393
 3554SOL    HW210689   0.229   4.014   7.415
 3555SOL     OW10690   1.466   5.141   6.539
 3555SOL    HW110691   1.407   5.147   6.619
 3555SOL    HW210692   1.451   5.053   6.493
 3556SOL     OW10693   1.667   5.438   6.158
 3556SOL    HW110694   1.626   5.415   6.070
 3556SOL    HW210695   1.649   5.364   6.223
 3557SOL     OW10696   0.598   4.453   5.856
 3557SOL    HW110697   0.622   4.522   5.788
 3557SOL    HW210698   0.520   4.486   5.910
 3558SOL     OW10699   1.281   4.069   6.530
 3558SOL    HW110700   1.195   4.019   6.517
 3558SOL    HW210701   1.343   4.015   6.586
 3559SOL     OW10702   1.576   5.386   5.893
 3559SOL    HW110703   1.665   5.432   5.896
 3559SOL    HW210704   1.555   5.362   5.798
 3560SOL     OW10705   0.807   4.329   7.051
 3560SOL    HW110706   0.760   4.326   7.140
 3560SOL    HW210707   0.756   4.274   6.985
 3561SOL     OW10708   1.394   4.193   7.260
 3561SOL    HW110709   1.374   4.236   7.348
 3561SOL    HW210710   1.472   4.131   7.269
 3562SOL     OW10711   0.973   4.614   7.158
 3562SOL    HW110712   1.019   4.530   7.129
 3562SOL    HW210713   0.917   4.648   7.083
 3563SOL     OW10714   0.991   4.134   6.828
 3563SOL    HW110715   0.914   4.168   6.882
 3563SOL    HW210716   0.957   4.083   6.749
 3564SOL     OW10717   1.041   4.425   6.015
 3564SOL    HW110718   1.067   4.421   6.111
 3564SOL    HW210719   0.956   4.374   6.001
 3565SOL     OW10720   0.076   4.535   6.375
 3565SOL    HW110721   0.175   4.523   6.384
 3565SOL    HW210722   0.052   4.630   6.396
 3566SOL     OW10723   0.130   5.545   7.157
 3566SOL    HW110724   0.120   5.530   7.256
 3566SOL    HW210725   0.044   5.581   7.121
 3567SOL     OW10726   0.865   4.072   5.781
 3567SOL    HW110727   0.924   4.135   5.732
 3567SOL    HW210728   0.884   3.978   5.752
 3568SOL     OW10729   1.719   4.309   7.417
 3568SOL    HW110730   1.693   4.398   7.381
 3568SOL    HW210731   1.717   4.241   7.344
 3569SOL     OW10732   1.362   4.868   6.131
 3569SOL    HW110733   1.445   4.839   6.083
 3569SOL    HW210734   1.313   4.935   6.075
 3570SOL     OW10735   0.550   3.920   6.471
 3570SOL    HW110736   0.545   3.915   6.571
 3570SOL    HW210737   0.552   4.016   6.442
 3571SOL     OW10738   1.008   5.180   6.063
 3571SOL    HW110739   0.962   5.252   6.011
 3571SOL    HW210740   1.004   5.200   6.161
 3572SOL     OW10741   0.351   5.525   6.439
 3572SOL    HW110742   0.401   5.439   6.445
 3572SOL    HW210743   0.416   5.602   6.436
 3573SOL     OW10744   1.795   4.790   6.459
 3573SOL    HW110745   1.733   4.775   6.383
 3573SOL    HW210746   1.743   4.801   6.544
 3574SOL     OW10747   1.227   5.274   7.092
 3574SOL    HW110748   1.233   5.197   7.156
 3574SOL    HW210749   1.175   5.248   7.012
 3575SOL     OW10750   0.321   4.667   5.828
 3575SOL    HW110751   0.403   4.706   5.786
 3575SOL    HW210752   0.294   4.585   5.779
 3576SOL     OW10753   1.458   4.459   6.314
 3576SOL    HW110754   1.453   4.394   6.389
 3576SOL    HW210755   1.538   4.518   6.327
 3577SOL     OW10756   0.461   4.990   7.313
 3577SOL    HW110757   0.411   4.991   7.227
 3577SOL    HW210758   0.398   4.972   7.389
 3578SOL     OW10759   1.111   5.500   5.823
 3578SOL    HW110760   1.051   5.438   5.873
 3578SOL    HW210761   1.142   5.456   5.738
 3579SOL     OW10762   0.202   4.009   7.084
 3579SOL    HW110763   0.122   4.069   7.071
 3579SOL    HW210764   0.192   3.960   7.170
 3580SOL     OW10765   1.632   5.101   5.667
 3580SOL    HW110766   1.600   5.195   5.657
 3580SOL    HW210767   1.556   5.038   5.655
 3581SOL     OW10768   0.464   5.467   5.909
 3581SOL    HW110769   0.497   5.506   5.995
 3581SOL    HW210770   0.540   5.460   5.844
 3582SOL     OW10771   1.400   3.831   6.012
 3582SOL    HW110772   1.376   3.794   5.922
 3582SOL    HW210773   1.499   3.847   6.016
 3583SOL     OW10774   0.249   5.509   6.827
 3583SOL    HW110775   0.306   5.444   6.877
 3583SOL    HW210776   0.233   5.476   6.734
 3584SOL     OW10777   0.940   5.422   6.490
 3584SOL    HW110778   1.020   5.365   6.511
 3584SOL    HW210779   0.891   5.382   6.413
 3585SOL     OW10780   0.382   4.424   6.066
 3585SOL    HW110781   0.427   4.334   6.063
 3585SOL    HW210782   0.288   4.413   6.099
 3586SOL     OW10783   1.547   3.946   7.315
 3586SOL    HW110784   1.542   3.983   7.407
 3586SOL    HW210785   1.475   3.877   7.303
 3587SOL     OW10786   0.614   3.846   5.703
 3587SOL    HW110787   0.712   3.824   5.710
 3587SOL    HW210788   0.583   3.829   5.610
 3588SOL     OW10789   0.781   3.988   7.335
 3588SOL    HW110790   0.848   3.927   7.378
 3588SOL    HW210791   0.708   4.007   7.400
 3589SOL     OW10792   0.888   5.238   6.781
 3589SOL    HW110793   0.865   5.213   6.687
 3589SOL    HW210794   0.949   5.169   6.820
 3590SOL     OW10795   1.351   4.314   7.019
 3590SOL    HW110796   1.379   4.271   7.104
 3590SOL    HW210797   1.376   4.410   7.020
 3591SOL     OW10798   0.803   5.126   6.510
 3591SOL    HW110799   0.893   5.140   6.468
 3591SOL    HW210800   0.732   5.128   6.439
 3592SOL     OW10801   0.922   4.227   6.485
 3592SOL    HW110802   0.897   4.218   6.389
 3592SOL    HW210803   0.970   4.145   6.516
 3593SOL     OW10804   0.539   3.788   6.098
 3593SOL    HW110805   0.458   3.789   6.156
 3593SOL    HW210806   0.542   3.871   6.043
 3594SOL     OW10807   1.434   4.912   5.627
 3594SOL    HW110808   1.466   4.836   5.684
 3594SOL    HW210809   1.342   4.939   5.657
 3595SOL     OW10810   0.297   3.759   5.757
 3595SOL    HW110811   0.346   3.843   5.736
 3595SOL    HW210812   0.359   3.694   5.802
 3596SOL     OW10813   0.935   3.960   6.066
 3596SOL    HW110814   0.887   4.001   5.988
 3596SOL    HW210815   1.034   3.958   6.047
 3597SOL     OW10816   1.076   4.407   7.050
 3597SOL    HW110817   0.996   4.346   7.053
 3597SOL    HW210818   1.157   4.354   7.026
 3598SOL     OW10819   1.227   5.294   6.379
 3598SOL    HW110820   1.248   5.368   6.314
 3598SOL    HW210821   1.295   5.294   6.452
 3599SOL     OW10822   0.459   4.876   6.327
 3599SOL    HW110823   0.388   4.849   6.392
 3599SOL    HW210824   0.433   4.848   6.234
 3600SOL     OW10825   1.271   5.521   6.177
 3600SOL    HW110826   1.315   5.585   6.113
 3600SOL    HW210827   1.221   5.573   6.247
 3601SOL     OW10828   1.032   4.273   5.602
 3601SOL    HW110829   0.991   4.355   5.563
 3601SOL    HW210830   1.096   4.299   5.675
 3602SOL     OW10831   0.078   4.280   6.972
 3602SOL    HW110832   0.170   4.279   6.931
 3602SOL    HW210833   0.072   4.354   7.039
 3603SOL     OW10834   0.561   3.946   6.733
 3603SOL    HW110835   0.599   3.862   6.770
 3603SOL    HW210836   0.473   3.965   6.777
 3604SOL     OW10837   0.866   4.178   6.228
 3604SOL    HW110838   0.834   4.250   6.166
 3604SOL    HW210839   0.890   4.097   6.175
 3605SOL     OW10840   1.017   3.763   6.339
 3605SOL    HW110841   0.945   3.768   6.270
 3605SOL    HW210842   0.993   3.694   6.408
 3606SOL     OW10843   1.429   4.897   6.453
 3606SOL    HW110844   1.374   4.813   6.446
 3606SOL    HW210845   1.455   4.926   6.361
 3607SOL     OW10846   1.466   4.314   6.578
 3607SOL    HW110847   1.436   4.219   6.585
 3607SOL    HW210848   1.539   4.330   6.644
 3608SOL     OW10849   1.857   4.557   5.963
 3608SOL    HW110850   1.899   4.493   6.027
 3608SOL    HW210851   1.819   4.506   5.885
 3609SOL     OW10852   0.488   5.109   5.760
 3609SOL    HW110853   0.401   5.094   5.807
 3609SOL    HW210854   0.471   5.135   5.665
 3610SOL     OW10855   1.664   5.004   6.243
 3610SOL    HW110856   1.763   5.012   6.257
 3610SOL    HW210857   1.619   5.088   6.274
 3611SOL     OW10858   1.390   4.299   5.664
 3611SOL    HW110859   1.336   4.278   5.745
 3611SOL    HW210860   1.481   4.258   5.673
 3612SOL     OW10861   0.527   3.980   5.914
 3612SOL    HW110862   0.554   3.921   5.839
 3612SOL    HW210863   0.527   4.075   5.883
 3613SOL     OW10864   1.754   4.947   7.174
 3613SOL    HW110865   1.845   4.908   7.161
 3613SOL    HW210866   1.762   5.043   7.198
 3614SOL     OW10867   1.064   5.071   6.926
 3614SOL    HW110868   0.984   5.048   6.981
 3614SOL    HW210869   1.147   5.045   6.975
 3615SOL     OW10870   1.592   5.353   7.211
 3615SOL    HW110871   1.619   5.387   7.121
 3615SOL    HW210872   1.671   5.315   7.257
 3616SOL     OW10873   1.111   4.919   6.686
 3616SOL    HW110874   1.071   4.963   6.767
 3616SOL    HW210875   1.070   4.956   6.603
 3617SOL     OW10876   1.638   4.823   6.665
 3617SOL    HW110877   1.643   4.904   6.724
 3617SOL    HW210878   1.552   4.825   6.614
 3618SOL     OW10879   0.915   3.813   6.988
 3618SOL    HW110880   0.940   3.793   6.893
 3618SOL    HW210881   0.987   3.869   7.030
 3619SOL     OW10882   0.980   4.840   7.305
 3619SOL    HW110883   0.881   4.846   7.315
 3619SOL    HW210884   1.003   4.760   7.249
 3620SOL     OW10885   0.705   4.774   5.954
 3620SOL    HW110886   0.691   4.781   6.053
 3620SOL    HW210887   0.789   4.723   5.936
 3621SOL     OW10888   0.410   4.537   6.837
 3621SOL    HW110889   0.496   4.549   6.887
 3621SOL    HW210890   0.368   4.450   6.864
 3622SOL     OW10891   1.274   4.110   6.848
 3622SOL    HW110892   1.295   4.184   6.912
 3622SOL    HW210893   1.185   4.127   6.805
 3623SOL     OW10894   0.064   5.288   6.917
 3623SOL    HW110895   0.018   5.370   6.883
 3623SOL    HW210896   0.162   5.307   6.926
 3624SOL     OW10897   0.367   4.824   6.087
 3624SOL    HW110898   0.360   4.907   6.031
 3624SOL    HW210899   0.371   4.744   6.027
 3625SOL     OW10900   0.566   4.261   6.451
 3625SOL    HW110901   0.578   4.327   6.377
 3625SOL    HW210902   0.612   4.295   6.534
 3626SOL     OW10903   1.252   5.072   5.974
 3626SOL    HW110904   1.302   5.149   6.014
 3626SOL    HW210905   1.157   5.074   6.006
 3627SOL     OW10906   1.272   5.169   6.728
 3627SOL    HW110907   1.319   5.182   6.815
 3627SOL    HW210908   1.206   5.095   6.737
 3628SOL     OW10909   1.582   4.363   6.058
 3628SOL    HW110910   1.551   4.424   6.131
 3628SOL    HW210911   1.632   4.415   5.989
 3629SOL     OW10912   0.354   5.234   6.915
 3629SOL    HW110913   0.333   5.190   6.828
 3629SOL    HW210914   0.451   5.260   6.918
 3630SOL     OW10915   0.402   4.475   7.184
 3630SOL    HW110916   0.470   4.530   7.137
 3630SOL    HW210917   0.442   4.387   7.211
 3631SOL     OW10918   1.587   4.503   7.256
 3631SOL    HW110919   1.495   4.541   7.251
 3631SOL    HW210920   1.647   4.550   7.191
 3632SOL     OW10921   1.013   3.829   7.356
 3632SOL    HW110922   1.019   3.914   7.304
 3632SOL    HW210923   1.045   3.753   7.299
 3633SOL     OW10924   0.504   3.774   7.326
 3633SOL    HW110925   0.462   3.717   7.256
 3633SOL    HW210926   0.438   3.843   7.358
 3634SOL     OW10927   1.360   4.586   6.631
 3634SOL    HW110928   1.285   4.586   6.565
 3634SOL    HW210929   1.397   4.494   6.640
 3635SOL     OW10930   1.209   4.249   5.861
 3635SOL    HW110931   1.222   4.165   5.915
 3635SOL    HW210932   1.180   4.323   5.921
 3636SOL     OW10933   0.307   3.937   6.817
 3636SOL    HW110934   0.284   3.974   6.907
 3636SOL    HW210935   0.277   3.842   6.811
 3637SOL     OW10936   0.037   5.034   6.868
 3637SOL    HW110937   0.090   4.985   6.936
 3637SOL    HW210938   0.059   5.132   6.873
 3638SOL     OW10939   0.732   4.358   6.650
 3638SOL    HW110940   0.791   4.332   6.574
 3638SOL    HW210941   0.704   4.454   6.639
 3639SOL     OW10942   1.728   4.659   7.440
 3639SOL    HW110943   1.682   4.652   7.351
 3639SOL    HW210944   1.666   4.703   7.506
 3640SOL     OW10945   0.307   3.787   6.204
 3640SOL    HW110946   0.296   3.881   6.237
 3640SOL    HW210947   0.302   3.724   6.281
 3641SOL     OW10948   1.622   4.091   5.960
 3641SOL    HW110949   1.624   4.015   6.024
 3641SOL    HW210950   1.574   4.168   6.000
 3642SOL     OW10951   1.023   4.490   6.552
 3642SOL    HW110952   1.038   4.511   6.648
 3642SOL    HW210953   0.993   4.395   6.543
 3643SOL     OW10954   0.980   5.297   7.286
 3643SOL    HW110955   0.960   5.341   7.198
 3643SOL    HW210956   1.019   5.206   7.270
 3644SOL     OW10957   1.859   5.242   7.191
 3644SOL    HW110958   1.873   5.269   7.096
 3644SOL    HW210959   1.942   5.264   7.244
 3645SOL     OW10960   0.350   4.622   7.390
 3645SOL    HW110961   0.426   4.666   7.438
 3645SOL    HW210962   0.385   4.575   7.308
 3646SOL     OW10963   1.540   3.998   5.711
 3646SOL    HW110964   1.479   3.923   5.734
 3646SOL    HW210965   1.562   4.050   5.794
 3647SOL     OW10966   1.303   4.562   5.628
 3647SOL    HW110967   1.337   4.469   5.643
 3647SOL    HW210968   1.321   4.589   5.533
 3648SOL     OW10969   1.068   5.057   6.435
 3648SOL    HW110970   1.075   4.973   6.380
 3648SOL    HW210971   1.130   5.126   6.399
 3649SOL     OW10972   0.319   4.534   6.535
 3649SOL    HW110973   0.412   4.570   6.540
 3649SOL    HW210974   0.313   4.449   6.587
 3650SOL     OW10975   0.339   4.233   6.592
 3650SOL    HW110976   0.287   4.150   6.575
 3650SOL    HW210977   0.416   4.238   6.528
 3651SOL     OW10978   1.138   4.104   7.264
 3651SOL    HW110979   1.093   4.167   7.328
 3651SOL    HW210980   1.231   4.135   7.247
 3652SOL     OW10981   1.160   3.931   7.063
 3652SOL    HW110982   1.160   3.995   7.140
 3652SOL    HW210983   1.188   3.979   6.980
 3653SOL     OW10984   0.008   5.050   5.786
 3653SOL    HW110985  -0.085   5.071   5.755
 3653SOL    HW210986   0.018   4.951   5.799
 3654SOL     OW10987   0.088   5.525   6.513
 3654SOL    HW110988   0.046   5.439   6.486
 3654SOL    HW210989   0.182   5.528   6.479
 3655SOL     OW10990   0.504   5.292   6.496
 3655SOL    HW110991   0.570   5.366   6.505
 3655SOL    HW210992   0.548   5.213   6.454
 3656SOL     OW10993   1.002   4.520   6.824
 3656SOL    HW110994   1.043   4.488   6.910
 3656SOL    HW210995   0.906   4.493   6.821
 3657SOL     OW10996   0.040   4.268   6.700
 3657SOL    HW110997   0.125   4.235   6.659
 3657SOL    HW210998   0.053   4.283   6.798
 3658SOL     OW10999   0.189   4.244   7.308
 3658SOL    HW111000   0.248   4.204   7.238
 3658SOL    HW211001   0.131   4.315   7.267
 3659SOL     OW11002   1.369   4.674   7.246
 3659SOL    HW111003   1.408   4.763   7.266
 3659SOL    HW211004   1.379   4.654   7.149
 3660SOL     OW11005   0.815   4.296   5.911
 3660SOL    HW111006   0.822   4.207   5.865
 3660SOL    HW211007   0.721   4.330   5.903
 3661SOL     OW11008   1.657   4.328   6.792
 3661SOL    HW111009   1.619   4.259   6.854
 3661SOL    HW211010   1.739   4.292   6.748
 3662SOL     OW11011   0.252   5.288   7.330
 3662SOL    HW111012   0.222   5.345   7.406
 3662SOL    HW211013   0.245   5.191   7.356
 3663SOL     OW11014   0.671   4.188   6.855
 3663SOL    HW111015   0.637   4.099   6.825
 3663SOL    HW211016   0.697   4.242   6.775
 3664SOL     OW11017   0.930   5.402   7.051
 3664SOL    HW111018   0.906   5.384   6.956
 3664SOL    HW211019   0.960   5.496   7.061
 3665SOL     OW11020   0.473   4.224   5.777
 3665SOL    HW111021   0.534   4.304   5.781
 3665SOL    HW211022   0.378   4.255   5.784
 3666SOL     OW11023   0.159   4.861   7.052
 3666SOL    HW111024   0.181   4.800   7.128
 3666SOL    HW211025   0.169   4.812   6.966
 3667SOL     OW11026   1.347   4.783   6.820
 3667SOL    HW111027   1.371   4.720   6.746
 3667SOL    HW211028   1.257   4.823   6.802
 3668SOL     OW11029   1.302   4.579   5.895
 3668SOL    HW111030   1.216   4.548   5.937
 3668SOL    HW211031   1.298   4.565   5.796
 3669SOL     OW11032   1.759   5.471   6.740
 3669SOL    HW111033   1.820   5.501   6.667
 3669SOL    HW211034   1.721   5.382   6.718
 3670SOL     OW11035   1.252   5.455   6.714
 3670SOL    HW111036   1.336   5.460   6.660
 3670SOL    HW211037   1.229   5.359   6.732
 3671SOL     OW11038   0.083   4.982   6.608
 3671SOL    HW111039   0.078   4.981   6.708
 3671SOL    HW211040   0.000   4.941   6.570
 3672SOL     OW11041   0.688   5.386   7.302
 3672SOL    HW111042   0.632   5.467   7.311
 3672SOL    HW211043   0.740   5.390   7.216
 3673SOL     OW11044   1.726   3.859   6.109
 3673SOL    HW111045   1.799   3.842   6.042
 3673SOL    HW211046   1.695   3.772   6.147
 3674SOL     OW11047   1.388   5.297   6.063
 3674SOL    HW111048   1.455   5.309   5.989
 3674SOL    HW211049   1.348   5.386   6.086
 3675SOL     OW11050   0.130   5.518   7.437
 3675SOL    HW111051   0.089   5.444   7.490
 3675SOL    HW211052   0.194   5.569   7.495
 3676SOL     OW11053   1.280   4.651   6.258
 3676SOL    HW111054   1.340   4.570   6.260
 3676SOL    HW211055   1.320   4.720   6.198
 3677SOL     OW11056   0.830   4.997   7.008
 3677SOL    HW111057   0.825   5.030   7.103
 3677SOL    HW211058   0.744   5.016   6.962
 3678SOL     OW11059   0.672   5.340   5.740
 3678SOL    HW111060   0.681   5.350   5.641
 3678SOL    HW211061   0.632   5.251   5.761
 3679SOL     OW11062   1.650   5.444   6.980
 3679SOL    HW111063   1.703   5.454   6.896
 3679SOL    HW211064   1.623   5.534   7.014
 3680SOL     OW11065   1.841   3.899   6.549
 3680SOL    HW111066   1.880   3.814   6.513
 3680SOL    HW211067   1.743   3.901   6.530
 3681SOL     OW11068   0.263   4.050   6.306
 3681SOL    HW111069   0.184   4.101   6.272
 3681SOL    HW211070   0.254   4.035   6.404
 3682SOL     OW11071   1.194   5.336   5.617
 3682SOL    HW111072   1.200   5.243   5.654
 3682SOL    HW211073   1.135   5.336   5.537
 3683SOL     OW11074   0.822   4.726   6.958
 3683SOL    HW111075   0.862   4.725   6.866
 3683SOL    HW211076   0.832   4.818   6.998
 3684SOL     OW11077   0.916   4.634   5.877
 3684SOL    HW111078   0.979   4.672   5.809
 3684SOL    HW211079   0.956   4.551   5.916
 3685SOL     OW11080   1.504   5.331   5.630
 3685SOL    HW111081   1.412   5.368   5.637
 3685SOL    HW211082   1.542   5.351   5.540
 3686SOL     OW11083   0.372   5.012   7.076
 3686SOL    HW111084   0.359   5.105   7.042
 3686SOL    HW211085   0.288   4.960   7.063
 3687SOL     OW11086   1.614   5.016   6.875
 3687SOL    HW111087   1.674   5.019   6.955
 3687SOL    HW211088   1.539   5.080   6.888
 3688SOL     OW11089   1.039   4.822   6.282
 3688SOL    HW111090   0.969   4.775   6.336
 3688SOL    HW211091   1.098   4.754   6.239
 3689SOL     OW11092   1.014   3.960   6.557
 3689SOL    HW111093   1.006   3.924   6.464
 3689SOL    HW211094   1.012   3.884   6.622
 3690SOL     OW11095   0.590   5.211   6.077
 3690SOL    HW111096   0.632   5.153   6.007
 3690SOL    HW211097   0.546   5.290   6.033
 3691SOL     OW11098   1.709   4.109   6.967
 3691SOL    HW111099   1.782   4.178   6.971
 3691SOL    HW211100   1.737   4.034   6.908
 3692SOL     OW11101   0.255   5.072   5.876
 3692SOL    HW111102   0.159   5.073   5.849
 3692SOL    HW211103   0.267   5.125   5.960
 3693SOL     OW11104   0.105   4.737   7.312
 3693SOL    HW111105   0.028   4.704   7.366
 3693SOL    HW211106   0.190   4.707   7.354
 3694SOL     OW11107   0.672   3.927   7.075
 3694SOL    HW111108   0.762   3.911   7.035
 3694SOL    HW211109   0.680   3.932   7.174
 3695SOL     OW11110   0.075   4.069   5.619
 3695SOL    HW111111  -0.017   4.041   5.590
 3695SOL    HW211112   0.106   4.146   5.563
 3696SOL     OW11113   1.440   4.580   6.984
 3696SOL    HW111114   1.383   4.632   6.921
 3696SOL    HW211115   1.536   4.592   6.960
 3697SOL     OW11116   0.072   3.890   5.904
 3697SOL    HW111117   0.055   3.973   5.850
 3697SOL    HW211118   0.162   3.853   5.882
 3698SOL     OW11119   1.183   5.059   5.705
 3698SOL    HW111120   1.084   5.048   5.707
 3698SOL    HW211121   1.217   5.074   5.798
 3699SOL     OW11122   0.613   4.566   7.017
 3699SOL    HW111123   0.669   4.647   7.000
 3699SOL    HW211124   0.672   4.486   7.020
 3700SOL     OW11125   1.493   5.491   6.545
 3700SOL    HW111126   1.526   5.555   6.476
 3700SOL    HW211127   1.559   5.485   6.620
 3701SOL     OW11128   0.716   4.289   7.294
 3701SOL    HW111129   0.735   4.354   7.368
 3701SOL    HW211130   0.776   4.209   7.303
 3702SOL     OW11131   1.450   4.944   7.219
 3702SOL    HW111132   1.441   4.934   7.318
 3702SOL    HW211133   1.546   4.937   7.193
 3703SOL     OW11134   0.390   5.465   7.146
 3703SOL    HW111135   0.299   5.506   7.144
 3703SOL    HW211136   0.383   5.371   7.178
 3704SOL     OW11137   1.674   4.607   6.840
 3704SOL    HW111138   1.647   4.518   6.803
 3704SOL    HW211139   1.675   4.675   6.767
 3705SOL     OW11140   1.225   4.049   6.035
 3705SOL    HW111141   1.290   3.975   6.024
 3705SOL    HW211142   1.245   4.099   6.119
 3706SOL     OW11143   0.594   4.469   6.238
 3706SOL    HW111144   0.644   4.554   6.219
 3706SOL    HW211145   0.506   4.471   6.190
 3707SOL     OW11146   1.777   4.066   7.228
 3707SOL    HW111147   1.760   4.097   7.134
 3707SOL    HW211148   1.693   4.029   7.266
 3708SOL     OW11149   1.730   4.658   7.103
 3708SOL    HW111150   1.768   4.749   7.118
 3708SOL    HW211151   1.722   4.641   7.004
 3709SOL     OW11152   0.859   5.098   5.602
 3709SOL    HW111153   0.813   5.113   5.690
 3709SOL    HW211154   0.903   5.183   5.572
 3710SOL     OW11155   0.661   5.514   6.539
 3710SOL    HW111156   0.615   5.602   6.526
 3710SOL    HW211157   0.760   5.526   6.532
 3711SOL     OW11158   0.859   4.680   6.447
 3711SOL    HW111159   0.913   4.611   6.495
 3711SOL    HW211160   0.827   4.749   6.513
 3712SOL     OW11161   1.083   4.708   5.673
 3712SOL    HW111162   1.060   4.761   5.591
 3712SOL    HW211163   1.164   4.652   5.654
 3713SOL     OW11164   1.861   5.293   6.437
 3713SOL    HW111165   1.790   5.281   6.367
 3713SOL    HW211166   1.862   5.214   6.497
 3714SOL     OW11167   0.221   5.038   7.430
 3714SOL    HW111168   0.156   4.965   7.409
 3714SOL    HW211169   0.225   5.052   7.528
 3715SOL     OW11170   0.079   4.964   6.239
 3715SOL    HW111171   0.078   4.917   6.327
 3715SOL    HW211172   0.161   4.936   6.188
 3716SOL     OW11173   0.672   5.115   7.210
 3716SOL    HW111174   0.594   5.065   7.248
 3716SOL    HW211175   0.669   5.210   7.241
 3717SOL     OW11176   1.824   3.916   6.813
 3717SOL    HW111177   1.820   3.826   6.857
 3717SOL    HW211178   1.827   3.905   6.714
 3718SOL     OW11179   0.428   4.148   6.106
 3718SOL    HW111180   0.458   4.076   6.044
 3718SOL    HW211181   0.389   4.108   6.189
 3719SOL     OW11182   1.705   5.211   6.690
 3719SOL    HW111183   1.612   5.186   6.663
 3719SOL    HW211184   1.731   5.161   6.772
 3720SOL     OW11185   0.317   4.271   6.866
 3720SOL    HW111186   0.355   4.212   6.938
 3720SOL    HW211187   0.357   4.245   6.778
 3721SOL     OW11188   0.812   5.310   6.273
 3721SOL    HW111189   0.844   5.320   6.179
 3721SOL    HW211190   0.733   5.248   6.275
 3722SOL     OW11191   1.424   3.938   6.698
 3722SOL    HW111192   1.476   3.873   6.753
 3722SOL    HW211193   1.375   4.001   6.759
 3723SOL     OW11194   1.001   3.758   6.740
 3723SOL    HW111195   0.938   3.686   6.709
 3723SOL    HW211196   1.094   3.722   6.740
 3724SOL     OW11197   0.770   5.054   5.887
 3724SOL    HW111198   0.724   4.967   5.904
 3724SOL    HW211199   0.861   5.051   5.928
 3725SOL     OW11200   0.618   5.291   6.870
 3725SOL    HW111201   0.613   5.373   6.927
 3725SOL    HW211202   0.707   5.288   6.825
 3726SOL     OW11203   1.352   3.776   5.754
 3726SOL    HW111204   1.387   3.735   5.670
 3726SOL    HW211205   1.262   3.738   5.774
 3727SOL     OW11206   1.300   4.177   6.277
 3727SOL    HW111207   1.241   4.257   6.281
 3727SOL    HW211208   1.315   4.142   6.370
 3728SOL     OW11209   1.593   3.945   6.468
 3728SOL    HW111210   1.509   3.944   6.522
 3728SOL    HW211211   1.595   4.028   6.412
 3729SOL     OW11212   0.039   4.801   5.886
 3729SOL    HW111213   0.138   4.790   5.877
 3729SOL    HW211214  -0.001   4.715   5.918
 3730SOL     OW11215   0.875   5.370   5.923
 3730SOL    HW111216   0.798   5.335   5.869
 3730SOL    HW211217   0.843   5.441   5.985
 3731SOL     OW11218   0.230   4.352   7.561
 3731SOL    HW111219   0.137   4.350   7.598
 3731SOL    HW211220   0.231   4.313   7.469
 3732SOL     OW11221   0.225   3.999   8.444
 3732SOL    HW111222   0.260   3.982   8.536
 3732SOL    HW211223   0.137   3.954   8.432
 3733SOL     OW11224   0.019   4.092   8.095
 3733SOL    HW111225  -0.063   4.135   8.134
 3733SOL    HW211226  -0.009   4.019   8.032
 3734SOL     OW11227   0.569   4.999   8.613
 3734SOL    HW111228   0.476   4.992   8.576
 3734SOL    HW211229   0.580   5.088   8.657
 3735SOL     OW11230   1.555   5.235   8.151
 3735SOL    HW111231   1.498   5.219   8.232
 3735SOL    HW211232   1.496   5.245   8.071
 3736SOL     OW11233   1.135   4.427   8.165
 3736SOL    HW111234   1.192   4.505   8.140
 3736SOL    HW211235   1.075   4.453   8.241
 3737SOL     OW11236   1.755   4.331   7.679
 3737SOL    HW111237   1.743   4.318   7.580
 3737SOL    HW211238   1.725   4.250   7.728
 3738SOL     OW11239   0.768   4.868   8.471
 3738SOL    HW111240   0.690   4.885   8.531
 3738SOL    HW211241   0.802   4.955   8.435
 3739SOL     OW11242   0.850   4.522   9.271
 3739SOL    HW111243   0.846   4.598   9.336
 3739SOL    HW211244   0.872   4.558   9.180
 3740SOL     OW11245   0.685   4.736   8.113
 3740SOL    HW111246   0.754   4.720   8.183
 3740SOL    HW211247   0.612   4.793   8.151
 3741SOL     OW11248   0.686   4.885   9.251
 3741SOL    HW111249   0.746   4.964   9.265
 3741SOL    HW211250   0.600   4.916   9.210
 3742SOL     OW11251   0.335   5.159   8.509
 3742SOL    HW111252   0.257   5.128   8.456
 3742SOL    HW211253   0.393   5.217   8.452
 3743SOL     OW11254   1.460   5.229   8.787
 3743SOL    HW111255   1.484   5.323   8.813
 3743SOL    HW211256   1.444   5.175   8.869
 3744SOL     OW11257   0.438   4.116   8.947
 3744SOL    HW111258   0.520   4.060   8.956
 3744SOL    HW211259   0.357   4.058   8.951
 3745SOL     OW11260   1.603   4.171   8.185
 3745SOL    HW111261   1.529   4.217   8.135
 3745SOL    HW211262   1.654   4.239   8.238
 3746SOL     OW11263   0.231   5.437   7.931
 3746SOL    HW111264   0.265   5.514   7.985
 3746SOL    HW211265   0.275   5.437   7.841
 3747SOL     OW11266   1.127   5.065   9.138
 3747SOL    HW111267   1.174   5.065   9.226
 3747SOL    HW211268   1.079   4.978   9.127
 3748SOL     OW11269   0.230   5.158   7.986
 3748SOL    HW111270   0.204   5.254   7.986
 3748SOL    HW211271   0.159   5.104   8.031
 3749SOL     OW11272   0.240   4.815   8.334
 3749SOL    HW111273   0.254   4.731   8.386
 3749SOL    HW211274   0.185   4.879   8.389
 3750SOL     OW11275   0.620   5.510   8.887
 3750SOL    HW111276   0.528   5.493   8.922
 3750SOL    HW211277   0.648   5.602   8.913
 3751SOL     OW11278   0.606   4.688   7.571
 3751SOL    HW111279   0.613   4.772   7.517
 3751SOL    HW211280   0.652   4.701   7.659
 3752SOL     OW11281   1.594   3.838   8.928
 3752SOL    HW111282   1.576   3.905   8.856
 3752SOL    HW211283   1.591   3.884   9.017
 3753SOL     OW11284   0.122   4.367   8.011
 3753SOL    HW111285   0.077   4.279   8.028
 3753SOL    HW211286   0.121   4.421   8.095
 3754SOL     OW11287   1.842   5.491   7.807
 3754SOL    HW111288   1.896   5.462   7.887
 3754SOL    HW211289   1.872   5.581   7.778
 3755SOL     OW11290   0.027   5.320   7.565
 3755SOL    HW111291   0.008   5.224   7.586
 3755SOL    HW211292  -0.006   5.378   7.640
 3756SOL     OW11293   1.689   4.646   8.060
 3756SOL    HW111294   1.784   4.617   8.068
 3756SOL    HW211295   1.681   4.711   7.985
 3757SOL     OW11296   1.641   4.832   7.880
 3757SOL    HW111297   1.727   4.834   7.828
 3757SOL    HW211298   1.655   4.879   7.968
 3758SOL     OW11299   0.113   4.461   9.045
 3758SOL    HW111300   0.201   4.448   9.090
 3758SOL    HW211301   0.100   4.558   9.023
 3759SOL     OW11302   0.613   5.089   8.174
 3759SOL    HW111303   0.564   5.002   8.183
 3759SOL    HW211304   0.590   5.132   8.087
 3760SOL     OW11305   1.293   4.952   8.871
 3760SOL    HW111306   1.330   4.879   8.813
 3760SOL    HW211307   1.345   4.957   8.956
 3761SOL     OW11308   0.809   3.728   7.950
 3761SOL    HW111309   0.849   3.819   7.941
 3761SOL    HW211310   0.709   3.736   7.956
 3762SOL     OW11311   0.197   4.700   8.712
 3762SOL    HW111312   0.286   4.655   8.698
 3762SOL    HW211313   0.124   4.635   8.693
 3763SOL     OW11314   1.525   4.723   7.638
 3763SOL    HW111315   1.462   4.647   7.651
 3763SOL    HW211316   1.573   4.741   7.724
 3764SOL     OW11317   1.187   5.516   9.064
 3764SOL    HW111318   1.211   5.576   8.988
 3764SOL    HW211319   1.194   5.421   9.034
 3765SOL     OW11320   0.317   3.975   9.249
 3765SOL    HW111321   0.388   4.046   9.255
 3765SOL    HW211322   0.229   4.014   9.277
 3766SOL     OW11323   1.466   5.141   8.401
 3766SOL    HW111324   1.407   5.147   8.481
 3766SOL    HW211325   1.451   5.053   8.355
 3767SOL     OW11326   1.667   5.438   8.020
 3767SOL    HW111327   1.626   5.415   7.932
 3767SOL    HW211328   1.649   5.364   8.085
 3768SOL     OW11329   0.598   4.453   7.718
 3768SOL    HW111330   0.622   4.522   7.650
 3768SOL    HW211331   0.520   4.486   7.772
 3769SOL     OW11332   1.281   4.069   8.392
 3769SOL    HW111333   1.195   4.019   8.379
 3769SOL    HW211334   1.343   4.015   8.448
 3770SOL     OW11335   1.576   5.386   7.755
 3770SOL    HW111336   1.665   5.432   7.758
 3770SOL    HW211337   1.555   5.362   7.660
 3771SOL     OW11338   0.807   4.329   8.913
 3771SOL    HW111339   0.760   4.326   9.002
 3771SOL    HW211340   0.756   4.274   8.847
 3772SOL     OW11341   1.394   4.193   9.122
 3772SOL    HW111342   1.374   4.236   9.210
 3772SOL    HW211343   1.472   4.131   9.131
 3773SOL     OW11344   0.973   4.614   9.020
 3773SOL    HW111345   1.019   4.530   8.991
 3773SOL    HW211346   0.917   4.648   8.945
 3774SOL     OW11347   0.991   4.134   8.690
 3774SOL    HW111348   0.914   4.168   8.744
 3774SOL    HW211349   0.957   4.083   8.611
 3775SOL     OW11350   1.041   4.425   7.877
 3775SOL    HW111351   1.067   4.421   7.973
 3775SOL    HW211352   0.956   4.374   7.863
 3776SOL     OW11353   0.076   4.535   8.237
 3776SOL    HW111354   0.175   4.523   8.246
 3776SOL    HW211355   0.052   4.630   8.258
 3777SOL     OW11356   0.130   5.545   9.019
 3777SOL    HW111357   0.120   5.530   9.118
 3777SOL    HW211358   0.044   5.581   8.983
 3778SOL     OW11359   0.865   4.072   7.643
 3778SOL    HW111360   0.924   4.135   7.594
 3778SOL    HW211361   0.884   3.978   7.614
 3779SOL     OW11362   1.719   4.309   9.279
 3779SOL    HW111363   1.693   4.398   9.243
 3779SOL    HW211364   1.717   4.241   9.206
 3780SOL     OW11365   1.362   4.868   7.993
 3780SOL    HW111366   1.445   4.839   7.945
 3780SOL    HW211367   1.313   4.935   7.937
 3781SOL     OW11368   0.550   3.920   8.333
 3781SOL    HW111369   0.545   3.915   8.433
 3781SOL    HW211370   0.552   4.016   8.304
 3782SOL     OW11371   1.008   5.180   7.925
 3782SOL    HW111372   0.962   5.252   7.873
 3782SOL    HW211373   1.004   5.200   8.023
 3783SOL     OW11374   0.351   5.525   8.301
 3783SOL    HW111375   0.401   5.439   8.307
 3783SOL    HW211376   0.416   5.602   8.298
 3784SOL     OW11377   1.795   4.790   8.321
 3784SOL    HW111378   1.733   4.775   8.245
 3784SOL    HW211379   1.743   4.801   8.406
 3785SOL     OW11380   1.227   5.274   8.954
 3785SOL    HW111381   1.233   5.197   9.018
 3785SOL    HW211382   1.175   5.248   8.874
 3786SOL     OW11383   0.321   4.667   7.690
 3786SOL    HW111384   0.403   4.706   7.648
 3786SOL    HW211385   0.294   4.585   7.641
 3787SOL     OW11386   1.458   4.459   8.176
 3787SOL    HW111387   1.453   4.394   8.251
 3787SOL    HW211388   1.538   4.518   8.189
 3788SOL     OW11389   0.461   4.990   9.175
 3788SOL    HW111390   0.411   4.991   9.089
 3788SOL    HW211391   0.398   4.972   9.251
 3789SOL     OW11392   1.111   5.500   7.685
 3789SOL    HW111393   1.051   5.438   7.735
 3789SOL    HW211394   1.142   5.456   7.600
 3790SOL     OW11395   0.202   4.009   8.946
 3790SOL    HW111396   0.122   4.069   8.933
 3790SOL    HW211397   0.192   3.960   9.032
 3791SOL     OW11398   1.632   5.101   7.529
 3791SOL    HW111399   1.600   5.195   7.519
 3791SOL    HW211400   1.556   5.038   7.517
 3792SOL     OW11401   0.464   5.467   7.771
 3792SOL    HW111402   0.497   5.506   7.857
 3792SOL    HW211403   0.540   5.460   7.706
 3793SOL     OW11404   1.400   3.831   7.874
 3793SOL    HW111405   1.376   3.794   7.784
 3793SOL    HW211406   1.499   3.847   7.878
 3794SOL     OW11407   0.249   5.509   8.689
 3794SOL    HW111408   0.306   5.444   8.739
 3794SOL    HW211409   0.233   5.476   8.596
 3795SOL     OW11410   0.940   5.422   8.352
 3795SOL    HW111411   1.020   5.365   8.373
 3795SOL    HW211412   0.891   5.382   8.275
 3796SOL     OW11413   0.382   4.424   7.928
 3796SOL    HW111414   0.427   4.334   7.925
 3796SOL    HW211415   0.288   4.413   7.961
 3797SOL     OW11416   1.547   3.946   9.177
 3797SOL    HW111417   1.542   3.983   9.269
 3797SOL    HW211418   1.475   3.877   9.165
 3798SOL     OW11419   0.614   3.846   7.565
 3798SOL    HW111420   0.712   3.824   7.572
 3798SOL    HW211421   0.583   3.829   7.472
 3799SOL     OW11422   0.781   3.988   9.197
 3799SOL    HW111423   0.848   3.927   9.240
 3799SOL    HW211424   0.708   4.007   9.262
 3800SOL     OW11425   0.888   5.238   8.643
 3800SOL    HW111426   0.865   5.213   8.549
 3800SOL    HW211427   0.949   5.169   8.682
 3801SOL     OW11428   1.351   4.314   8.881
 3801SOL    HW111429   1.379   4.271   8.966
 3801SOL    HW211430   1.376   4.410   8.882
 3802SOL     OW11431   0.803   5.126   8.372
 3802SOL    HW111432   0.893   5.140   8.330
 3802SOL    HW211433   0.732   5.128   8.301
 3803SOL     OW11434   0.922   4.227   8.347
 3803SOL    HW111435   0.897   4.218   8.251
 3803SOL    HW211436   0.970   4.145   8.378
 3804SOL     OW11437   0.539   3.788   7.960
 3804SOL    HW111438   0.458   3.789   8.018
 3804SOL    HW211439   0.542   3.871   7.905
 3805SOL     OW11440   1.434   4.912   7.489
 3805SOL    HW111441   1.466   4.836   7.546
 3805SOL    HW211442   1.342   4.939   7.519
 3806SOL     OW11443   0.297   3.759   7.619
 3806SOL    HW111444   0.346   3.843   7.598
 3806SOL    HW211445   0.359   3.694   7.664
 3807SOL     OW11446   0.935   3.960   7.928
 3807SOL    HW111447   0.887   4.001   7.850
 3807SOL    HW211448   1.034   3.958   7.909
 3808SOL     OW11449   1.076   4.407   8.912
 3808SOL    HW111450   0.996   4.346   8.915
 3808SOL    HW211451   1.157   4.354   8.888
 3809SOL     OW11452   1.227   5.294   8.241
 3809SOL    HW111453   1.248   5.368   8.176
 3809SOL    HW211454   1.295   5.294   8.314
 3810SOL     OW11455   0.459   4.876   8.189
 3810SOL    HW111456   0.388   4.849   8.254
 3810SOL    HW211457   0.433   4.848   8.096
 3811SOL     OW11458   1.271   5.521   8.039
 3811SOL    HW111459   1.315   5.585   7.975
 3811SOL    HW211460   1.221   5.573   8.109
 3812SOL     OW11461   1.032   4.273   7.464
 3812SOL    HW111462   0.991   4.355   7.425
 3812SOL    HW211463   1.096   4.299   7.537
 3813SOL     OW11464   0.078   4.280   8.834
 3813SOL    HW111465   0.170   4.279   8.793
 3813SOL    HW211466   0.072   4.354   8.901
 3814SOL     OW11467   0.561   3.946   8.595
 3814SOL    HW111468   0.599   3.862   8.632
 3814SOL    HW211469   0.473   3.965   8.639
 3815SOL     OW11470   0.866   4.178   8.090
 3815SOL    HW111471   0.834   4.250   8.028
 3815SOL    HW211472   0.890   4.097   8.037
 3816SOL     OW11473   1.017   3.763   8.201
 3816SOL    HW111474   0.945   3.768   8.132
 3816SOL    HW211475   0.993   3.694   8.270
 3817SOL     OW11476   1.429   4.897   8.315
 3817SOL    HW111477   1.374   4.813   8.308
 3817SOL    HW211478   1.455   4.926   8.223
 3818SOL     OW11479   1.466   4.314   8.440
 3818SOL    HW111480   1.436   4.219   8.447
 3818SOL    HW211481   1.539   4.330   8.506
 3819SOL     OW11482   1.857   4.557   7.825
 3819SOL    HW111483   1.899   4.493   7.889
 3819SOL    HW211484   1.819   4.506   7.747
 3820SOL     OW11485   0.488   5.109   7.622
 3820SOL    HW111486   0.401   5.094   7.669
 3820SOL    HW211487   0.471   5.135   7.527
 3821SOL     OW11488   1.664   5.004   8.105
 3821SOL    HW111489   1.763   5.012   8.119
 3821SOL    HW211490   1.619   5.088   8.136
 3822SOL     OW11491   1.390   4.299   7.526
 3822SOL    HW111492   1.336   4.278   7.607
 3822SOL    HW211493   1.481   4.258   7.535
 3823SOL     OW11494   0.527   3.980   7.776
 3823SOL    HW111495   0.554   3.921   7.701
 3823SOL    HW211496   0.527   4.075   7.745
 3824SOL     OW11497   1.754   4.947   9.036
 3824SOL    HW111498   1.845   4.908   9.023
 3824SOL    HW211499   1.762   5.043   9.060
 3825SOL     OW11500   1.064   5.071   8.788
 3825SOL    HW111501   0.984   5.048   8.843
 3825SOL    HW211502   1.147   5.045   8.837
 3826SOL     OW11503   1.592   5.353   9.073
 3826SOL    HW111504   1.619   5.387   8.983
 3826SOL    HW211505   1.671   5.315   9.119
 3827SOL     OW11506   1.111   4.919   8.548
 3827SOL    HW111507   1.071   4.963   8.629
 3827SOL    HW211508   1.070   4.956   8.465
 3828SOL     OW11509   1.638   4.823   8.527
 3828SOL    HW111510   1.643   4.904   8.586
 3828SOL    HW211511   1.552   4.825   8.476
 3829SOL     OW11512   0.915   3.813   8.850
 3829SOL    HW111513   0.940   3.793   8.755
 3829SOL    HW211514   0.987   3.869   8.892
 3830SOL     OW11515   0.980   4.840   9.167
 3830SOL    HW111516   0.881   4.846   9.177
 3830SOL    HW211517   1.003   4.760   9.111
 3831SOL     OW11518   0.705   4.774   7.816
 3831SOL    HW111519   0.691   4.781   7.915
 3831SOL    HW211520   0.789   4.723   7.798
 3832SOL     OW11521   0.410   4.537   8.699
 3832SOL    HW111522   0.496   4.549   8.749
 3832SOL    HW211523   0.368   4.450   8.726
 3833SOL     OW11524   1.274   4.110   8.710
 3833SOL    HW111525   1.295   4.184   8.774
 3833SOL    HW211526   1.185   4.127   8.667
 3834SOL     OW11527   0.064   5.288   8.779
 3834SOL    HW111528   0.018   5.370   8.745
 3834SOL    HW211529   0.162   5.307   8.788
 3835SOL     OW11530   0.367   4.824   7.949
 3835SOL    HW111531   0.360   4.907   7.893
 3835SOL    HW211532   0.371   4.744   7.889
 3836SOL     OW11533   0.566   4.261   8.313
 3836SOL    HW111534   0.578   4.327   8.239
 3836SOL    HW211535   0.612   4.295   8.396
 3837SOL     OW11536   1.252   5.072   7.836
 3837SOL    HW111537   1.302   5.149   7.876
 3837SOL    HW211538   1.157   5.074   7.868
 3838SOL     OW11539   1.272   5.169   8.590
 3838SOL    HW111540   1.319   5.182   8.677
 3838SOL    HW211541   1.206   5.095   8.599
 3839SOL     OW11542   1.582   4.363   7.920
 3839SOL    HW111543   1.551   4.424   7.993
 3839SOL    HW211544   1.632   4.415   7.851
 3840SOL     OW11545   0.354   5.234   8.777
 3840SOL    HW111546   0.333   5.190   8.690
 3840SOL    HW211547   0.451   5.260   8.780
 3841SOL     OW11548   0.402   4.475   9.046
 3841SOL    HW111549   0.470   4.530   8.999
 3841SOL    HW211550   0.442   4.387   9.073
 3842SOL     OW11551   1.587   4.503   9.118
 3842SOL    HW111552   1.495   4.541   9.113
 3842SOL    HW211553   1.647   4.550   9.053
 3843SOL     OW11554   1.013   3.829   9.218
 3843SOL    HW111555   1.019   3.914   9.166
 3843SOL    HW211556   1.045   3.753   9.161
 3844SOL     OW11557   0.504   3.774   9.188
 3844SOL    HW111558   0.462   3.717   9.118
 3844SOL    HW211559   0.438   3.843   9.220
 3845SOL     OW11560   0.573   4.594   8.477
 3845SOL    HW111561   0.617   4.683   8.468
 3845SOL    HW211562   0.510   4.594   8.554
 3846SOL     OW11563   1.360   4.586   8.493
 3846SOL    HW111564   1.285   4.586   8.427
 3846SOL    HW211565   1.397   4.494   8.502
 3847SOL     OW11566   1.209   4.249   7.723
 3847SOL    HW111567   1.222   4.165   7.777
 3847SOL    HW211568   1.180   4.323   7.783
 3848SOL     OW11569   0.307   3.937   8.679
 3848SOL    HW111570   0.284   3.974   8.769
 3848SOL    HW211571   0.277   3.842   8.673
 3849SOL     OW11572   0.037   5.034   8.730
 3849SOL    HW111573   0.090   4.985   8.798
 3849SOL    HW211574   0.059   5.132   8.735
 3850SOL     OW11575   0.732   4.358   8.512
 3850SOL    HW111576   0.791   4.332   8.436
 3850SOL    HW211577   0.704   4.454   8.501
 3851SOL     OW11578   1.728   4.659   9.302
 3851SOL    HW111579   1.682   4.652   9.213
 3851SOL    HW211580   1.666   4.703   9.368
 3852SOL     OW11581   0.307   3.787   8.066
 3852SOL    HW111582   0.296   3.881   8.099
 3852SOL    HW211583   0.302   3.724   8.143
 3853SOL     OW11584   1.622   4.091   7.822
 3853SOL    HW111585   1.624   4.015   7.886
 3853SOL    HW211586   1.574   4.168   7.862
 3854SOL     OW11587   1.023   4.490   8.414
 3854SOL    HW111588   1.038   4.511   8.510
 3854SOL    HW211589   0.993   4.395   8.405
 3855SOL     OW11590   0.980   5.297   9.148
 3855SOL    HW111591   0.960   5.341   9.060
 3855SOL    HW211592   1.019   5.206   9.132
 3856SOL     OW11593   1.859   5.242   9.053
 3856SOL    HW111594   1.873   5.269   8.958
 3856SOL    HW211595   1.942   5.264   9.106
 3857SOL     OW11596   0.350   4.622   9.252
 3857SOL    HW111597   0.426   4.666   9.300
 3857SOL    HW211598   0.385   4.575   9.170
 3858SOL     OW11599   1.540   3.998   7.573
 3858SOL    HW111600   1.479   3.923   7.596
 3858SOL    HW211601   1.562   4.050   7.656
 3859SOL     OW11602   1.303   4.562   7.490
 3859SOL    HW111603   1.337   4.469   7.505
 3859SOL    HW211604   1.321   4.589   7.395
 3860SOL     OW11605   1.068   5.057   8.297
 3860SOL    HW111606   1.075   4.973   8.242
 3860SOL    HW211607   1.130   5.126   8.261
 3861SOL     OW11608   0.319   4.534   8.397
 3861SOL    HW111609   0.412   4.570   8.402
 3861SOL    HW211610   0.313   4.449   8.449
 3862SOL     OW11611   1.138   4.104   9.126
 3862SOL    HW111612   1.093   4.167   9.190
 3862SOL    HW211613   1.231   4.135   9.109
 3863SOL     OW11614   1.160   3.931   8.925
 3863SOL    HW111615   1.160   3.995   9.002
 3863SOL    HW211616   1.188   3.979   8.842
 3864SOL     OW11617   0.008   5.050   7.648
 3864SOL    HW111618  -0.085   5.071   7.617
 3864SOL    HW211619   0.018   4.951   7.661
 3865SOL     OW11620   0.088   5.525   8.375
 3865SOL    HW111621   0.046   5.439   8.348
 3865SOL    HW211622   0.182   5.528   8.341
 3866SOL     OW11623   0.504   5.292   8.358
 3866SOL    HW111624   0.570   5.366   8.367
 3866SOL    HW211625   0.548   5.213   8.316
 3867SOL     OW11626   1.002   4.520   8.686
 3867SOL    HW111627   1.043   4.488   8.772
 3867SOL    HW211628   0.906   4.493   8.683
 3868SOL     OW11629   0.040   4.268   8.562
 3868SOL    HW111630   0.125   4.235   8.521
 3868SOL    HW211631   0.053   4.283   8.660
 3869SOL     OW11632   0.189   4.244   9.170
 3869SOL    HW111633   0.248   4.204   9.100
 3869SOL    HW211634   0.131   4.315   9.129
 3870SOL     OW11635   1.369   4.674   9.108
 3870SOL    HW111636   1.408   4.763   9.128
 3870SOL    HW211637   1.379   4.654   9.011
 3871SOL     OW11638   0.815   4.296   7.773
 3871SOL    HW111639   0.822   4.207   7.727
 3871SOL    HW211640   0.721   4.330   7.765
 3872SOL     OW11641   1.657   4.328   8.654
 3872SOL    HW111642   1.619   4.259   8.716
 3872SOL    HW211643   1.739   4.292   8.610
 3873SOL     OW11644   0.252   5.288   9.192
 3873SOL    HW111645   0.222   5.345   9.268
 3873SOL    HW211646   0.245   5.191   9.218
 3874SOL     OW11647   0.671   4.188   8.717
 3874SOL    HW111648   0.637   4.099   8.687
 3874SOL    HW211649   0.697   4.242   8.637
 3875SOL     OW11650   0.930   5.402   8.913
 3875SOL    HW111651   0.906   5.384   8.818
 3875SOL    HW211652   0.960   5.496   8.923
 3876SOL     OW11653   0.473   4.224   7.639
 3876SOL    HW111654   0.534   4.304   7.643
 3876SOL    HW211655   0.378   4.255   7.646
 3877SOL     OW11656   0.159   4.861   8.914
 3877SOL    HW111657   0.181   4.800   8.990
 3877SOL    HW211658   0.169   4.812   8.828
 3878SOL     OW11659   1.347   4.783   8.682
 3878SOL    HW111660   1.371   4.720   8.608
 3878SOL    HW211661   1.257   4.823   8.664
 3879SOL     OW11662   1.302   4.579   7.757
 3879SOL    HW111663   1.216   4.548   7.799
 3879SOL    HW211664   1.298   4.565   7.658
 3880SOL     OW11665   1.759   5.471   8.602
 3880SOL    HW111666   1.820   5.501   8.529
 3880SOL    HW211667   1.721   5.382   8.580
 3881SOL     OW11668   1.252   5.455   8.576
 3881SOL    HW111669   1.336   5.460   8.522
 3881SOL    HW211670   1.229   5.359   8.594
 3882SOL     OW11671   0.083   4.982   8.470
 3882SOL    HW111672   0.078   4.981   8.570
 3882SOL    HW211673   0.000   4.941   8.432
 3883SOL     OW11674   0.688   5.386   9.164
 3883SOL    HW111675   0.632   5.467   9.173
 3883SOL    HW211676   0.740   5.390   9.078
 3884SOL     OW11677   1.726   3.859   7.971
 3884SOL    HW111678   1.799   3.842   7.904
 3884SOL    HW211679   1.695   3.772   8.009
 3885SOL     OW11680   1.388   5.297   7.925
 3885SOL    HW111681   1.455   5.309   7.851
 3885SOL    HW211682   1.348   5.386   7.948
 3886SOL     OW11683   0.130   5.518   9.299
 3886SOL    HW111684   0.089   5.444   9.352
 3886SOL    HW211685   0.194   5.569   9.357
 3887SOL     OW11686   1.280   4.651   8.120
 3887SOL    HW111687   1.340   4.570   8.122
 3887SOL    HW211688   1.320   4.720   8.060
 3888SOL     OW11689   0.672   5.340   7.602
 3888SOL    HW111690   0.681   5.350   7.503
 3888SOL    HW211691   0.632   5.251   7.623
 3889SOL     OW11692   1.650   5.444   8.842
 3889SOL    HW111693   1.703   5.454   8.758
 3889SOL    HW211694   1.623   5.534   8.876
 3890SOL     OW11695   1.841   3.899   8.411
 3890SOL    HW111696   1.880   3.814   8.375
 3890SOL    HW211697   1.743   3.901   8.392
 3891SOL     OW11698   0.263   4.050   8.168
 3891SOL    HW111699   0.184   4.101   8.134
 3891SOL    HW211700   0.254   4.035   8.266
 3892SOL     OW11701   1.194   5.336   7.479
 3892SOL    HW111702   1.200   5.243   7.516
 3892SOL    HW211703   1.135   5.336   7.399
 3893SOL     OW11704   0.822   4.726   8.820
 3893SOL    HW111705   0.862   4.725   8.728
 3893SOL    HW211706   0.832   4.818   8.860
 3894SOL     OW11707   0.916   4.634   7.739
 3894SOL    HW111708   0.979   4.672   7.671
 3894SOL    HW211709   0.956   4.551   7.778
 3895SOL     OW11710   1.504   5.331   7.492
 3895SOL    HW111711   1.412   5.368   7.499
 3895SOL    HW211712   1.542   5.351   7.402
 3896SOL     OW11713   0.372   5.012   8.938
 3896SOL    HW111714   0.359   5.105   8.904
 3896SOL    HW211715   0.288   4.960   8.925
 3897SOL     OW11716   1.614   5.016   8.737
 3897SOL    HW111717   1.674   5.019   8.817
 3897SOL    HW211718   1.539   5.080   8.750
 3898SOL     OW11719   1.039   4.822   8.144
 3898SOL    HW111720   0.969   4.775   8.198
 3898SOL    HW211721   1.098   4.754   8.101
 3899SOL     OW11722   1.014   3.960   8.419
 3899SOL    HW111723   1.006   3.924   8.326
 3899SOL    HW211724   1.012   3.884   8.484
 3900SOL     OW11725   0.590   5.211   7.939
 3900SOL    HW111726   0.632   5.153   7.869
 3900SOL    HW211727   0.546   5.290   7.895
 3901SOL     OW11728   1.709   4.109   8.829
 3901SOL    HW111729   1.782   4.178   8.833
 3901SOL    HW211730   1.737   4.034   8.770
 3902SOL     OW11731   0.255   5.072   7.738
 3902SOL    HW111732   0.159   5.073   7.711
 3902SOL    HW211733   0.267   5.125   7.822
 3903SOL     OW11734   0.105   4.737   9.174
 3903SOL    HW111735   0.028   4.704   9.228
 3903SOL    HW211736   0.190   4.707   9.216
 3904SOL     OW11737   0.672   3.927   8.937
 3904SOL    HW111738   0.762   3.911   8.897
 3904SOL    HW211739   0.680   3.932   9.036
 3905SOL     OW11740   0.075   4.069   7.481
 3905SOL    HW111741  -0.017   4.041   7.452
 3905SOL    HW211742   0.106   4.146   7.425
 3906SOL     OW11743   1.440   4.580   8.846
 3906SOL    HW111744   1.383   4.632   8.783
 3906SOL    HW211745   1.536   4.592   8.822
 3907SOL     OW11746   0.072   3.890   7.766
 3907SOL    HW111747   0.055   3.973   7.712
 3907SOL    HW211748   0.162   3.853   7.744
 3908SOL     OW11749   1.183   5.059   7.567
 3908SOL    HW111750   1.084   5.048   7.569
 3908SOL    HW211751   1.217   5.074   7.660
 3909SOL     OW11752   0.613   4.566   8.879
 3909SOL    HW111753   0.669   4.647   8.862
 3909SOL    HW211754   0.672   4.486   8.882
 3910SOL     OW11755   1.493   5.491   8.407
 3910SOL    HW111756   1.526   5.555   8.338
 3910SOL    HW211757   1.559   5.485   8.482
 3911SOL     OW11758   0.716   4.289   9.156
 3911SOL    HW111759   0.735   4.354   9.230
 3911SOL    HW211760   0.776   4.209   9.165
 3912SOL     OW11761   1.450   4.944   9.081
 3912SOL    HW111762   1.441   4.934   9.180
 3912SOL    HW211763   1.546   4.937   9.055
 3913SOL     OW11764   0.390   5.465   9.008
 3913SOL    HW111765   0.299   5.506   9.006
 3913SOL    HW211766   0.383   5.371   9.040
 3914SOL     OW11767   1.674   4.607   8.702
 3914SOL    HW111768   1.647   4.518   8.665
 3914SOL    HW211769   1.675   4.675   8.629
 3915SOL     OW11770   1.225   4.049   7.897
 3915SOL    HW111771   1.290   3.975   7.886
 3915SOL    HW211772   1.245   4.099   7.981
 3916SOL     OW11773   0.594   4.469   8.100
 3916SOL    HW111774   0.644   4.554   8.081
 3916SOL    HW211775   0.506   4.471   8.052
 3917SOL     OW11776   1.777   4.066   9.090
 3917SOL    HW111777   1.760   4.097   8.996
 3917SOL    HW211778   1.693   4.029   9.128
 3918SOL     OW11779   1.730   4.658   8.965
 3918SOL    HW111780   1.768   4.749   8.980
 3918SOL    HW211781   1.722   4.641   8.866
 3919SOL     OW11782   0.859   5.098   7.464
 3919SOL    HW111783   0.813   5.113   7.552
 3919SOL    HW211784   0.903   5.183   7.434
 3920SOL     OW11785   0.661   5.514   8.401
 3920SOL    HW111786   0.615   5.602   8.388
 3920SOL    HW211787   0.760   5.526   8.394
 3921SOL     OW11788   0.859   4.680   8.309
 3921SOL    HW111789   0.913   4.611   8.357
 3921SOL    HW211790   0.827   4.749   8.375
 3922SOL     OW11791   1.083   4.708   7.535
 3922SOL    HW111792   1.060   4.761   7.453
 3922SOL    HW211793   1.164   4.652   7.516
 3923SOL     OW11794   1.861   5.293   8.299
 3923SOL    HW111795   1.790   5.281   8.229
 3923SOL    HW211796   1.862   5.214   8.359
 3924SOL     OW11797   0.221   5.038   9.292
 3924SOL    HW111798   0.156   4.965   9.271
 3924SOL    HW211799   0.225   5.052   9.390
 3925SOL     OW11800   0.079   4.964   8.101
 3925SOL    HW111801   0.078   4.917   8.189
 3925SOL    HW211802   0.161   4.936   8.050
 3926SOL     OW11803   0.672   5.115   9.072
 3926SOL    HW111804   0.594   5.065   9.110
 3926SOL    HW211805   0.669   5.210   9.103
 3927SOL     OW11806   1.824   3.916   8.675
 3927SOL    HW111807   1.820   3.826   8.719
 3927SOL    HW211808   1.827   3.905   8.576
 3928SOL     OW11809   0.428   4.148   7.968
 3928SOL    HW111810   0.458   4.076   7.906
 3928SOL    HW211811   0.389   4.108   8.051
 3929SOL     OW11812   1.705   5.211   8.552
 3929SOL    HW111813   1.612   5.186   8.525
 3929SOL    HW211814   1.731   5.161   8.634
 3930SOL     OW11815   0.317   4.271   8.728
 3930SOL    HW111816   0.355   4.212   8.800
 3930SOL    HW211817   0.357   4.245   8.640
 3931SOL     OW11818   0.812   5.310   8.135
 3931SOL    HW111819   0.844   5.320   8.041
 3931SOL    HW211820   0.733   5.248   8.137
 3932SOL     OW11821   1.424   3.938   8.560
 3932SOL    HW111822   1.476   3.873   8.615
 3932SOL    HW211823   1.375   4.001   8.621
 3933SOL     OW11824   1.001   3.758   8.602
 3933SOL    HW111825   0.938   3.686   8.571
 3933SOL    HW211826   1.094   3.722   8.602
 3934SOL     OW11827   0.770   5.054   7.749
 3934SOL    HW111828   0.724   4.967   7.766
 3934SOL    HW211829   0.861   5.051   7.790
 3935SOL     OW11830   0.618   5.291   8.732
 3935SOL    HW111831   0.613   5.373   8.789
 3935SOL    HW211832   0.707   5.288   8.687
 3936SOL     OW11833   1.352   3.776   7.616
 3936SOL    HW111834   1.387   3.735   7.532
 3936SOL    HW211835   1.262   3.738   7.636
 3937SOL     OW11836   1.300   4.177   8.139
 3937SOL    HW111837   1.241   4.257   8.143
 3937SOL    HW211838   1.315   4.142   8.232
 3938SOL     OW11839   1.593   3.945   8.330
 3938SOL    HW111840   1.509   3.944   8.384
 3938SOL    HW211841   1.595   4.028   8.274
 3939SOL     OW11842   0.039   4.801   7.748
 3939SOL    HW111843   0.138   4.790   7.739
 3939SOL    HW211844  -0.001   4.715   7.780
 3940SOL     OW11845   0.875   5.370   7.785
 3940SOL    HW111846   0.798   5.335   7.731
 3940SOL    HW211847   0.843   5.441   7.847
 3941SOL     OW11848   0.230   4.352   9.423
 3941SOL    HW111849   0.137   4.350   9.460
 3941SOL    HW211850   0.231   4.313   9.331
 3942SOL     OW11851   0.225   3.999  10.306
 3942SOL    HW111852   0.260   3.982  10.398
 3942SOL    HW211853   0.137   3.954  10.294
 3943SOL     OW11854   0.019   4.092   9.957
 3943SOL    HW111855  -0.063   4.135   9.996
 3943SOL    HW211856  -0.009   4.019   9.894
 3944SOL     OW11857   0.569   4.999  10.475
 3944SOL    HW111858   0.476   4.992  10.438
 3944SOL    HW211859   0.580   5.088  10.519
 3945SOL     OW11860   1.555   5.235  10.013
 3945SOL    HW111861   1.498   5.219  10.094
 3945SOL    HW211862   1.496   5.245   9.933
 3946SOL     OW11863   1.135   4.427  10.027
 3946SOL    HW111864   1.192   4.505  10.002
 3946SOL    HW211865   1.075   4.453  10.103
 3947SOL     OW11866   1.755   4.331   9.541
 3947SOL    HW111867   1.743   4.318   9.442
 3947SOL    HW211868   1.725   4.250   9.590
 3948SOL     OW11869   0.768   4.868  10.333
 3948SOL    HW111870   0.690   4.885  10.393
 3948SOL    HW211871   0.802   4.955  10.297
 3949SOL     OW11872   0.850   4.522  11.133
 3949SOL    HW111873   0.846   4.598  11.198
 3949SOL    HW211874   0.872   4.558  11.042
 3950SOL     OW11875   0.685   4.736   9.975
 3950SOL    HW111876   0.754   4.720  10.045
 3950SOL    HW211877   0.612   4.793  10.013
 3951SOL     OW11878   0.686   4.885  11.113
 3951SOL    HW111879   0.746   4.964  11.127
 3951SOL    HW211880   0.600   4.916  11.072
 3952SOL     OW11881   0.335   5.159  10.371
 3952SOL    HW111882   0.257   5.128  10.318
 3952SOL    HW211883   0.393   5.217  10.314
 3953SOL     OW11884   1.460   5.229  10.649
 3953SOL    HW111885   1.484   5.323  10.675
 3953SOL    HW211886   1.444   5.175  10.731
 3954SOL     OW11887   0.438   4.116  10.809
 3954SOL    HW111888   0.520   4.060  10.818
 3954SOL    HW211889   0.357   4.058  10.813
 3955SOL     OW11890   1.603   4.171  10.047
 3955SOL    HW111891   1.529   4.217   9.997
 3955SOL    HW211892   1.654   4.239  10.100
 3956SOL     OW11893   0.231   5.437   9.793
 3956SOL    HW111894   0.265   5.514   9.847
 3956SOL    HW211895   0.275   5.437   9.703
 3957SOL     OW11896   1.127   5.065  11.000
 3957SOL    HW111897   1.174   5.065  11.088
 3957SOL    HW211898   1.079   4.978  10.989
 3958SOL     OW11899   0.230   5.158   9.848
 3958SOL    HW111900   0.204   5.254   9.848
 3958SOL    HW211901   0.159   5.104   9.893
 3959SOL     OW11902   0.240   4.815  10.196
 3959SOL    HW111903   0.254   4.731  10.248
 3959SOL    HW211904   0.185   4.879  10.251
 3960SOL     OW11905   0.620   5.510  10.749
 3960SOL    HW111906   0.528   5.493  10.784
 3960SOL    HW211907   0.648   5.602  10.775
 3961SOL     OW11908   0.606   4.688   9.433
 3961SOL    HW111909   0.613   4.772   9.379
 3961SOL    HW211910   0.652   4.701   9.521
 3962SOL     OW11911   1.594   3.838  10.790
 3962SOL    HW111912   1.576   3.905  10.718
 3962SOL    HW211913   1.591   3.884  10.879
 3963SOL     OW11914   0.122   4.367   9.873
 3963SOL    HW111915   0.077   4.279   9.890
 3963SOL    HW211916   0.121   4.421   9.957
 3964SOL     OW11917   1.842   5.491   9.669
 3964SOL    HW111918   1.896   5.462   9.749
 3964SOL    HW211919   1.872   5.581   9.640
 3965SOL     OW11920   0.027   5.320   9.427
 3965SOL    HW111921   0.008   5.224   9.448
 3965SOL    HW211922  -0.006   5.378   9.502
 3966SOL     OW11923   1.689   4.646   9.922
 3966SOL    HW111924   1.784   4.617   9.930
 3966SOL    HW211925   1.681   4.711   9.847
 3967SOL     OW11926   1.641   4.832   9.742
 3967SOL    HW111927   1.727   4.834   9.690
 3967SOL    HW211928   1.655   4.879   9.830
 3968SOL     OW11929   0.113   4.461  10.907
 3968SOL    HW111930   0.201   4.448  10.952
 3968SOL    HW211931   0.100   4.558  10.885
 3969SOL     OW11932   0.613   5.089  10.036
 3969SOL    HW111933   0.564   5.002  10.045
 3969SOL    HW211934   0.590   5.132   9.949
 3970SOL     OW11935   1.293   4.952  10.733
 3970SOL    HW111936   1.330   4.879  10.675
 3970SOL    HW211937   1.345   4.957  10.818
 3971SOL     OW11938   0.809   3.728   9.812
 3971SOL    HW111939   0.849   3.819   9.803
 3971SOL    HW211940   0.709   3.736   9.818
 3972SOL     OW11941   0.197   4.700  10.574
 3972SOL    HW111942   0.286   4.655  10.560
 3972SOL    HW211943   0.124   4.635  10.555
 3973SOL     OW11944   1.525   4.723   9.500
 3973SOL    HW111945   1.462   4.647   9.513
 3973SOL    HW211946   1.573   4.741   9.586
 3974SOL     OW11947   1.187   5.516  10.926
 3974SOL    HW111948   1.211   5.576  10.850
 3974SOL    HW211949   1.194   5.421  10.896
 3975SOL     OW11950   0.317   3.975  11.111
 3975SOL    HW111951   0.388   4.046  11.117
 3975SOL    HW211952   0.229   4.014  11.139
 3976SOL     OW11953   1.466   5.141  10.263
 3976SOL    HW111954   1.407   5.147  10.343
 3976SOL    HW211955   1.451   5.053  10.217
 3977SOL     OW11956   1.667   5.438   9.882
 3977SOL    HW111957   1.626   5.415   9.794
 3977SOL    HW211958   1.649   5.364   9.947
 3978SOL     OW11959   0.598   4.453   9.580
 3978SOL    HW111960   0.622   4.522   9.512
 3978SOL    HW211961   0.520   4.486   9.634
 3979SOL     OW11962   1.281   4.069  10.254
 3979SOL    HW111963   1.195   4.019  10.241
 3979SOL    HW211964   1.343   4.015  10.310
 3980SOL     OW11965   1.576   5.386   9.617
 3980SOL    HW111966   1.665   5.432   9.620
 3980SOL    HW211967   1.555   5.362   9.522
 3981SOL     OW11968   0.807   4.329  10.775
 3981SOL    HW111969   0.760   4.326  10.864
 3981SOL    HW211970   0.756   4.274  10.709
 3982SOL     OW11971   1.394   4.193  10.984
 3982SOL    HW111972   1.374   4.236  11.072
 3982SOL    HW211973   1.472   4.131  10.993
 3983SOL     OW11974   0.973   4.614  10.882
 3983SOL    HW111975   1.019   4.530  10.853
 3983SOL    HW211976   0.917   4.648  10.807
 3984SOL     OW11977   0.991   4.134  10.552
 3984SOL    HW111978   0.914   4.168  10.606
 3984SOL    HW211979   0.957   4.083  10.473
 3985SOL     OW11980   1.041   4.425   9.739
 3985SOL    HW111981   1.067   4.421   9.835
 3985SOL    HW211982   0.956   4.374   9.725
 3986SOL     OW11983   0.076   4.535  10.099
 3986SOL    HW111984   0.175   4.523  10.108
 3986SOL    HW211985   0.052   4.630  10.120
 3987SOL     OW11986   0.130   5.545  10.881
 3987SOL    HW111987   0.120   5.530  10.980
 3987SOL    HW211988   0.044   5.581  10.845
 3988SOL     OW11989   0.865   4.072   9.505
 3988SOL    HW111990   0.924   4.135   9.456
 3988SOL    HW211991   0.884   3.978   9.476
 3989SOL     OW11992   1.719   4.309  11.141
 3989SOL    HW111993   1.693   4.398  11.105
 3989SOL    HW211994   1.717   4.241  11.068
 3990SOL     OW11995   1.362   4.868   9.855
 3990SOL    HW111996   1.445   4.839   9.807
 3990SOL    HW211997   1.313   4.935   9.799
 3991SOL     OW11998   0.550   3.920  10.195
 3991SOL    HW111999   0.545   3.915  10.295
 3991SOL    HW212000   0.552   4.016  10.166
 3992SOL     OW12001   1.008   5.180   9.787
 3992SOL    HW112002   0.962   5.252   9.735
 3992SOL    HW212003   1.004   5.200   9.885
 3993SOL     OW12004   0.351   5.525  10.163
 3993SOL    HW112005   0.401   5.439  10.169
 3993SOL    HW212006   0.416   5.602  10.160
 3994SOL     OW12007   1.795   4.790  10.183
 3994SOL    HW112008   1.733   4.775  10.107
 3994SOL    HW212009   1.743   4.801  10.268
 3995SOL     OW12010   1.227   5.274  10.816
 3995SOL    HW112011   1.233   5.197  10.880
 3995SOL    HW212012   1.175   5.248  10.736
 3996SOL     OW12013   0.321   4.667   9.552
 3996SOL    HW112014   0.403   4.706   9.510
 3996SOL    HW212015   0.294   4.585   9.503
 3997SOL     OW12016   1.458   4.459  10.038
 3997SOL    HW112017   1.453   4.394  10.113
 3997SOL    HW212018   1.538   4.518  10.051
 3998SOL     OW12019   0.461   4.990  11.037
 3998SOL    HW112020   0.411   4.991  10.951
 3998SOL    HW212021   0.398   4.972  11.113
 3999SOL     OW12022   1.111   5.500   9.547
 3999SOL    HW112023   1.051   5.438   9.597
 3999SOL    HW212024   1.142   5.456   9.462
 4000SOL     OW12025   0.202   4.009  10.808
 4000SOL    HW112026   0.122   4.069  10.795
 4000SOL    HW212027   0.192   3.960  10.894
 4001SOL     OW12028   1.632   5.101   9.391
 4001SOL    HW112029   1.600   5.195   9.381
 4001SOL    HW212030   1.556   5.038   9.379
 4002SOL     OW12031   0.464   5.467   9.633
 4002SOL    HW112032   0.497   5.506   9.719
 4002SOL    HW212033   0.540   5.460   9.568
 4003SOL     OW12034   1.400   3.831   9.736
 4003SOL    HW112035   1.376   3.794   9.646
 4003SOL    HW212036   1.499   3.847   9.740
 4004SOL     OW12037   0.249   5.509  10.551
 4004SOL    HW112038   0.306   5.444  10.601
 4004SOL    HW212039   0.233   5.476  10.458
 4005SOL     OW12040   0.940   5.422  10.214
 4005SOL    HW112041   1.020   5.365  10.235
 4005SOL    HW212042   0.891   5.382  10.137
 4006SOL     OW12043   0.382   4.424   9.790
 4006SOL    HW112044   0.427   4.334   9.787
 4006SOL    HW212045   0.288   4.413   9.823
 4007SOL     OW12046   1.547   3.946  11.039
 4007SOL    HW112047   1.542   3.983  11.131
 4007SOL    HW212048   1.475   3.877  11.027
 4008SOL     OW12049   0.614   3.846   9.427
 4008SOL    HW112050   0.712   3.824   9.434
 4008SOL    HW212051   0.583   3.829   9.334
 4009SOL     OW12052   0.781   3.988  11.059
 4009SOL    HW112053   0.848   3.927  11.102
 4009SOL    HW212054   0.708   4.007  11.124
 4010SOL     OW12055   0.888   5.238  10.505
 4010SOL    HW112056   0.865   5.213  10.411
 4010SOL    HW212057   0.949   5.169  10.544
 4011SOL     OW12058   1.351   4.314  10.743
 4011SOL    HW112059   1.379   4.271  10.828
 4011SOL    HW212060   1.376   4.410  10.744
 4012SOL     OW12061   0.803   5.126  10.234
 4012SOL    HW112062   0.893   5.140  10.192
 4012SOL    HW212063   0.732   5.128  10.163
 4013SOL     OW12064   0.922   4.227  10.209
 4013SOL    HW112065   0.897   4.218  10.113
 4013SOL    HW212066   0.970   4.145  10.240
 4014SOL     OW12067   0.539   3.788   9.822
 4014SOL    HW112068   0.458   3.789   9.880
 4014SOL    HW212069   0.542   3.871   9.767
 4015SOL     OW12070   1.434   4.912   9.351
 4015SOL    HW112071   1.466   4.836   9.408
 4015SOL    HW212072   1.342   4.939   9.381
 4016SOL     OW12073   0.297   3.759   9.481
 4016SOL    HW112074   0.346   3.843   9.460
 4016SOL    HW212075   0.359   3.694   9.526
 4017SOL     OW12076   0.935   3.960   9.790
 4017SOL    HW112077   0.887   4.001   9.712
 4017SOL    HW212078   1.034   3.958   9.771
 4018SOL     OW12079   1.076   4.407  10.774
 4018SOL    HW112080   0.996   4.346  10.777
 4018SOL    HW212081   1.157   4.354  10.750
 4019SOL     OW12082   1.227   5.294  10.103
 4019SOL    HW112083   1.248   5.368  10.038
 4019SOL    HW212084   1.295   5.294  10.176
 4020SOL     OW12085   0.459   4.876  10.051
 4020SOL    HW112086   0.388   4.849  10.116
 4020SOL    HW212087   0.433   4.848   9.958
 4021SOL     OW12088   1.271   5.521   9.901
 4021SOL    HW112089   1.315   5.585   9.837
 4021SOL    HW212090   1.221   5.573   9.971
 4022SOL     OW12091   1.032   4.273   9.326
 4022SOL    HW112092   0.991   4.355   9.287
 4022SOL    HW212093   1.096   4.299   9.399
 4023SOL     OW12094   0.078   4.280  10.696
 4023SOL    HW112095   0.170   4.279  10.655
 4023SOL    HW212096   0.072   4.354  10.763
 4024SOL     OW12097   0.561   3.946  10.457
 4024SOL    HW112098   0.599   3.862  10.494
 4024SOL    HW212099   0.473   3.965  10.501
 4025SOL     OW12100   0.866   4.178   9.952
 4025SOL    HW112101   0.834   4.250   9.890
 4025SOL    HW212102   0.890   4.097   9.899
 4026SOL     OW12103   1.017   3.763  10.063
 4026SOL    HW112104   0.945   3.768   9.994
 4026SOL    HW212105   0.993   3.694  10.132
 4027SOL     OW12106   1.429   4.897  10.177
 4027SOL    HW112107   1.374   4.813  10.170
 4027SOL    HW212108   1.455   4.926  10.085
 4028SOL     OW12109   1.466   4.314  10.302
 4028SOL    HW112110   1.436   4.219  10.309
 4028SOL    HW212111   1.539   4.330  10.368
 4029SOL     OW12112   1.857   4.557   9.687
 4029SOL    HW112113   1.899   4.493   9.751
 4029SOL    HW212114   1.819   4.506   9.609
 4030SOL     OW12115   0.488   5.109   9.484
 4030SOL    HW112116   0.401   5.094   9.531
 4030SOL    HW212117   0.471   5.135   9.389
 4031SOL     OW12118   1.664   5.004   9.967
 4031SOL    HW112119   1.763   5.012   9.981
 4031SOL    HW212120   1.619   5.088   9.998
 4032SOL     OW12121   1.390   4.299   9.388
 4032SOL    HW112122   1.336   4.278   9.469
 4032SOL    HW212123   1.481   4.258   9.397
 4033SOL     OW12124   0.527   3.980   9.638
 4033SOL    HW112125   0.554   3.921   9.563
 4033SOL    HW212126   0.527   4.075   9.607
 4034SOL     OW12127   1.754   4.947  10.898
 4034SOL    HW112128   1.845   4.908  10.885
 4034SOL    HW212129   1.762   5.043  10.922
 4035SOL     OW12130   1.064   5.071  10.650
 4035SOL    HW112131   0.984   5.048  10.705
 4035SOL    HW212132   1.147   5.045  10.699
 4036SOL     OW12133   1.592   5.353  10.935
 4036SOL    HW112134   1.619   5.387  10.845
 4036SOL    HW212135   1.671   5.315  10.981
 4037SOL     OW12136   1.111   4.919  10.410
 4037SOL    HW112137   1.071   4.963  10.491
 4037SOL    HW212138   1.070   4.956  10.327
 4038SOL     OW12139   1.638   4.823  10.389
 4038SOL    HW112140   1.643   4.904  10.448
 4038SOL    HW212141   1.552   4.825  10.338
 4039SOL     OW12142   0.915   3.813  10.712
 4039SOL    HW112143   0.940   3.793  10.617
 4039SOL    HW212144   0.987   3.869  10.754
 4040SOL     OW12145   0.980   4.840  11.029
 4040SOL    HW112146   0.881   4.846  11.039
 4040SOL    HW212147   1.003   4.760  10.973
 4041SOL     OW12148   0.705   4.774   9.678
 4041SOL    HW112149   0.691   4.781   9.777
 4041SOL    HW212150   0.789   4.723   9.660
 4042SOL     OW12151   0.410   4.537  10.561
 4042SOL    HW112152   0.496   4.549  10.611
 4042SOL    HW212153   0.368   4.450  10.588
 4043SOL     OW12154   1.274   4.110  10.572
 4043SOL    HW112155   1.295   4.184  10.636
 4043SOL    HW212156   1.185   4.127  10.529
 4044SOL     OW12157   0.064   5.288  10.641
 4044SOL    HW112158   0.018   5.370  10.607
 4044SOL    HW212159   0.162   5.307  10.650
 4045SOL     OW12160   0.367   4.824   9.811
 4045SOL    HW112161   0.360   4.907   9.755
 4045SOL    HW212162   0.371   4.744   9.751
 4046SOL     OW12163   0.566   4.261  10.175
 4046SOL    HW112164   0.578   4.327  10.101
 4046SOL    HW212165   0.612   4.295  10.258
 4047SOL     OW12166   1.252   5.072   9.698
 4047SOL    HW112167   1.302   5.149   9.738
 4047SOL    HW212168   1.157   5.074   9.730
 4048SOL     OW12169   1.272   5.169  10.452
 4048SOL    HW112170   1.319   5.182  10.539
 4048SOL    HW212171   1.206   5.095  10.461
 4049SOL     OW12172   1.582   4.363   9.782
 4049SOL    HW112173   1.551   4.424   9.855
 4049SOL    HW212174   1.632   4.415   9.713
 4050SOL     OW12175   0.354   5.234  10.639
 4050SOL    HW112176   0.333   5.190  10.552
 4050SOL    HW212177   0.451   5.260  10.642
 4051SOL     OW12178   0.402   4.475  10.908
 4051SOL    HW112179   0.470   4.530  10.861
 4051SOL    HW212180   0.442   4.387  10.935
 4052SOL     OW12181   1.587   4.503  10.980
 4052SOL    HW112182   1.495   4.541  10.975
 4052SOL    HW212183   1.647   4.550  10.915
 4053SOL     OW12184   1.013   3.829  11.080
 4053SOL    HW112185   1.019   3.914  11.028
 4053SOL    HW212186   1.045   3.753  11.023
 4054SOL     OW12187   0.504   3.774  11.050
 4054SOL    HW112188   0.462   3.717  10.980
 4054SOL    HW212189   0.438   3.843  11.082
 4055SOL     OW12190   0.573   4.594  10.339
 4055SOL    HW112191   0.617   4.683  10.330
 4055SOL    HW212192   0.510   4.594  10.416
 4056SOL     OW12193   1.360   4.586  10.355
 4056SOL    HW112194   1.285   4.586  10.289
 4056SOL    HW212195   1.397   4.494  10.364
 4057SOL     OW12196   1.209   4.249   9.585
 4057SOL    HW112197   1.222   4.165   9.639
 4057SOL    HW212198   1.180   4.323   9.645
 4058SOL     OW12199   0.307   3.937  10.541
 4058SOL    HW112200   0.284   3.974  10.631
 4058SOL    HW212201   0.277   3.842  10.535
 4059SOL     OW12202   0.037   5.034  10.592
 4059SOL    HW112203   0.090   4.985  10.660
 4059SOL    HW212204   0.059   5.132  10.597
 4060SOL     OW12205   0.732   4.358  10.374
 4060SOL    HW112206   0.791   4.332  10.298
 4060SOL    HW212207   0.704   4.454  10.363
 4061SOL     OW12208   1.728   4.659  11.164
 4061SOL    HW112209   1.682   4.652  11.075
 4061SOL    HW212210   1.666   4.703  11.230
 4062SOL     OW12211   0.307   3.787   9.928
 4062SOL    HW112212   0.296   3.881   9.961
 4062SOL    HW212213   0.302   3.724  10.005
 4063SOL     OW12214   1.622   4.091   9.684
 4063SOL    HW112215   1.624   4.015   9.748
 4063SOL    HW212216   1.574   4.168   9.724
 4064SOL     OW12217   1.023   4.490  10.276
 4064SOL    HW112218   1.038   4.511  10.372
 4064SOL    HW212219   0.993   4.395  10.267
 4065SOL     OW12220   0.980   5.297  11.010
 4065SOL    HW112221   0.960   5.341  10.922
 4065SOL    HW212222   1.019   5.206  10.994
 4066SOL     OW12223   1.859   5.242  10.915
 4066SOL    HW112224   1.873   5.269  10.820
 4066SOL    HW212225   1.942   5.264  10.968
 4067SOL     OW12226   0.350   4.622  11.114
 4067SOL    HW112227   0.426   4.666  11.162
 4067SOL    HW212228   0.385   4.575  11.032
 4068SOL     OW12229   1.540   3.998   9.435
 4068SOL    HW112230   1.479   3.923   9.458
 4068SOL    HW212231   1.562   4.050   9.518
 4069SOL     OW12232   1.303   4.562   9.352
 4069SOL    HW112233   1.337   4.469   9.367
 4069SOL    HW212234   1.321   4.589   9.257
 4070SOL     OW12235   1.068   5.057  10.159
 4070SOL    HW112236   1.075   4.973  10.104
 4070SOL    HW212237   1.130   5.126  10.123
 4071SOL     OW12238   0.319   4.534  10.259
 4071SOL    HW112239   0.412   4.570  10.264
 4071SOL    HW212240   0.313   4.449  10.311
 4072SOL     OW12241   0.339   4.233  10.316
 4072SOL    HW112242   0.287   4.150  10.299
 4072SOL    HW212243   0.416   4.238  10.252
 4073SOL     OW12244   1.138   4.104  10.988
 4073SOL    HW112245   1.093   4.167  11.052
 4073SOL    HW212246   1.231   4.135  10.971
 4074SOL     OW12247   1.160   3.931  10.787
 4074SOL    HW112248   1.160   3.995  10.864
 4074SOL    HW212249   1.188   3.979  10.704
 4075SOL     OW12250   0.008   5.050   9.510
 4075SOL    HW112251  -0.085   5.071   9.479
 4075SOL    HW212252   0.018   4.951   9.523
 4076SOL     OW12253   0.088   5.525  10.237
 4076SOL    HW112254   0.046   5.439  10.210
 4076SOL    HW212255   0.182   5.528  10.203
 4077SOL     OW12256   1.002   4.520  10.548
 4077SOL    HW112257   1.043   4.488  10.634
 4077SOL    HW212258   0.906   4.493  10.545
 4078SOL     OW12259   0.040   4.268  10.424
 4078SOL    HW112260   0.125   4.235  10.383
 4078SOL    HW212261   0.053   4.283  10.522
 4079SOL     OW12262   0.189   4.244  11.032
 4079SOL    HW112263   0.248   4.204  10.962
 4079SOL    HW212264   0.131   4.315  10.991
 4080SOL     OW12265   1.369   4.674  10.970
 4080SOL    HW112266   1.408   4.763  10.990
 4080SOL    HW212267   1.379   4.654  10.873
 4081SOL     OW12268   0.815   4.296   9.635
 4081SOL    HW112269   0.822   4.207   9.589
 4081SOL    HW212270   0.721   4.330   9.627
 4082SOL     OW12271   1.657   4.328  10.516
 4082SOL    HW112272   1.619   4.259  10.578
 4082SOL    HW212273   1.739   4.292  10.472
 4083SOL     OW12274   0.252   5.288  11.054
 4083SOL    HW112275   0.222   5.345  11.130
 4083SOL    HW212276   0.245   5.191  11.080
 4084SOL     OW12277   0.671   4.188  10.579
 4084SOL    HW112278   0.637   4.099  10.549
 4084SOL    HW212279   0.697   4.242  10.499
 4085SOL     OW12280   0.930   5.402  10.775
 4085SOL    HW112281   0.906   5.384  10.680
 4085SOL    HW212282   0.960   5.496  10.785
 4086SOL     OW12283   0.473   4.224   9.501
 4086SOL    HW112284   0.534   4.304   9.505
 4086SOL    HW212285   0.378   4.255   9.508
 4087SOL     OW12286   0.159   4.861  10.776
 4087SOL    HW112287   0.181   4.800  10.852
 4087SOL    HW212288   0.169   4.812  10.690
 4088SOL     OW12289   1.347   4.783  10.544
 4088SOL    HW112290   1.371   4.720  10.470
 4088SOL    HW212291   1.257   4.823  10.526
 4089SOL     OW12292   1.302   4.579   9.619
 4089SOL    HW112293   1.216   4.548   9.661
 4089SOL    HW212294   1.298   4.565   9.520
 4090SOL     OW12295   1.759   5.471  10.464
 4090SOL    HW112296   1.820   5.501  10.391
 4090SOL    HW212297   1.721   5.382  10.442
 4091SOL     OW12298   1.252   5.455  10.438
 4091SOL    HW112299   1.336   5.460  10.384
 4091SOL    HW212300   1.229   5.359  10.456
 4092SOL     OW12301   0.083   4.982  10.332
 4092SOL    HW112302   0.078   4.981  10.432
 4092SOL    HW212303   0.000   4.941  10.294
 4093SOL     OW12304   0.688   5.386  11.026
 4093SOL    HW112305   0.632   5.467  11.035
 4093SOL    HW212306   0.740   5.390  10.940
 4094SOL     OW12307   1.726   3.859   9.833
 4094SOL    HW112308   1.799   3.842   9.766
 4094SOL    HW212309   1.695   3.772   9.871
 4095SOL     OW12310   1.388   5.297   9.787
 4095SOL    HW112311   1.455   5.309   9.713
 4095SOL    HW212312   1.348   5.386   9.810
 4096SOL     OW12313   0.130   5.518  11.161
 4096SOL    HW112314   0.089   5.444  11.214
 4096SOL    HW212315   0.194   5.569  11.219
 4097SOL     OW12316   1.280   4.651   9.982
 4097SOL    HW112317   1.340   4.570   9.984
 4097SOL    HW212318   1.320   4.720   9.922
 4098SOL     OW12319   0.830   4.997  10.732
 4098SOL    HW112320   0.825   5.030  10.827
 4098SOL    HW212321   0.744   5.016  10.686
 4099SOL     OW12322   0.672   5.340   9.464
 4099SOL    HW112323   0.681   5.350   9.365
 4099SOL    HW212324   0.632   5.251   9.485
 4100SOL     OW12325   1.650   5.444  10.704
 4100SOL    HW112326   1.703   5.454  10.620
 4100SOL    HW212327   1.623   5.534  10.738
 4101SOL     OW12328   1.841   3.899  10.273
 4101SOL    HW112329   1.880   3.814  10.237
 4101SOL    HW212330   1.743   3.901  10.254
 4102SOL     OW12331   0.263   4.050  10.030
 4102SOL    HW112332   0.184   4.101   9.996
 4102SOL    HW212333   0.254   4.035  10.128
 4103SOL     OW12334   1.194   5.336   9.341
 4103SOL    HW112335   1.200   5.243   9.378
 4103SOL    HW212336   1.135   5.336   9.261
 4104SOL     OW12337   0.822   4.726  10.682
 4104SOL    HW112338   0.862   4.725  10.590
 4104SOL    HW212339   0.832   4.818  10.722
 4105SOL     OW12340   0.916   4.634   9.601
 4105SOL    HW112341   0.979   4.672   9.533
 4105SOL    HW212342   0.956   4.551   9.640
 4106SOL     OW12343   1.504   5.331   9.354
 4106SOL    HW112344   1.412   5.368   9.361
 4106SOL    HW212345   1.542   5.351   9.264
 4107SOL     OW12346   0.372   5.012  10.800
 4107SOL    HW112347   0.359   5.105  10.766
 4107SOL    HW212348   0.288   4.960  10.787
 4108SOL     OW12349   1.614   5.016  10.599
 4108SOL    HW112350   1.674   5.019  10.679
 4108SOL    HW212351   1.539   5.080  10.612
 4109SOL     OW12352   1.039   4.822  10.006
 4109SOL    HW112353   0.969   4.775  10.060
 4109SOL    HW212354   1.098   4.754   9.963
 4110SOL     OW12355   1.014   3.960  10.281
 4110SOL    HW112356   1.006   3.924  10.188
 4110SOL    HW212357   1.012   3.884  10.346
 4111SOL     OW12358   0.590   5.211   9.801
 4111SOL    HW112359   0.632   5.153   9.731
 4111SOL    HW212360   0.546   5.290   9.757
 4112SOL     OW12361   1.709   4.109  10.691
 4112SOL    HW112362   1.782   4.178  10.695
 4112SOL    HW212363   1.737   4.034  10.632
 4113SOL     OW12364   0.255   5.072   9.600
 4113SOL    HW112365   0.159   5.073   9.573
 4113SOL    HW212366   0.267   5.125   9.684
 4114SOL     OW12367   0.105   4.737  11.036
 4114SOL    HW112368   0.028   4.704  11.090
 4114SOL    HW212369   0.190   4.707  11.078
 4115SOL     OW12370   0.672   3.927  10.799
 4115SOL    HW112371   0.762   3.911  10.759
 4115SOL    HW212372   0.680   3.932  10.898
 4116SOL     OW12373   0.075   4.069   9.343
 4116SOL    HW112374  -0.017   4.041   9.314
 4116SOL    HW212375   0.106   4.146   9.287
 4117SOL     OW12376   1.440   4.580  10.708
 4117SOL    HW112377   1.383   4.632  10.645
 4117SOL    HW212378   1.536   4.592  10.684
 4118SOL     OW12379   0.072   3.890   9.628
 4118SOL    HW112380   0.055   3.973   9.574
 4118SOL    HW212381   0.162   3.853   9.606
 4119SOL     OW12382   1.183   5.059   9.429
 4119SOL    HW112383   1.084   5.048   9.431
 4119SOL    HW212384   1.217   5.074   9.522
 4120SOL     OW12385   0.613   4.566  10.741
 4120SOL    HW112386   0.669   4.647  10.724
 4120SOL    HW212387   0.672   4.486  10.744
 4121SOL     OW12388   1.493   5.491  10.269
 4121SOL    HW112389   1.526   5.555  10.200
 4121SOL    HW212390   1.559   5.485  10.344
 4122SOL     OW12391   0.716   4.289  11.018
 4122SOL    HW112392   0.735   4.354  11.092
 4122SOL    HW212393   0.776   4.209  11.027
 4123SOL     OW12394   1.450   4.944  10.943
 4123SOL    HW112395   1.441   4.934  11.042
 4123SOL    HW212396   1.546   4.937  10.917
 4124SOL     OW12397   0.390   5.465  10.870
 4124SOL    HW112398   0.299   5.506  10.868
 4124SOL    HW212399   0.383   5.371  10.902
 4125SOL     OW12400   1.674   4.607  10.564
 4125SOL    HW112401   1.647   4.518  10.527
 4125SOL    HW212402   1.675   4.675  10.491
 4126SOL     OW12403   1.225   4.049   9.759
 4126SOL    HW112404   1.290   3.975   9.748
 4126SOL    HW212405   1.245   4.099   9.843
 4127SOL     OW12406   0.594   4.469   9.962
 4127SOL    HW112407   0.644   4.554   9.943
 4127SOL    HW212408   0.506   4.471   9.914
 4128SOL     OW12409   1.777   4.066  10.952
 4128SOL    HW112410   1.760   4.097  10.858
 4128SOL    HW212411   1.693   4.029  10.990
 4129SOL     OW12412   1.730   4.658  10.827
 4129SOL    HW112413   1.768   4.749  10.842
 4129SOL    HW212414   1.722   4.641  10.728
 4130SOL     OW12415   0.859   5.098   9.326
 4130SOL    HW112416   0.813   5.113   9.414
 4130SOL    HW212417   0.903   5.183   9.296
 4131SOL     OW12418   0.661   5.514  10.263
 4131SOL    HW112419   0.615   5.602  10.250
 4131SOL    HW212420   0.760   5.526  10.256
 4132SOL     OW12421   0.859   4.680  10.171
 4132SOL    HW112422   0.913   4.611  10.219
 4132SOL    HW212423   0.827   4.749  10.237
 4133SOL     OW12424   1.083   4.708   9.397
 4133SOL    HW112425   1.060   4.761   9.315
 4133SOL    HW212426   1.164   4.652   9.378
 4134SOL     OW12427   1.861   5.293  10.161
 4134SOL    HW112428   1.790   5.281  10.091
 4134SOL    HW212429   1.862   5.214  10.221
 4135SOL     OW12430   0.221   5.038  11.154
 4135SOL    HW112431   0.156   4.965  11.133
 4135SOL    HW212432   0.225   5.052  11.252
 4136SOL     OW12433   0.079   4.964   9.963
 4136SOL    HW112434   0.078   4.917  10.051
 4136SOL    HW212435   0.161   4.936   9.912
 4137SOL     OW12436   0.672   5.115  10.934
 4137SOL    HW112437   0.594   5.065  10.972
 4137SOL    HW212438   0.669   5.210  10.965
 4138SOL     OW12439   1.824   3.916  10.537
 4138SOL    HW112440   1.820   3.826  10.581
 4138SOL    HW212441   1.827   3.905  10.438
 4139SOL     OW12442   0.428   4.148   9.830
 4139SOL    HW112443   0.458   4.076   9.768
 4139SOL    HW212444   0.389   4.108   9.913
 4140SOL     OW12445   1.705   5.211  10.414
 4140SOL    HW112446   1.612   5.186  10.387
 4140SOL    HW212447   1.731   5.161  10.496
 4141SOL     OW12448   0.317   4.271  10.590
 4141SOL    HW112449   0.355   4.212  10.662
 4141SOL    HW212450   0.357   4.245  10.502
 4142SOL     OW12451   0.812   5.310   9.997
 4142SOL    HW112452   0.844   5.320   9.903
 4142SOL    HW212453   0.733   5.248   9.999
 4143SOL     OW12454   1.424   3.938  10.422
 4143SOL    HW112455   1.476   3.873  10.477
 4143SOL    HW212456   1.375   4.001  10.483
 4144SOL     OW12457   1.001   3.758  10.464
 4144SOL    HW112458   0.938   3.686  10.433
 4144SOL    HW212459   1.094   3.722  10.464
 4145SOL     OW12460   0.770   5.054   9.611
 4145SOL    HW112461   0.724   4.967   9.628
 4145SOL    HW212462   0.861   5.051   9.652
 4146SOL     OW12463   0.618   5.291  10.594
 4146SOL    HW112464   0.613   5.373  10.651
 4146SOL    HW212465   0.707   5.288  10.549
 4147SOL     OW12466   1.352   3.776   9.478
 4147SOL    HW112467   1.387   3.735   9.394
 4147SOL    HW212468   1.262   3.738   9.498
 4148SOL     OW12469   1.300   4.177  10.001
 4148SOL    HW112470   1.241   4.257  10.005
 4148SOL    HW212471   1.315   4.142  10.094
 4149SOL     OW12472   1.593   3.945  10.192
 4149SOL    HW112473   1.509   3.944  10.246
 4149SOL    HW212474   1.595   4.028  10.136
 4150SOL     OW12475   0.039   4.801   9.610
 4150SOL    HW112476   0.138   4.790   9.601
 4150SOL    HW212477  -0.001   4.715   9.642
 4151SOL     OW12478   0.875   5.370   9.647
 4151SOL    HW112479   0.798   5.335   9.593
 4151SOL    HW212480   0.843   5.441   9.709
 4152SOL     OW12481   0.230   4.352  11.285
 4152SOL    HW112482   0.137   4.350  11.322
 4152SOL    HW212483   0.231   4.313  11.193
 4153SOL     OW12484   0.225   3.999  12.168
 4153SOL    HW112485   0.260   3.982  12.260
 4153SOL    HW212486   0.137   3.954  12.156
 4154SOL     OW12487   0.019   4.092  11.819
 4154SOL    HW112488  -0.063   4.135  11.858
 4154SOL    HW212489  -0.009   4.019  11.756
 4155SOL     OW12490   0.569   4.999  12.337
 4155SOL    HW112491   0.476   4.992  12.300
 4155SOL    HW212492   0.580   5.088  12.381
 4156SOL     OW12493   1.555   5.235  11.875
 4156SOL    HW112494   1.498   5.219  11.956
 4156SOL    HW212495   1.496   5.245  11.795
 4157SOL     OW12496   1.135   4.427  11.889
 4157SOL    HW112497   1.192   4.505  11.864
 4157SOL    HW212498   1.075   4.453  11.965
 4158SOL     OW12499   1.755   4.331  11.403
 4158SOL    HW112500   1.743   4.318  11.304
 4158SOL    HW212501   1.725   4.250  11.452
 4159SOL     OW12502   0.768   4.868  12.195
 4159SOL    HW112503   0.690   4.885  12.255
 4159SOL    HW212504   0.802   4.955  12.159
 4160SOL     OW12505   0.685   4.736  11.837
 4160SOL    HW112506   0.754   4.720  11.907
 4160SOL    HW212507   0.612   4.793  11.875
 4161SOL     OW12508   0.335   5.159  12.233
 4161SOL    HW112509   0.257   5.128  12.180
 4161SOL    HW212510   0.393   5.217  12.176
 4162SOL     OW12511   1.460   5.229  12.511
 4162SOL    HW112512   1.484   5.323  12.537
 4162SOL    HW212513   1.444   5.175  12.593
 4163SOL     OW12514   0.438   4.116  12.671
 4163SOL    HW112515   0.520   4.060  12.680
 4163SOL    HW212516   0.357   4.058  12.675
 4164SOL     OW12517   1.603   4.171  11.909
 4164SOL    HW112518   1.529   4.217  11.859
 4164SOL    HW212519   1.654   4.239  11.962
 4165SOL     OW12520   0.231   5.437  11.655
 4165SOL    HW112521   0.265   5.514  11.709
 4165SOL    HW212522   0.275   5.437  11.565
 4166SOL     OW12523   0.230   5.158  11.710
 4166SOL    HW112524   0.204   5.254  11.710
 4166SOL    HW212525   0.159   5.104  11.755
 4167SOL     OW12526   0.240   4.815  12.058
 4167SOL    HW112527   0.254   4.731  12.110
 4167SOL    HW212528   0.185   4.879  12.113
 4168SOL     OW12529   0.620   5.510  12.611
 4168SOL    HW112530   0.528   5.493  12.646
 4168SOL    HW212531   0.648   5.602  12.637
 4169SOL     OW12532   0.606   4.688  11.295
 4169SOL    HW112533   0.613   4.772  11.241
 4169SOL    HW212534   0.652   4.701  11.383
 4170SOL     OW12535   1.594   3.838  12.652
 4170SOL    HW112536   1.576   3.905  12.580
 4170SOL    HW212537   1.591   3.884  12.741
 4171SOL     OW12538   0.122   4.367  11.735
 4171SOL    HW112539   0.077   4.279  11.752
 4171SOL    HW212540   0.121   4.421  11.819
 4172SOL     OW12541   1.842   5.491  11.531
 4172SOL    HW112542   1.896   5.462  11.611
 4172SOL    HW212543   1.872   5.581  11.502
 4173SOL     OW12544   0.027   5.320  11.289
 4173SOL    HW112545   0.008   5.224  11.310
 4173SOL    HW212546  -0.006   5.378  11.364
 4174SOL     OW12547   1.689   4.646  11.784
 4174SOL    HW112548   1.784   4.617  11.792
 4174SOL    HW212549   1.681   4.711  11.709
 4175SOL     OW12550   1.641   4.832  11.604
 4175SOL    HW112551   1.727   4.834  11.552
 4175SOL    HW212552   1.655   4.879  11.692
 4176SOL     OW12553   0.613   5.089  11.898
 4176SOL    HW112554   0.564   5.002  11.907
 4176SOL    HW212555   0.590   5.132  11.811
 4177SOL     OW12556   0.809   3.728  11.674
 4177SOL    HW112557   0.849   3.819  11.665
 4177SOL    HW212558   0.709   3.736  11.680
 4178SOL     OW12559   0.197   4.700  12.436
 4178SOL    HW112560   0.286   4.655  12.422
 4178SOL    HW212561   0.124   4.635  12.417
 4179SOL     OW12562   1.525   4.723  11.362
 4179SOL    HW112563   1.462   4.647  11.375
 4179SOL    HW212564   1.573   4.741  11.448
 4180SOL     OW12565   0.317   3.975  12.973
 4180SOL    HW112566   0.388   4.046  12.979
 4180SOL    HW212567   0.229   4.014  13.001
 4181SOL     OW12568   1.466   5.141  12.125
 4181SOL    HW112569   1.407   5.147  12.205
 4181SOL    HW212570   1.451   5.053  12.079
 4182SOL     OW12571   1.667   5.438  11.744
 4182SOL    HW112572   1.626   5.415  11.656
 4182SOL    HW212573   1.649   5.364  11.809
 4183SOL     OW12574   0.598   4.453  11.442
 4183SOL    HW112575   0.622   4.522  11.374
 4183SOL    HW212576   0.520   4.486  11.496
 4184SOL     OW12577   1.281   4.069  12.116
 4184SOL    HW112578   1.195   4.019  12.103
 4184SOL    HW212579   1.343   4.015  12.172
 4185SOL     OW12580   1.576   5.386  11.479
 4185SOL    HW112581   1.665   5.432  11.482
 4185SOL    HW212582   1.555   5.362  11.384
 4186SOL     OW12583   0.807   4.329  12.637
 4186SOL    HW112584   0.760   4.326  12.726
 4186SOL    HW212585   0.756   4.274  12.571
 4187SOL     OW12586   0.991   4.134  12.414
 4187SOL    HW112587   0.914   4.168  12.468
 4187SOL    HW212588   0.957   4.083  12.335
 4188SOL     OW12589   1.041   4.425  11.601
 4188SOL    HW112590   1.067   4.421  11.697
 4188SOL    HW212591   0.956   4.374  11.587
 4189SOL     OW12592   0.076   4.535  11.961
 4189SOL    HW112593   0.175   4.523  11.970
 4189SOL    HW212594   0.052   4.630  11.982
 4190SOL     OW12595   0.130   5.545  12.743
 4190SOL    HW112596   0.120   5.530  12.842
 4190SOL    HW212597   0.044   5.581  12.707
 4191SOL     OW12598   0.865   4.072  11.367
 4191SOL    HW112599   0.924   4.135  11.318
 4191SOL    HW212600   0.884   3.978  11.338
 4192SOL     OW12601   1.362   4.868  11.717
 4192SOL    HW112602   1.445   4.839  11.669
 4192SOL    HW212603   1.313   4.935  11.661
 4193SOL     OW12604   0.550   3.920  12.057
 4193SOL    HW112605   0.545   3.915  12.157
 4193SOL    HW212606   0.552   4.016  12.028
 4194SOL     OW12607   1.008   5.180  11.649
 4194SOL    HW112608   0.962   5.252  11.597
 4194SOL    HW212609   1.004   5.200  11.747
 4195SOL     OW12610   0.351   5.525  12.025
 4195SOL    HW112611   0.401   5.439  12.031
 4195SOL    HW212612   0.416   5.602  12.022
 4196SOL     OW12613   1.795   4.790  12.045
 4196SOL    HW112614   1.733   4.775  11.969
 4196SOL    HW212615   1.743   4.801  12.130
 4197SOL     OW12616   0.321   4.667  11.414
 4197SOL    HW112617   0.403   4.706  11.372
 4197SOL    HW212618   0.294   4.585  11.365
 4198SOL     OW12619   1.458   4.459  11.900
 4198SOL    HW112620   1.453   4.394  11.975
 4198SOL    HW212621   1.538   4.518  11.913
 4199SOL     OW12622   1.111   5.500  11.409
 4199SOL    HW112623   1.051   5.438  11.459
 4199SOL    HW212624   1.142   5.456  11.324
 4200SOL     OW12625   1.632   5.101  11.253
 4200SOL    HW112626   1.600   5.195  11.243
 4200SOL    HW212627   1.556   5.038  11.241
 4201SOL     OW12628   0.464   5.467  11.495
 4201SOL    HW112629   0.497   5.506  11.581
 4201SOL    HW212630   0.540   5.460  11.430
 4202SOL     OW12631   1.400   3.831  11.598
 4202SOL    HW112632   1.376   3.794  11.508
 4202SOL    HW212633   1.499   3.847  11.602
 4203SOL     OW12634   0.249   5.509  12.413
 4203SOL    HW112635   0.306   5.444  12.463
 4203SOL    HW212636   0.233   5.476  12.320
 4204SOL     OW12637   0.940   5.422  12.076
 4204SOL    HW112638   1.020   5.365  12.097
 4204SOL    HW212639   0.891   5.382  11.999
 4205SOL     OW12640   0.382   4.424  11.652
 4205SOL    HW112641   0.427   4.334  11.649
 4205SOL    HW212642   0.288   4.413  11.685
 4206SOL     OW12643   0.614   3.846  11.289
 4206SOL    HW112644   0.712   3.824  11.296
 4206SOL    HW212645   0.583   3.829  11.196
 4207SOL     OW12646   0.888   5.238  12.367
 4207SOL    HW112647   0.865   5.213  12.273
 4207SOL    HW212648   0.949   5.169  12.406
 4208SOL     OW12649   0.803   5.126  12.096
 4208SOL    HW112650   0.893   5.140  12.054
 4208SOL    HW212651   0.732   5.128  12.025
 4209SOL     OW12652   0.922   4.227  12.071
 4209SOL    HW112653   0.897   4.218  11.975
 4209SOL    HW212654   0.970   4.145  12.102
 4210SOL     OW12655   0.539   3.788  11.684
 4210SOL    HW112656   0.458   3.789  11.742
 4210SOL    HW212657   0.542   3.871  11.629
 4211SOL     OW12658   1.434   4.912  11.213
 4211SOL    HW112659   1.466   4.836  11.270
 4211SOL    HW212660   1.342   4.939  11.243
 4212SOL     OW12661   0.297   3.759  11.343
 4212SOL    HW112662   0.346   3.843  11.322
 4212SOL    HW212663   0.359   3.694  11.388
 4213SOL     OW12664   0.935   3.960  11.652
 4213SOL    HW112665   0.887   4.001  11.574
 4213SOL    HW212666   1.034   3.958  11.633
 4214SOL     OW12667   1.227   5.294  11.965
 4214SOL    HW112668   1.248   5.368  11.900
 4214SOL    HW212669   1.295   5.294  12.038
 4215SOL     OW12670   0.459   4.876  11.913
 4215SOL    HW112671   0.388   4.849  11.978
 4215SOL    HW212672   0.433   4.848  11.820
 4216SOL     OW12673   1.271   5.521  11.763
 4216SOL    HW112674   1.315   5.585  11.699
 4216SOL    HW212675   1.221   5.573  11.833
 4217SOL     OW12676   1.032   4.273  11.188
 4217SOL    HW112677   0.991   4.355  11.149
 4217SOL    HW212678   1.096   4.299  11.261
 4218SOL     OW12679   0.078   4.280  12.558
 4218SOL    HW112680   0.170   4.279  12.517
 4218SOL    HW212681   0.072   4.354  12.625
 4219SOL     OW12682   0.561   3.946  12.319
 4219SOL    HW112683   0.599   3.862  12.356
 4219SOL    HW212684   0.473   3.965  12.363
 4220SOL     OW12685   0.866   4.178  11.814
 4220SOL    HW112686   0.834   4.250  11.752
 4220SOL    HW212687   0.890   4.097  11.761
 4221SOL     OW12688   1.017   3.763  11.925
 4221SOL    HW112689   0.945   3.768  11.856
 4221SOL    HW212690   0.993   3.694  11.994
 4222SOL     OW12691   1.429   4.897  12.039
 4222SOL    HW112692   1.374   4.813  12.032
 4222SOL    HW212693   1.455   4.926  11.947
 4223SOL     OW12694   1.466   4.314  12.164
 4223SOL    HW112695   1.436   4.219  12.171
 4223SOL    HW212696   1.539   4.330  12.230
 4224SOL     OW12697   1.857   4.557  11.549
 4224SOL    HW112698   1.899   4.493  11.613
 4224SOL    HW212699   1.819   4.506  11.471
 4225SOL     OW12700   0.488   5.109  11.346
 4225SOL    HW112701   0.401   5.094  11.393
 4225SOL    HW212702   0.471   5.135  11.251
 4226SOL     OW12703   1.664   5.004  11.829
 4226SOL    HW112704   1.763   5.012  11.843
 4226SOL    HW212705   1.619   5.088  11.860
 4227SOL     OW12706   1.390   4.299  11.250
 4227SOL    HW112707   1.336   4.278  11.331
 4227SOL    HW212708   1.481   4.258  11.259
 4228SOL     OW12709   0.527   3.980  11.500
 4228SOL    HW112710   0.554   3.921  11.425
 4228SOL    HW212711   0.527   4.075  11.469
 4229SOL     OW12712   1.064   5.071  12.512
 4229SOL    HW112713   0.984   5.048  12.567
 4229SOL    HW212714   1.147   5.045  12.561
 4230SOL     OW12715   1.111   4.919  12.272
 4230SOL    HW112716   1.071   4.963  12.353
 4230SOL    HW212717   1.070   4.956  12.189
 4231SOL     OW12718   1.638   4.823  12.251
 4231SOL    HW112719   1.643   4.904  12.310
 4231SOL    HW212720   1.552   4.825  12.200
 4232SOL     OW12721   0.915   3.813  12.574
 4232SOL    HW112722   0.940   3.793  12.479
 4232SOL    HW212723   0.987   3.869  12.616
 4233SOL     OW12724   0.705   4.774  11.540
 4233SOL    HW112725   0.691   4.781  11.639
 4233SOL    HW212726   0.789   4.723  11.522
 4234SOL     OW12727   0.410   4.537  12.423
 4234SOL    HW112728   0.496   4.549  12.473
 4234SOL    HW212729   0.368   4.450  12.450
 4235SOL     OW12730   1.274   4.110  12.434
 4235SOL    HW112731   1.295   4.184  12.498
 4235SOL    HW212732   1.185   4.127  12.391
 4236SOL     OW12733   0.064   5.288  12.503
 4236SOL    HW112734   0.018   5.370  12.469
 4236SOL    HW212735   0.162   5.307  12.512
 4237SOL     OW12736   0.367   4.824  11.673
 4237SOL    HW112737   0.360   4.907  11.617
 4237SOL    HW212738   0.371   4.744  11.613
 4238SOL     OW12739   0.566   4.261  12.037
 4238SOL    HW112740   0.578   4.327  11.963
 4238SOL    HW212741   0.612   4.295  12.120
 4239SOL     OW12742   1.252   5.072  11.560
 4239SOL    HW112743   1.302   5.149  11.600
 4239SOL    HW212744   1.157   5.074  11.592
 4240SOL     OW12745   1.272   5.169  12.314
 4240SOL    HW112746   1.319   5.182  12.401
 4240SOL    HW212747   1.206   5.095  12.323
 4241SOL     OW12748   1.582   4.363  11.644
 4241SOL    HW112749   1.551   4.424  11.717
 4241SOL    HW212750   1.632   4.415  11.575
 4242SOL     OW12751   0.354   5.234  12.501
 4242SOL    HW112752   0.333   5.190  12.414
 4242SOL    HW212753   0.451   5.260  12.504
 4243SOL     OW12754   0.402   4.475  12.770
 4243SOL    HW112755   0.470   4.530  12.723
 4243SOL    HW212756   0.442   4.387  12.797
 4244SOL     OW12757   1.587   4.503  12.842
 4244SOL    HW112758   1.495   4.541  12.837
 4244SOL    HW212759   1.647   4.550  12.777
 4245SOL     OW12760   0.573   4.594  12.201
 4245SOL    HW112761   0.617   4.683  12.192
 4245SOL    HW212762   0.510   4.594  12.278
 4246SOL     OW12763   1.360   4.586  12.217
 4246SOL    HW112764   1.285   4.586  12.151
 4246SOL    HW212765   1.397   4.494  12.226
 4247SOL     OW12766   1.209   4.249  11.447
 4247SOL    HW112767   1.222   4.165  11.501
 4247SOL    HW212768   1.180   4.323  11.507
 4248SOL     OW12769   0.307   3.937  12.403
 4248SOL    HW112770   0.284   3.974  12.493
 4248SOL    HW212771   0.277   3.842  12.397
 4249SOL     OW12772   0.037   5.034  12.454
 4249SOL    HW112773   0.090   4.985  12.522
 4249SOL    HW212774   0.059   5.132  12.459
 4250SOL     OW12775   0.732   4.358  12.236
 4250SOL    HW112776   0.791   4.332  12.160
 4250SOL    HW212777   0.704   4.454  12.225
 4251SOL     OW12778   0.307   3.787  11.790
 4251SOL    HW112779   0.296   3.881  11.823
 4251SOL    HW212780   0.302   3.724  11.867
 4252SOL     OW12781   1.622   4.091  11.546
 4252SOL    HW112782   1.624   4.015  11.610
 4252SOL    HW212783   1.574   4.168  11.586
 4253SOL     OW12784   1.023   4.490  12.138
 4253SOL    HW112785   1.038   4.511  12.234
 4253SOL    HW212786   0.993   4.395  12.129
 4254SOL     OW12787   0.980   5.297  12.872
 4254SOL    HW112788   0.960   5.341  12.784
 4254SOL    HW212789   1.019   5.206  12.856
 4255SOL     OW12790   1.540   3.998  11.297
 4255SOL    HW112791   1.479   3.923  11.320
 4255SOL    HW212792   1.562   4.050  11.380
 4256SOL     OW12793   1.303   4.562  11.214
 4256SOL    HW112794   1.337   4.469  11.229
 4256SOL    HW212795   1.321   4.589  11.119
 4257SOL     OW12796   1.068   5.057  12.021
 4257SOL    HW112797   1.075   4.973  11.966
 4257SOL    HW212798   1.130   5.126  11.985
 4258SOL     OW12799   0.319   4.534  12.121
 4258SOL    HW112800   0.412   4.570  12.126
 4258SOL    HW212801   0.313   4.449  12.173
 4259SOL     OW12802   0.339   4.233  12.178
 4259SOL    HW112803   0.287   4.150  12.161
 4259SOL    HW212804   0.416   4.238  12.114
 4260SOL     OW12805   1.138   4.104  12.850
 4260SOL    HW112806   1.093   4.167  12.914
 4260SOL    HW212807   1.231   4.135  12.833
 4261SOL     OW12808   1.160   3.931  12.649
 4261SOL    HW112809   1.160   3.995  12.726
 4261SOL    HW212810   1.188   3.979  12.566
 4262SOL     OW12811   0.008   5.050  11.372
 4262SOL    HW112812  -0.085   5.071  11.341
 4262SOL    HW212813   0.018   4.951  11.385
 4263SOL     OW12814   0.088   5.525  12.099
 4263SOL    HW112815   0.046   5.439  12.072
 4263SOL    HW212816   0.182   5.528  12.065
 4264SOL     OW12817   0.504   5.292  12.082
 4264SOL    HW112818   0.570   5.366  12.091
 4264SOL    HW212819   0.548   5.213  12.040
 4265SOL     OW12820   1.002   4.520  12.410
 4265SOL    HW112821   1.043   4.488  12.496
 4265SOL    HW212822   0.906   4.493  12.407
 4266SOL     OW12823   0.040   4.268  12.286
 4266SOL    HW112824   0.125   4.235  12.245
 4266SOL    HW212825   0.053   4.283  12.384
 4267SOL     OW12826   0.815   4.296  11.497
 4267SOL    HW112827   0.822   4.207  11.451
 4267SOL    HW212828   0.721   4.330  11.489
 4268SOL     OW12829   1.657   4.328  12.378
 4268SOL    HW112830   1.619   4.259  12.440
 4268SOL    HW212831   1.739   4.292  12.334
 4269SOL     OW12832   0.671   4.188  12.441
 4269SOL    HW112833   0.637   4.099  12.411
 4269SOL    HW212834   0.697   4.242  12.361
 4270SOL     OW12835   0.930   5.402  12.637
 4270SOL    HW112836   0.906   5.384  12.542
 4270SOL    HW212837   0.960   5.496  12.647
 4271SOL     OW12838   0.473   4.224  11.363
 4271SOL    HW112839   0.534   4.304  11.367
 4271SOL    HW212840   0.378   4.255  11.370
 4272SOL     OW12841   0.159   4.861  12.638
 4272SOL    HW112842   0.181   4.800  12.714
 4272SOL    HW212843   0.169   4.812  12.552
 4273SOL     OW12844   1.347   4.783  12.406
 4273SOL    HW112845   1.371   4.720  12.332
 4273SOL    HW212846   1.257   4.823  12.388
 4274SOL     OW12847   1.302   4.579  11.481
 4274SOL    HW112848   1.216   4.548  11.523
 4274SOL    HW212849   1.298   4.565  11.382
 4275SOL     OW12850   1.759   5.471  12.326
 4275SOL    HW112851   1.820   5.501  12.253
 4275SOL    HW212852   1.721   5.382  12.304
 4276SOL     OW12853   0.083   4.982  12.194
 4276SOL    HW112854   0.078   4.981  12.294
 4276SOL    HW212855   0.000   4.941  12.156
 4277SOL     OW12856   1.726   3.859  11.695
 4277SOL    HW112857   1.799   3.842  11.628
 4277SOL    HW212858   1.695   3.772  11.733
 4278SOL     OW12859   1.388   5.297  11.649
 4278SOL    HW112860   1.455   5.309  11.575
 4278SOL    HW212861   1.348   5.386  11.672
 4279SOL     OW12862   1.280   4.651  11.844
 4279SOL    HW112863   1.340   4.570  11.846
 4279SOL    HW212864   1.320   4.720  11.784
 4280SOL     OW12865   0.672   5.340  11.326
 4280SOL    HW112866   0.681   5.350  11.227
 4280SOL    HW212867   0.632   5.251  11.347
 4281SOL     OW12868   1.650   5.444  12.566
 4281SOL    HW112869   1.703   5.454  12.482
 4281SOL    HW212870   1.623   5.534  12.600
 4282SOL     OW12871   1.841   3.899  12.135
 4282SOL    HW112872   1.880   3.814  12.099
 4282SOL    HW212873   1.743   3.901  12.116
 4283SOL     OW12874   0.263   4.050  11.892
 4283SOL    HW112875   0.184   4.101  11.858
 4283SOL    HW212876   0.254   4.035  11.990
 4284SOL     OW12877   1.194   5.336  11.203
 4284SOL    HW112878   1.200   5.243  11.240
 4284SOL    HW212879   1.135   5.336  11.123
 4285SOL     OW12880   0.822   4.726  12.544
 4285SOL    HW112881   0.862   4.725  12.452
 4285SOL    HW212882   0.832   4.818  12.584
 4286SOL     OW12883   0.916   4.634  11.463
 4286SOL    HW112884   0.979   4.672  11.395
 4286SOL    HW212885   0.956   4.551  11.502
 4287SOL     OW12886   1.504   5.331  11.216
 4287SOL    HW112887   1.412   5.368  11.223
 4287SOL    HW212888   1.542   5.351  11.126
 4288SOL     OW12889   0.372   5.012  12.662
 4288SOL    HW112890   0.359   5.105  12.628
 4288SOL    HW212891   0.288   4.960  12.649
 4289SOL     OW12892   1.614   5.016  12.461
 4289SOL    HW112893   1.674   5.019  12.541
 4289SOL    HW212894   1.539   5.080  12.474
 4290SOL     OW12895   1.039   4.822  11.868
 4290SOL    HW112896   0.969   4.775  11.922
 4290SOL    HW212897   1.098   4.754  11.825
 4291SOL     OW12898   1.014   3.960  12.143
 4291SOL    HW112899   1.006   3.924  12.050
 4291SOL    HW212900   1.012   3.884  12.208
 4292SOL     OW12901   0.590   5.211  11.663
 4292SOL    HW112902   0.632   5.153  11.593
 4292SOL    HW212903   0.546   5.290  11.619
 4293SOL     OW12904   1.709   4.109  12.553
 4293SOL    HW112905   1.782   4.178  12.557
 4293SOL    HW212906   1.737   4.034  12.494
 4294SOL     OW12907   0.255   5.072  11.462
 4294SOL    HW112908   0.159   5.073  11.435
 4294SOL    HW212909   0.267   5.125  11.546
 4295SOL     OW12910   0.075   4.069  11.205
 4295SOL    HW112911  -0.017   4.041  11.176
 4295SOL    HW212912   0.106   4.146  11.149
 4296SOL     OW12913   1.440   4.580  12.570
 4296SOL    HW112914   1.383   4.632  12.507
 4296SOL    HW212915   1.536   4.592  12.546
 4297SOL     OW12916   0.072   3.890  11.490
 4297SOL    HW112917   0.055   3.973  11.436
 4297SOL    HW212918   0.162   3.853  11.468
 4298SOL     OW12919   1.183   5.059  11.291
 4298SOL    HW112920   1.084   5.048  11.293
 4298SOL    HW212921   1.217   5.074  11.384
 4299SOL     OW12922   0.613   4.566  12.603
 4299SOL    HW112923   0.669   4.647  12.586
 4299SOL    HW212924   0.672   4.486  12.606
 4300SOL     OW12925   1.493   5.491  12.131
 4300SOL    HW112926   1.526   5.555  12.062
 4300SOL    HW212927   1.559   5.485  12.206
 4301SOL     OW12928   0.390   5.465  12.732
 4301SOL    HW112929   0.299   5.506  12.730
 4301SOL    HW212930   0.383   5.371  12.764
 4302SOL     OW12931   1.674   4.607  12.426
 4302SOL    HW112932   1.647   4.518  12.389
 4302SOL    HW212933   1.675   4.675  12.353
 4303SOL     OW12934   1.225   4.049  11.621
 4303SOL    HW112935   1.290   3.975  11.610
 4303SOL    HW212936   1.245   4.099  11.705
 4304SOL     OW12937   0.594   4.469  11.824
 4304SOL    HW112938   0.644   4.554  11.805
 4304SOL    HW212939   0.506   4.471  11.776
 4305SOL     OW12940   1.777   4.066  12.814
 4305SOL    HW112941   1.760   4.097  12.720
 4305SOL    HW212942   1.693   4.029  12.852
 4306SOL     OW12943   1.730   4.658  12.689
 4306SOL    HW112944   1.768   4.749  12.704
 4306SOL    HW212945   1.722   4.641  12.590
 4307SOL     OW12946   0.859   5.098  11.188
 4307SOL    HW112947   0.813   5.113  11.276
 4307SOL    HW212948   0.903   5.183  11.158
 4308SOL     OW12949   0.661   5.514  12.125
 4308SOL    HW112950   0.615   5.602  12.112
 4308SOL    HW212951   0.760   5.526  12.118
 4309SOL     OW12952   0.859   4.680  12.033
 4309SOL    HW112953   0.913   4.611  12.081
 4309SOL    HW212954   0.827   4.749  12.099
 4310SOL     OW12955   1.083   4.708  11.259
 4310SOL    HW112956   1.060   4.761  11.177
 4310SOL    HW212957   1.164   4.652  11.240
 4311SOL     OW12958   1.861   5.293  12.023
 4311SOL    HW112959   1.790   5.281  11.953
 4311SOL    HW212960   1.862   5.214  12.083
 4312SOL     OW12961   0.079   4.964  11.825
 4312SOL    HW112962   0.078   4.917  11.913
 4312SOL    HW212963   0.161   4.936  11.774
 4313SOL     OW12964   1.824   3.916  12.399
 4313SOL    HW112965   1.820   3.826  12.443
 4313SOL    HW212966   1.827   3.905  12.300
 4314SOL     OW12967   0.428   4.148  11.692
 4314SOL    HW112968   0.458   4.076  11.630
 4314SOL    HW212969   0.389   4.108  11.775
 4315SOL     OW12970   1.705   5.211  12.276
 4315SOL    HW112971   1.612   5.186  12.249
 4315SOL    HW212972   1.731   5.161  12.358
 4316SOL     OW12973   0.317   4.271  12.452
 4316SOL    HW112974   0.355   4.212  12.524
 4316SOL    HW212975   0.357   4.245  12.364
 4317SOL     OW12976   0.812   5.310  11.859
 4317SOL    HW112977   0.844   5.320  11.765
 4317SOL    HW212978   0.733   5.248  11.861
 4318SOL     OW12979   1.424   3.938  12.284
 4318SOL    HW112980   1.476   3.873  12.339
 4318SOL    HW212981   1.375   4.001  12.345
 4319SOL     OW12982   1.001   3.758  12.326
 4319SOL    HW112983   0.938   3.686  12.295
 4319SOL    HW212984   1.094   3.722  12.326
 4320SOL     OW12985   0.770   5.054  11.473
 4320SOL    HW112986   0.724   4.967  11.490
 4320SOL    HW212987   0.861   5.051  11.514
 4321SOL     OW12988   0.618   5.291  12.456
 4321SOL    HW112989   0.613   5.373  12.513
 4321SOL    HW212990   0.707   5.288  12.411
 4322SOL     OW12991   1.352   3.776  11.340
 4322SOL    HW112992   1.387   3.735  11.256
 4322SOL    HW212993   1.262   3.738  11.360
 4323SOL     OW12994   1.300   4.177  11.863
 4323SOL    HW112995   1.241   4.257  11.867
 4323SOL    HW212996   1.315   4.142  11.956
 4324SOL     OW12997   1.593   3.945  12.054
 4324SOL    HW112998   1.509   3.944  12.108
 4324SOL    HW212999   1.595   4.028  11.998
 4325SOL     OW13000   0.039   4.801  11.472
 4325SOL    HW113001   0.138   4.790  11.463
 4325SOL    HW213002  -0.001   4.715  11.504
 4326SOL     OW13003   0.875   5.370  11.509
 4326SOL    HW113004   0.798   5.335  11.455
 4326SOL    HW213005   0.843   5.441  11.571
 4327SOL     OW13006   0.230   6.214   0.113
 4327SOL    HW113007   0.137   6.212   0.150
 4327SOL    HW213008   0.231   6.175   0.021
 4328SOL     OW13009   0.225   5.861   0.996
 4328SOL    HW113010   0.260   5.844   1.088
 4328SOL    HW213011   0.137   5.816   0.984
 4329SOL     OW13012   0.019   5.954   0.647
 4329SOL    HW113013  -0.063   5.997   0.686
 4329SOL    HW213014  -0.009   5.881   0.584
 4330SOL     OW13015   0.569   6.861   1.165
 4330SOL    HW113016   0.476   6.854   1.128
 4330SOL    HW213017   0.580   6.950   1.209
 4331SOL     OW13018   1.555   7.097   0.703
 4331SOL    HW113019   1.498   7.081   0.784
 4331SOL    HW213020   1.496   7.107   0.623
 4332SOL     OW13021   1.135   6.289   0.717
 4332SOL    HW113022   1.192   6.367   0.692
 4332SOL    HW213023   1.075   6.315   0.793
 4333SOL     OW13024   1.755   6.193   0.231
 4333SOL    HW113025   1.743   6.180   0.132
 4333SOL    HW213026   1.725   6.112   0.280
 4334SOL     OW13027   0.768   6.730   1.023
 4334SOL    HW113028   0.690   6.747   1.083
 4334SOL    HW213029   0.802   6.817   0.987
 4335SOL     OW13030   0.850   6.384   1.823
 4335SOL    HW113031   0.846   6.460   1.888
 4335SOL    HW213032   0.872   6.420   1.732
 4336SOL     OW13033   0.685   6.598   0.665
 4336SOL    HW113034   0.754   6.582   0.735
 4336SOL    HW213035   0.612   6.655   0.703
 4337SOL     OW13036   0.686   6.747   1.803
 4337SOL    HW113037   0.746   6.826   1.817
 4337SOL    HW213038   0.600   6.778   1.762
 4338SOL     OW13039   0.335   7.021   1.061
 4338SOL    HW113040   0.257   6.990   1.008
 4338SOL    HW213041   0.393   7.079   1.004
 4339SOL     OW13042   1.460   7.091   1.339
 4339SOL    HW113043   1.484   7.185   1.365
 4339SOL    HW213044   1.444   7.037   1.421
 4340SOL     OW13045   0.438   5.978   1.499
 4340SOL    HW113046   0.520   5.922   1.508
 4340SOL    HW213047   0.357   5.920   1.503
 4341SOL     OW13048   1.603   6.033   0.737
 4341SOL    HW113049   1.529   6.079   0.687
 4341SOL    HW213050   1.654   6.101   0.790
 4342SOL     OW13051   0.231   7.299   0.483
 4342SOL    HW113052   0.265   7.376   0.537
 4342SOL    HW213053   0.275   7.299   0.393
 4343SOL     OW13054   1.127   6.927   1.690
 4343SOL    HW113055   1.174   6.927   1.778
 4343SOL    HW213056   1.079   6.840   1.679
 4344SOL     OW13057   0.230   7.020   0.538
 4344SOL    HW113058   0.204   7.116   0.538
 4344SOL    HW213059   0.159   6.966   0.583
 4345SOL     OW13060   0.240   6.677   0.886
 4345SOL    HW113061   0.254   6.593   0.938
 4345SOL    HW213062   0.185   6.741   0.941
 4346SOL     OW13063   0.620   7.372   1.439
 4346SOL    HW113064   0.528   7.355   1.474
 4346SOL    HW213065   0.648   7.464   1.465
 4347SOL     OW13066   0.606   6.550   0.123
 4347SOL    HW113067   0.613   6.634   0.069
 4347SOL    HW213068   0.652   6.563   0.211
 4348SOL     OW13069   1.594   5.700   1.480
 4348SOL    HW113070   1.576   5.767   1.408
 4348SOL    HW213071   1.591   5.746   1.569
 4349SOL     OW13072   0.122   6.229   0.563
 4349SOL    HW113073   0.077   6.141   0.580
 4349SOL    HW213074   0.121   6.283   0.647
 4350SOL     OW13075   1.842   7.353   0.359
 4350SOL    HW113076   1.896   7.324   0.439
 4350SOL    HW213077   1.872   7.443   0.330
 4351SOL     OW13078   0.027   7.182   0.117
 4351SOL    HW113079   0.008   7.086   0.138
 4351SOL    HW213080  -0.006   7.240   0.192
 4352SOL     OW13081   1.689   6.508   0.612
 4352SOL    HW113082   1.784   6.479   0.620
 4352SOL    HW213083   1.681   6.573   0.537
 4353SOL     OW13084   1.641   6.694   0.432
 4353SOL    HW113085   1.727   6.696   0.380
 4353SOL    HW213086   1.655   6.741   0.520
 4354SOL     OW13087   0.113   6.323   1.597
 4354SOL    HW113088   0.201   6.310   1.642
 4354SOL    HW213089   0.100   6.420   1.575
 4355SOL     OW13090   0.613   6.951   0.726
 4355SOL    HW113091   0.564   6.864   0.735
 4355SOL    HW213092   0.590   6.994   0.639
 4356SOL     OW13093   1.293   6.814   1.423
 4356SOL    HW113094   1.330   6.741   1.365
 4356SOL    HW213095   1.345   6.819   1.508
 4357SOL     OW13096   0.809   5.590   0.502
 4357SOL    HW113097   0.849   5.681   0.493
 4357SOL    HW213098   0.709   5.598   0.508
 4358SOL     OW13099   0.197   6.562   1.264
 4358SOL    HW113100   0.286   6.517   1.250
 4358SOL    HW213101   0.124   6.497   1.245
 4359SOL     OW13102   1.525   6.585   0.190
 4359SOL    HW113103   1.462   6.509   0.203
 4359SOL    HW213104   1.573   6.603   0.276
 4360SOL     OW13105   1.187   7.378   1.616
 4360SOL    HW113106   1.211   7.438   1.540
 4360SOL    HW213107   1.194   7.283   1.586
 4361SOL     OW13108   0.317   5.837   1.801
 4361SOL    HW113109   0.388   5.908   1.807
 4361SOL    HW213110   0.229   5.876   1.829
 4362SOL     OW13111   1.466   7.003   0.953
 4362SOL    HW113112   1.407   7.009   1.033
 4362SOL    HW213113   1.451   6.915   0.907
 4363SOL     OW13114   1.667   7.300   0.572
 4363SOL    HW113115   1.626   7.277   0.484
 4363SOL    HW213116   1.649   7.226   0.637
 4364SOL     OW13117   0.598   6.315   0.270
 4364SOL    HW113118   0.622   6.384   0.202
 4364SOL    HW213119   0.520   6.348   0.324
 4365SOL     OW13120   1.281   5.931   0.944
 4365SOL    HW113121   1.195   5.881   0.931
 4365SOL    HW213122   1.343   5.877   1.000
 4366SOL     OW13123   1.576   7.248   0.307
 4366SOL    HW113124   1.665   7.294   0.310
 4366SOL    HW213125   1.555   7.224   0.212
 4367SOL     OW13126   0.807   6.191   1.465
 4367SOL    HW113127   0.760   6.188   1.554
 4367SOL    HW213128   0.756   6.136   1.399
 4368SOL     OW13129   1.394   6.055   1.674
 4368SOL    HW113130   1.374   6.098   1.762
 4368SOL    HW213131   1.472   5.993   1.683
 4369SOL     OW13132   0.973   6.476   1.572
 4369SOL    HW113133   1.019   6.392   1.543
 4369SOL    HW213134   0.917   6.510   1.497
 4370SOL     OW13135   0.991   5.996   1.242
 4370SOL    HW113136   0.914   6.030   1.296
 4370SOL    HW213137   0.957   5.945   1.163
 4371SOL     OW13138   1.041   6.287   0.429
 4371SOL    HW113139   1.067   6.283   0.525
 4371SOL    HW213140   0.956   6.236   0.415
 4372SOL     OW13141   0.076   6.397   0.789
 4372SOL    HW113142   0.175   6.385   0.798
 4372SOL    HW213143   0.052   6.492   0.810
 4373SOL     OW13144   0.130   7.407   1.571
 4373SOL    HW113145   0.120   7.392   1.670
 4373SOL    HW213146   0.044   7.443   1.535
 4374SOL     OW13147   0.865   5.934   0.195
 4374SOL    HW113148   0.924   5.997   0.146
 4374SOL    HW213149   0.884   5.840   0.166
 4375SOL     OW13150   1.719   6.171   1.831
 4375SOL    HW113151   1.693   6.260   1.795
 4375SOL    HW213152   1.717   6.103   1.758
 4376SOL     OW13153   1.362   6.730   0.545
 4376SOL    HW113154   1.445   6.701   0.497
 4376SOL    HW213155   1.313   6.797   0.489
 4377SOL     OW13156   0.550   5.782   0.885
 4377SOL    HW113157   0.545   5.777   0.985
 4377SOL    HW213158   0.552   5.878   0.856
 4378SOL     OW13159   1.008   7.042   0.477
 4378SOL    HW113160   0.962   7.114   0.425
 4378SOL    HW213161   1.004   7.062   0.575
 4379SOL     OW13162   0.351   7.387   0.853
 4379SOL    HW113163   0.401   7.301   0.859
 4379SOL    HW213164   0.416   7.464   0.850
 4380SOL     OW13165   1.795   6.652   0.873
 4380SOL    HW113166   1.733   6.637   0.797
 4380SOL    HW213167   1.743   6.663   0.958
 4381SOL     OW13168   1.227   7.136   1.506
 4381SOL    HW113169   1.233   7.059   1.570
 4381SOL    HW213170   1.175   7.110   1.426
 4382SOL     OW13171   0.321   6.529   0.242
 4382SOL    HW113172   0.403   6.568   0.200
 4382SOL    HW213173   0.294   6.447   0.193
 4383SOL     OW13174   1.458   6.321   0.728
 4383SOL    HW113175   1.453   6.256   0.803
 4383SOL    HW213176   1.538   6.380   0.741
 4384SOL     OW13177   0.461   6.852   1.727
 4384SOL    HW113178   0.411   6.853   1.641
 4384SOL    HW213179   0.398   6.834   1.803
 4385SOL     OW13180   1.111   7.362   0.237
 4385SOL    HW113181   1.051   7.300   0.287
 4385SOL    HW213182   1.142   7.318   0.152
 4386SOL     OW13183   0.202   5.871   1.498
 4386SOL    HW113184   0.122   5.931   1.485
 4386SOL    HW213185   0.192   5.822   1.584
 4387SOL     OW13186   1.632   6.963   0.081
 4387SOL    HW113187   1.600   7.057   0.071
 4387SOL    HW213188   1.556   6.900   0.069
 4388SOL     OW13189   0.464   7.329   0.323
 4388SOL    HW113190   0.497   7.368   0.409
 4388SOL    HW213191   0.540   7.322   0.258
 4389SOL     OW13192   1.400   5.693   0.426
 4389SOL    HW113193   1.376   5.656   0.336
 4389SOL    HW213194   1.499   5.709   0.430
 4390SOL     OW13195   0.249   7.371   1.241
 4390SOL    HW113196   0.306   7.306   1.291
 4390SOL    HW213197   0.233   7.338   1.148
 4391SOL     OW13198   0.940   7.284   0.904
 4391SOL    HW113199   1.020   7.227   0.925
 4391SOL    HW213200   0.891   7.244   0.827
 4392SOL     OW13201   0.382   6.286   0.480
 4392SOL    HW113202   0.427   6.196   0.477
 4392SOL    HW213203   0.288   6.275   0.513
 4393SOL     OW13204   1.547   5.808   1.729
 4393SOL    HW113205   1.542   5.845   1.821
 4393SOL    HW213206   1.475   5.739   1.717
 4394SOL     OW13207   0.614   5.708   0.117
 4394SOL    HW113208   0.712   5.686   0.124
 4394SOL    HW213209   0.583   5.691   0.024
 4395SOL     OW13210   0.781   5.850   1.749
 4395SOL    HW113211   0.848   5.789   1.792
 4395SOL    HW213212   0.708   5.869   1.814
 4396SOL     OW13213   0.888   7.100   1.195
 4396SOL    HW113214   0.865   7.075   1.101
 4396SOL    HW213215   0.949   7.031   1.234
 4397SOL     OW13216   1.351   6.176   1.433
 4397SOL    HW113217   1.379   6.133   1.518
 4397SOL    HW213218   1.376   6.272   1.434
 4398SOL     OW13219   0.803   6.988   0.924
 4398SOL    HW113220   0.893   7.002   0.882
 4398SOL    HW213221   0.732   6.990   0.853
 4399SOL     OW13222   0.922   6.089   0.899
 4399SOL    HW113223   0.897   6.080   0.803
 4399SOL    HW213224   0.970   6.007   0.930
 4400SOL     OW13225   0.539   5.650   0.512
 4400SOL    HW113226   0.458   5.651   0.570
 4400SOL    HW213227   0.542   5.733   0.457
 4401SOL     OW13228   1.434   6.774   0.041
 4401SOL    HW113229   1.466   6.698   0.098
 4401SOL    HW213230   1.342   6.801   0.071
 4402SOL     OW13231   0.297   5.621   0.171
 4402SOL    HW113232   0.346   5.705   0.150
 4402SOL    HW213233   0.359   5.556   0.216
 4403SOL     OW13234   0.935   5.822   0.480
 4403SOL    HW113235   0.887   5.863   0.402
 4403SOL    HW213236   1.034   5.820   0.461
 4404SOL     OW13237   1.076   6.269   1.464
 4404SOL    HW113238   0.996   6.208   1.467
 4404SOL    HW213239   1.157   6.216   1.440
 4405SOL     OW13240   1.227   7.156   0.793
 4405SOL    HW113241   1.248   7.230   0.728
 4405SOL    HW213242   1.295   7.156   0.866
 4406SOL     OW13243   0.459   6.738   0.741
 4406SOL    HW113244   0.388   6.711   0.806
 4406SOL    HW213245   0.433   6.710   0.648
 4407SOL     OW13246   1.271   7.383   0.591
 4407SOL    HW113247   1.315   7.447   0.527
 4407SOL    HW213248   1.221   7.435   0.661
 4408SOL     OW13249   1.032   6.135   0.016
 4408SOL    HW113250   0.991   6.217  -0.023
 4408SOL    HW213251   1.096   6.161   0.089
 4409SOL     OW13252   0.078   6.142   1.386
 4409SOL    HW113253   0.170   6.141   1.345
 4409SOL    HW213254   0.072   6.216   1.453
 4410SOL     OW13255   0.561   5.808   1.147
 4410SOL    HW113256   0.599   5.724   1.184
 4410SOL    HW213257   0.473   5.827   1.191
 4411SOL     OW13258   0.866   6.040   0.642
 4411SOL    HW113259   0.834   6.112   0.580
 4411SOL    HW213260   0.890   5.959   0.589
 4412SOL     OW13261   1.017   5.625   0.753
 4412SOL    HW113262   0.945   5.630   0.684
 4412SOL    HW213263   0.993   5.556   0.822
 4413SOL     OW13264   1.429   6.759   0.867
 4413SOL    HW113265   1.374   6.675   0.860
 4413SOL    HW213266   1.455   6.788   0.775
 4414SOL     OW13267   1.466   6.176   0.992
 4414SOL    HW113268   1.436   6.081   0.999
 4414SOL    HW213269   1.539   6.192   1.058
 4415SOL     OW13270   1.857   6.419   0.377
 4415SOL    HW113271   1.899   6.355   0.441
 4415SOL    HW213272   1.819   6.368   0.299
 4416SOL     OW13273   0.488   6.971   0.174
 4416SOL    HW113274   0.401   6.956   0.221
 4416SOL    HW213275   0.471   6.997   0.079
 4417SOL     OW13276   1.664   6.866   0.657
 4417SOL    HW113277   1.763   6.874   0.671
 4417SOL    HW213278   1.619   6.950   0.688
 4418SOL     OW13279   1.390   6.161   0.078
 4418SOL    HW113280   1.336   6.140   0.159
 4418SOL    HW213281   1.481   6.120   0.087
 4419SOL     OW13282   0.527   5.842   0.328
 4419SOL    HW113283   0.554   5.783   0.253
 4419SOL    HW213284   0.527   5.937   0.297
 4420SOL     OW13285   1.754   6.809   1.588
 4420SOL    HW113286   1.845   6.770   1.575
 4420SOL    HW213287   1.762   6.905   1.612
 4421SOL     OW13288   1.064   6.933   1.340
 4421SOL    HW113289   0.984   6.910   1.395
 4421SOL    HW213290   1.147   6.907   1.389
 4422SOL     OW13291   1.592   7.215   1.625
 4422SOL    HW113292   1.619   7.249   1.535
 4422SOL    HW213293   1.671   7.177   1.671
 4423SOL     OW13294   1.111   6.781   1.100
 4423SOL    HW113295   1.071   6.825   1.181
 4423SOL    HW213296   1.070   6.818   1.017
 4424SOL     OW13297   1.638   6.685   1.079
 4424SOL    HW113298   1.643   6.766   1.138
 4424SOL    HW213299   1.552   6.687   1.028
 4425SOL     OW13300   0.915   5.675   1.402
 4425SOL    HW113301   0.940   5.655   1.307
 4425SOL    HW213302   0.987   5.731   1.444
 4426SOL     OW13303   0.980   6.702   1.719
 4426SOL    HW113304   0.881   6.708   1.729
 4426SOL    HW213305   1.003   6.622   1.663
 4427SOL     OW13306   0.705   6.636   0.368
 4427SOL    HW113307   0.691   6.643   0.467
 4427SOL    HW213308   0.789   6.585   0.350
 4428SOL     OW13309   0.410   6.399   1.251
 4428SOL    HW113310   0.496   6.411   1.301
 4428SOL    HW213311   0.368   6.312   1.278
 4429SOL     OW13312   1.274   5.972   1.262
 4429SOL    HW113313   1.295   6.046   1.326
 4429SOL    HW213314   1.185   5.989   1.219
 4430SOL     OW13315   0.064   7.150   1.331
 4430SOL    HW113316   0.018   7.232   1.297
 4430SOL    HW213317   0.162   7.169   1.340
 4431SOL     OW13318   0.367   6.686   0.501
 4431SOL    HW113319   0.360   6.769   0.445
 4431SOL    HW213320   0.371   6.606   0.441
 4432SOL     OW13321   0.566   6.123   0.865
 4432SOL    HW113322   0.578   6.189   0.791
 4432SOL    HW213323   0.612   6.157   0.948
 4433SOL     OW13324   1.252   6.934   0.388
 4433SOL    HW113325   1.302   7.011   0.428
 4433SOL    HW213326   1.157   6.936   0.420
 4434SOL     OW13327   1.272   7.031   1.142
 4434SOL    HW113328   1.319   7.044   1.229
 4434SOL    HW213329   1.206   6.957   1.151
 4435SOL     OW13330   1.582   6.225   0.472
 4435SOL    HW113331   1.551   6.286   0.545
 4435SOL    HW213332   1.632   6.277   0.403
 4436SOL     OW13333   0.354   7.096   1.329
 4436SOL    HW113334   0.333   7.052   1.242
 4436SOL    HW213335   0.451   7.122   1.332
 4437SOL     OW13336   0.402   6.337   1.598
 4437SOL    HW113337   0.470   6.392   1.551
 4437SOL    HW213338   0.442   6.249   1.625
 4438SOL     OW13339   1.587   6.365   1.670
 4438SOL    HW113340   1.495   6.403   1.665
 4438SOL    HW213341   1.647   6.412   1.605
 4439SOL     OW13342   1.013   5.691   1.770
 4439SOL    HW113343   1.019   5.776   1.718
 4439SOL    HW213344   1.045   5.615   1.713
 4440SOL     OW13345   0.504   5.636   1.740
 4440SOL    HW113346   0.462   5.579   1.670
 4440SOL    HW213347   0.438   5.705   1.772
 4441SOL     OW13348   0.573   6.456   1.029
 4441SOL    HW113349   0.617   6.545   1.020
 4441SOL    HW213350   0.510   6.456   1.106
 4442SOL     OW13351   1.360   6.448   1.045
 4442SOL    HW113352   1.285   6.448   0.979
 4442SOL    HW213353   1.397   6.356   1.054
 4443SOL     OW13354   1.209   6.111   0.275
 4443SOL    HW113355   1.222   6.027   0.329
 4443SOL    HW213356   1.180   6.185   0.335
 4444SOL     OW13357   0.307   5.799   1.231
 4444SOL    HW113358   0.284   5.836   1.321
 4444SOL    HW213359   0.277   5.704   1.225
 4445SOL     OW13360   0.037   6.896   1.282
 4445SOL    HW113361   0.090   6.847   1.350
 4445SOL    HW213362   0.059   6.994   1.287
 4446SOL     OW13363   0.732   6.220   1.064
 4446SOL    HW113364   0.791   6.194   0.988
 4446SOL    HW213365   0.704   6.316   1.053
 4447SOL     OW13366   1.728   6.521   1.854
 4447SOL    HW113367   1.682   6.514   1.765
 4447SOL    HW213368   1.666   6.565   1.920
 4448SOL     OW13369   0.307   5.649   0.618
 4448SOL    HW113370   0.296   5.743   0.651
 4448SOL    HW213371   0.302   5.586   0.695
 4449SOL     OW13372   1.622   5.953   0.374
 4449SOL    HW113373   1.624   5.877   0.438
 4449SOL    HW213374   1.574   6.030   0.414
 4450SOL     OW13375   1.023   6.352   0.966
 4450SOL    HW113376   1.038   6.373   1.062
 4450SOL    HW213377   0.993   6.257   0.957
 4451SOL     OW13378   0.980   7.159   1.700
 4451SOL    HW113379   0.960   7.203   1.612
 4451SOL    HW213380   1.019   7.068   1.684
 4452SOL     OW13381   1.859   7.104   1.605
 4452SOL    HW113382   1.873   7.131   1.510
 4452SOL    HW213383   1.942   7.126   1.658
 4453SOL     OW13384   0.350   6.484   1.804
 4453SOL    HW113385   0.426   6.528   1.852
 4453SOL    HW213386   0.385   6.437   1.722
 4454SOL     OW13387   1.540   5.860   0.125
 4454SOL    HW113388   1.479   5.785   0.148
 4454SOL    HW213389   1.562   5.912   0.208
 4455SOL     OW13390   1.303   6.424   0.042
 4455SOL    HW113391   1.337   6.331   0.057
 4455SOL    HW213392   1.321   6.451  -0.053
 4456SOL     OW13393   1.068   6.919   0.849
 4456SOL    HW113394   1.075   6.835   0.794
 4456SOL    HW213395   1.130   6.988   0.813
 4457SOL     OW13396   0.319   6.396   0.949
 4457SOL    HW113397   0.412   6.432   0.954
 4457SOL    HW213398   0.313   6.311   1.001
 4458SOL     OW13399   0.339   6.095   1.006
 4458SOL    HW113400   0.287   6.012   0.989
 4458SOL    HW213401   0.416   6.100   0.942
 4459SOL     OW13402   1.138   5.966   1.678
 4459SOL    HW113403   1.093   6.029   1.742
 4459SOL    HW213404   1.231   5.997   1.661
 4460SOL     OW13405   1.160   5.793   1.477
 4460SOL    HW113406   1.160   5.857   1.554
 4460SOL    HW213407   1.188   5.841   1.394
 4461SOL     OW13408   0.008   6.912   0.200
 4461SOL    HW113409  -0.085   6.933   0.169
 4461SOL    HW213410   0.018   6.813   0.213
 4462SOL     OW13411   0.088   7.387   0.927
 4462SOL    HW113412   0.046   7.301   0.900
 4462SOL    HW213413   0.182   7.390   0.893
 4463SOL     OW13414   0.504   7.154   0.910
 4463SOL    HW113415   0.570   7.228   0.919
 4463SOL    HW213416   0.548   7.075   0.868
 4464SOL     OW13417   1.002   6.382   1.238
 4464SOL    HW113418   1.043   6.350   1.324
 4464SOL    HW213419   0.906   6.355   1.235
 4465SOL     OW13420   0.040   6.130   1.114
 4465SOL    HW113421   0.125   6.097   1.073
 4465SOL    HW213422   0.053   6.145   1.212
 4466SOL     OW13423   0.189   6.106   1.722
 4466SOL    HW113424   0.248   6.066   1.652
 4466SOL    HW213425   0.131   6.177   1.681
 4467SOL     OW13426   1.369   6.536   1.660
 4467SOL    HW113427   1.408   6.625   1.680
 4467SOL    HW213428   1.379   6.516   1.563
 4468SOL     OW13429   0.815   6.158   0.325
 4468SOL    HW113430   0.822   6.069   0.279
 4468SOL    HW213431   0.721   6.192   0.317
 4469SOL     OW13432   1.657   6.190   1.206
 4469SOL    HW113433   1.619   6.121   1.268
 4469SOL    HW213434   1.739   6.154   1.162
 4470SOL     OW13435   0.252   7.150   1.744
 4470SOL    HW113436   0.222   7.207   1.820
 4470SOL    HW213437   0.245   7.053   1.770
 4471SOL     OW13438   0.671   6.050   1.269
 4471SOL    HW113439   0.637   5.961   1.239
 4471SOL    HW213440   0.697   6.104   1.189
 4472SOL     OW13441   0.930   7.264   1.465
 4472SOL    HW113442   0.906   7.246   1.370
 4472SOL    HW213443   0.960   7.358   1.475
 4473SOL     OW13444   0.473   6.086   0.191
 4473SOL    HW113445   0.534   6.166   0.195
 4473SOL    HW213446   0.378   6.117   0.198
 4474SOL     OW13447   0.159   6.723   1.466
 4474SOL    HW113448   0.181   6.662   1.542
 4474SOL    HW213449   0.169   6.674   1.380
 4475SOL     OW13450   1.347   6.645   1.234
 4475SOL    HW113451   1.371   6.582   1.160
 4475SOL    HW213452   1.257   6.685   1.216
 4476SOL     OW13453   1.302   6.441   0.309
 4476SOL    HW113454   1.216   6.410   0.351
 4476SOL    HW213455   1.298   6.427   0.210
 4477SOL     OW13456   1.759   7.333   1.154
 4477SOL    HW113457   1.820   7.363   1.081
 4477SOL    HW213458   1.721   7.244   1.132
 4478SOL     OW13459   1.252   7.317   1.128
 4478SOL    HW113460   1.336   7.322   1.074
 4478SOL    HW213461   1.229   7.221   1.146
 4479SOL     OW13462   0.083   6.844   1.022
 4479SOL    HW113463   0.078   6.843   1.122
 4479SOL    HW213464   0.000   6.803   0.984
 4480SOL     OW13465   0.688   7.248   1.716
 4480SOL    HW113466   0.632   7.329   1.725
 4480SOL    HW213467   0.740   7.252   1.630
 4481SOL     OW13468   0.903   5.672   0.133
 4481SOL    HW113469   0.954   5.673   0.047
 4481SOL    HW213470   0.959   5.630   0.204
 4482SOL     OW13471   1.726   5.721   0.523
 4482SOL    HW113472   1.799   5.704   0.456
 4482SOL    HW213473   1.695   5.634   0.561
 4483SOL     OW13474   1.388   7.159   0.477
 4483SOL    HW113475   1.455   7.171   0.403
 4483SOL    HW213476   1.348   7.248   0.500
 4484SOL     OW13477   0.130   7.380   1.851
 4484SOL    HW113478   0.089   7.306   1.904
 4484SOL    HW213479   0.194   7.431   1.909
 4485SOL     OW13480   1.280   6.513   0.672
 4485SOL    HW113481   1.340   6.432   0.674
 4485SOL    HW213482   1.320   6.582   0.612
 4486SOL     OW13483   0.830   6.859   1.422
 4486SOL    HW113484   0.825   6.892   1.517
 4486SOL    HW213485   0.744   6.878   1.376
 4487SOL     OW13486   0.672   7.202   0.154
 4487SOL    HW113487   0.681   7.212   0.055
 4487SOL    HW213488   0.632   7.113   0.175
 4488SOL     OW13489   1.650   7.306   1.394
 4488SOL    HW113490   1.703   7.316   1.310
 4488SOL    HW213491   1.623   7.396   1.428
 4489SOL     OW13492   1.841   5.761   0.963
 4489SOL    HW113493   1.880   5.676   0.927
 4489SOL    HW213494   1.743   5.763   0.944
 4490SOL     OW13495   0.263   5.912   0.720
 4490SOL    HW113496   0.184   5.963   0.686
 4490SOL    HW213497   0.254   5.897   0.818
 4491SOL     OW13498   1.194   7.198   0.031
 4491SOL    HW113499   1.200   7.105   0.068
 4491SOL    HW213500   1.135   7.198  -0.049
 4492SOL     OW13501   0.822   6.588   1.372
 4492SOL    HW113502   0.862   6.587   1.280
 4492SOL    HW213503   0.832   6.680   1.412
 4493SOL     OW13504   0.916   6.496   0.291
 4493SOL    HW113505   0.979   6.534   0.223
 4493SOL    HW213506   0.956   6.413   0.330
 4494SOL     OW13507   1.504   7.193   0.044
 4494SOL    HW113508   1.412   7.230   0.051
 4494SOL    HW213509   1.542   7.213  -0.046
 4495SOL     OW13510   0.372   6.874   1.490
 4495SOL    HW113511   0.359   6.967   1.456
 4495SOL    HW213512   0.288   6.822   1.477
 4496SOL     OW13513   1.614   6.878   1.289
 4496SOL    HW113514   1.674   6.881   1.369
 4496SOL    HW213515   1.539   6.942   1.302
 4497SOL     OW13516   1.039   6.684   0.696
 4497SOL    HW113517   0.969   6.637   0.750
 4497SOL    HW213518   1.098   6.616   0.653
 4498SOL     OW13519   1.014   5.822   0.971
 4498SOL    HW113520   1.006   5.786   0.878
 4498SOL    HW213521   1.012   5.746   1.036
 4499SOL     OW13522   0.590   7.073   0.491
 4499SOL    HW113523   0.632   7.015   0.421
 4499SOL    HW213524   0.546   7.152   0.447
 4500SOL     OW13525   1.709   5.971   1.381
 4500SOL    HW113526   1.782   6.040   1.385
 4500SOL    HW213527   1.737   5.896   1.322
 4501SOL     OW13528   0.255   6.934   0.290
 4501SOL    HW113529   0.159   6.935   0.263
 4501SOL    HW213530   0.267   6.987   0.374
 4502SOL     OW13531   0.105   6.599   1.726
 4502SOL    HW113532   0.028   6.566   1.780
 4502SOL    HW213533   0.190   6.569   1.768
 4503SOL     OW13534   0.672   5.789   1.489
 4503SOL    HW113535   0.762   5.773   1.449
 4503SOL    HW213536   0.680   5.794   1.588
 4504SOL     OW13537   0.075   5.931   0.033
 4504SOL    HW113538  -0.017   5.903   0.004
 4504SOL    HW213539   0.106   6.008  -0.023
 4505SOL     OW13540   1.440   6.442   1.398
 4505SOL    HW113541   1.383   6.494   1.335
 4505SOL    HW213542   1.536   6.454   1.374
 4506SOL     OW13543   0.072   5.752   0.318
 4506SOL    HW113544   0.055   5.835   0.264
 4506SOL    HW213545   0.162   5.715   0.296
 4507SOL     OW13546   1.183   6.921   0.119
 4507SOL    HW113547   1.084   6.910   0.121
 4507SOL    HW213548   1.217   6.936   0.212
 4508SOL     OW13549   0.613   6.428   1.431
 4508SOL    HW113550   0.669   6.509   1.414
 4508SOL    HW213551   0.672   6.348   1.434
 4509SOL     OW13552   1.493   7.353   0.959
 4509SOL    HW113553   1.526   7.417   0.890
 4509SOL    HW213554   1.559   7.347   1.034
 4510SOL     OW13555   0.716   6.151   1.708
 4510SOL    HW113556   0.735   6.216   1.782
 4510SOL    HW213557   0.776   6.071   1.717
 4511SOL     OW13558   1.450   6.806   1.633
 4511SOL    HW113559   1.441   6.796   1.732
 4511SOL    HW213560   1.546   6.799   1.607
 4512SOL     OW13561   0.390   7.327   1.560
 4512SOL    HW113562   0.299   7.368   1.558
 4512SOL    HW213563   0.383   7.233   1.592
 4513SOL     OW13564   1.674   6.469   1.254
 4513SOL    HW113565   1.647   6.380   1.217
 4513SOL    HW213566   1.675   6.537   1.181
 4514SOL     OW13567   1.225   5.911   0.449
 4514SOL    HW113568   1.290   5.837   0.438
 4514SOL    HW213569   1.245   5.961   0.533
 4515SOL     OW13570   0.594   6.331   0.652
 4515SOL    HW113571   0.644   6.416   0.633
 4515SOL    HW213572   0.506   6.333   0.604
 4516SOL     OW13573   1.777   5.928   1.642
 4516SOL    HW113574   1.760   5.959   1.548
 4516SOL    HW213575   1.693   5.891   1.680
 4517SOL     OW13576   1.730   6.520   1.517
 4517SOL    HW113577   1.768   6.611   1.532
 4517SOL    HW213578   1.722   6.503   1.418
 4518SOL     OW13579   0.859   6.960   0.016
 4518SOL    HW113580   0.813   6.975   0.104
 4518SOL    HW213581   0.903   7.045  -0.014
 4519SOL     OW13582   0.661   7.376   0.953
 4519SOL    HW113583   0.615   7.464   0.940
 4519SOL    HW213584   0.760   7.388   0.946
 4520SOL     OW13585   0.859   6.542   0.861
 4520SOL    HW113586   0.913   6.473   0.909
 4520SOL    HW213587   0.827   6.611   0.927
 4521SOL     OW13588   1.083   6.570   0.087
 4521SOL    HW113589   1.060   6.623   0.005
 4521SOL    HW213590   1.164   6.514   0.068
 4522SOL     OW13591   1.861   7.155   0.851
 4522SOL    HW113592   1.790   7.143   0.781
 4522SOL    HW213593   1.862   7.076   0.911
 4523SOL     OW13594   0.221   6.900   1.844
 4523SOL    HW113595   0.156   6.827   1.823
 4523SOL    HW213596   0.225   6.914   1.942
 4524SOL     OW13597   0.079   6.826   0.653
 4524SOL    HW113598   0.078   6.779   0.741
 4524SOL    HW213599   0.161   6.798   0.602
 4525SOL     OW13600   0.672   6.977   1.624
 4525SOL    HW113601   0.594   6.927   1.662
 4525SOL    HW213602   0.669   7.072   1.655
 4526SOL     OW13603   1.824   5.778   1.227
 4526SOL    HW113604   1.820   5.688   1.271
 4526SOL    HW213605   1.827   5.767   1.128
 4527SOL     OW13606   0.428   6.010   0.520
 4527SOL    HW113607   0.458   5.938   0.458
 4527SOL    HW213608   0.389   5.970   0.603
 4528SOL     OW13609   1.705   7.073   1.104
 4528SOL    HW113610   1.612   7.048   1.077
 4528SOL    HW213611   1.731   7.023   1.186
 4529SOL     OW13612   0.317   6.133   1.280
 4529SOL    HW113613   0.355   6.074   1.352
 4529SOL    HW213614   0.357   6.107   1.192
 4530SOL     OW13615   0.812   7.172   0.687
 4530SOL    HW113616   0.844   7.182   0.593
 4530SOL    HW213617   0.733   7.110   0.689
 4531SOL     OW13618   1.424   5.800   1.112
 4531SOL    HW113619   1.476   5.735   1.167
 4531SOL    HW213620   1.375   5.863   1.173
 4532SOL     OW13621   1.001   5.620   1.154
 4532SOL    HW113622   0.938   5.548   1.123
 4532SOL    HW213623   1.094   5.584   1.154
 4533SOL     OW13624   0.770   6.916   0.301
 4533SOL    HW113625   0.724   6.829   0.318
 4533SOL    HW213626   0.861   6.913   0.342
 4534SOL     OW13627   0.618   7.153   1.284
 4534SOL    HW113628   0.613   7.235   1.341
 4534SOL    HW213629   0.707   7.150   1.239
 4535SOL     OW13630   1.352   5.638   0.168
 4535SOL    HW113631   1.387   5.597   0.084
 4535SOL    HW213632   1.262   5.600   0.188
 4536SOL     OW13633   1.300   6.039   0.691
 4536SOL    HW113634   1.241   6.119   0.695
 4536SOL    HW213635   1.315   6.004   0.784
 4537SOL     OW13636   1.593   5.807   0.882
 4537SOL    HW113637   1.509   5.806   0.936
 4537SOL    HW213638   1.595   5.890   0.826
 4538SOL     OW13639   0.039   6.663   0.300
 4538SOL    HW113640   0.138   6.652   0.291
 4538SOL    HW213641  -0.001   6.577   0.332
 4539SOL     OW13642   0.875   7.232   0.337
 4539SOL    HW113643   0.798   7.197   0.283
 4539SOL    HW213644   0.843   7.303   0.399
 4540SOL     OW13645   0.230   6.214   1.975
 4540SOL    HW113646   0.137   6.212   2.012
 4540SOL    HW213647   0.231   6.175   1.883
 4541SOL     OW13648   0.225   5.861   2.858
 4541SOL    HW113649   0.260   5.844   2.950
 4541SOL    HW213650   0.137   5.816   2.846
 4542SOL     OW13651   0.019   5.954   2.509
 4542SOL    HW113652  -0.063   5.997   2.548
 4542SOL    HW213653  -0.009   5.881   2.446
 4543SOL     OW13654   0.569   6.861   3.027
 4543SOL    HW113655   0.476   6.854   2.990
 4543SOL    HW213656   0.580   6.950   3.071
 4544SOL     OW13657   1.555   7.097   2.565
 4544SOL    HW113658   1.498   7.081   2.646
 4544SOL    HW213659   1.496   7.107   2.485
 4545SOL     OW13660   1.135   6.289   2.579
 4545SOL    HW113661   1.192   6.367   2.554
 4545SOL    HW213662   1.075   6.315   2.655
 4546SOL     OW13663   1.755   6.193   2.093
 4546SOL    HW113664   1.743   6.180   1.994
 4546SOL    HW213665   1.725   6.112   2.142
 4547SOL     OW13666   0.768   6.730   2.885
 4547SOL    HW113667   0.690   6.747   2.945
 4547SOL    HW213668   0.802   6.817   2.849
 4548SOL     OW13669   0.850   6.384   3.685
 4548SOL    HW113670   0.846   6.460   3.750
 4548SOL    HW213671   0.872   6.420   3.594
 4549SOL     OW13672   0.685   6.598   2.527
 4549SOL    HW113673   0.754   6.582   2.597
 4549SOL    HW213674   0.612   6.655   2.565
 4550SOL     OW13675   0.686   6.747   3.665
 4550SOL    HW113676   0.746   6.826   3.679
 4550SOL    HW213677   0.600   6.778   3.624
 4551SOL     OW13678   0.335   7.021   2.923
 4551SOL    HW113679   0.257   6.990   2.870
 4551SOL    HW213680   0.393   7.079   2.866
 4552SOL     OW13681   1.460   7.091   3.201
 4552SOL    HW113682   1.484   7.185   3.227
 4552SOL    HW213683   1.444   7.037   3.283
 4553SOL     OW13684   0.438   5.978   3.361
 4553SOL    HW113685   0.520   5.922   3.370
 4553SOL    HW213686   0.357   5.920   3.365
 4554SOL     OW13687   1.603   6.033   2.599
 4554SOL    HW113688   1.529   6.079   2.549
 4554SOL    HW213689   1.654   6.101   2.652
 4555SOL     OW13690   0.231   7.299   2.345
 4555SOL    HW113691   0.265   7.376   2.399
 4555SOL    HW213692   0.275   7.299   2.255
 4556SOL     OW13693   1.127   6.927   3.552
 4556SOL    HW113694   1.174   6.927   3.640
 4556SOL    HW213695   1.079   6.840   3.541
 4557SOL     OW13696   0.230   7.020   2.400
 4557SOL    HW113697   0.204   7.116   2.400
 4557SOL    HW213698   0.159   6.966   2.445
 4558SOL     OW13699   0.240   6.677   2.748
 4558SOL    HW113700   0.254   6.593   2.800
 4558SOL    HW213701   0.185   6.741   2.803
 4559SOL     OW13702   0.620   7.372   3.301
 4559SOL    HW113703   0.528   7.355   3.336
 4559SOL    HW213704   0.648   7.464   3.327
 4560SOL     OW13705   0.606   6.550   1.985
 4560SOL    HW113706   0.613   6.634   1.931
 4560SOL    HW213707   0.652   6.563   2.073
 4561SOL     OW13708   1.594   5.700   3.342
 4561SOL    HW113709   1.576   5.767   3.270
 4561SOL    HW213710   1.591   5.746   3.431
 4562SOL     OW13711   0.122   6.229   2.425
 4562SOL    HW113712   0.077   6.141   2.442
 4562SOL    HW213713   0.121   6.283   2.509
 4563SOL     OW13714   1.842   7.353   2.221
 4563SOL    HW113715   1.896   7.324   2.301
 4563SOL    HW213716   1.872   7.443   2.192
 4564SOL     OW13717   0.027   7.182   1.979
 4564SOL    HW113718   0.008   7.086   2.000
 4564SOL    HW213719  -0.006   7.240   2.054
 4565SOL     OW13720   1.689   6.508   2.474
 4565SOL    HW113721   1.784   6.479   2.482
 4565SOL    HW213722   1.681   6.573   2.399
 4566SOL     OW13723   1.641   6.694   2.294
 4566SOL    HW113724   1.727   6.696   2.242
 4566SOL    HW213725   1.655   6.741   2.382
 4567SOL     OW13726   0.113   6.323   3.459
 4567SOL    HW113727   0.201   6.310   3.504
 4567SOL    HW213728   0.100   6.420   3.437
 4568SOL     OW13729   0.613   6.951   2.588
 4568SOL    HW113730   0.564   6.864   2.597
 4568SOL    HW213731   0.590   6.994   2.501
 4569SOL     OW13732   1.293   6.814   3.285
 4569SOL    HW113733   1.330   6.741   3.227
 4569SOL    HW213734   1.345   6.819   3.370
 4570SOL     OW13735   0.809   5.590   2.364
 4570SOL    HW113736   0.849   5.681   2.355
 4570SOL    HW213737   0.709   5.598   2.370
 4571SOL     OW13738   0.197   6.562   3.126
 4571SOL    HW113739   0.286   6.517   3.112
 4571SOL    HW213740   0.124   6.497   3.107
 4572SOL     OW13741   1.525   6.585   2.052
 4572SOL    HW113742   1.462   6.509   2.065
 4572SOL    HW213743   1.573   6.603   2.138
 4573SOL     OW13744   1.187   7.378   3.478
 4573SOL    HW113745   1.211   7.438   3.402
 4573SOL    HW213746   1.194   7.283   3.448
 4574SOL     OW13747   0.317   5.837   3.663
 4574SOL    HW113748   0.388   5.908   3.669
 4574SOL    HW213749   0.229   5.876   3.691
 4575SOL     OW13750   1.466   7.003   2.815
 4575SOL    HW113751   1.407   7.009   2.895
 4575SOL    HW213752   1.451   6.915   2.769
 4576SOL     OW13753   1.667   7.300   2.434
 4576SOL    HW113754   1.626   7.277   2.346
 4576SOL    HW213755   1.649   7.226   2.499
 4577SOL     OW13756   0.598   6.315   2.132
 4577SOL    HW113757   0.622   6.384   2.064
 4577SOL    HW213758   0.520   6.348   2.186
 4578SOL     OW13759   1.281   5.931   2.806
 4578SOL    HW113760   1.195   5.881   2.793
 4578SOL    HW213761   1.343   5.877   2.862
 4579SOL     OW13762   1.576   7.248   2.169
 4579SOL    HW113763   1.665   7.294   2.172
 4579SOL    HW213764   1.555   7.224   2.074
 4580SOL     OW13765   0.807   6.191   3.327
 4580SOL    HW113766   0.760   6.188   3.416
 4580SOL    HW213767   0.756   6.136   3.261
 4581SOL     OW13768   1.394   6.055   3.536
 4581SOL    HW113769   1.374   6.098   3.624
 4581SOL    HW213770   1.472   5.993   3.545
 4582SOL     OW13771   0.973   6.476   3.434
 4582SOL    HW113772   1.019   6.392   3.405
 4582SOL    HW213773   0.917   6.510   3.359
 4583SOL     OW13774   0.991   5.996   3.104
 4583SOL    HW113775   0.914   6.030   3.158
 4583SOL    HW213776   0.957   5.945   3.025
 4584SOL     OW13777   1.041   6.287   2.291
 4584SOL    HW113778   1.067   6.283   2.387
 4584SOL    HW213779   0.956   6.236   2.277
 4585SOL     OW13780   0.076   6.397   2.651
 4585SOL    HW113781   0.175   6.385   2.660
 4585SOL    HW213782   0.052   6.492   2.672
 4586SOL     OW13783   0.130   7.407   3.433
 4586SOL    HW113784   0.120   7.392   3.532
 4586SOL    HW213785   0.044   7.443   3.397
 4587SOL     OW13786   0.865   5.934   2.057
 4587SOL    HW113787   0.924   5.997   2.008
 4587SOL    HW213788   0.884   5.840   2.028
 4588SOL     OW13789   1.719   6.171   3.693
 4588SOL    HW113790   1.693   6.260   3.657
 4588SOL    HW213791   1.717   6.103   3.620
 4589SOL     OW13792   1.362   6.730   2.407
 4589SOL    HW113793   1.445   6.701   2.359
 4589SOL    HW213794   1.313   6.797   2.351
 4590SOL     OW13795   0.550   5.782   2.747
 4590SOL    HW113796   0.545   5.777   2.847
 4590SOL    HW213797   0.552   5.878   2.718
 4591SOL     OW13798   1.008   7.042   2.339
 4591SOL    HW113799   0.962   7.114   2.287
 4591SOL    HW213800   1.004   7.062   2.437
 4592SOL     OW13801   0.351   7.387   2.715
 4592SOL    HW113802   0.401   7.301   2.721
 4592SOL    HW213803   0.416   7.464   2.712
 4593SOL     OW13804   1.795   6.652   2.735
 4593SOL    HW113805   1.733   6.637   2.659
 4593SOL    HW213806   1.743   6.663   2.820
 4594SOL     OW13807   1.227   7.136   3.368
 4594SOL    HW113808   1.233   7.059   3.432
 4594SOL    HW213809   1.175   7.110   3.288
 4595SOL     OW13810   0.321   6.529   2.104
 4595SOL    HW113811   0.403   6.568   2.062
 4595SOL    HW213812   0.294   6.447   2.055
 4596SOL     OW13813   1.458   6.321   2.590
 4596SOL    HW113814   1.453   6.256   2.665
 4596SOL    HW213815   1.538   6.380   2.603
 4597SOL     OW13816   0.461   6.852   3.589
 4597SOL    HW113817   0.411   6.853   3.503
 4597SOL    HW213818   0.398   6.834   3.665
 4598SOL     OW13819   1.111   7.362   2.099
 4598SOL    HW113820   1.051   7.300   2.149
 4598SOL    HW213821   1.142   7.318   2.014
 4599SOL     OW13822   0.202   5.871   3.360
 4599SOL    HW113823   0.122   5.931   3.347
 4599SOL    HW213824   0.192   5.822   3.446
 4600SOL     OW13825   1.632   6.963   1.943
 4600SOL    HW113826   1.600   7.057   1.933
 4600SOL    HW213827   1.556   6.900   1.931
 4601SOL     OW13828   0.464   7.329   2.185
 4601SOL    HW113829   0.497   7.368   2.271
 4601SOL    HW213830   0.540   7.322   2.120
 4602SOL     OW13831   1.400   5.693   2.288
 4602SOL    HW113832   1.376   5.656   2.198
 4602SOL    HW213833   1.499   5.709   2.292
 4603SOL     OW13834   0.249   7.371   3.103
 4603SOL    HW113835   0.306   7.306   3.153
 4603SOL    HW213836   0.233   7.338   3.010
 4604SOL     OW13837   0.940   7.284   2.766
 4604SOL    HW113838   1.020   7.227   2.787
 4604SOL    HW213839   0.891   7.244   2.689
 4605SOL     OW13840   0.382   6.286   2.342
 4605SOL    HW113841   0.427   6.196   2.339
 4605SOL    HW213842   0.288   6.275   2.375
 4606SOL     OW13843   1.547   5.808   3.591
 4606SOL    HW113844   1.542   5.845   3.683
 4606SOL    HW213845   1.475   5.739   3.579
 4607SOL     OW13846   0.614   5.708   1.979
 4607SOL    HW113847   0.712   5.686   1.986
 4607SOL    HW213848   0.583   5.691   1.886
 4608SOL     OW13849   0.781   5.850   3.611
 4608SOL    HW113850   0.848   5.789   3.654
 4608SOL    HW213851   0.708   5.869   3.676
 4609SOL     OW13852   0.888   7.100   3.057
 4609SOL    HW113853   0.865   7.075   2.963
 4609SOL    HW213854   0.949   7.031   3.096
 4610SOL     OW13855   1.351   6.176   3.295
 4610SOL    HW113856   1.379   6.133   3.380
 4610SOL    HW213857   1.376   6.272   3.296
 4611SOL     OW13858   0.803   6.988   2.786
 4611SOL    HW113859   0.893   7.002   2.744
 4611SOL    HW213860   0.732   6.990   2.715
 4612SOL     OW13861   0.922   6.089   2.761
 4612SOL    HW113862   0.897   6.080   2.665
 4612SOL    HW213863   0.970   6.007   2.792
 4613SOL     OW13864   0.539   5.650   2.374
 4613SOL    HW113865   0.458   5.651   2.432
 4613SOL    HW213866   0.542   5.733   2.319
 4614SOL     OW13867   1.434   6.774   1.903
 4614SOL    HW113868   1.466   6.698   1.960
 4614SOL    HW213869   1.342   6.801   1.933
 4615SOL     OW13870   0.297   5.621   2.033
 4615SOL    HW113871   0.346   5.705   2.012
 4615SOL    HW213872   0.359   5.556   2.078
 4616SOL     OW13873   0.935   5.822   2.342
 4616SOL    HW113874   0.887   5.863   2.264
 4616SOL    HW213875   1.034   5.820   2.323
 4617SOL     OW13876   1.076   6.269   3.326
 4617SOL    HW113877   0.996   6.208   3.329
 4617SOL    HW213878   1.157   6.216   3.302
 4618SOL     OW13879   1.227   7.156   2.655
 4618SOL    HW113880   1.248   7.230   2.590
 4618SOL    HW213881   1.295   7.156   2.728
 4619SOL     OW13882   0.459   6.738   2.603
 4619SOL    HW113883   0.388   6.711   2.668
 4619SOL    HW213884   0.433   6.710   2.510
 4620SOL     OW13885   1.271   7.383   2.453
 4620SOL    HW113886   1.315   7.447   2.389
 4620SOL    HW213887   1.221   7.435   2.523
 4621SOL     OW13888   1.032   6.135   1.878
 4621SOL    HW113889   0.991   6.217   1.839
 4621SOL    HW213890   1.096   6.161   1.951
 4622SOL     OW13891   0.078   6.142   3.248
 4622SOL    HW113892   0.170   6.141   3.207
 4622SOL    HW213893   0.072   6.216   3.315
 4623SOL     OW13894   0.561   5.808   3.009
 4623SOL    HW113895   0.599   5.724   3.046
 4623SOL    HW213896   0.473   5.827   3.053
 4624SOL     OW13897   0.866   6.040   2.504
 4624SOL    HW113898   0.834   6.112   2.442
 4624SOL    HW213899   0.890   5.959   2.451
 4625SOL     OW13900   1.017   5.625   2.615
 4625SOL    HW113901   0.945   5.630   2.546
 4625SOL    HW213902   0.993   5.556   2.684
 4626SOL     OW13903   1.429   6.759   2.729
 4626SOL    HW113904   1.374   6.675   2.722
 4626SOL    HW213905   1.455   6.788   2.637
 4627SOL     OW13906   1.466   6.176   2.854
 4627SOL    HW113907   1.436   6.081   2.861
 4627SOL    HW213908   1.539   6.192   2.920
 4628SOL     OW13909   1.857   6.419   2.239
 4628SOL    HW113910   1.899   6.355   2.303
 4628SOL    HW213911   1.819   6.368   2.161
 4629SOL     OW13912   0.488   6.971   2.036
 4629SOL    HW113913   0.401   6.956   2.083
 4629SOL    HW213914   0.471   6.997   1.941
 4630SOL     OW13915   1.664   6.866   2.519
 4630SOL    HW113916   1.763   6.874   2.533
 4630SOL    HW213917   1.619   6.950   2.550
 4631SOL     OW13918   1.390   6.161   1.940
 4631SOL    HW113919   1.336   6.140   2.021
 4631SOL    HW213920   1.481   6.120   1.949
 4632SOL     OW13921   0.527   5.842   2.190
 4632SOL    HW113922   0.554   5.783   2.115
 4632SOL    HW213923   0.527   5.937   2.159
 4633SOL     OW13924   1.754   6.809   3.450
 4633SOL    HW113925   1.845   6.770   3.437
 4633SOL    HW213926   1.762   6.905   3.474
 4634SOL     OW13927   1.064   6.933   3.202
 4634SOL    HW113928   0.984   6.910   3.257
 4634SOL    HW213929   1.147   6.907   3.251
 4635SOL     OW13930   1.592   7.215   3.487
 4635SOL    HW113931   1.619   7.249   3.397
 4635SOL    HW213932   1.671   7.177   3.533
 4636SOL     OW13933   1.111   6.781   2.962
 4636SOL    HW113934   1.071   6.825   3.043
 4636SOL    HW213935   1.070   6.818   2.879
 4637SOL     OW13936   1.638   6.685   2.941
 4637SOL    HW113937   1.643   6.766   3.000
 4637SOL    HW213938   1.552   6.687   2.890
 4638SOL     OW13939   0.915   5.675   3.264
 4638SOL    HW113940   0.940   5.655   3.169
 4638SOL    HW213941   0.987   5.731   3.306
 4639SOL     OW13942   0.980   6.702   3.581
 4639SOL    HW113943   0.881   6.708   3.591
 4639SOL    HW213944   1.003   6.622   3.525
 4640SOL     OW13945   0.705   6.636   2.230
 4640SOL    HW113946   0.691   6.643   2.329
 4640SOL    HW213947   0.789   6.585   2.212
 4641SOL     OW13948   0.410   6.399   3.113
 4641SOL    HW113949   0.496   6.411   3.163
 4641SOL    HW213950   0.368   6.312   3.140
 4642SOL     OW13951   1.274   5.972   3.124
 4642SOL    HW113952   1.295   6.046   3.188
 4642SOL    HW213953   1.185   5.989   3.081
 4643SOL     OW13954   0.064   7.150   3.193
 4643SOL    HW113955   0.018   7.232   3.159
 4643SOL    HW213956   0.162   7.169   3.202
 4644SOL     OW13957   0.367   6.686   2.363
 4644SOL    HW113958   0.360   6.769   2.307
 4644SOL    HW213959   0.371   6.606   2.303
 4645SOL     OW13960   0.566   6.123   2.727
 4645SOL    HW113961   0.578   6.189   2.653
 4645SOL    HW213962   0.612   6.157   2.810
 4646SOL     OW13963   1.252   6.934   2.250
 4646SOL    HW113964   1.302   7.011   2.290
 4646SOL    HW213965   1.157   6.936   2.282
 4647SOL     OW13966   1.272   7.031   3.004
 4647SOL    HW113967   1.319   7.044   3.091
 4647SOL    HW213968   1.206   6.957   3.013
 4648SOL     OW13969   1.582   6.225   2.334
 4648SOL    HW113970   1.551   6.286   2.407
 4648SOL    HW213971   1.632   6.277   2.265
 4649SOL     OW13972   0.354   7.096   3.191
 4649SOL    HW113973   0.333   7.052   3.104
 4649SOL    HW213974   0.451   7.122   3.194
 4650SOL     OW13975   0.402   6.337   3.460
 4650SOL    HW113976   0.470   6.392   3.413
 4650SOL    HW213977   0.442   6.249   3.487
 4651SOL     OW13978   1.587   6.365   3.532
 4651SOL    HW113979   1.495   6.403   3.527
 4651SOL    HW213980   1.647   6.412   3.467
 4652SOL     OW13981   1.013   5.691   3.632
 4652SOL    HW113982   1.019   5.776   3.580
 4652SOL    HW213983   1.045   5.615   3.575
 4653SOL     OW13984   0.504   5.636   3.602
 4653SOL    HW113985   0.462   5.579   3.532
 4653SOL    HW213986   0.438   5.705   3.634
 4654SOL     OW13987   0.573   6.456   2.891
 4654SOL    HW113988   0.617   6.545   2.882
 4654SOL    HW213989   0.510   6.456   2.968
 4655SOL     OW13990   1.360   6.448   2.907
 4655SOL    HW113991   1.285   6.448   2.841
 4655SOL    HW213992   1.397   6.356   2.916
 4656SOL     OW13993   1.209   6.111   2.137
 4656SOL    HW113994   1.222   6.027   2.191
 4656SOL    HW213995   1.180   6.185   2.197
 4657SOL     OW13996   0.307   5.799   3.093
 4657SOL    HW113997   0.284   5.836   3.183
 4657SOL    HW213998   0.277   5.704   3.087
 4658SOL     OW13999   0.037   6.896   3.144
 4658SOL    HW114000   0.090   6.847   3.212
 4658SOL    HW214001   0.059   6.994   3.149
 4659SOL     OW14002   0.732   6.220   2.926
 4659SOL    HW114003   0.791   6.194   2.850
 4659SOL    HW214004   0.704   6.316   2.915
 4660SOL     OW14005   1.728   6.521   3.716
 4660SOL    HW114006   1.682   6.514   3.627
 4660SOL    HW214007   1.666   6.565   3.782
 4661SOL     OW14008   0.307   5.649   2.480
 4661SOL    HW114009   0.296   5.743   2.513
 4661SOL    HW214010   0.302   5.586   2.557
 4662SOL     OW14011   1.622   5.953   2.236
 4662SOL    HW114012   1.624   5.877   2.300
 4662SOL    HW214013   1.574   6.030   2.276
 4663SOL     OW14014   1.023   6.352   2.828
 4663SOL    HW114015   1.038   6.373   2.924
 4663SOL    HW214016   0.993   6.257   2.819
 4664SOL     OW14017   0.980   7.159   3.562
 4664SOL    HW114018   0.960   7.203   3.474
 4664SOL    HW214019   1.019   7.068   3.546
 4665SOL     OW14020   1.859   7.104   3.467
 4665SOL    HW114021   1.873   7.131   3.372
 4665SOL    HW214022   1.942   7.126   3.520
 4666SOL     OW14023   0.350   6.484   3.666
 4666SOL    HW114024   0.426   6.528   3.714
 4666SOL    HW214025   0.385   6.437   3.584
 4667SOL     OW14026   1.540   5.860   1.987
 4667SOL    HW114027   1.479   5.785   2.010
 4667SOL    HW214028   1.562   5.912   2.070
 4668SOL     OW14029   1.303   6.424   1.904
 4668SOL    HW114030   1.337   6.331   1.919
 4668SOL    HW214031   1.321   6.451   1.809
 4669SOL     OW14032   1.068   6.919   2.711
 4669SOL    HW114033   1.075   6.835   2.656
 4669SOL    HW214034   1.130   6.988   2.675
 4670SOL     OW14035   0.319   6.396   2.811
 4670SOL    HW114036   0.412   6.432   2.816
 4670SOL    HW214037   0.313   6.311   2.863
 4671SOL     OW14038   0.339   6.095   2.868
 4671SOL    HW114039   0.287   6.012   2.851
 4671SOL    HW214040   0.416   6.100   2.804
 4672SOL     OW14041   1.138   5.966   3.540
 4672SOL    HW114042   1.093   6.029   3.604
 4672SOL    HW214043   1.231   5.997   3.523
 4673SOL     OW14044   1.160   5.793   3.339
 4673SOL    HW114045   1.160   5.857   3.416
 4673SOL    HW214046   1.188   5.841   3.256
 4674SOL     OW14047   0.008   6.912   2.062
 4674SOL    HW114048  -0.085   6.933   2.031
 4674SOL    HW214049   0.018   6.813   2.075
 4675SOL     OW14050   0.088   7.387   2.789
 4675SOL    HW114051   0.046   7.301   2.762
 4675SOL    HW214052   0.182   7.390   2.755
 4676SOL     OW14053   0.504   7.154   2.772
 4676SOL    HW114054   0.570   7.228   2.781
 4676SOL    HW214055   0.548   7.075   2.730
 4677SOL     OW14056   1.002   6.382   3.100
 4677SOL    HW114057   1.043   6.350   3.186
 4677SOL    HW214058   0.906   6.355   3.097
 4678SOL     OW14059   0.040   6.130   2.976
 4678SOL    HW114060   0.125   6.097   2.935
 4678SOL    HW214061   0.053   6.145   3.074
 4679SOL     OW14062   0.189   6.106   3.584
 4679SOL    HW114063   0.248   6.066   3.514
 4679SOL    HW214064   0.131   6.177   3.543
 4680SOL     OW14065   1.369   6.536   3.522
 4680SOL    HW114066   1.408   6.625   3.542
 4680SOL    HW214067   1.379   6.516   3.425
 4681SOL     OW14068   0.815   6.158   2.187
 4681SOL    HW114069   0.822   6.069   2.141
 4681SOL    HW214070   0.721   6.192   2.179
 4682SOL     OW14071   1.657   6.190   3.068
 4682SOL    HW114072   1.619   6.121   3.130
 4682SOL    HW214073   1.739   6.154   3.024
 4683SOL     OW14074   0.252   7.150   3.606
 4683SOL    HW114075   0.222   7.207   3.682
 4683SOL    HW214076   0.245   7.053   3.632
 4684SOL     OW14077   0.671   6.050   3.131
 4684SOL    HW114078   0.637   5.961   3.101
 4684SOL    HW214079   0.697   6.104   3.051
 4685SOL     OW14080   0.930   7.264   3.327
 4685SOL    HW114081   0.906   7.246   3.232
 4685SOL    HW214082   0.960   7.358   3.337
 4686SOL     OW14083   0.473   6.086   2.053
 4686SOL    HW114084   0.534   6.166   2.057
 4686SOL    HW214085   0.378   6.117   2.060
 4687SOL     OW14086   0.159   6.723   3.328
 4687SOL    HW114087   0.181   6.662   3.404
 4687SOL    HW214088   0.169   6.674   3.242
 4688SOL     OW14089   1.347   6.645   3.096
 4688SOL    HW114090   1.371   6.582   3.022
 4688SOL    HW214091   1.257   6.685   3.078
 4689SOL     OW14092   1.302   6.441   2.171
 4689SOL    HW114093   1.216   6.410   2.213
 4689SOL    HW214094   1.298   6.427   2.072
 4690SOL     OW14095   1.759   7.333   3.016
 4690SOL    HW114096   1.820   7.363   2.943
 4690SOL    HW214097   1.721   7.244   2.994
 4691SOL     OW14098   1.252   7.317   2.990
 4691SOL    HW114099   1.336   7.322   2.936
 4691SOL    HW214100   1.229   7.221   3.008
 4692SOL     OW14101   0.083   6.844   2.884
 4692SOL    HW114102   0.078   6.843   2.984
 4692SOL    HW214103   0.000   6.803   2.846
 4693SOL     OW14104   0.688   7.248   3.578
 4693SOL    HW114105   0.632   7.329   3.587
 4693SOL    HW214106   0.740   7.252   3.492
 4694SOL     OW14107   1.726   5.721   2.385
 4694SOL    HW114108   1.799   5.704   2.318
 4694SOL    HW214109   1.695   5.634   2.423
 4695SOL     OW14110   1.388   7.159   2.339
 4695SOL    HW114111   1.455   7.171   2.265
 4695SOL    HW214112   1.348   7.248   2.362
 4696SOL     OW14113   0.130   7.380   3.713
 4696SOL    HW114114   0.089   7.306   3.766
 4696SOL    HW214115   0.194   7.431   3.771
 4697SOL     OW14116   1.280   6.513   2.534
 4697SOL    HW114117   1.340   6.432   2.536
 4697SOL    HW214118   1.320   6.582   2.474
 4698SOL     OW14119   0.830   6.859   3.284
 4698SOL    HW114120   0.825   6.892   3.379
 4698SOL    HW214121   0.744   6.878   3.238
 4699SOL     OW14122   0.672   7.202   2.016
 4699SOL    HW114123   0.681   7.212   1.917
 4699SOL    HW214124   0.632   7.113   2.037
 4700SOL     OW14125   1.650   7.306   3.256
 4700SOL    HW114126   1.703   7.316   3.172
 4700SOL    HW214127   1.623   7.396   3.290
 4701SOL     OW14128   1.841   5.761   2.825
 4701SOL    HW114129   1.880   5.676   2.789
 4701SOL    HW214130   1.743   5.763   2.806
 4702SOL     OW14131   0.263   5.912   2.582
 4702SOL    HW114132   0.184   5.963   2.548
 4702SOL    HW214133   0.254   5.897   2.680
 4703SOL     OW14134   1.194   7.198   1.893
 4703SOL    HW114135   1.200   7.105   1.930
 4703SOL    HW214136   1.135   7.198   1.813
 4704SOL     OW14137   0.822   6.588   3.234
 4704SOL    HW114138   0.862   6.587   3.142
 4704SOL    HW214139   0.832   6.680   3.274
 4705SOL     OW14140   0.916   6.496   2.153
 4705SOL    HW114141   0.979   6.534   2.085
 4705SOL    HW214142   0.956   6.413   2.192
 4706SOL     OW14143   1.504   7.193   1.906
 4706SOL    HW114144   1.412   7.230   1.913
 4706SOL    HW214145   1.542   7.213   1.816
 4707SOL     OW14146   0.372   6.874   3.352
 4707SOL    HW114147   0.359   6.967   3.318
 4707SOL    HW214148   0.288   6.822   3.339
 4708SOL     OW14149   1.614   6.878   3.151
 4708SOL    HW114150   1.674   6.881   3.231
 4708SOL    HW214151   1.539   6.942   3.164
 4709SOL     OW14152   1.039   6.684   2.558
 4709SOL    HW114153   0.969   6.637   2.612
 4709SOL    HW214154   1.098   6.616   2.515
 4710SOL     OW14155   1.014   5.822   2.833
 4710SOL    HW114156   1.006   5.786   2.740
 4710SOL    HW214157   1.012   5.746   2.898
 4711SOL     OW14158   0.590   7.073   2.353
 4711SOL    HW114159   0.632   7.015   2.283
 4711SOL    HW214160   0.546   7.152   2.309
 4712SOL     OW14161   1.709   5.971   3.243
 4712SOL    HW114162   1.782   6.040   3.247
 4712SOL    HW214163   1.737   5.896   3.184
 4713SOL     OW14164   0.255   6.934   2.152
 4713SOL    HW114165   0.159   6.935   2.125
 4713SOL    HW214166   0.267   6.987   2.236
 4714SOL     OW14167   0.105   6.599   3.588
 4714SOL    HW114168   0.028   6.566   3.642
 4714SOL    HW214169   0.190   6.569   3.630
 4715SOL     OW14170   0.672   5.789   3.351
 4715SOL    HW114171   0.762   5.773   3.311
 4715SOL    HW214172   0.680   5.794   3.450
 4716SOL     OW14173   0.075   5.931   1.895
 4716SOL    HW114174  -0.017   5.903   1.866
 4716SOL    HW214175   0.106   6.008   1.839
 4717SOL     OW14176   1.440   6.442   3.260
 4717SOL    HW114177   1.383   6.494   3.197
 4717SOL    HW214178   1.536   6.454   3.236
 4718SOL     OW14179   0.072   5.752   2.180
 4718SOL    HW114180   0.055   5.835   2.126
 4718SOL    HW214181   0.162   5.715   2.158
 4719SOL     OW14182   1.183   6.921   1.981
 4719SOL    HW114183   1.084   6.910   1.983
 4719SOL    HW214184   1.217   6.936   2.074
 4720SOL     OW14185   0.613   6.428   3.293
 4720SOL    HW114186   0.669   6.509   3.276
 4720SOL    HW214187   0.672   6.348   3.296
 4721SOL     OW14188   1.493   7.353   2.821
 4721SOL    HW114189   1.526   7.417   2.752
 4721SOL    HW214190   1.559   7.347   2.896
 4722SOL     OW14191   0.716   6.151   3.570
 4722SOL    HW114192   0.735   6.216   3.644
 4722SOL    HW214193   0.776   6.071   3.579
 4723SOL     OW14194   1.450   6.806   3.495
 4723SOL    HW114195   1.441   6.796   3.594
 4723SOL    HW214196   1.546   6.799   3.469
 4724SOL     OW14197   0.390   7.327   3.422
 4724SOL    HW114198   0.299   7.368   3.420
 4724SOL    HW214199   0.383   7.233   3.454
 4725SOL     OW14200   1.674   6.469   3.116
 4725SOL    HW114201   1.647   6.380   3.079
 4725SOL    HW214202   1.675   6.537   3.043
 4726SOL     OW14203   1.225   5.911   2.311
 4726SOL    HW114204   1.290   5.837   2.300
 4726SOL    HW214205   1.245   5.961   2.395
 4727SOL     OW14206   0.594   6.331   2.514
 4727SOL    HW114207   0.644   6.416   2.495
 4727SOL    HW214208   0.506   6.333   2.466
 4728SOL     OW14209   1.777   5.928   3.504
 4728SOL    HW114210   1.760   5.959   3.410
 4728SOL    HW214211   1.693   5.891   3.542
 4729SOL     OW14212   1.730   6.520   3.379
 4729SOL    HW114213   1.768   6.611   3.394
 4729SOL    HW214214   1.722   6.503   3.280
 4730SOL     OW14215   0.859   6.960   1.878
 4730SOL    HW114216   0.813   6.975   1.966
 4730SOL    HW214217   0.903   7.045   1.848
 4731SOL     OW14218   0.661   7.376   2.815
 4731SOL    HW114219   0.615   7.464   2.802
 4731SOL    HW214220   0.760   7.388   2.808
 4732SOL     OW14221   0.859   6.542   2.723
 4732SOL    HW114222   0.913   6.473   2.771
 4732SOL    HW214223   0.827   6.611   2.789
 4733SOL     OW14224   1.083   6.570   1.949
 4733SOL    HW114225   1.060   6.623   1.867
 4733SOL    HW214226   1.164   6.514   1.930
 4734SOL     OW14227   1.861   7.155   2.713
 4734SOL    HW114228   1.790   7.143   2.643
 4734SOL    HW214229   1.862   7.076   2.773
 4735SOL     OW14230   0.221   6.900   3.706
 4735SOL    HW114231   0.156   6.827   3.685
 4735SOL    HW214232   0.225   6.914   3.804
 4736SOL     OW14233   0.079   6.826   2.515
 4736SOL    HW114234   0.078   6.779   2.603
 4736SOL    HW214235   0.161   6.798   2.464
 4737SOL     OW14236   0.672   6.977   3.486
 4737SOL    HW114237   0.594   6.927   3.524
 4737SOL    HW214238   0.669   7.072   3.517
 4738SOL     OW14239   1.824   5.778   3.089
 4738SOL    HW114240   1.820   5.688   3.133
 4738SOL    HW214241   1.827   5.767   2.990
 4739SOL     OW14242   0.428   6.010   2.382
 4739SOL    HW114243   0.458   5.938   2.320
 4739SOL    HW214244   0.389   5.970   2.465
 4740SOL     OW14245   1.705   7.073   2.966
 4740SOL    HW114246   1.612   7.048   2.939
 4740SOL    HW214247   1.731   7.023   3.048
 4741SOL     OW14248   0.317   6.133   3.142
 4741SOL    HW114249   0.355   6.074   3.214
 4741SOL    HW214250   0.357   6.107   3.054
 4742SOL     OW14251   0.812   7.172   2.549
 4742SOL    HW114252   0.844   7.182   2.455
 4742SOL    HW214253   0.733   7.110   2.551
 4743SOL     OW14254   1.424   5.800   2.974
 4743SOL    HW114255   1.476   5.735   3.029
 4743SOL    HW214256   1.375   5.863   3.035
 4744SOL     OW14257   1.001   5.620   3.016
 4744SOL    HW114258   0.938   5.548   2.985
 4744SOL    HW214259   1.094   5.584   3.016
 4745SOL     OW14260   0.770   6.916   2.163
 4745SOL    HW114261   0.724   6.829   2.180
 4745SOL    HW214262   0.861   6.913   2.204
 4746SOL     OW14263   0.618   7.153   3.146
 4746SOL    HW114264   0.613   7.235   3.203
 4746SOL    HW214265   0.707   7.150   3.101
 4747SOL     OW14266   1.352   5.638   2.030
 4747SOL    HW114267   1.387   5.597   1.946
 4747SOL    HW214268   1.262   5.600   2.050
 4748SOL     OW14269   1.300   6.039   2.553
 4748SOL    HW114270   1.241   6.119   2.557
 4748SOL    HW214271   1.315   6.004   2.646
 4749SOL     OW14272   1.593   5.807   2.744
 4749SOL    HW114273   1.509   5.806   2.798
 4749SOL    HW214274   1.595   5.890   2.688
 4750SOL     OW14275   0.039   6.663   2.162
 4750SOL    HW114276   0.138   6.652   2.153
 4750SOL    HW214277  -0.001   6.577   2.194
 4751SOL     OW14278   0.875   7.232   2.199
 4751SOL    HW114279   0.798   7.197   2.145
 4751SOL    HW214280   0.843   7.303   2.261
 4752SOL     OW14281   0.230   6.214   3.837
 4752SOL    HW114282   0.137   6.212   3.874
 4752SOL    HW214283   0.231   6.175   3.745
 4753SOL     OW14284   0.225   5.861   4.720
 4753SOL    HW114285   0.260   5.844   4.812
 4753SOL    HW214286   0.137   5.816   4.708
 4754SOL     OW14287   0.019   5.954   4.371
 4754SOL    HW114288  -0.063   5.997   4.410
 4754SOL    HW214289  -0.009   5.881   4.308
 4755SOL     OW14290   0.569   6.861   4.889
 4755SOL    HW114291   0.476   6.854   4.852
 4755SOL    HW214292   0.580   6.950   4.933
 4756SOL     OW14293   1.555   7.097   4.427
 4756SOL    HW114294   1.498   7.081   4.508
 4756SOL    HW214295   1.496   7.107   4.347
 4757SOL     OW14296   1.135   6.289   4.441
 4757SOL    HW114297   1.192   6.367   4.416
 4757SOL    HW214298   1.075   6.315   4.517
 4758SOL     OW14299   1.755   6.193   3.955
 4758SOL    HW114300   1.743   6.180   3.856
 4758SOL    HW214301   1.725   6.112   4.004
 4759SOL     OW14302   0.768   6.730   4.747
 4759SOL    HW114303   0.690   6.747   4.807
 4759SOL    HW214304   0.802   6.817   4.711
 4760SOL     OW14305   0.850   6.384   5.547
 4760SOL    HW114306   0.846   6.460   5.612
 4760SOL    HW214307   0.872   6.420   5.456
 4761SOL     OW14308   0.685   6.598   4.389
 4761SOL    HW114309   0.754   6.582   4.459
 4761SOL    HW214310   0.612   6.655   4.427
 4762SOL     OW14311   0.686   6.747   5.527
 4762SOL    HW114312   0.746   6.826   5.541
 4762SOL    HW214313   0.600   6.778   5.486
 4763SOL     OW14314   0.335   7.021   4.785
 4763SOL    HW114315   0.257   6.990   4.732
 4763SOL    HW214316   0.393   7.079   4.728
 4764SOL     OW14317   1.460   7.091   5.063
 4764SOL    HW114318   1.484   7.185   5.089
 4764SOL    HW214319   1.444   7.037   5.145
 4765SOL     OW14320   0.438   5.978   5.223
 4765SOL    HW114321   0.520   5.922   5.232
 4765SOL    HW214322   0.357   5.920   5.227
 4766SOL     OW14323   1.603   6.033   4.461
 4766SOL    HW114324   1.529   6.079   4.411
 4766SOL    HW214325   1.654   6.101   4.514
 4767SOL     OW14326   0.231   7.299   4.207
 4767SOL    HW114327   0.265   7.376   4.261
 4767SOL    HW214328   0.275   7.299   4.117
 4768SOL     OW14329   1.127   6.927   5.414
 4768SOL    HW114330   1.174   6.927   5.502
 4768SOL    HW214331   1.079   6.840   5.403
 4769SOL     OW14332   0.230   7.020   4.262
 4769SOL    HW114333   0.204   7.116   4.262
 4769SOL    HW214334   0.159   6.966   4.307
 4770SOL     OW14335   0.240   6.677   4.610
 4770SOL    HW114336   0.254   6.593   4.662
 4770SOL    HW214337   0.185   6.741   4.665
 4771SOL     OW14338   0.620   7.372   5.163
 4771SOL    HW114339   0.528   7.355   5.198
 4771SOL    HW214340   0.648   7.464   5.189
 4772SOL     OW14341   0.606   6.550   3.847
 4772SOL    HW114342   0.613   6.634   3.793
 4772SOL    HW214343   0.652   6.563   3.935
 4773SOL     OW14344   1.594   5.700   5.204
 4773SOL    HW114345   1.576   5.767   5.132
 4773SOL    HW214346   1.591   5.746   5.293
 4774SOL     OW14347   0.122   6.229   4.287
 4774SOL    HW114348   0.077   6.141   4.304
 4774SOL    HW214349   0.121   6.283   4.371
 4775SOL     OW14350   1.842   7.353   4.083
 4775SOL    HW114351   1.896   7.324   4.163
 4775SOL    HW214352   1.872   7.443   4.054
 4776SOL     OW14353   0.027   7.182   3.841
 4776SOL    HW114354   0.008   7.086   3.862
 4776SOL    HW214355  -0.006   7.240   3.916
 4777SOL     OW14356   1.689   6.508   4.336
 4777SOL    HW114357   1.784   6.479   4.344
 4777SOL    HW214358   1.681   6.573   4.261
 4778SOL     OW14359   1.641   6.694   4.156
 4778SOL    HW114360   1.727   6.696   4.104
 4778SOL    HW214361   1.655   6.741   4.244
 4779SOL     OW14362   0.113   6.323   5.321
 4779SOL    HW114363   0.201   6.310   5.366
 4779SOL    HW214364   0.100   6.420   5.299
 4780SOL     OW14365   0.613   6.951   4.450
 4780SOL    HW114366   0.564   6.864   4.459
 4780SOL    HW214367   0.590   6.994   4.363
 4781SOL     OW14368   1.293   6.814   5.147
 4781SOL    HW114369   1.330   6.741   5.089
 4781SOL    HW214370   1.345   6.819   5.232
 4782SOL     OW14371   0.809   5.590   4.226
 4782SOL    HW114372   0.849   5.681   4.217
 4782SOL    HW214373   0.709   5.598   4.232
 4783SOL     OW14374   0.197   6.562   4.988
 4783SOL    HW114375   0.286   6.517   4.974
 4783SOL    HW214376   0.124   6.497   4.969
 4784SOL     OW14377   1.525   6.585   3.914
 4784SOL    HW114378   1.462   6.509   3.927
 4784SOL    HW214379   1.573   6.603   4.000
 4785SOL     OW14380   1.187   7.378   5.340
 4785SOL    HW114381   1.211   7.438   5.264
 4785SOL    HW214382   1.194   7.283   5.310
 4786SOL     OW14383   0.317   5.837   5.525
 4786SOL    HW114384   0.388   5.908   5.531
 4786SOL    HW214385   0.229   5.876   5.553
 4787SOL     OW14386   1.466   7.003   4.677
 4787SOL    HW114387   1.407   7.009   4.757
 4787SOL    HW214388   1.451   6.915   4.631
 4788SOL     OW14389   1.667   7.300   4.296
 4788SOL    HW114390   1.626   7.277   4.208
 4788SOL    HW214391   1.649   7.226   4.361
 4789SOL     OW14392   0.598   6.315   3.994
 4789SOL    HW114393   0.622   6.384   3.926
 4789SOL    HW214394   0.520   6.348   4.048
 4790SOL     OW14395   1.281   5.931   4.668
 4790SOL    HW114396   1.195   5.881   4.655
 4790SOL    HW214397   1.343   5.877   4.724
 4791SOL     OW14398   1.576   7.248   4.031
 4791SOL    HW114399   1.665   7.294   4.034
 4791SOL    HW214400   1.555   7.224   3.936
 4792SOL     OW14401   0.807   6.191   5.189
 4792SOL    HW114402   0.760   6.188   5.278
 4792SOL    HW214403   0.756   6.136   5.123
 4793SOL     OW14404   1.394   6.055   5.398
 4793SOL    HW114405   1.374   6.098   5.486
 4793SOL    HW214406   1.472   5.993   5.407
 4794SOL     OW14407   0.973   6.476   5.296
 4794SOL    HW114408   1.019   6.392   5.267
 4794SOL    HW214409   0.917   6.510   5.221
 4795SOL     OW14410   0.991   5.996   4.966
 4795SOL    HW114411   0.914   6.030   5.020
 4795SOL    HW214412   0.957   5.945   4.887
 4796SOL     OW14413   0.076   6.397   4.513
 4796SOL    HW114414   0.175   6.385   4.522
 4796SOL    HW214415   0.052   6.492   4.534
 4797SOL     OW14416   0.130   7.407   5.295
 4797SOL    HW114417   0.120   7.392   5.394
 4797SOL    HW214418   0.044   7.443   5.259
 4798SOL     OW14419   0.865   5.934   3.919
 4798SOL    HW114420   0.924   5.997   3.870
 4798SOL    HW214421   0.884   5.840   3.890
 4799SOL     OW14422   1.719   6.171   5.555
 4799SOL    HW114423   1.693   6.260   5.519
 4799SOL    HW214424   1.717   6.103   5.482
 4800SOL     OW14425   1.362   6.730   4.269
 4800SOL    HW114426   1.445   6.701   4.221
 4800SOL    HW214427   1.313   6.797   4.213
 4801SOL     OW14428   0.550   5.782   4.609
 4801SOL    HW114429   0.545   5.777   4.709
 4801SOL    HW214430   0.552   5.878   4.580
 4802SOL     OW14431   1.008   7.042   4.201
 4802SOL    HW114432   0.962   7.114   4.149
 4802SOL    HW214433   1.004   7.062   4.299
 4803SOL     OW14434   0.351   7.387   4.577
 4803SOL    HW114435   0.401   7.301   4.583
 4803SOL    HW214436   0.416   7.464   4.574
 4804SOL     OW14437   1.795   6.652   4.597
 4804SOL    HW114438   1.733   6.637   4.521
 4804SOL    HW214439   1.743   6.663   4.682
 4805SOL     OW14440   1.227   7.136   5.230
 4805SOL    HW114441   1.233   7.059   5.294
 4805SOL    HW214442   1.175   7.110   5.150
 4806SOL     OW14443   0.321   6.529   3.966
 4806SOL    HW114444   0.403   6.568   3.924
 4806SOL    HW214445   0.294   6.447   3.917
 4807SOL     OW14446   1.458   6.321   4.452
 4807SOL    HW114447   1.453   6.256   4.527
 4807SOL    HW214448   1.538   6.380   4.465
 4808SOL     OW14449   0.461   6.852   5.451
 4808SOL    HW114450   0.411   6.853   5.365
 4808SOL    HW214451   0.398   6.834   5.527
 4809SOL     OW14452   1.111   7.362   3.961
 4809SOL    HW114453   1.051   7.300   4.011
 4809SOL    HW214454   1.142   7.318   3.876
 4810SOL     OW14455   0.202   5.871   5.222
 4810SOL    HW114456   0.122   5.931   5.209
 4810SOL    HW214457   0.192   5.822   5.308
 4811SOL     OW14458   1.632   6.963   3.805
 4811SOL    HW114459   1.600   7.057   3.795
 4811SOL    HW214460   1.556   6.900   3.793
 4812SOL     OW14461   0.464   7.329   4.047
 4812SOL    HW114462   0.497   7.368   4.133
 4812SOL    HW214463   0.540   7.322   3.982
 4813SOL     OW14464   1.400   5.693   4.150
 4813SOL    HW114465   1.376   5.656   4.060
 4813SOL    HW214466   1.499   5.709   4.154
 4814SOL     OW14467   0.249   7.371   4.965
 4814SOL    HW114468   0.306   7.306   5.015
 4814SOL    HW214469   0.233   7.338   4.872
 4815SOL     OW14470   0.940   7.284   4.628
 4815SOL    HW114471   1.020   7.227   4.649
 4815SOL    HW214472   0.891   7.244   4.551
 4816SOL     OW14473   0.382   6.286   4.204
 4816SOL    HW114474   0.427   6.196   4.201
 4816SOL    HW214475   0.288   6.275   4.237
 4817SOL     OW14476   1.547   5.808   5.453
 4817SOL    HW114477   1.542   5.845   5.545
 4817SOL    HW214478   1.475   5.739   5.441
 4818SOL     OW14479   0.614   5.708   3.841
 4818SOL    HW114480   0.712   5.686   3.848
 4818SOL    HW214481   0.583   5.691   3.748
 4819SOL     OW14482   0.781   5.850   5.473
 4819SOL    HW114483   0.848   5.789   5.516
 4819SOL    HW214484   0.708   5.869   5.538
 4820SOL     OW14485   0.888   7.100   4.919
 4820SOL    HW114486   0.865   7.075   4.825
 4820SOL    HW214487   0.949   7.031   4.958
 4821SOL     OW14488   1.351   6.176   5.157
 4821SOL    HW114489   1.379   6.133   5.242
 4821SOL    HW214490   1.376   6.272   5.158
 4822SOL     OW14491   0.803   6.988   4.648
 4822SOL    HW114492   0.893   7.002   4.606
 4822SOL    HW214493   0.732   6.990   4.577
 4823SOL     OW14494   0.922   6.089   4.623
 4823SOL    HW114495   0.897   6.080   4.527
 4823SOL    HW214496   0.970   6.007   4.654
 4824SOL     OW14497   0.539   5.650   4.236
 4824SOL    HW114498   0.458   5.651   4.294
 4824SOL    HW214499   0.542   5.733   4.181
 4825SOL     OW14500   1.434   6.774   3.765
 4825SOL    HW114501   1.466   6.698   3.822
 4825SOL    HW214502   1.342   6.801   3.795
 4826SOL     OW14503   0.297   5.621   3.895
 4826SOL    HW114504   0.346   5.705   3.874
 4826SOL    HW214505   0.359   5.556   3.940
 4827SOL     OW14506   0.935   5.822   4.204
 4827SOL    HW114507   0.887   5.863   4.126
 4827SOL    HW214508   1.034   5.820   4.185
 4828SOL     OW14509   1.076   6.269   5.188
 4828SOL    HW114510   0.996   6.208   5.191
 4828SOL    HW214511   1.157   6.216   5.164
 4829SOL     OW14512   1.227   7.156   4.517
 4829SOL    HW114513   1.248   7.230   4.452
 4829SOL    HW214514   1.295   7.156   4.590
 4830SOL     OW14515   0.459   6.738   4.465
 4830SOL    HW114516   0.388   6.711   4.530
 4830SOL    HW214517   0.433   6.710   4.372
 4831SOL     OW14518   1.271   7.383   4.315
 4831SOL    HW114519   1.315   7.447   4.251
 4831SOL    HW214520   1.221   7.435   4.385
 4832SOL     OW14521   1.032   6.135   3.740
 4832SOL    HW114522   0.991   6.217   3.701
 4832SOL    HW214523   1.096   6.161   3.813
 4833SOL     OW14524   0.078   6.142   5.110
 4833SOL    HW114525   0.170   6.141   5.069
 4833SOL    HW214526   0.072   6.216   5.177
 4834SOL     OW14527   0.561   5.808   4.871
 4834SOL    HW114528   0.599   5.724   4.908
 4834SOL    HW214529   0.473   5.827   4.915
 4835SOL     OW14530   0.866   6.040   4.366
 4835SOL    HW114531   0.834   6.112   4.304
 4835SOL    HW214532   0.890   5.959   4.313
 4836SOL     OW14533   1.017   5.625   4.477
 4836SOL    HW114534   0.945   5.630   4.408
 4836SOL    HW214535   0.993   5.556   4.546
 4837SOL     OW14536   1.429   6.759   4.591
 4837SOL    HW114537   1.374   6.675   4.584
 4837SOL    HW214538   1.455   6.788   4.499
 4838SOL     OW14539   1.466   6.176   4.716
 4838SOL    HW114540   1.436   6.081   4.723
 4838SOL    HW214541   1.539   6.192   4.782
 4839SOL     OW14542   1.857   6.419   4.101
 4839SOL    HW114543   1.899   6.355   4.165
 4839SOL    HW214544   1.819   6.368   4.023
 4840SOL     OW14545   0.488   6.971   3.898
 4840SOL    HW114546   0.401   6.956   3.945
 4840SOL    HW214547   0.471   6.997   3.803
 4841SOL     OW14548   1.664   6.866   4.381
 4841SOL    HW114549   1.763   6.874   4.395
 4841SOL    HW214550   1.619   6.950   4.412
 4842SOL     OW14551   1.390   6.161   3.802
 4842SOL    HW114552   1.336   6.140   3.883
 4842SOL    HW214553   1.481   6.120   3.811
 4843SOL     OW14554   0.527   5.842   4.052
 4843SOL    HW114555   0.554   5.783   3.977
 4843SOL    HW214556   0.527   5.937   4.021
 4844SOL     OW14557   1.754   6.809   5.312
 4844SOL    HW114558   1.845   6.770   5.299
 4844SOL    HW214559   1.762   6.905   5.336
 4845SOL     OW14560   1.064   6.933   5.064
 4845SOL    HW114561   0.984   6.910   5.119
 4845SOL    HW214562   1.147   6.907   5.113
 4846SOL     OW14563   1.592   7.215   5.349
 4846SOL    HW114564   1.619   7.249   5.259
 4846SOL    HW214565   1.671   7.177   5.395
 4847SOL     OW14566   1.638   6.685   4.803
 4847SOL    HW114567   1.643   6.766   4.862
 4847SOL    HW214568   1.552   6.687   4.752
 4848SOL     OW14569   0.915   5.675   5.126
 4848SOL    HW114570   0.940   5.655   5.031
 4848SOL    HW214571   0.987   5.731   5.168
 4849SOL     OW14572   0.980   6.702   5.443
 4849SOL    HW114573   0.881   6.708   5.453
 4849SOL    HW214574   1.003   6.622   5.387
 4850SOL     OW14575   0.705   6.636   4.092
 4850SOL    HW114576   0.691   6.643   4.191
 4850SOL    HW214577   0.789   6.585   4.074
 4851SOL     OW14578   0.410   6.399   4.975
 4851SOL    HW114579   0.496   6.411   5.025
 4851SOL    HW214580   0.368   6.312   5.002
 4852SOL     OW14581   1.274   5.972   4.986
 4852SOL    HW114582   1.295   6.046   5.050
 4852SOL    HW214583   1.185   5.989   4.943
 4853SOL     OW14584   0.064   7.150   5.055
 4853SOL    HW114585   0.018   7.232   5.021
 4853SOL    HW214586   0.162   7.169   5.064
 4854SOL     OW14587   0.367   6.686   4.225
 4854SOL    HW114588   0.360   6.769   4.169
 4854SOL    HW214589   0.371   6.606   4.165
 4855SOL     OW14590   0.566   6.123   4.589
 4855SOL    HW114591   0.578   6.189   4.515
 4855SOL    HW214592   0.612   6.157   4.672
 4856SOL     OW14593   1.252   6.934   4.112
 4856SOL    HW114594   1.302   7.011   4.152
 4856SOL    HW214595   1.157   6.936   4.144
 4857SOL     OW14596   1.272   7.031   4.866
 4857SOL    HW114597   1.319   7.044   4.953
 4857SOL    HW214598   1.206   6.957   4.875
 4858SOL     OW14599   1.582   6.225   4.196
 4858SOL    HW114600   1.551   6.286   4.269
 4858SOL    HW214601   1.632   6.277   4.127
 4859SOL     OW14602   0.354   7.096   5.053
 4859SOL    HW114603   0.333   7.052   4.966
 4859SOL    HW214604   0.451   7.122   5.056
 4860SOL     OW14605   0.402   6.337   5.322
 4860SOL    HW114606   0.470   6.392   5.275
 4860SOL    HW214607   0.442   6.249   5.349
 4861SOL     OW14608   1.587   6.365   5.394
 4861SOL    HW114609   1.495   6.403   5.389
 4861SOL    HW214610   1.647   6.412   5.329
 4862SOL     OW14611   1.013   5.691   5.494
 4862SOL    HW114612   1.019   5.776   5.442
 4862SOL    HW214613   1.045   5.615   5.437
 4863SOL     OW14614   0.504   5.636   5.464
 4863SOL    HW114615   0.462   5.579   5.394
 4863SOL    HW214616   0.438   5.705   5.496
 4864SOL     OW14617   0.573   6.456   4.753
 4864SOL    HW114618   0.617   6.545   4.744
 4864SOL    HW214619   0.510   6.456   4.830
 4865SOL     OW14620   1.360   6.448   4.769
 4865SOL    HW114621   1.285   6.448   4.703
 4865SOL    HW214622   1.397   6.356   4.778
 4866SOL     OW14623   1.209   6.111   3.999
 4866SOL    HW114624   1.222   6.027   4.053
 4866SOL    HW214625   1.180   6.185   4.059
 4867SOL     OW14626   0.307   5.799   4.955
 4867SOL    HW114627   0.284   5.836   5.045
 4867SOL    HW214628   0.277   5.704   4.949
 4868SOL     OW14629   0.037   6.896   5.006
 4868SOL    HW114630   0.090   6.847   5.074
 4868SOL    HW214631   0.059   6.994   5.011
 4869SOL     OW14632   0.732   6.220   4.788
 4869SOL    HW114633   0.791   6.194   4.712
 4869SOL    HW214634   0.704   6.316   4.777
 4870SOL     OW14635   1.728   6.521   5.578
 4870SOL    HW114636   1.682   6.514   5.489
 4870SOL    HW214637   1.666   6.565   5.644
 4871SOL     OW14638   0.307   5.649   4.342
 4871SOL    HW114639   0.296   5.743   4.375
 4871SOL    HW214640   0.302   5.586   4.419
 4872SOL     OW14641   1.622   5.953   4.098
 4872SOL    HW114642   1.624   5.877   4.162
 4872SOL    HW214643   1.574   6.030   4.138
 4873SOL     OW14644   1.023   6.352   4.690
 4873SOL    HW114645   1.038   6.373   4.786
 4873SOL    HW214646   0.993   6.257   4.681
 4874SOL     OW14647   0.980   7.159   5.424
 4874SOL    HW114648   0.960   7.203   5.336
 4874SOL    HW214649   1.019   7.068   5.408
 4875SOL     OW14650   1.859   7.104   5.329
 4875SOL    HW114651   1.873   7.131   5.234
 4875SOL    HW214652   1.942   7.126   5.382
 4876SOL     OW14653   0.350   6.484   5.528
 4876SOL    HW114654   0.426   6.528   5.576
 4876SOL    HW214655   0.385   6.437   5.446
 4877SOL     OW14656   1.540   5.860   3.849
 4877SOL    HW114657   1.479   5.785   3.872
 4877SOL    HW214658   1.562   5.912   3.932
 4878SOL     OW14659   1.303   6.424   3.766
 4878SOL    HW114660   1.337   6.331   3.781
 4878SOL    HW214661   1.321   6.451   3.671
 4879SOL     OW14662   1.068   6.919   4.573
 4879SOL    HW114663   1.075   6.835   4.518
 4879SOL    HW214664   1.130   6.988   4.537
 4880SOL     OW14665   0.319   6.396   4.673
 4880SOL    HW114666   0.412   6.432   4.678
 4880SOL    HW214667   0.313   6.311   4.725
 4881SOL     OW14668   0.339   6.095   4.730
 4881SOL    HW114669   0.287   6.012   4.713
 4881SOL    HW214670   0.416   6.100   4.666
 4882SOL     OW14671   1.138   5.966   5.402
 4882SOL    HW114672   1.093   6.029   5.466
 4882SOL    HW214673   1.231   5.997   5.385
 4883SOL     OW14674   1.160   5.793   5.201
 4883SOL    HW114675   1.160   5.857   5.278
 4883SOL    HW214676   1.188   5.841   5.118
 4884SOL     OW14677   0.008   6.912   3.924
 4884SOL    HW114678  -0.085   6.933   3.893
 4884SOL    HW214679   0.018   6.813   3.937
 4885SOL     OW14680   0.088   7.387   4.651
 4885SOL    HW114681   0.046   7.301   4.624
 4885SOL    HW214682   0.182   7.390   4.617
 4886SOL     OW14683   0.504   7.154   4.634
 4886SOL    HW114684   0.570   7.228   4.643
 4886SOL    HW214685   0.548   7.075   4.592
 4887SOL     OW14686   1.002   6.382   4.962
 4887SOL    HW114687   1.043   6.350   5.048
 4887SOL    HW214688   0.906   6.355   4.959
 4888SOL     OW14689   0.040   6.130   4.838
 4888SOL    HW114690   0.125   6.097   4.797
 4888SOL    HW214691   0.053   6.145   4.936
 4889SOL     OW14692   0.189   6.106   5.446
 4889SOL    HW114693   0.248   6.066   5.376
 4889SOL    HW214694   0.131   6.177   5.405
 4890SOL     OW14695   1.369   6.536   5.384
 4890SOL    HW114696   1.408   6.625   5.404
 4890SOL    HW214697   1.379   6.516   5.287
 4891SOL     OW14698   0.815   6.158   4.049
 4891SOL    HW114699   0.822   6.069   4.003
 4891SOL    HW214700   0.721   6.192   4.041
 4892SOL     OW14701   1.657   6.190   4.930
 4892SOL    HW114702   1.619   6.121   4.992
 4892SOL    HW214703   1.739   6.154   4.886
 4893SOL     OW14704   0.252   7.150   5.468
 4893SOL    HW114705   0.222   7.207   5.544
 4893SOL    HW214706   0.245   7.053   5.494
 4894SOL     OW14707   0.671   6.050   4.993
 4894SOL    HW114708   0.637   5.961   4.963
 4894SOL    HW214709   0.697   6.104   4.913
 4895SOL     OW14710   0.930   7.264   5.189
 4895SOL    HW114711   0.906   7.246   5.094
 4895SOL    HW214712   0.960   7.358   5.199
 4896SOL     OW14713   0.473   6.086   3.915
 4896SOL    HW114714   0.534   6.166   3.919
 4896SOL    HW214715   0.378   6.117   3.922
 4897SOL     OW14716   0.159   6.723   5.190
 4897SOL    HW114717   0.181   6.662   5.266
 4897SOL    HW214718   0.169   6.674   5.104
 4898SOL     OW14719   1.347   6.645   4.958
 4898SOL    HW114720   1.371   6.582   4.884
 4898SOL    HW214721   1.257   6.685   4.940
 4899SOL     OW14722   1.302   6.441   4.033
 4899SOL    HW114723   1.216   6.410   4.075
 4899SOL    HW214724   1.298   6.427   3.934
 4900SOL     OW14725   1.759   7.333   4.878
 4900SOL    HW114726   1.820   7.363   4.805
 4900SOL    HW214727   1.721   7.244   4.856
 4901SOL     OW14728   1.252   7.317   4.852
 4901SOL    HW114729   1.336   7.322   4.798
 4901SOL    HW214730   1.229   7.221   4.870
 4902SOL     OW14731   0.083   6.844   4.746
 4902SOL    HW114732   0.078   6.843   4.846
 4902SOL    HW214733   0.000   6.803   4.708
 4903SOL     OW14734   0.688   7.248   5.440
 4903SOL    HW114735   0.632   7.329   5.449
 4903SOL    HW214736   0.740   7.252   5.354
 4904SOL     OW14737   1.726   5.721   4.247
 4904SOL    HW114738   1.799   5.704   4.180
 4904SOL    HW214739   1.695   5.634   4.285
 4905SOL     OW14740   1.388   7.159   4.201
 4905SOL    HW114741   1.455   7.171   4.127
 4905SOL    HW214742   1.348   7.248   4.224
 4906SOL     OW14743   0.130   7.380   5.575
 4906SOL    HW114744   0.089   7.306   5.628
 4906SOL    HW214745   0.194   7.431   5.633
 4907SOL     OW14746   1.280   6.513   4.396
 4907SOL    HW114747   1.340   6.432   4.398
 4907SOL    HW214748   1.320   6.582   4.336
 4908SOL     OW14749   0.830   6.859   5.146
 4908SOL    HW114750   0.825   6.892   5.241
 4908SOL    HW214751   0.744   6.878   5.100
 4909SOL     OW14752   0.672   7.202   3.878
 4909SOL    HW114753   0.681   7.212   3.779
 4909SOL    HW214754   0.632   7.113   3.899
 4910SOL     OW14755   1.650   7.306   5.118
 4910SOL    HW114756   1.703   7.316   5.034
 4910SOL    HW214757   1.623   7.396   5.152
 4911SOL     OW14758   1.841   5.761   4.687
 4911SOL    HW114759   1.880   5.676   4.651
 4911SOL    HW214760   1.743   5.763   4.668
 4912SOL     OW14761   0.263   5.912   4.444
 4912SOL    HW114762   0.184   5.963   4.410
 4912SOL    HW214763   0.254   5.897   4.542
 4913SOL     OW14764   1.194   7.198   3.755
 4913SOL    HW114765   1.200   7.105   3.792
 4913SOL    HW214766   1.135   7.198   3.675
 4914SOL     OW14767   0.822   6.588   5.096
 4914SOL    HW114768   0.862   6.587   5.004
 4914SOL    HW214769   0.832   6.680   5.136
 4915SOL     OW14770   0.916   6.496   4.015
 4915SOL    HW114771   0.979   6.534   3.947
 4915SOL    HW214772   0.956   6.413   4.054
 4916SOL     OW14773   1.504   7.193   3.768
 4916SOL    HW114774   1.412   7.230   3.775
 4916SOL    HW214775   1.542   7.213   3.678
 4917SOL     OW14776   0.372   6.874   5.214
 4917SOL    HW114777   0.359   6.967   5.180
 4917SOL    HW214778   0.288   6.822   5.201
 4918SOL     OW14779   1.614   6.878   5.013
 4918SOL    HW114780   1.674   6.881   5.093
 4918SOL    HW214781   1.539   6.942   5.026
 4919SOL     OW14782   1.039   6.684   4.420
 4919SOL    HW114783   0.969   6.637   4.474
 4919SOL    HW214784   1.098   6.616   4.377
 4920SOL     OW14785   1.014   5.822   4.695
 4920SOL    HW114786   1.006   5.786   4.602
 4920SOL    HW214787   1.012   5.746   4.760
 4921SOL     OW14788   0.590   7.073   4.215
 4921SOL    HW114789   0.632   7.015   4.145
 4921SOL    HW214790   0.546   7.152   4.171
 4922SOL     OW14791   1.709   5.971   5.105
 4922SOL    HW114792   1.782   6.040   5.109
 4922SOL    HW214793   1.737   5.896   5.046
 4923SOL     OW14794   0.255   6.934   4.014
 4923SOL    HW114795   0.159   6.935   3.987
 4923SOL    HW214796   0.267   6.987   4.098
 4924SOL     OW14797   0.105   6.599   5.450
 4924SOL    HW114798   0.028   6.566   5.504
 4924SOL    HW214799   0.190   6.569   5.492
 4925SOL     OW14800   0.672   5.789   5.213
 4925SOL    HW114801   0.762   5.773   5.173
 4925SOL    HW214802   0.680   5.794   5.312
 4926SOL     OW14803   0.075   5.931   3.757
 4926SOL    HW114804  -0.017   5.903   3.728
 4926SOL    HW214805   0.106   6.008   3.701
 4927SOL     OW14806   1.440   6.442   5.122
 4927SOL    HW114807   1.383   6.494   5.059
 4927SOL    HW214808   1.536   6.454   5.098
 4928SOL     OW14809   0.072   5.752   4.042
 4928SOL    HW114810   0.055   5.835   3.988
 4928SOL    HW214811   0.162   5.715   4.020
 4929SOL     OW14812   1.183   6.921   3.843
 4929SOL    HW114813   1.084   6.910   3.845
 4929SOL    HW214814   1.217   6.936   3.936
 4930SOL     OW14815   0.613   6.428   5.155
 4930SOL    HW114816   0.669   6.509   5.138
 4930SOL    HW214817   0.672   6.348   5.158
 4931SOL     OW14818   1.493   7.353   4.683
 4931SOL    HW114819   1.526   7.417   4.614
 4931SOL    HW214820   1.559   7.347   4.758
 4932SOL     OW14821   0.716   6.151   5.432
 4932SOL    HW114822   0.735   6.216   5.506
 4932SOL    HW214823   0.776   6.071   5.441
 4933SOL     OW14824   1.450   6.806   5.357
 4933SOL    HW114825   1.441   6.796   5.456
 4933SOL    HW214826   1.546   6.799   5.331
 4934SOL     OW14827   0.390   7.327   5.284
 4934SOL    HW114828   0.299   7.368   5.282
 4934SOL    HW214829   0.383   7.233   5.316
 4935SOL     OW14830   1.674   6.469   4.978
 4935SOL    HW114831   1.647   6.380   4.941
 4935SOL    HW214832   1.675   6.537   4.905
 4936SOL     OW14833   1.225   5.911   4.173
 4936SOL    HW114834   1.290   5.837   4.162
 4936SOL    HW214835   1.245   5.961   4.257
 4937SOL     OW14836   0.594   6.331   4.376
 4937SOL    HW114837   0.644   6.416   4.357
 4937SOL    HW214838   0.506   6.333   4.328
 4938SOL     OW14839   1.777   5.928   5.366
 4938SOL    HW114840   1.760   5.959   5.272
 4938SOL    HW214841   1.693   5.891   5.404
 4939SOL     OW14842   1.730   6.520   5.241
 4939SOL    HW114843   1.768   6.611   5.256
 4939SOL    HW214844   1.722   6.503   5.142
 4940SOL     OW14845   0.859   6.960   3.740
 4940SOL    HW114846   0.813   6.975   3.828
 4940SOL    HW214847   0.903   7.045   3.710
 4941SOL     OW14848   0.661   7.376   4.677
 4941SOL    HW114849   0.615   7.464   4.664
 4941SOL    HW214850   0.760   7.388   4.670
 4942SOL     OW14851   0.859   6.542   4.585
 4942SOL    HW114852   0.913   6.473   4.633
 4942SOL    HW214853   0.827   6.611   4.651
 4943SOL     OW14854   1.083   6.570   3.811
 4943SOL    HW114855   1.060   6.623   3.729
 4943SOL    HW214856   1.164   6.514   3.792
 4944SOL     OW14857   1.861   7.155   4.575
 4944SOL    HW114858   1.790   7.143   4.505
 4944SOL    HW214859   1.862   7.076   4.635
 4945SOL     OW14860   0.221   6.900   5.568
 4945SOL    HW114861   0.156   6.827   5.547
 4945SOL    HW214862   0.225   6.914   5.666
 4946SOL     OW14863   0.079   6.826   4.377
 4946SOL    HW114864   0.078   6.779   4.465
 4946SOL    HW214865   0.161   6.798   4.326
 4947SOL     OW14866   0.672   6.977   5.348
 4947SOL    HW114867   0.594   6.927   5.386
 4947SOL    HW214868   0.669   7.072   5.379
 4948SOL     OW14869   1.824   5.778   4.951
 4948SOL    HW114870   1.820   5.688   4.995
 4948SOL    HW214871   1.827   5.767   4.852
 4949SOL     OW14872   0.428   6.010   4.244
 4949SOL    HW114873   0.458   5.938   4.182
 4949SOL    HW214874   0.389   5.970   4.327
 4950SOL     OW14875   1.705   7.073   4.828
 4950SOL    HW114876   1.612   7.048   4.801
 4950SOL    HW214877   1.731   7.023   4.910
 4951SOL     OW14878   0.317   6.133   5.004
 4951SOL    HW114879   0.355   6.074   5.076
 4951SOL    HW214880   0.357   6.107   4.916
 4952SOL     OW14881   0.812   7.172   4.411
 4952SOL    HW114882   0.844   7.182   4.317
 4952SOL    HW214883   0.733   7.110   4.413
 4953SOL     OW14884   1.424   5.800   4.836
 4953SOL    HW114885   1.476   5.735   4.891
 4953SOL    HW214886   1.375   5.863   4.897
 4954SOL     OW14887   1.001   5.620   4.878
 4954SOL    HW114888   0.938   5.548   4.847
 4954SOL    HW214889   1.094   5.584   4.878
 4955SOL     OW14890   0.770   6.916   4.025
 4955SOL    HW114891   0.724   6.829   4.042
 4955SOL    HW214892   0.861   6.913   4.066
 4956SOL     OW14893   0.618   7.153   5.008
 4956SOL    HW114894   0.613   7.235   5.065
 4956SOL    HW214895   0.707   7.150   4.963
 4957SOL     OW14896   1.352   5.638   3.892
 4957SOL    HW114897   1.387   5.597   3.808
 4957SOL    HW214898   1.262   5.600   3.912
 4958SOL     OW14899   1.300   6.039   4.415
 4958SOL    HW114900   1.241   6.119   4.419
 4958SOL    HW214901   1.315   6.004   4.508
 4959SOL     OW14902   1.593   5.807   4.606
 4959SOL    HW114903   1.509   5.806   4.660
 4959SOL    HW214904   1.595   5.890   4.550
 4960SOL     OW14905   0.039   6.663   4.024
 4960SOL    HW114906   0.138   6.652   4.015
 4960SOL    HW214907  -0.001   6.577   4.056
 4961SOL     OW14908   0.875   7.232   4.061
 4961SOL    HW114909   0.798   7.197   4.007
 4961SOL    HW214910   0.843   7.303   4.123
 4962SOL     OW14911   0.230   6.214   5.699
 4962SOL    HW114912   0.137   6.212   5.736
 4962SOL    HW214913   0.231   6.175   5.607
 4963SOL     OW14914   0.019   5.954   6.233
 4963SOL    HW114915  -0.063   5.997   6.272
 4963SOL    HW214916  -0.009   5.881   6.170
 4964SOL     OW14917   0.569   6.861   6.751
 4964SOL    HW114918   0.476   6.854   6.714
 4964SOL    HW214919   0.580   6.950   6.795
 4965SOL     OW14920   1.555   7.097   6.289
 4965SOL    HW114921   1.498   7.081   6.370
 4965SOL    HW214922   1.496   7.107   6.209
 4966SOL     OW14923   1.135   6.289   6.303
 4966SOL    HW114924   1.192   6.367   6.278
 4966SOL    HW214925   1.075   6.315   6.379
 4967SOL     OW14926   1.755   6.193   5.817
 4967SOL    HW114927   1.743   6.180   5.718
 4967SOL    HW214928   1.725   6.112   5.866
 4968SOL     OW14929   0.768   6.730   6.609
 4968SOL    HW114930   0.690   6.747   6.669
 4968SOL    HW214931   0.802   6.817   6.573
 4969SOL     OW14932   0.850   6.384   7.409
 4969SOL    HW114933   0.846   6.460   7.474
 4969SOL    HW214934   0.872   6.420   7.318
 4970SOL     OW14935   0.685   6.598   6.251
 4970SOL    HW114936   0.754   6.582   6.321
 4970SOL    HW214937   0.612   6.655   6.289
 4971SOL     OW14938   0.686   6.747   7.389
 4971SOL    HW114939   0.746   6.826   7.403
 4971SOL    HW214940   0.600   6.778   7.348
 4972SOL     OW14941   0.335   7.021   6.647
 4972SOL    HW114942   0.257   6.990   6.594
 4972SOL    HW214943   0.393   7.079   6.590
 4973SOL     OW14944   1.460   7.091   6.925
 4973SOL    HW114945   1.484   7.185   6.951
 4973SOL    HW214946   1.444   7.037   7.007
 4974SOL     OW14947   0.438   5.978   7.085
 4974SOL    HW114948   0.520   5.922   7.094
 4974SOL    HW214949   0.357   5.920   7.089
 4975SOL     OW14950   1.603   6.033   6.323
 4975SOL    HW114951   1.529   6.079   6.273
 4975SOL    HW214952   1.654   6.101   6.376
 4976SOL     OW14953   0.231   7.299   6.069
 4976SOL    HW114954   0.265   7.376   6.123
 4976SOL    HW214955   0.275   7.299   5.979
 4977SOL     OW14956   1.127   6.927   7.276
 4977SOL    HW114957   1.174   6.927   7.364
 4977SOL    HW214958   1.079   6.840   7.265
 4978SOL     OW14959   0.230   7.020   6.124
 4978SOL    HW114960   0.204   7.116   6.124
 4978SOL    HW214961   0.159   6.966   6.169
 4979SOL     OW14962   0.240   6.677   6.472
 4979SOL    HW114963   0.254   6.593   6.524
 4979SOL    HW214964   0.185   6.741   6.527
 4980SOL     OW14965   0.620   7.372   7.025
 4980SOL    HW114966   0.528   7.355   7.060
 4980SOL    HW214967   0.648   7.464   7.051
 4981SOL     OW14968   0.606   6.550   5.709
 4981SOL    HW114969   0.613   6.634   5.655
 4981SOL    HW214970   0.652   6.563   5.797
 4982SOL     OW14971   1.594   5.700   7.066
 4982SOL    HW114972   1.576   5.767   6.994
 4982SOL    HW214973   1.591   5.746   7.155
 4983SOL     OW14974   0.122   6.229   6.149
 4983SOL    HW114975   0.077   6.141   6.166
 4983SOL    HW214976   0.121   6.283   6.233
 4984SOL     OW14977   1.842   7.353   5.945
 4984SOL    HW114978   1.896   7.324   6.025
 4984SOL    HW214979   1.872   7.443   5.916
 4985SOL     OW14980   0.027   7.182   5.703
 4985SOL    HW114981   0.008   7.086   5.724
 4985SOL    HW214982  -0.006   7.240   5.778
 4986SOL     OW14983   1.689   6.508   6.198
 4986SOL    HW114984   1.784   6.479   6.206
 4986SOL    HW214985   1.681   6.573   6.123
 4987SOL     OW14986   1.641   6.694   6.018
 4987SOL    HW114987   1.727   6.696   5.966
 4987SOL    HW214988   1.655   6.741   6.106
 4988SOL     OW14989   0.113   6.323   7.183
 4988SOL    HW114990   0.201   6.310   7.228
 4988SOL    HW214991   0.100   6.420   7.161
 4989SOL     OW14992   0.613   6.951   6.312
 4989SOL    HW114993   0.564   6.864   6.321
 4989SOL    HW214994   0.590   6.994   6.225
 4990SOL     OW14995   1.293   6.814   7.009
 4990SOL    HW114996   1.330   6.741   6.951
 4990SOL    HW214997   1.345   6.819   7.094
 4991SOL     OW14998   0.809   5.590   6.088
 4991SOL    HW114999   0.849   5.681   6.079
 4991SOL    HW215000   0.709   5.598   6.094
 4992SOL     OW15001   0.197   6.562   6.850
 4992SOL    HW115002   0.286   6.517   6.836
 4992SOL    HW215003   0.124   6.497   6.831
 4993SOL     OW15004   1.525   6.585   5.776
 4993SOL    HW115005   1.462   6.509   5.789
 4993SOL    HW215006   1.573   6.603   5.862
 4994SOL     OW15007   1.187   7.378   7.202
 4994SOL    HW115008   1.211   7.438   7.126
 4994SOL    HW215009   1.194   7.283   7.172
 4995SOL     OW15010   0.317   5.837   7.387
 4995SOL    HW115011   0.388   5.908   7.393
 4995SOL    HW215012   0.229   5.876   7.415
 4996SOL     OW15013   1.466   7.003   6.539
 4996SOL    HW115014   1.407   7.009   6.619
 4996SOL    HW215015   1.451   6.915   6.493
 4997SOL     OW15016   1.667   7.300   6.158
 4997SOL    HW115017   1.626   7.277   6.070
 4997SOL    HW215018   1.649   7.226   6.223
 4998SOL     OW15019   0.598   6.315   5.856
 4998SOL    HW115020   0.622   6.384   5.788
 4998SOL    HW215021   0.520   6.348   5.910
 4999SOL     OW15022   1.281   5.931   6.530
 4999SOL    HW115023   1.195   5.881   6.517
 4999SOL    HW215024   1.343   5.877   6.586
 5000SOL     OW15025   1.576   7.248   5.893
 5000SOL    HW115026   1.665   7.294   5.896
 5000SOL    HW215027   1.555   7.224   5.798
 5001SOL     OW15028   0.807   6.191   7.051
 5001SOL    HW115029   0.760   6.188   7.140
 5001SOL    HW215030   0.756   6.136   6.985
 5002SOL     OW15031   1.394   6.055   7.260
 5002SOL    HW115032   1.374   6.098   7.348
 5002SOL    HW215033   1.472   5.993   7.269
 5003SOL     OW15034   0.973   6.476   7.158
 5003SOL    HW115035   1.019   6.392   7.129
 5003SOL    HW215036   0.917   6.510   7.083
 5004SOL     OW15037   0.991   5.996   6.828
 5004SOL    HW115038   0.914   6.030   6.882
 5004SOL    HW215039   0.957   5.945   6.749
 5005SOL     OW15040   1.041   6.287   6.015
 5005SOL    HW115041   1.067   6.283   6.111
 5005SOL    HW215042   0.956   6.236   6.001
 5006SOL     OW15043   0.076   6.397   6.375
 5006SOL    HW115044   0.175   6.385   6.384
 5006SOL    HW215045   0.052   6.492   6.396
 5007SOL     OW15046   0.130   7.407   7.157
 5007SOL    HW115047   0.120   7.392   7.256
 5007SOL    HW215048   0.044   7.443   7.121
 5008SOL     OW15049   0.865   5.934   5.781
 5008SOL    HW115050   0.924   5.997   5.732
 5008SOL    HW215051   0.884   5.840   5.752
 5009SOL     OW15052   1.719   6.171   7.417
 5009SOL    HW115053   1.693   6.260   7.381
 5009SOL    HW215054   1.717   6.103   7.344
 5010SOL     OW15055   1.362   6.730   6.131
 5010SOL    HW115056   1.445   6.701   6.083
 5010SOL    HW215057   1.313   6.797   6.075
 5011SOL     OW15058   0.550   5.782   6.471
 5011SOL    HW115059   0.545   5.777   6.571
 5011SOL    HW215060   0.552   5.878   6.442
 5012SOL     OW15061   1.008   7.042   6.063
 5012SOL    HW115062   0.962   7.114   6.011
 5012SOL    HW215063   1.004   7.062   6.161
 5013SOL     OW15064   0.351   7.387   6.439
 5013SOL    HW115065   0.401   7.301   6.445
 5013SOL    HW215066   0.416   7.464   6.436
 5014SOL     OW15067   1.795   6.652   6.459
 5014SOL    HW115068   1.733   6.637   6.383
 5014SOL    HW215069   1.743   6.663   6.544
 5015SOL     OW15070   1.227   7.136   7.092
 5015SOL    HW115071   1.233   7.059   7.156
 5015SOL    HW215072   1.175   7.110   7.012
 5016SOL     OW15073   0.321   6.529   5.828
 5016SOL    HW115074   0.403   6.568   5.786
 5016SOL    HW215075   0.294   6.447   5.779
 5017SOL     OW15076   1.458   6.321   6.314
 5017SOL    HW115077   1.453   6.256   6.389
 5017SOL    HW215078   1.538   6.380   6.327
 5018SOL     OW15079   0.461   6.852   7.313
 5018SOL    HW115080   0.411   6.853   7.227
 5018SOL    HW215081   0.398   6.834   7.389
 5019SOL     OW15082   1.111   7.362   5.823
 5019SOL    HW115083   1.051   7.300   5.873
 5019SOL    HW215084   1.142   7.318   5.738
 5020SOL     OW15085   0.202   5.871   7.084
 5020SOL    HW115086   0.122   5.931   7.071
 5020SOL    HW215087   0.192   5.822   7.170
 5021SOL     OW15088   1.632   6.963   5.667
 5021SOL    HW115089   1.600   7.057   5.657
 5021SOL    HW215090   1.556   6.900   5.655
 5022SOL     OW15091   0.464   7.329   5.909
 5022SOL    HW115092   0.497   7.368   5.995
 5022SOL    HW215093   0.540   7.322   5.844
 5023SOL     OW15094   1.400   5.693   6.012
 5023SOL    HW115095   1.376   5.656   5.922
 5023SOL    HW215096   1.499   5.709   6.016
 5024SOL     OW15097   0.249   7.371   6.827
 5024SOL    HW115098   0.306   7.306   6.877
 5024SOL    HW215099   0.233   7.338   6.734
 5025SOL     OW15100   0.940   7.284   6.490
 5025SOL    HW115101   1.020   7.227   6.511
 5025SOL    HW215102   0.891   7.244   6.413
 5026SOL     OW15103   0.382   6.286   6.066
 5026SOL    HW115104   0.427   6.196   6.063
 5026SOL    HW215105   0.288   6.275   6.099
 5027SOL     OW15106   1.547   5.808   7.315
 5027SOL    HW115107   1.542   5.845   7.407
 5027SOL    HW215108   1.475   5.739   7.303
 5028SOL     OW15109   0.614   5.708   5.703
 5028SOL    HW115110   0.712   5.686   5.710
 5028SOL    HW215111   0.583   5.691   5.610
 5029SOL     OW15112   0.781   5.850   7.335
 5029SOL    HW115113   0.848   5.789   7.378
 5029SOL    HW215114   0.708   5.869   7.400
 5030SOL     OW15115   0.888   7.100   6.781
 5030SOL    HW115116   0.865   7.075   6.687
 5030SOL    HW215117   0.949   7.031   6.820
 5031SOL     OW15118   1.351   6.176   7.019
 5031SOL    HW115119   1.379   6.133   7.104
 5031SOL    HW215120   1.376   6.272   7.020
 5032SOL     OW15121   0.803   6.988   6.510
 5032SOL    HW115122   0.893   7.002   6.468
 5032SOL    HW215123   0.732   6.990   6.439
 5033SOL     OW15124   0.922   6.089   6.485
 5033SOL    HW115125   0.897   6.080   6.389
 5033SOL    HW215126   0.970   6.007   6.516
 5034SOL     OW15127   0.539   5.650   6.098
 5034SOL    HW115128   0.458   5.651   6.156
 5034SOL    HW215129   0.542   5.733   6.043
 5035SOL     OW15130   1.434   6.774   5.627
 5035SOL    HW115131   1.466   6.698   5.684
 5035SOL    HW215132   1.342   6.801   5.657
 5036SOL     OW15133   0.297   5.621   5.757
 5036SOL    HW115134   0.346   5.705   5.736
 5036SOL    HW215135   0.359   5.556   5.802
 5037SOL     OW15136   0.935   5.822   6.066
 5037SOL    HW115137   0.887   5.863   5.988
 5037SOL    HW215138   1.034   5.820   6.047
 5038SOL     OW15139   1.076   6.269   7.050
 5038SOL    HW115140   0.996   6.208   7.053
 5038SOL    HW215141   1.157   6.216   7.026
 5039SOL     OW15142   1.227   7.156   6.379
 5039SOL    HW115143   1.248   7.230   6.314
 5039SOL    HW215144   1.295   7.156   6.452
 5040SOL     OW15145   0.459   6.738   6.327
 5040SOL    HW115146   0.388   6.711   6.392
 5040SOL    HW215147   0.433   6.710   6.234
 5041SOL     OW15148   1.271   7.383   6.177
 5041SOL    HW115149   1.315   7.447   6.113
 5041SOL    HW215150   1.221   7.435   6.247
 5042SOL     OW15151   1.032   6.135   5.602
 5042SOL    HW115152   0.991   6.217   5.563
 5042SOL    HW215153   1.096   6.161   5.675
 5043SOL     OW15154   0.078   6.142   6.972
 5043SOL    HW115155   0.170   6.141   6.931
 5043SOL    HW215156   0.072   6.216   7.039
 5044SOL     OW15157   0.561   5.808   6.733
 5044SOL    HW115158   0.599   5.724   6.770
 5044SOL    HW215159   0.473   5.827   6.777
 5045SOL     OW15160   0.866   6.040   6.228
 5045SOL    HW115161   0.834   6.112   6.166
 5045SOL    HW215162   0.890   5.959   6.175
 5046SOL     OW15163   1.017   5.625   6.339
 5046SOL    HW115164   0.945   5.630   6.270
 5046SOL    HW215165   0.993   5.556   6.408
 5047SOL     OW15166   1.429   6.759   6.453
 5047SOL    HW115167   1.374   6.675   6.446
 5047SOL    HW215168   1.455   6.788   6.361
 5048SOL     OW15169   1.466   6.176   6.578
 5048SOL    HW115170   1.436   6.081   6.585
 5048SOL    HW215171   1.539   6.192   6.644
 5049SOL     OW15172   1.857   6.419   5.963
 5049SOL    HW115173   1.899   6.355   6.027
 5049SOL    HW215174   1.819   6.368   5.885
 5050SOL     OW15175   0.488   6.971   5.760
 5050SOL    HW115176   0.401   6.956   5.807
 5050SOL    HW215177   0.471   6.997   5.665
 5051SOL     OW15178   1.664   6.866   6.243
 5051SOL    HW115179   1.763   6.874   6.257
 5051SOL    HW215180   1.619   6.950   6.274
 5052SOL     OW15181   1.390   6.161   5.664
 5052SOL    HW115182   1.336   6.140   5.745
 5052SOL    HW215183   1.481   6.120   5.673
 5053SOL     OW15184   0.527   5.842   5.914
 5053SOL    HW115185   0.554   5.783   5.839
 5053SOL    HW215186   0.527   5.937   5.883
 5054SOL     OW15187   1.754   6.809   7.174
 5054SOL    HW115188   1.845   6.770   7.161
 5054SOL    HW215189   1.762   6.905   7.198
 5055SOL     OW15190   1.064   6.933   6.926
 5055SOL    HW115191   0.984   6.910   6.981
 5055SOL    HW215192   1.147   6.907   6.975
 5056SOL     OW15193   1.592   7.215   7.211
 5056SOL    HW115194   1.619   7.249   7.121
 5056SOL    HW215195   1.671   7.177   7.257
 5057SOL     OW15196   1.111   6.781   6.686
 5057SOL    HW115197   1.071   6.825   6.767
 5057SOL    HW215198   1.070   6.818   6.603
 5058SOL     OW15199   1.638   6.685   6.665
 5058SOL    HW115200   1.643   6.766   6.724
 5058SOL    HW215201   1.552   6.687   6.614
 5059SOL     OW15202   0.915   5.675   6.988
 5059SOL    HW115203   0.940   5.655   6.893
 5059SOL    HW215204   0.987   5.731   7.030
 5060SOL     OW15205   0.980   6.702   7.305
 5060SOL    HW115206   0.881   6.708   7.315
 5060SOL    HW215207   1.003   6.622   7.249
 5061SOL     OW15208   0.705   6.636   5.954
 5061SOL    HW115209   0.691   6.643   6.053
 5061SOL    HW215210   0.789   6.585   5.936
 5062SOL     OW15211   0.410   6.399   6.837
 5062SOL    HW115212   0.496   6.411   6.887
 5062SOL    HW215213   0.368   6.312   6.864
 5063SOL     OW15214   1.274   5.972   6.848
 5063SOL    HW115215   1.295   6.046   6.912
 5063SOL    HW215216   1.185   5.989   6.805
 5064SOL     OW15217   0.064   7.150   6.917
 5064SOL    HW115218   0.018   7.232   6.883
 5064SOL    HW215219   0.162   7.169   6.926
 5065SOL     OW15220   0.367   6.686   6.087
 5065SOL    HW115221   0.360   6.769   6.031
 5065SOL    HW215222   0.371   6.606   6.027
 5066SOL     OW15223   0.566   6.123   6.451
 5066SOL    HW115224   0.578   6.189   6.377
 5066SOL    HW215225   0.612   6.157   6.534
 5067SOL     OW15226   1.252   6.934   5.974
 5067SOL    HW115227   1.302   7.011   6.014
 5067SOL    HW215228   1.157   6.936   6.006
 5068SOL     OW15229   1.272   7.031   6.728
 5068SOL    HW115230   1.319   7.044   6.815
 5068SOL    HW215231   1.206   6.957   6.737
 5069SOL     OW15232   1.582   6.225   6.058
 5069SOL    HW115233   1.551   6.286   6.131
 5069SOL    HW215234   1.632   6.277   5.989
 5070SOL     OW15235   0.354   7.096   6.915
 5070SOL    HW115236   0.333   7.052   6.828
 5070SOL    HW215237   0.451   7.122   6.918
 5071SOL     OW15238   0.402   6.337   7.184
 5071SOL    HW115239   0.470   6.392   7.137
 5071SOL    HW215240   0.442   6.249   7.211
 5072SOL     OW15241   1.587   6.365   7.256
 5072SOL    HW115242   1.495   6.403   7.251
 5072SOL    HW215243   1.647   6.412   7.191
 5073SOL     OW15244   1.013   5.691   7.356
 5073SOL    HW115245   1.019   5.776   7.304
 5073SOL    HW215246   1.045   5.615   7.299
 5074SOL     OW15247   0.504   5.636   7.326
 5074SOL    HW115248   0.462   5.579   7.256
 5074SOL    HW215249   0.438   5.705   7.358
 5075SOL     OW15250   0.573   6.456   6.615
 5075SOL    HW115251   0.617   6.545   6.606
 5075SOL    HW215252   0.510   6.456   6.692
 5076SOL     OW15253   1.360   6.448   6.631
 5076SOL    HW115254   1.285   6.448   6.565
 5076SOL    HW215255   1.397   6.356   6.640
 5077SOL     OW15256   1.209   6.111   5.861
 5077SOL    HW115257   1.222   6.027   5.915
 5077SOL    HW215258   1.180   6.185   5.921
 5078SOL     OW15259   0.307   5.799   6.817
 5078SOL    HW115260   0.284   5.836   6.907
 5078SOL    HW215261   0.277   5.704   6.811
 5079SOL     OW15262   0.037   6.896   6.868
 5079SOL    HW115263   0.090   6.847   6.936
 5079SOL    HW215264   0.059   6.994   6.873
 5080SOL     OW15265   0.732   6.220   6.650
 5080SOL    HW115266   0.791   6.194   6.574
 5080SOL    HW215267   0.704   6.316   6.639
 5081SOL     OW15268   1.728   6.521   7.440
 5081SOL    HW115269   1.682   6.514   7.351
 5081SOL    HW215270   1.666   6.565   7.506
 5082SOL     OW15271   0.307   5.649   6.204
 5082SOL    HW115272   0.296   5.743   6.237
 5082SOL    HW215273   0.302   5.586   6.281
 5083SOL     OW15274   1.622   5.953   5.960
 5083SOL    HW115275   1.624   5.877   6.024
 5083SOL    HW215276   1.574   6.030   6.000
 5084SOL     OW15277   1.023   6.352   6.552
 5084SOL    HW115278   1.038   6.373   6.648
 5084SOL    HW215279   0.993   6.257   6.543
 5085SOL     OW15280   0.980   7.159   7.286
 5085SOL    HW115281   0.960   7.203   7.198
 5085SOL    HW215282   1.019   7.068   7.270
 5086SOL     OW15283   1.859   7.104   7.191
 5086SOL    HW115284   1.873   7.131   7.096
 5086SOL    HW215285   1.942   7.126   7.244
 5087SOL     OW15286   0.350   6.484   7.390
 5087SOL    HW115287   0.426   6.528   7.438
 5087SOL    HW215288   0.385   6.437   7.308
 5088SOL     OW15289   1.540   5.860   5.711
 5088SOL    HW115290   1.479   5.785   5.734
 5088SOL    HW215291   1.562   5.912   5.794
 5089SOL     OW15292   1.303   6.424   5.628
 5089SOL    HW115293   1.337   6.331   5.643
 5089SOL    HW215294   1.321   6.451   5.533
 5090SOL     OW15295   1.068   6.919   6.435
 5090SOL    HW115296   1.075   6.835   6.380
 5090SOL    HW215297   1.130   6.988   6.399
 5091SOL     OW15298   0.319   6.396   6.535
 5091SOL    HW115299   0.412   6.432   6.540
 5091SOL    HW215300   0.313   6.311   6.587
 5092SOL     OW15301   0.339   6.095   6.592
 5092SOL    HW115302   0.287   6.012   6.575
 5092SOL    HW215303   0.416   6.100   6.528
 5093SOL     OW15304   1.138   5.966   7.264
 5093SOL    HW115305   1.093   6.029   7.328
 5093SOL    HW215306   1.231   5.997   7.247
 5094SOL     OW15307   1.160   5.793   7.063
 5094SOL    HW115308   1.160   5.857   7.140
 5094SOL    HW215309   1.188   5.841   6.980
 5095SOL     OW15310   0.008   6.912   5.786
 5095SOL    HW115311  -0.085   6.933   5.755
 5095SOL    HW215312   0.018   6.813   5.799
 5096SOL     OW15313   0.088   7.387   6.513
 5096SOL    HW115314   0.046   7.301   6.486
 5096SOL    HW215315   0.182   7.390   6.479
 5097SOL     OW15316   0.504   7.154   6.496
 5097SOL    HW115317   0.570   7.228   6.505
 5097SOL    HW215318   0.548   7.075   6.454
 5098SOL     OW15319   1.002   6.382   6.824
 5098SOL    HW115320   1.043   6.350   6.910
 5098SOL    HW215321   0.906   6.355   6.821
 5099SOL     OW15322   0.040   6.130   6.700
 5099SOL    HW115323   0.125   6.097   6.659
 5099SOL    HW215324   0.053   6.145   6.798
 5100SOL     OW15325   0.189   6.106   7.308
 5100SOL    HW115326   0.248   6.066   7.238
 5100SOL    HW215327   0.131   6.177   7.267
 5101SOL     OW15328   1.369   6.536   7.246
 5101SOL    HW115329   1.408   6.625   7.266
 5101SOL    HW215330   1.379   6.516   7.149
 5102SOL     OW15331   0.815   6.158   5.911
 5102SOL    HW115332   0.822   6.069   5.865
 5102SOL    HW215333   0.721   6.192   5.903
 5103SOL     OW15334   1.657   6.190   6.792
 5103SOL    HW115335   1.619   6.121   6.854
 5103SOL    HW215336   1.739   6.154   6.748
 5104SOL     OW15337   0.252   7.150   7.330
 5104SOL    HW115338   0.222   7.207   7.406
 5104SOL    HW215339   0.245   7.053   7.356
 5105SOL     OW15340   0.671   6.050   6.855
 5105SOL    HW115341   0.637   5.961   6.825
 5105SOL    HW215342   0.697   6.104   6.775
 5106SOL     OW15343   0.930   7.264   7.051
 5106SOL    HW115344   0.906   7.246   6.956
 5106SOL    HW215345   0.960   7.358   7.061
 5107SOL     OW15346   0.473   6.086   5.777
 5107SOL    HW115347   0.534   6.166   5.781
 5107SOL    HW215348   0.378   6.117   5.784
 5108SOL     OW15349   0.159   6.723   7.052
 5108SOL    HW115350   0.181   6.662   7.128
 5108SOL    HW215351   0.169   6.674   6.966
 5109SOL     OW15352   1.347   6.645   6.820
 5109SOL    HW115353   1.371   6.582   6.746
 5109SOL    HW215354   1.257   6.685   6.802
 5110SOL     OW15355   1.302   6.441   5.895
 5110SOL    HW115356   1.216   6.410   5.937
 5110SOL    HW215357   1.298   6.427   5.796
 5111SOL     OW15358   1.759   7.333   6.740
 5111SOL    HW115359   1.820   7.363   6.667
 5111SOL    HW215360   1.721   7.244   6.718
 5112SOL     OW15361   1.252   7.317   6.714
 5112SOL    HW115362   1.336   7.322   6.660
 5112SOL    HW215363   1.229   7.221   6.732
 5113SOL     OW15364   0.083   6.844   6.608
 5113SOL    HW115365   0.078   6.843   6.708
 5113SOL    HW215366   0.000   6.803   6.570
 5114SOL     OW15367   0.688   7.248   7.302
 5114SOL    HW115368   0.632   7.329   7.311
 5114SOL    HW215369   0.740   7.252   7.216
 5115SOL     OW15370   1.726   5.721   6.109
 5115SOL    HW115371   1.799   5.704   6.042
 5115SOL    HW215372   1.695   5.634   6.147
 5116SOL     OW15373   1.388   7.159   6.063
 5116SOL    HW115374   1.455   7.171   5.989
 5116SOL    HW215375   1.348   7.248   6.086
 5117SOL     OW15376   0.130   7.380   7.437
 5117SOL    HW115377   0.089   7.306   7.490
 5117SOL    HW215378   0.194   7.431   7.495
 5118SOL     OW15379   1.280   6.513   6.258
 5118SOL    HW115380   1.340   6.432   6.260
 5118SOL    HW215381   1.320   6.582   6.198
 5119SOL     OW15382   0.830   6.859   7.008
 5119SOL    HW115383   0.825   6.892   7.103
 5119SOL    HW215384   0.744   6.878   6.962
 5120SOL     OW15385   0.672   7.202   5.740
 5120SOL    HW115386   0.681   7.212   5.641
 5120SOL    HW215387   0.632   7.113   5.761
 5121SOL     OW15388   1.650   7.306   6.980
 5121SOL    HW115389   1.703   7.316   6.896
 5121SOL    HW215390   1.623   7.396   7.014
 5122SOL     OW15391   1.841   5.761   6.549
 5122SOL    HW115392   1.880   5.676   6.513
 5122SOL    HW215393   1.743   5.763   6.530
 5123SOL     OW15394   0.263   5.912   6.306
 5123SOL    HW115395   0.184   5.963   6.272
 5123SOL    HW215396   0.254   5.897   6.404
 5124SOL     OW15397   1.194   7.198   5.617
 5124SOL    HW115398   1.200   7.105   5.654
 5124SOL    HW215399   1.135   7.198   5.537
 5125SOL     OW15400   0.822   6.588   6.958
 5125SOL    HW115401   0.862   6.587   6.866
 5125SOL    HW215402   0.832   6.680   6.998
 5126SOL     OW15403   0.916   6.496   5.877
 5126SOL    HW115404   0.979   6.534   5.809
 5126SOL    HW215405   0.956   6.413   5.916
 5127SOL     OW15406   1.504   7.193   5.630
 5127SOL    HW115407   1.412   7.230   5.637
 5127SOL    HW215408   1.542   7.213   5.540
 5128SOL     OW15409   0.372   6.874   7.076
 5128SOL    HW115410   0.359   6.967   7.042
 5128SOL    HW215411   0.288   6.822   7.063
 5129SOL     OW15412   1.614   6.878   6.875
 5129SOL    HW115413   1.674   6.881   6.955
 5129SOL    HW215414   1.539   6.942   6.888
 5130SOL     OW15415   1.039   6.684   6.282
 5130SOL    HW115416   0.969   6.637   6.336
 5130SOL    HW215417   1.098   6.616   6.239
 5131SOL     OW15418   1.014   5.822   6.557
 5131SOL    HW115419   1.006   5.786   6.464
 5131SOL    HW215420   1.012   5.746   6.622
 5132SOL     OW15421   0.590   7.073   6.077
 5132SOL    HW115422   0.632   7.015   6.007
 5132SOL    HW215423   0.546   7.152   6.033
 5133SOL     OW15424   1.709   5.971   6.967
 5133SOL    HW115425   1.782   6.040   6.971
 5133SOL    HW215426   1.737   5.896   6.908
 5134SOL     OW15427   0.255   6.934   5.876
 5134SOL    HW115428   0.159   6.935   5.849
 5134SOL    HW215429   0.267   6.987   5.960
 5135SOL     OW15430   0.105   6.599   7.312
 5135SOL    HW115431   0.028   6.566   7.366
 5135SOL    HW215432   0.190   6.569   7.354
 5136SOL     OW15433   0.672   5.789   7.075
 5136SOL    HW115434   0.762   5.773   7.035
 5136SOL    HW215435   0.680   5.794   7.174
 5137SOL     OW15436   0.075   5.931   5.619
 5137SOL    HW115437  -0.017   5.903   5.590
 5137SOL    HW215438   0.106   6.008   5.563
 5138SOL     OW15439   1.440   6.442   6.984
 5138SOL    HW115440   1.383   6.494   6.921
 5138SOL    HW215441   1.536   6.454   6.960
 5139SOL     OW15442   0.072   5.752   5.904
 5139SOL    HW115443   0.055   5.835   5.850
 5139SOL    HW215444   0.162   5.715   5.882
 5140SOL     OW15445   1.183   6.921   5.705
 5140SOL    HW115446   1.084   6.910   5.707
 5140SOL    HW215447   1.217   6.936   5.798
 5141SOL     OW15448   0.613   6.428   7.017
 5141SOL    HW115449   0.669   6.509   7.000
 5141SOL    HW215450   0.672   6.348   7.020
 5142SOL     OW15451   1.493   7.353   6.545
 5142SOL    HW115452   1.526   7.417   6.476
 5142SOL    HW215453   1.559   7.347   6.620
 5143SOL     OW15454   0.716   6.151   7.294
 5143SOL    HW115455   0.735   6.216   7.368
 5143SOL    HW215456   0.776   6.071   7.303
 5144SOL     OW15457   1.450   6.806   7.219
 5144SOL    HW115458   1.441   6.796   7.318
 5144SOL    HW215459   1.546   6.799   7.193
 5145SOL     OW15460   0.390   7.327   7.146
 5145SOL    HW115461   0.299   7.368   7.144
 5145SOL    HW215462   0.383   7.233   7.178
 5146SOL     OW15463   1.674   6.469   6.840
 5146SOL    HW115464   1.647   6.380   6.803
 5146SOL    HW215465   1.675   6.537   6.767
 5147SOL     OW15466   1.225   5.911   6.035
 5147SOL    HW115467   1.290   5.837   6.024
 5147SOL    HW215468   1.245   5.961   6.119
 5148SOL     OW15469   0.594   6.331   6.238
 5148SOL    HW115470   0.644   6.416   6.219
 5148SOL    HW215471   0.506   6.333   6.190
 5149SOL     OW15472   1.777   5.928   7.228
 5149SOL    HW115473   1.760   5.959   7.134
 5149SOL    HW215474   1.693   5.891   7.266
 5150SOL     OW15475   1.730   6.520   7.103
 5150SOL    HW115476   1.768   6.611   7.118
 5150SOL    HW215477   1.722   6.503   7.004
 5151SOL     OW15478   0.859   6.960   5.602
 5151SOL    HW115479   0.813   6.975   5.690
 5151SOL    HW215480   0.903   7.045   5.572
 5152SOL     OW15481   0.661   7.376   6.539
 5152SOL    HW115482   0.615   7.464   6.526
 5152SOL    HW215483   0.760   7.388   6.532
 5153SOL     OW15484   0.859   6.542   6.447
 5153SOL    HW115485   0.913   6.473   6.495
 5153SOL    HW215486   0.827   6.611   6.513
 5154SOL     OW15487   1.083   6.570   5.673
 5154SOL    HW115488   1.060   6.623   5.591
 5154SOL    HW215489   1.164   6.514   5.654
 5155SOL     OW15490   1.861   7.155   6.437
 5155SOL    HW115491   1.790   7.143   6.367
 5155SOL    HW215492   1.862   7.076   6.497
 5156SOL     OW15493   0.221   6.900   7.430
 5156SOL    HW115494   0.156   6.827   7.409
 5156SOL    HW215495   0.225   6.914   7.528
 5157SOL     OW15496   0.079   6.826   6.239
 5157SOL    HW115497   0.078   6.779   6.327
 5157SOL    HW215498   0.161   6.798   6.188
 5158SOL     OW15499   0.672   6.977   7.210
 5158SOL    HW115500   0.594   6.927   7.248
 5158SOL    HW215501   0.669   7.072   7.241
 5159SOL     OW15502   1.824   5.778   6.813
 5159SOL    HW115503   1.820   5.688   6.857
 5159SOL    HW215504   1.827   5.767   6.714
 5160SOL     OW15505   0.428   6.010   6.106
 5160SOL    HW115506   0.458   5.938   6.044
 5160SOL    HW215507   0.389   5.970   6.189
 5161SOL     OW15508   1.705   7.073   6.690
 5161SOL    HW115509   1.612   7.048   6.663
 5161SOL    HW215510   1.731   7.023   6.772
 5162SOL     OW15511   0.317   6.133   6.866
 5162SOL    HW115512   0.355   6.074   6.938
 5162SOL    HW215513   0.357   6.107   6.778
 5163SOL     OW15514   0.812   7.172   6.273
 5163SOL    HW115515   0.844   7.182   6.179
 5163SOL    HW215516   0.733   7.110   6.275
 5164SOL     OW15517   1.424   5.800   6.698
 5164SOL    HW115518   1.476   5.735   6.753
 5164SOL    HW215519   1.375   5.863   6.759
 5165SOL     OW15520   1.001   5.620   6.740
 5165SOL    HW115521   0.938   5.548   6.709
 5165SOL    HW215522   1.094   5.584   6.740
 5166SOL     OW15523   0.770   6.916   5.887
 5166SOL    HW115524   0.724   6.829   5.904
 5166SOL    HW215525   0.861   6.913   5.928
 5167SOL     OW15526   0.618   7.153   6.870
 5167SOL    HW115527   0.613   7.235   6.927
 5167SOL    HW215528   0.707   7.150   6.825
 5168SOL     OW15529   1.352   5.638   5.754
 5168SOL    HW115530   1.387   5.597   5.670
 5168SOL    HW215531   1.262   5.600   5.774
 5169SOL     OW15532   1.300   6.039   6.277
 5169SOL    HW115533   1.241   6.119   6.281
 5169SOL    HW215534   1.315   6.004   6.370
 5170SOL     OW15535   1.593   5.807   6.468
 5170SOL    HW115536   1.509   5.806   6.522
 5170SOL    HW215537   1.595   5.890   6.412
 5171SOL     OW15538   0.039   6.663   5.886
 5171SOL    HW115539   0.138   6.652   5.877
 5171SOL    HW215540  -0.001   6.577   5.918
 5172SOL     OW15541   0.875   7.232   5.923
 5172SOL    HW115542   0.798   7.197   5.869
 5172SOL    HW215543   0.843   7.303   5.985
 5173SOL     OW15544   0.230   6.214   7.561
 5173SOL    HW115545   0.137   6.212   7.598
 5173SOL    HW215546   0.231   6.175   7.469
 5174SOL     OW15547   0.225   5.861   8.444
 5174SOL    HW115548   0.260   5.844   8.536
 5174SOL    HW215549   0.137   5.816   8.432
 5175SOL     OW15550   0.019   5.954   8.095
 5175SOL    HW115551  -0.063   5.997   8.134
 5175SOL    HW215552  -0.009   5.881   8.032
 5176SOL     OW15553   0.569   6.861   8.613
 5176SOL    HW115554   0.476   6.854   8.576
 5176SOL    HW215555   0.580   6.950   8.657
 5177SOL     OW15556   1.555   7.097   8.151
 5177SOL    HW115557   1.498   7.081   8.232
 5177SOL    HW215558   1.496   7.107   8.071
 5178SOL     OW15559   1.135   6.289   8.165
 5178SOL    HW115560   1.192   6.367   8.140
 5178SOL    HW215561   1.075   6.315   8.241
 5179SOL     OW15562   1.755   6.193   7.679
 5179SOL    HW115563   1.743   6.180   7.580
 5179SOL    HW215564   1.725   6.112   7.728
 5180SOL     OW15565   0.768   6.730   8.471
 5180SOL    HW115566   0.690   6.747   8.531
 5180SOL    HW215567   0.802   6.817   8.435
 5181SOL     OW15568   0.850   6.384   9.271
 5181SOL    HW115569   0.846   6.460   9.336
 5181SOL    HW215570   0.872   6.420   9.180
 5182SOL     OW15571   0.685   6.598   8.113
 5182SOL    HW115572   0.754   6.582   8.183
 5182SOL    HW215573   0.612   6.655   8.151
 5183SOL     OW15574   0.686   6.747   9.251
 5183SOL    HW115575   0.746   6.826   9.265
 5183SOL    HW215576   0.600   6.778   9.210
 5184SOL     OW15577   0.335   7.021   8.509
 5184SOL    HW115578   0.257   6.990   8.456
 5184SOL    HW215579   0.393   7.079   8.452
 5185SOL     OW15580   1.460   7.091   8.787
 5185SOL    HW115581   1.484   7.185   8.813
 5185SOL    HW215582   1.444   7.037   8.869
 5186SOL     OW15583   0.438   5.978   8.947
 5186SOL    HW115584   0.520   5.922   8.956
 5186SOL    HW215585   0.357   5.920   8.951
 5187SOL     OW15586   1.603   6.033   8.185
 5187SOL    HW115587   1.529   6.079   8.135
 5187SOL    HW215588   1.654   6.101   8.238
 5188SOL     OW15589   0.231   7.299   7.931
 5188SOL    HW115590   0.265   7.376   7.985
 5188SOL    HW215591   0.275   7.299   7.841
 5189SOL     OW15592   1.127   6.927   9.138
 5189SOL    HW115593   1.174   6.927   9.226
 5189SOL    HW215594   1.079   6.840   9.127
 5190SOL     OW15595   0.230   7.020   7.986
 5190SOL    HW115596   0.204   7.116   7.986
 5190SOL    HW215597   0.159   6.966   8.031
 5191SOL     OW15598   0.240   6.677   8.334
 5191SOL    HW115599   0.254   6.593   8.386
 5191SOL    HW215600   0.185   6.741   8.389
 5192SOL     OW15601   0.620   7.372   8.887
 5192SOL    HW115602   0.528   7.355   8.922
 5192SOL    HW215603   0.648   7.464   8.913
 5193SOL     OW15604   0.606   6.550   7.571
 5193SOL    HW115605   0.613   6.634   7.517
 5193SOL    HW215606   0.652   6.563   7.659
 5194SOL     OW15607   1.594   5.700   8.928
 5194SOL    HW115608   1.576   5.767   8.856
 5194SOL    HW215609   1.591   5.746   9.017
 5195SOL     OW15610   0.122   6.229   8.011
 5195SOL    HW115611   0.077   6.141   8.028
 5195SOL    HW215612   0.121   6.283   8.095
 5196SOL     OW15613   1.842   7.353   7.807
 5196SOL    HW115614   1.896   7.324   7.887
 5196SOL    HW215615   1.872   7.443   7.778
 5197SOL     OW15616   0.027   7.182   7.565
 5197SOL    HW115617   0.008   7.086   7.586
 5197SOL    HW215618  -0.006   7.240   7.640
 5198SOL     OW15619   1.689   6.508   8.060
 5198SOL    HW115620   1.784   6.479   8.068
 5198SOL    HW215621   1.681   6.573   7.985
 5199SOL     OW15622   1.641   6.694   7.880
 5199SOL    HW115623   1.727   6.696   7.828
 5199SOL    HW215624   1.655   6.741   7.968
 5200SOL     OW15625   0.113   6.323   9.045
 5200SOL    HW115626   0.201   6.310   9.090
 5200SOL    HW215627   0.100   6.420   9.023
 5201SOL     OW15628   0.613   6.951   8.174
 5201SOL    HW115629   0.564   6.864   8.183
 5201SOL    HW215630   0.590   6.994   8.087
 5202SOL     OW15631   1.293   6.814   8.871
 5202SOL    HW115632   1.330   6.741   8.813
 5202SOL    HW215633   1.345   6.819   8.956
 5203SOL     OW15634   0.809   5.590   7.950
 5203SOL    HW115635   0.849   5.681   7.941
 5203SOL    HW215636   0.709   5.598   7.956
 5204SOL     OW15637   0.197   6.562   8.712
 5204SOL    HW115638   0.286   6.517   8.698
 5204SOL    HW215639   0.124   6.497   8.693
 5205SOL     OW15640   1.525   6.585   7.638
 5205SOL    HW115641   1.462   6.509   7.651
 5205SOL    HW215642   1.573   6.603   7.724
 5206SOL     OW15643   1.187   7.378   9.064
 5206SOL    HW115644   1.211   7.438   8.988
 5206SOL    HW215645   1.194   7.283   9.034
 5207SOL     OW15646   0.317   5.837   9.249
 5207SOL    HW115647   0.388   5.908   9.255
 5207SOL    HW215648   0.229   5.876   9.277
 5208SOL     OW15649   1.466   7.003   8.401
 5208SOL    HW115650   1.407   7.009   8.481
 5208SOL    HW215651   1.451   6.915   8.355
 5209SOL     OW15652   1.667   7.300   8.020
 5209SOL    HW115653   1.626   7.277   7.932
 5209SOL    HW215654   1.649   7.226   8.085
 5210SOL     OW15655   0.598   6.315   7.718
 5210SOL    HW115656   0.622   6.384   7.650
 5210SOL    HW215657   0.520   6.348   7.772
 5211SOL     OW15658   1.281   5.931   8.392
 5211SOL    HW115659   1.195   5.881   8.379
 5211SOL    HW215660   1.343   5.877   8.448
 5212SOL     OW15661   1.576   7.248   7.755
 5212SOL    HW115662   1.665   7.294   7.758
 5212SOL    HW215663   1.555   7.224   7.660
 5213SOL     OW15664   0.807   6.191   8.913
 5213SOL    HW115665   0.760   6.188   9.002
 5213SOL    HW215666   0.756   6.136   8.847
 5214SOL     OW15667   1.394   6.055   9.122
 5214SOL    HW115668   1.374   6.098   9.210
 5214SOL    HW215669   1.472   5.993   9.131
 5215SOL     OW15670   0.973   6.476   9.020
 5215SOL    HW115671   1.019   6.392   8.991
 5215SOL    HW215672   0.917   6.510   8.945
 5216SOL     OW15673   0.991   5.996   8.690
 5216SOL    HW115674   0.914   6.030   8.744
 5216SOL    HW215675   0.957   5.945   8.611
 5217SOL     OW15676   1.041   6.287   7.877
 5217SOL    HW115677   1.067   6.283   7.973
 5217SOL    HW215678   0.956   6.236   7.863
 5218SOL     OW15679   0.076   6.397   8.237
 5218SOL    HW115680   0.175   6.385   8.246
 5218SOL    HW215681   0.052   6.492   8.258
 5219SOL     OW15682   0.130   7.407   9.019
 5219SOL    HW115683   0.120   7.392   9.118
 5219SOL    HW215684   0.044   7.443   8.983
 5220SOL     OW15685   0.865   5.934   7.643
 5220SOL    HW115686   0.924   5.997   7.594
 5220SOL    HW215687   0.884   5.840   7.614
 5221SOL     OW15688   1.719   6.171   9.279
 5221SOL    HW115689   1.693   6.260   9.243
 5221SOL    HW215690   1.717   6.103   9.206
 5222SOL     OW15691   1.362   6.730   7.993
 5222SOL    HW115692   1.445   6.701   7.945
 5222SOL    HW215693   1.313   6.797   7.937
 5223SOL     OW15694   0.550   5.782   8.333
 5223SOL    HW115695   0.545   5.777   8.433
 5223SOL    HW215696   0.552   5.878   8.304
 5224SOL     OW15697   1.008   7.042   7.925
 5224SOL    HW115698   0.962   7.114   7.873
 5224SOL    HW215699   1.004   7.062   8.023
 5225SOL     OW15700   0.351   7.387   8.301
 5225SOL    HW115701   0.401   7.301   8.307
 5225SOL    HW215702   0.416   7.464   8.298
 5226SOL     OW15703   1.795   6.652   8.321
 5226SOL    HW115704   1.733   6.637   8.245
 5226SOL    HW215705   1.743   6.663   8.406
 5227SOL     OW15706   1.227   7.136   8.954
 5227SOL    HW115707   1.233   7.059   9.018
 5227SOL    HW215708   1.175   7.110   8.874
 5228SOL     OW15709   0.321   6.529   7.690
 5228SOL    HW115710   0.403   6.568   7.648
 5228SOL    HW215711   0.294   6.447   7.641
 5229SOL     OW15712   1.458   6.321   8.176
 5229SOL    HW115713   1.453   6.256   8.251
 5229SOL    HW215714   1.538   6.380   8.189
 5230SOL     OW15715   0.461   6.852   9.175
 5230SOL    HW115716   0.411   6.853   9.089
 5230SOL    HW215717   0.398   6.834   9.251
 5231SOL     OW15718   1.111   7.362   7.685
 5231SOL    HW115719   1.051   7.300   7.735
 5231SOL    HW215720   1.142   7.318   7.600
 5232SOL     OW15721   0.202   5.871   8.946
 5232SOL    HW115722   0.122   5.931   8.933
 5232SOL    HW215723   0.192   5.822   9.032
 5233SOL     OW15724   1.632   6.963   7.529
 5233SOL    HW115725   1.600   7.057   7.519
 5233SOL    HW215726   1.556   6.900   7.517
 5234SOL     OW15727   0.464   7.329   7.771
 5234SOL    HW115728   0.497   7.368   7.857
 5234SOL    HW215729   0.540   7.322   7.706
 5235SOL     OW15730   1.400   5.693   7.874
 5235SOL    HW115731   1.376   5.656   7.784
 5235SOL    HW215732   1.499   5.709   7.878
 5236SOL     OW15733   0.249   7.371   8.689
 5236SOL    HW115734   0.306   7.306   8.739
 5236SOL    HW215735   0.233   7.338   8.596
 5237SOL     OW15736   0.382   6.286   7.928
 5237SOL    HW115737   0.427   6.196   7.925
 5237SOL    HW215738   0.288   6.275   7.961
 5238SOL     OW15739   1.547   5.808   9.177
 5238SOL    HW115740   1.542   5.845   9.269
 5238SOL    HW215741   1.475   5.739   9.165
 5239SOL     OW15742   0.614   5.708   7.565
 5239SOL    HW115743   0.712   5.686   7.572
 5239SOL    HW215744   0.583   5.691   7.472
 5240SOL     OW15745   0.781   5.850   9.197
 5240SOL    HW115746   0.848   5.789   9.240
 5240SOL    HW215747   0.708   5.869   9.262
 5241SOL     OW15748   0.888   7.100   8.643
 5241SOL    HW115749   0.865   7.075   8.549
 5241SOL    HW215750   0.949   7.031   8.682
 5242SOL     OW15751   1.351   6.176   8.881
 5242SOL    HW115752   1.379   6.133   8.966
 5242SOL    HW215753   1.376   6.272   8.882
 5243SOL     OW15754   0.803   6.988   8.372
 5243SOL    HW115755   0.893   7.002   8.330
 5243SOL    HW215756   0.732   6.990   8.301
 5244SOL     OW15757   0.922   6.089   8.347
 5244SOL    HW115758   0.897   6.080   8.251
 5244SOL    HW215759   0.970   6.007   8.378
 5245SOL     OW15760   0.539   5.650   7.960
 5245SOL    HW115761   0.458   5.651   8.018
 5245SOL    HW215762   0.542   5.733   7.905
 5246SOL     OW15763   1.434   6.774   7.489
 5246SOL    HW115764   1.466   6.698   7.546
 5246SOL    HW215765   1.342   6.801   7.519
 5247SOL     OW15766   0.297   5.621   7.619
 5247SOL    HW115767   0.346   5.705   7.598
 5247SOL    HW215768   0.359   5.556   7.664
 5248SOL     OW15769   0.935   5.822   7.928
 5248SOL    HW115770   0.887   5.863   7.850
 5248SOL    HW215771   1.034   5.820   7.909
 5249SOL     OW15772   1.076   6.269   8.912
 5249SOL    HW115773   0.996   6.208   8.915
 5249SOL    HW215774   1.157   6.216   8.888
 5250SOL     OW15775   1.227   7.156   8.241
 5250SOL    HW115776   1.248   7.230   8.176
 5250SOL    HW215777   1.295   7.156   8.314
 5251SOL     OW15778   0.459   6.738   8.189
 5251SOL    HW115779   0.388   6.711   8.254
 5251SOL    HW215780   0.433   6.710   8.096
 5252SOL     OW15781   1.271   7.383   8.039
 5252SOL    HW115782   1.315   7.447   7.975
 5252SOL    HW215783   1.221   7.435   8.109
 5253SOL     OW15784   1.032   6.135   7.464
 5253SOL    HW115785   0.991   6.217   7.425
 5253SOL    HW215786   1.096   6.161   7.537
 5254SOL     OW15787   0.078   6.142   8.834
 5254SOL    HW115788   0.170   6.141   8.793
 5254SOL    HW215789   0.072   6.216   8.901
 5255SOL     OW15790   0.561   5.808   8.595
 5255SOL    HW115791   0.599   5.724   8.632
 5255SOL    HW215792   0.473   5.827   8.639
 5256SOL     OW15793   0.866   6.040   8.090
 5256SOL    HW115794   0.834   6.112   8.028
 5256SOL    HW215795   0.890   5.959   8.037
 5257SOL     OW15796   1.017   5.625   8.201
 5257SOL    HW115797   0.945   5.630   8.132
 5257SOL    HW215798   0.993   5.556   8.270
 5258SOL     OW15799   1.429   6.759   8.315
 5258SOL    HW115800   1.374   6.675   8.308
 5258SOL    HW215801   1.455   6.788   8.223
 5259SOL     OW15802   1.466   6.176   8.440
 5259SOL    HW115803   1.436   6.081   8.447
 5259SOL    HW215804   1.539   6.192   8.506
 5260SOL     OW15805   1.857   6.419   7.825
 5260SOL    HW115806   1.899   6.355   7.889
 5260SOL    HW215807   1.819   6.368   7.747
 5261SOL     OW15808   0.488   6.971   7.622
 5261SOL    HW115809   0.401   6.956   7.669
 5261SOL    HW215810   0.471   6.997   7.527
 5262SOL     OW15811   1.664   6.866   8.105
 5262SOL    HW115812   1.763   6.874   8.119
 5262SOL    HW215813   1.619   6.950   8.136
 5263SOL     OW15814   1.390   6.161   7.526
 5263SOL    HW115815   1.336   6.140   7.607
 5263SOL    HW215816   1.481   6.120   7.535
 5264SOL     OW15817   0.527   5.842   7.776
 5264SOL    HW115818   0.554   5.783   7.701
 5264SOL    HW215819   0.527   5.937   7.745
 5265SOL     OW15820   1.754   6.809   9.036
 5265SOL    HW115821   1.845   6.770   9.023
 5265SOL    HW215822   1.762   6.905   9.060
 5266SOL     OW15823   1.064   6.933   8.788
 5266SOL    HW115824   0.984   6.910   8.843
 5266SOL    HW215825   1.147   6.907   8.837
 5267SOL     OW15826   1.592   7.215   9.073
 5267SOL    HW115827   1.619   7.249   8.983
 5267SOL    HW215828   1.671   7.177   9.119
 5268SOL     OW15829   1.111   6.781   8.548
 5268SOL    HW115830   1.071   6.825   8.629
 5268SOL    HW215831   1.070   6.818   8.465
 5269SOL     OW15832   1.638   6.685   8.527
 5269SOL    HW115833   1.643   6.766   8.586
 5269SOL    HW215834   1.552   6.687   8.476
 5270SOL     OW15835   0.915   5.675   8.850
 5270SOL    HW115836   0.940   5.655   8.755
 5270SOL    HW215837   0.987   5.731   8.892
 5271SOL     OW15838   0.980   6.702   9.167
 5271SOL    HW115839   0.881   6.708   9.177
 5271SOL    HW215840   1.003   6.622   9.111
 5272SOL     OW15841   0.705   6.636   7.816
 5272SOL    HW115842   0.691   6.643   7.915
 5272SOL    HW215843   0.789   6.585   7.798
 5273SOL     OW15844   0.410   6.399   8.699
 5273SOL    HW115845   0.496   6.411   8.749
 5273SOL    HW215846   0.368   6.312   8.726
 5274SOL     OW15847   1.274   5.972   8.710
 5274SOL    HW115848   1.295   6.046   8.774
 5274SOL    HW215849   1.185   5.989   8.667
 5275SOL     OW15850   0.064   7.150   8.779
 5275SOL    HW115851   0.018   7.232   8.745
 5275SOL    HW215852   0.162   7.169   8.788
 5276SOL     OW15853   0.367   6.686   7.949
 5276SOL    HW115854   0.360   6.769   7.893
 5276SOL    HW215855   0.371   6.606   7.889
 5277SOL     OW15856   0.566   6.123   8.313
 5277SOL    HW115857   0.578   6.189   8.239
 5277SOL    HW215858   0.612   6.157   8.396
 5278SOL     OW15859   1.252   6.934   7.836
 5278SOL    HW115860   1.302   7.011   7.876
 5278SOL    HW215861   1.157   6.936   7.868
 5279SOL     OW15862   1.272   7.031   8.590
 5279SOL    HW115863   1.319   7.044   8.677
 5279SOL    HW215864   1.206   6.957   8.599
 5280SOL     OW15865   1.582   6.225   7.920
 5280SOL    HW115866   1.551   6.286   7.993
 5280SOL    HW215867   1.632   6.277   7.851
 5281SOL     OW15868   0.354   7.096   8.777
 5281SOL    HW115869   0.333   7.052   8.690
 5281SOL    HW215870   0.451   7.122   8.780
 5282SOL     OW15871   0.402   6.337   9.046
 5282SOL    HW115872   0.470   6.392   8.999
 5282SOL    HW215873   0.442   6.249   9.073
 5283SOL     OW15874   1.587   6.365   9.118
 5283SOL    HW115875   1.495   6.403   9.113
 5283SOL    HW215876   1.647   6.412   9.053
 5284SOL     OW15877   1.013   5.691   9.218
 5284SOL    HW115878   1.019   5.776   9.166
 5284SOL    HW215879   1.045   5.615   9.161
 5285SOL     OW15880   0.504   5.636   9.188
 5285SOL    HW115881   0.462   5.579   9.118
 5285SOL    HW215882   0.438   5.705   9.220
 5286SOL     OW15883   0.573   6.456   8.477
 5286SOL    HW115884   0.617   6.545   8.468
 5286SOL    HW215885   0.510   6.456   8.554
 5287SOL     OW15886   1.360   6.448   8.493
 5287SOL    HW115887   1.285   6.448   8.427
 5287SOL    HW215888   1.397   6.356   8.502
 5288SOL     OW15889   1.209   6.111   7.723
 5288SOL    HW115890   1.222   6.027   7.777
 5288SOL    HW215891   1.180   6.185   7.783
 5289SOL     OW15892   0.307   5.799   8.679
 5289SOL    HW115893   0.284   5.836   8.769
 5289SOL    HW215894   0.277   5.704   8.673
 5290SOL     OW15895   0.037   6.896   8.730
 5290SOL    HW115896   0.090   6.847   8.798
 5290SOL    HW215897   0.059   6.994   8.735
 5291SOL     OW15898   1.728   6.521   9.302
 5291SOL    HW115899   1.682   6.514   9.213
 5291SOL    HW215900   1.666   6.565   9.368
 5292SOL     OW15901   0.307   5.649   8.066
 5292SOL    HW115902   0.296   5.743   8.099
 5292SOL    HW215903   0.302   5.586   8.143
 5293SOL     OW15904   1.622   5.953   7.822
 5293SOL    HW115905   1.624   5.877   7.886
 5293SOL    HW215906   1.574   6.030   7.862
 5294SOL     OW15907   1.023   6.352   8.414
 5294SOL    HW115908   1.038   6.373   8.510
 5294SOL    HW215909   0.993   6.257   8.405
 5295SOL     OW15910   0.980   7.159   9.148
 5295SOL    HW115911   0.960   7.203   9.060
 5295SOL    HW215912   1.019   7.068   9.132
 5296SOL     OW15913   1.859   7.104   9.053
 5296SOL    HW115914   1.873   7.131   8.958
 5296SOL    HW215915   1.942   7.126   9.106
 5297SOL     OW15916   0.350   6.484   9.252
 5297SOL    HW115917   0.426   6.528   9.300
 5297SOL    HW215918   0.385   6.437   9.170
 5298SOL     OW15919   1.540   5.860   7.573
 5298SOL    HW115920   1.479   5.785   7.596
 5298SOL    HW215921   1.562   5.912   7.656
 5299SOL     OW15922   1.303   6.424   7.490
 5299SOL    HW115923   1.337   6.331   7.505
 5299SOL    HW215924   1.321   6.451   7.395
 5300SOL     OW15925   1.068   6.919   8.297
 5300SOL    HW115926   1.075   6.835   8.242
 5300SOL    HW215927   1.130   6.988   8.261
 5301SOL     OW15928   0.319   6.396   8.397
 5301SOL    HW115929   0.412   6.432   8.402
 5301SOL    HW215930   0.313   6.311   8.449
 5302SOL     OW15931   0.339   6.095   8.454
 5302SOL    HW115932   0.287   6.012   8.437
 5302SOL    HW215933   0.416   6.100   8.390
 5303SOL     OW15934   1.138   5.966   9.126
 5303SOL    HW115935   1.093   6.029   9.190
 5303SOL    HW215936   1.231   5.997   9.109
 5304SOL     OW15937   1.160   5.793   8.925
 5304SOL    HW115938   1.160   5.857   9.002
 5304SOL    HW215939   1.188   5.841   8.842
 5305SOL     OW15940   0.008   6.912   7.648
 5305SOL    HW115941  -0.085   6.933   7.617
 5305SOL    HW215942   0.018   6.813   7.661
 5306SOL     OW15943   0.088   7.387   8.375
 5306SOL    HW115944   0.046   7.301   8.348
 5306SOL    HW215945   0.182   7.390   8.341
 5307SOL     OW15946   0.504   7.154   8.358
 5307SOL    HW115947   0.570   7.228   8.367
 5307SOL    HW215948   0.548   7.075   8.316
 5308SOL     OW15949   1.002   6.382   8.686
 5308SOL    HW115950   1.043   6.350   8.772
 5308SOL    HW215951   0.906   6.355   8.683
 5309SOL     OW15952   0.040   6.130   8.562
 5309SOL    HW115953   0.125   6.097   8.521
 5309SOL    HW215954   0.053   6.145   8.660
 5310SOL     OW15955   0.189   6.106   9.170
 5310SOL    HW115956   0.248   6.066   9.100
 5310SOL    HW215957   0.131   6.177   9.129
 5311SOL     OW15958   1.369   6.536   9.108
 5311SOL    HW115959   1.408   6.625   9.128
 5311SOL    HW215960   1.379   6.516   9.011
 5312SOL     OW15961   0.815   6.158   7.773
 5312SOL    HW115962   0.822   6.069   7.727
 5312SOL    HW215963   0.721   6.192   7.765
 5313SOL     OW15964   1.657   6.190   8.654
 5313SOL    HW115965   1.619   6.121   8.716
 5313SOL    HW215966   1.739   6.154   8.610
 5314SOL     OW15967   0.252   7.150   9.192
 5314SOL    HW115968   0.222   7.207   9.268
 5314SOL    HW215969   0.245   7.053   9.218
 5315SOL     OW15970   0.671   6.050   8.717
 5315SOL    HW115971   0.637   5.961   8.687
 5315SOL    HW215972   0.697   6.104   8.637
 5316SOL     OW15973   0.930   7.264   8.913
 5316SOL    HW115974   0.906   7.246   8.818
 5316SOL    HW215975   0.960   7.358   8.923
 5317SOL     OW15976   0.473   6.086   7.639
 5317SOL    HW115977   0.534   6.166   7.643
 5317SOL    HW215978   0.378   6.117   7.646
 5318SOL     OW15979   0.159   6.723   8.914
 5318SOL    HW115980   0.181   6.662   8.990
 5318SOL    HW215981   0.169   6.674   8.828
 5319SOL     OW15982   1.347   6.645   8.682
 5319SOL    HW115983   1.371   6.582   8.608
 5319SOL    HW215984   1.257   6.685   8.664
 5320SOL     OW15985   1.302   6.441   7.757
 5320SOL    HW115986   1.216   6.410   7.799
 5320SOL    HW215987   1.298   6.427   7.658
 5321SOL     OW15988   1.759   7.333   8.602
 5321SOL    HW115989   1.820   7.363   8.529
 5321SOL    HW215990   1.721   7.244   8.580
 5322SOL     OW15991   1.252   7.317   8.576
 5322SOL    HW115992   1.336   7.322   8.522
 5322SOL    HW215993   1.229   7.221   8.594
 5323SOL     OW15994   0.083   6.844   8.470
 5323SOL    HW115995   0.078   6.843   8.570
 5323SOL    HW215996   0.000   6.803   8.432
 5324SOL     OW15997   0.688   7.248   9.164
 5324SOL    HW115998   0.632   7.329   9.173
 5324SOL    HW215999   0.740   7.252   9.078
 5325SOL     OW16000   1.726   5.721   7.971
 5325SOL    HW116001   1.799   5.704   7.904
 5325SOL    HW216002   1.695   5.634   8.009
 5326SOL     OW16003   1.388   7.159   7.925
 5326SOL    HW116004   1.455   7.171   7.851
 5326SOL    HW216005   1.348   7.248   7.948
 5327SOL     OW16006   0.130   7.380   9.299
 5327SOL    HW116007   0.089   7.306   9.352
 5327SOL    HW216008   0.194   7.431   9.357
 5328SOL     OW16009   1.280   6.513   8.120
 5328SOL    HW116010   1.340   6.432   8.122
 5328SOL    HW216011   1.320   6.582   8.060
 5329SOL     OW16012   0.830   6.859   8.870
 5329SOL    HW116013   0.825   6.892   8.965
 5329SOL    HW216014   0.744   6.878   8.824
 5330SOL     OW16015   0.672   7.202   7.602
 5330SOL    HW116016   0.681   7.212   7.503
 5330SOL    HW216017   0.632   7.113   7.623
 5331SOL     OW16018   1.650   7.306   8.842
 5331SOL    HW116019   1.703   7.316   8.758
 5331SOL    HW216020   1.623   7.396   8.876
 5332SOL     OW16021   1.841   5.761   8.411
 5332SOL    HW116022   1.880   5.676   8.375
 5332SOL    HW216023   1.743   5.763   8.392
 5333SOL     OW16024   0.263   5.912   8.168
 5333SOL    HW116025   0.184   5.963   8.134
 5333SOL    HW216026   0.254   5.897   8.266
 5334SOL     OW16027   1.194   7.198   7.479
 5334SOL    HW116028   1.200   7.105   7.516
 5334SOL    HW216029   1.135   7.198   7.399
 5335SOL     OW16030   0.822   6.588   8.820
 5335SOL    HW116031   0.862   6.587   8.728
 5335SOL    HW216032   0.832   6.680   8.860
 5336SOL     OW16033   0.916   6.496   7.739
 5336SOL    HW116034   0.979   6.534   7.671
 5336SOL    HW216035   0.956   6.413   7.778
 5337SOL     OW16036   1.504   7.193   7.492
 5337SOL    HW116037   1.412   7.230   7.499
 5337SOL    HW216038   1.542   7.213   7.402
 5338SOL     OW16039   0.372   6.874   8.938
 5338SOL    HW116040   0.359   6.967   8.904
 5338SOL    HW216041   0.288   6.822   8.925
 5339SOL     OW16042   1.614   6.878   8.737
 5339SOL    HW116043   1.674   6.881   8.817
 5339SOL    HW216044   1.539   6.942   8.750
 5340SOL     OW16045   1.039   6.684   8.144
 5340SOL    HW116046   0.969   6.637   8.198
 5340SOL    HW216047   1.098   6.616   8.101
 5341SOL     OW16048   1.014   5.822   8.419
 5341SOL    HW116049   1.006   5.786   8.326
 5341SOL    HW216050   1.012   5.746   8.484
 5342SOL     OW16051   0.590   7.073   7.939
 5342SOL    HW116052   0.632   7.015   7.869
 5342SOL    HW216053   0.546   7.152   7.895
 5343SOL     OW16054   1.709   5.971   8.829
 5343SOL    HW116055   1.782   6.040   8.833
 5343SOL    HW216056   1.737   5.896   8.770
 5344SOL     OW16057   0.255   6.934   7.738
 5344SOL    HW116058   0.159   6.935   7.711
 5344SOL    HW216059   0.267   6.987   7.822
 5345SOL     OW16060   0.105   6.599   9.174
 5345SOL    HW116061   0.028   6.566   9.228
 5345SOL    HW216062   0.190   6.569   9.216
 5346SOL     OW16063   0.672   5.789   8.937
 5346SOL    HW116064   0.762   5.773   8.897
 5346SOL    HW216065   0.680   5.794   9.036
 5347SOL     OW16066   0.075   5.931   7.481
 5347SOL    HW116067  -0.017   5.903   7.452
 5347SOL    HW216068   0.106   6.008   7.425
 5348SOL     OW16069   1.440   6.442   8.846
 5348SOL    HW116070   1.383   6.494   8.783
 5348SOL    HW216071   1.536   6.454   8.822
 5349SOL     OW16072   0.072   5.752   7.766
 5349SOL    HW116073   0.055   5.835   7.712
 5349SOL    HW216074   0.162   5.715   7.744
 5350SOL     OW16075   1.183   6.921   7.567
 5350SOL    HW116076   1.084   6.910   7.569
 5350SOL    HW216077   1.217   6.936   7.660
 5351SOL     OW16078   0.613   6.428   8.879
 5351SOL    HW116079   0.669   6.509   8.862
 5351SOL    HW216080   0.672   6.348   8.882
 5352SOL     OW16081   1.493   7.353   8.407
 5352SOL    HW116082   1.526   7.417   8.338
 5352SOL    HW216083   1.559   7.347   8.482
 5353SOL     OW16084   0.716   6.151   9.156
 5353SOL    HW116085   0.735   6.216   9.230
 5353SOL    HW216086   0.776   6.071   9.165
 5354SOL     OW16087   1.450   6.806   9.081
 5354SOL    HW116088   1.441   6.796   9.180
 5354SOL    HW216089   1.546   6.799   9.055
 5355SOL     OW16090   0.390   7.327   9.008
 5355SOL    HW116091   0.299   7.368   9.006
 5355SOL    HW216092   0.383   7.233   9.040
 5356SOL     OW16093   1.674   6.469   8.702
 5356SOL    HW116094   1.647   6.380   8.665
 5356SOL    HW216095   1.675   6.537   8.629
 5357SOL     OW16096   1.225   5.911   7.897
 5357SOL    HW116097   1.290   5.837   7.886
 5357SOL    HW216098   1.245   5.961   7.981
 5358SOL     OW16099   0.594   6.331   8.100
 5358SOL    HW116100   0.644   6.416   8.081
 5358SOL    HW216101   0.506   6.333   8.052
 5359SOL     OW16102   1.777   5.928   9.090
 5359SOL    HW116103   1.760   5.959   8.996
 5359SOL    HW216104   1.693   5.891   9.128
 5360SOL     OW16105   1.730   6.520   8.965
 5360SOL    HW116106   1.768   6.611   8.980
 5360SOL    HW216107   1.722   6.503   8.866
 5361SOL     OW16108   0.859   6.960   7.464
 5361SOL    HW116109   0.813   6.975   7.552
 5361SOL    HW216110   0.903   7.045   7.434
 5362SOL     OW16111   0.661   7.376   8.401
 5362SOL    HW116112   0.615   7.464   8.388
 5362SOL    HW216113   0.760   7.388   8.394
 5363SOL     OW16114   0.859   6.542   8.309
 5363SOL    HW116115   0.913   6.473   8.357
 5363SOL    HW216116   0.827   6.611   8.375
 5364SOL     OW16117   1.083   6.570   7.535
 5364SOL    HW116118   1.060   6.623   7.453
 5364SOL    HW216119   1.164   6.514   7.516
 5365SOL     OW16120   1.861   7.155   8.299
 5365SOL    HW116121   1.790   7.143   8.229
 5365SOL    HW216122   1.862   7.076   8.359
 5366SOL     OW16123   0.221   6.900   9.292
 5366SOL    HW116124   0.156   6.827   9.271
 5366SOL    HW216125   0.225   6.914   9.390
 5367SOL     OW16126   0.079   6.826   8.101
 5367SOL    HW116127   0.078   6.779   8.189
 5367SOL    HW216128   0.161   6.798   8.050
 5368SOL     OW16129   0.672   6.977   9.072
 5368SOL    HW116130   0.594   6.927   9.110
 5368SOL    HW216131   0.669   7.072   9.103
 5369SOL     OW16132   1.824   5.778   8.675
 5369SOL    HW116133   1.820   5.688   8.719
 5369SOL    HW216134   1.827   5.767   8.576
 5370SOL     OW16135   0.428   6.010   7.968
 5370SOL    HW116136   0.458   5.938   7.906
 5370SOL    HW216137   0.389   5.970   8.051
 5371SOL     OW16138   1.705   7.073   8.552
 5371SOL    HW116139   1.612   7.048   8.525
 5371SOL    HW216140   1.731   7.023   8.634
 5372SOL     OW16141   0.317   6.133   8.728
 5372SOL    HW116142   0.355   6.074   8.800
 5372SOL    HW216143   0.357   6.107   8.640
 5373SOL     OW16144   0.812   7.172   8.135
 5373SOL    HW116145   0.844   7.182   8.041
 5373SOL    HW216146   0.733   7.110   8.137
 5374SOL     OW16147   1.424   5.800   8.560
 5374SOL    HW116148   1.476   5.735   8.615
 5374SOL    HW216149   1.375   5.863   8.621
 5375SOL     OW16150   1.001   5.620   8.602
 5375SOL    HW116151   0.938   5.548   8.571
 5375SOL    HW216152   1.094   5.584   8.602
 5376SOL     OW16153   0.770   6.916   7.749
 5376SOL    HW116154   0.724   6.829   7.766
 5376SOL    HW216155   0.861   6.913   7.790
 5377SOL     OW16156   0.618   7.153   8.732
 5377SOL    HW116157   0.613   7.235   8.789
 5377SOL    HW216158   0.707   7.150   8.687
 5378SOL     OW16159   1.352   5.638   7.616
 5378SOL    HW116160   1.387   5.597   7.532
 5378SOL    HW216161   1.262   5.600   7.636
 5379SOL     OW16162   1.300   6.039   8.139
 5379SOL    HW116163   1.241   6.119   8.143
 5379SOL    HW216164   1.315   6.004   8.232
 5380SOL     OW16165   1.593   5.807   8.330
 5380SOL    HW116166   1.509   5.806   8.384
 5380SOL    HW216167   1.595   5.890   8.274
 5381SOL     OW16168   0.039   6.663   7.748
 5381SOL    HW116169   0.138   6.652   7.739
 5381SOL    HW216170  -0.001   6.577   7.780
 5382SOL     OW16171   0.875   7.232   7.785
 5382SOL    HW116172   0.798   7.197   7.731
 5382SOL    HW216173   0.843   7.303   7.847
 5383SOL     OW16174   0.230   6.214   9.423
 5383SOL    HW116175   0.137   6.212   9.460
 5383SOL    HW216176   0.231   6.175   9.331
 5384SOL     OW16177   0.225   5.861  10.306
 5384SOL    HW116178   0.260   5.844  10.398
 5384SOL    HW216179   0.137   5.816  10.294
 5385SOL     OW16180   0.019   5.954   9.957
 5385SOL    HW116181  -0.063   5.997   9.996
 5385SOL    HW216182  -0.009   5.881   9.894
 5386SOL     OW16183   0.569   6.861  10.475
 5386SOL    HW116184   0.476   6.854  10.438
 5386SOL    HW216185   0.580   6.950  10.519
 5387SOL     OW16186   1.555   7.097  10.013
 5387SOL    HW116187   1.498   7.081  10.094
 5387SOL    HW216188   1.496   7.107   9.933
 5388SOL     OW16189   1.135   6.289  10.027
 5388SOL    HW116190   1.192   6.367  10.002
 5388SOL    HW216191   1.075   6.315  10.103
 5389SOL     OW16192   1.755   6.193   9.541
 5389SOL    HW116193   1.743   6.180   9.442
 5389SOL    HW216194   1.725   6.112   9.590
 5390SOL     OW16195   0.768   6.730  10.333
 5390SOL    HW116196   0.690   6.747  10.393
 5390SOL    HW216197   0.802   6.817  10.297
 5391SOL     OW16198   0.850   6.384  11.133
 5391SOL    HW116199   0.846   6.460  11.198
 5391SOL    HW216200   0.872   6.420  11.042
 5392SOL     OW16201   0.685   6.598   9.975
 5392SOL    HW116202   0.754   6.582  10.045
 5392SOL    HW216203   0.612   6.655  10.013
 5393SOL     OW16204   0.686   6.747  11.113
 5393SOL    HW116205   0.746   6.826  11.127
 5393SOL    HW216206   0.600   6.778  11.072
 5394SOL     OW16207   0.335   7.021  10.371
 5394SOL    HW116208   0.257   6.990  10.318
 5394SOL    HW216209   0.393   7.079  10.314
 5395SOL     OW16210   1.460   7.091  10.649
 5395SOL    HW116211   1.484   7.185  10.675
 5395SOL    HW216212   1.444   7.037  10.731
 5396SOL     OW16213   0.438   5.978  10.809
 5396SOL    HW116214   0.520   5.922  10.818
 5396SOL    HW216215   0.357   5.920  10.813
 5397SOL     OW16216   1.603   6.033  10.047
 5397SOL    HW116217   1.529   6.079   9.997
 5397SOL    HW216218   1.654   6.101  10.100
 5398SOL     OW16219   0.231   7.299   9.793
 5398SOL    HW116220   0.265   7.376   9.847
 5398SOL    HW216221   0.275   7.299   9.703
 5399SOL     OW16222   1.127   6.927  11.000
 5399SOL    HW116223   1.174   6.927  11.088
 5399SOL    HW216224   1.079   6.840  10.989
 5400SOL     OW16225   0.230   7.020   9.848
 5400SOL    HW116226   0.204   7.116   9.848
 5400SOL    HW216227   0.159   6.966   9.893
 5401SOL     OW16228   0.240   6.677  10.196
 5401SOL    HW116229   0.254   6.593  10.248
 5401SOL    HW216230   0.185   6.741  10.251
 5402SOL     OW16231   0.620   7.372  10.749
 5402SOL    HW116232   0.528   7.355  10.784
 5402SOL    HW216233   0.648   7.464  10.775
 5403SOL     OW16234   0.606   6.550   9.433
 5403SOL    HW116235   0.613   6.634   9.379
 5403SOL    HW216236   0.652   6.563   9.521
 5404SOL     OW16237   1.594   5.700  10.790
 5404SOL    HW116238   1.576   5.767  10.718
 5404SOL    HW216239   1.591   5.746  10.879
 5405SOL     OW16240   0.122   6.229   9.873
 5405SOL    HW116241   0.077   6.141   9.890
 5405SOL    HW216242   0.121   6.283   9.957
 5406SOL     OW16243   1.842   7.353   9.669
 5406SOL    HW116244   1.896   7.324   9.749
 5406SOL    HW216245   1.872   7.443   9.640
 5407SOL     OW16246   0.027   7.182   9.427
 5407SOL    HW116247   0.008   7.086   9.448
 5407SOL    HW216248  -0.006   7.240   9.502
 5408SOL     OW16249   1.689   6.508   9.922
 5408SOL    HW116250   1.784   6.479   9.930
 5408SOL    HW216251   1.681   6.573   9.847
 5409SOL     OW16252   1.641   6.694   9.742
 5409SOL    HW116253   1.727   6.696   9.690
 5409SOL    HW216254   1.655   6.741   9.830
 5410SOL     OW16255   0.113   6.323  10.907
 5410SOL    HW116256   0.201   6.310  10.952
 5410SOL    HW216257   0.100   6.420  10.885
 5411SOL     OW16258   0.613   6.951  10.036
 5411SOL    HW116259   0.564   6.864  10.045
 5411SOL    HW216260   0.590   6.994   9.949
 5412SOL     OW16261   1.293   6.814  10.733
 5412SOL    HW116262   1.330   6.741  10.675
 5412SOL    HW216263   1.345   6.819  10.818
 5413SOL     OW16264   0.809   5.590   9.812
 5413SOL    HW116265   0.849   5.681   9.803
 5413SOL    HW216266   0.709   5.598   9.818
 5414SOL     OW16267   0.197   6.562  10.574
 5414SOL    HW116268   0.286   6.517  10.560
 5414SOL    HW216269   0.124   6.497  10.555
 5415SOL     OW16270   1.525   6.585   9.500
 5415SOL    HW116271   1.462   6.509   9.513
 5415SOL    HW216272   1.573   6.603   9.586
 5416SOL     OW16273   1.187   7.378  10.926
 5416SOL    HW116274   1.211   7.438  10.850
 5416SOL    HW216275   1.194   7.283  10.896
 5417SOL     OW16276   0.317   5.837  11.111
 5417SOL    HW116277   0.388   5.908  11.117
 5417SOL    HW216278   0.229   5.876  11.139
 5418SOL     OW16279   1.466   7.003  10.263
 5418SOL    HW116280   1.407   7.009  10.343
 5418SOL    HW216281   1.451   6.915  10.217
 5419SOL     OW16282   1.667   7.300   9.882
 5419SOL    HW116283   1.626   7.277   9.794
 5419SOL    HW216284   1.649   7.226   9.947
 5420SOL     OW16285   0.598   6.315   9.580
 5420SOL    HW116286   0.622   6.384   9.512
 5420SOL    HW216287   0.520   6.348   9.634
 5421SOL     OW16288   1.281   5.931  10.254
 5421SOL    HW116289   1.195   5.881  10.241
 5421SOL    HW216290   1.343   5.877  10.310
 5422SOL     OW16291   1.576   7.248   9.617
 5422SOL    HW116292   1.665   7.294   9.620
 5422SOL    HW216293   1.555   7.224   9.522
 5423SOL     OW16294   0.807   6.191  10.775
 5423SOL    HW116295   0.760   6.188  10.864
 5423SOL    HW216296   0.756   6.136  10.709
 5424SOL     OW16297   1.394   6.055  10.984
 5424SOL    HW116298   1.374   6.098  11.072
 5424SOL    HW216299   1.472   5.993  10.993
 5425SOL     OW16300   0.973   6.476  10.882
 5425SOL    HW116301   1.019   6.392  10.853
 5425SOL    HW216302   0.917   6.510  10.807
 5426SOL     OW16303   0.991   5.996  10.552
 5426SOL    HW116304   0.914   6.030  10.606
 5426SOL    HW216305   0.957   5.945  10.473
 5427SOL     OW16306   1.041   6.287   9.739
 5427SOL    HW116307   1.067   6.283   9.835
 5427SOL    HW216308   0.956   6.236   9.725
 5428SOL     OW16309   0.076   6.397  10.099
 5428SOL    HW116310   0.175   6.385  10.108
 5428SOL    HW216311   0.052   6.492  10.120
 5429SOL     OW16312   0.130   7.407  10.881
 5429SOL    HW116313   0.120   7.392  10.980
 5429SOL    HW216314   0.044   7.443  10.845
 5430SOL     OW16315   0.865   5.934   9.505
 5430SOL    HW116316   0.924   5.997   9.456
 5430SOL    HW216317   0.884   5.840   9.476
 5431SOL     OW16318   1.719   6.171  11.141
 5431SOL    HW116319   1.693   6.260  11.105
 5431SOL    HW216320   1.717   6.103  11.068
 5432SOL     OW16321   1.362   6.730   9.855
 5432SOL    HW116322   1.445   6.701   9.807
 5432SOL    HW216323   1.313   6.797   9.799
 5433SOL     OW16324   0.550   5.782  10.195
 5433SOL    HW116325   0.545   5.777  10.295
 5433SOL    HW216326   0.552   5.878  10.166
 5434SOL     OW16327   1.008   7.042   9.787
 5434SOL    HW116328   0.962   7.114   9.735
 5434SOL    HW216329   1.004   7.062   9.885
 5435SOL     OW16330   0.351   7.387  10.163
 5435SOL    HW116331   0.401   7.301  10.169
 5435SOL    HW216332   0.416   7.464  10.160
 5436SOL     OW16333   1.795   6.652  10.183
 5436SOL    HW116334   1.733   6.637  10.107
 5436SOL    HW216335   1.743   6.663  10.268
 5437SOL     OW16336   1.227   7.136  10.816
 5437SOL    HW116337   1.233   7.059  10.880
 5437SOL    HW216338   1.175   7.110  10.736
 5438SOL     OW16339   0.321   6.529   9.552
 5438SOL    HW116340   0.403   6.568   9.510
 5438SOL    HW216341   0.294   6.447   9.503
 5439SOL     OW16342   1.458   6.321  10.038
 5439SOL    HW116343   1.453   6.256  10.113
 5439SOL    HW216344   1.538   6.380  10.051
 5440SOL     OW16345   0.461   6.852  11.037
 5440SOL    HW116346   0.411   6.853  10.951
 5440SOL    HW216347   0.398   6.834  11.113
 5441SOL     OW16348   1.111   7.362   9.547
 5441SOL    HW116349   1.051   7.300   9.597
 5441SOL    HW216350   1.142   7.318   9.462
 5442SOL     OW16351   0.202   5.871  10.808
 5442SOL    HW116352   0.122   5.931  10.795
 5442SOL    HW216353   0.192   5.822  10.894
 5443SOL     OW16354   1.632   6.963   9.391
 5443SOL    HW116355   1.600   7.057   9.381
 5443SOL    HW216356   1.556   6.900   9.379
 5444SOL     OW16357   0.464   7.329   9.633
 5444SOL    HW116358   0.497   7.368   9.719
 5444SOL    HW216359   0.540   7.322   9.568
 5445SOL     OW16360   1.400   5.693   9.736
 5445SOL    HW116361   1.376   5.656   9.646
 5445SOL    HW216362   1.499   5.709   9.740
 5446SOL     OW16363   0.249   7.371  10.551
 5446SOL    HW116364   0.306   7.306  10.601
 5446SOL    HW216365   0.233   7.338  10.458
 5447SOL     OW16366   0.940   7.284  10.214
 5447SOL    HW116367   1.020   7.227  10.235
 5447SOL    HW216368   0.891   7.244  10.137
 5448SOL     OW16369   0.382   6.286   9.790
 5448SOL    HW116370   0.427   6.196   9.787
 5448SOL    HW216371   0.288   6.275   9.823
 5449SOL     OW16372   1.547   5.808  11.039
 5449SOL    HW116373   1.542   5.845  11.131
 5449SOL    HW216374   1.475   5.739  11.027
 5450SOL     OW16375   0.614   5.708   9.427
 5450SOL    HW116376   0.712   5.686   9.434
 5450SOL    HW216377   0.583   5.691   9.334
 5451SOL     OW16378   0.781   5.850  11.059
 5451SOL    HW116379   0.848   5.789  11.102
 5451SOL    HW216380   0.708   5.869  11.124
 5452SOL     OW16381   0.888   7.100  10.505
 5452SOL    HW116382   0.865   7.075  10.411
 5452SOL    HW216383   0.949   7.031  10.544
 5453SOL     OW16384   1.351   6.176  10.743
 5453SOL    HW116385   1.379   6.133  10.828
 5453SOL    HW216386   1.376   6.272  10.744
 5454SOL     OW16387   0.803   6.988  10.234
 5454SOL    HW116388   0.893   7.002  10.192
 5454SOL    HW216389   0.732   6.990  10.163
 5455SOL     OW16390   0.922   6.089  10.209
 5455SOL    HW116391   0.897   6.080  10.113
 5455SOL    HW216392   0.970   6.007  10.240
 5456SOL     OW16393   0.539   5.650   9.822
 5456SOL    HW116394   0.458   5.651   9.880
 5456SOL    HW216395   0.542   5.733   9.767
 5457SOL     OW16396   1.434   6.774   9.351
 5457SOL    HW116397   1.466   6.698   9.408
 5457SOL    HW216398   1.342   6.801   9.381
 5458SOL     OW16399   0.297   5.621   9.481
 5458SOL    HW116400   0.346   5.705   9.460
 5458SOL    HW216401   0.359   5.556   9.526
 5459SOL     OW16402   0.935   5.822   9.790
 5459SOL    HW116403   0.887   5.863   9.712
 5459SOL    HW216404   1.034   5.820   9.771
 5460SOL     OW16405   1.076   6.269  10.774
 5460SOL    HW116406   0.996   6.208  10.777
 5460SOL    HW216407   1.157   6.216  10.750
 5461SOL     OW16408   1.227   7.156  10.103
 5461SOL    HW116409   1.248   7.230  10.038
 5461SOL    HW216410   1.295   7.156  10.176
 5462SOL     OW16411   0.459   6.738  10.051
 5462SOL    HW116412   0.388   6.711  10.116
 5462SOL    HW216413   0.433   6.710   9.958
 5463SOL     OW16414   1.271   7.383   9.901
 5463SOL    HW116415   1.315   7.447   9.837
 5463SOL    HW216416   1.221   7.435   9.971
 5464SOL     OW16417   1.032   6.135   9.326
 5464SOL    HW116418   0.991   6.217   9.287
 5464SOL    HW216419   1.096   6.161   9.399
 5465SOL     OW16420   0.078   6.142  10.696
 5465SOL    HW116421   0.170   6.141  10.655
 5465SOL    HW216422   0.072   6.216  10.763
 5466SOL     OW16423   0.561   5.808  10.457
 5466SOL    HW116424   0.599   5.724  10.494
 5466SOL    HW216425   0.473   5.827  10.501
 5467SOL     OW16426   0.866   6.040   9.952
 5467SOL    HW116427   0.834   6.112   9.890
 5467SOL    HW216428   0.890   5.959   9.899
 5468SOL     OW16429   1.017   5.625  10.063
 5468SOL    HW116430   0.945   5.630   9.994
 5468SOL    HW216431   0.993   5.556  10.132
 5469SOL     OW16432   1.429   6.759  10.177
 5469SOL    HW116433   1.374   6.675  10.170
 5469SOL    HW216434   1.455   6.788  10.085
 5470SOL     OW16435   1.466   6.176  10.302
 5470SOL    HW116436   1.436   6.081  10.309
 5470SOL    HW216437   1.539   6.192  10.368
 5471SOL     OW16438   1.857   6.419   9.687
 5471SOL    HW116439   1.899   6.355   9.751
 5471SOL    HW216440   1.819   6.368   9.609
 5472SOL     OW16441   0.488   6.971   9.484
 5472SOL    HW116442   0.401   6.956   9.531
 5472SOL    HW216443   0.471   6.997   9.389
 5473SOL     OW16444   1.664   6.866   9.967
 5473SOL    HW116445   1.763   6.874   9.981
 5473SOL    HW216446   1.619   6.950   9.998
 5474SOL     OW16447   1.390   6.161   9.388
 5474SOL    HW116448   1.336   6.140   9.469
 5474SOL    HW216449   1.481   6.120   9.397
 5475SOL     OW16450   0.527   5.842   9.638
 5475SOL    HW116451   0.554   5.783   9.563
 5475SOL    HW216452   0.527   5.937   9.607
 5476SOL     OW16453   1.754   6.809  10.898
 5476SOL    HW116454   1.845   6.770  10.885
 5476SOL    HW216455   1.762   6.905  10.922
 5477SOL     OW16456   1.064   6.933  10.650
 5477SOL    HW116457   0.984   6.910  10.705
 5477SOL    HW216458   1.147   6.907  10.699
 5478SOL     OW16459   1.592   7.215  10.935
 5478SOL    HW116460   1.619   7.249  10.845
 5478SOL    HW216461   1.671   7.177  10.981
 5479SOL     OW16462   1.111   6.781  10.410
 5479SOL    HW116463   1.071   6.825  10.491
 5479SOL    HW216464   1.070   6.818  10.327
 5480SOL     OW16465   1.638   6.685  10.389
 5480SOL    HW116466   1.643   6.766  10.448
 5480SOL    HW216467   1.552   6.687  10.338
 5481SOL     OW16468   0.915   5.675  10.712
 5481SOL    HW116469   0.940   5.655  10.617
 5481SOL    HW216470   0.987   5.731  10.754
 5482SOL     OW16471   0.980   6.702  11.029
 5482SOL    HW116472   0.881   6.708  11.039
 5482SOL    HW216473   1.003   6.622  10.973
 5483SOL     OW16474   0.705   6.636   9.678
 5483SOL    HW116475   0.691   6.643   9.777
 5483SOL    HW216476   0.789   6.585   9.660
 5484SOL     OW16477   0.410   6.399  10.561
 5484SOL    HW116478   0.496   6.411  10.611
 5484SOL    HW216479   0.368   6.312  10.588
 5485SOL     OW16480   1.274   5.972  10.572
 5485SOL    HW116481   1.295   6.046  10.636
 5485SOL    HW216482   1.185   5.989  10.529
 5486SOL     OW16483   0.064   7.150  10.641
 5486SOL    HW116484   0.018   7.232  10.607
 5486SOL    HW216485   0.162   7.169  10.650
 5487SOL     OW16486   0.367   6.686   9.811
 5487SOL    HW116487   0.360   6.769   9.755
 5487SOL    HW216488   0.371   6.606   9.751
 5488SOL     OW16489   0.566   6.123  10.175
 5488SOL    HW116490   0.578   6.189  10.101
 5488SOL    HW216491   0.612   6.157  10.258
 5489SOL     OW16492   1.252   6.934   9.698
 5489SOL    HW116493   1.302   7.011   9.738
 5489SOL    HW216494   1.157   6.936   9.730
 5490SOL     OW16495   1.272   7.031  10.452
 5490SOL    HW116496   1.319   7.044  10.539
 5490SOL    HW216497   1.206   6.957  10.461
 5491SOL     OW16498   1.582   6.225   9.782
 5491SOL    HW116499   1.551   6.286   9.855
 5491SOL    HW216500   1.632   6.277   9.713
 5492SOL     OW16501   0.354   7.096  10.639
 5492SOL    HW116502   0.333   7.052  10.552
 5492SOL    HW216503   0.451   7.122  10.642
 5493SOL     OW16504   0.402   6.337  10.908
 5493SOL    HW116505   0.470   6.392  10.861
 5493SOL    HW216506   0.442   6.249  10.935
 5494SOL     OW16507   1.587   6.365  10.980
 5494SOL    HW116508   1.495   6.403  10.975
 5494SOL    HW216509   1.647   6.412  10.915
 5495SOL     OW16510   1.013   5.691  11.080
 5495SOL    HW116511   1.019   5.776  11.028
 5495SOL    HW216512   1.045   5.615  11.023
 5496SOL     OW16513   0.504   5.636  11.050
 5496SOL    HW116514   0.462   5.579  10.980
 5496SOL    HW216515   0.438   5.705  11.082
 5497SOL     OW16516   0.573   6.456  10.339
 5497SOL    HW116517   0.617   6.545  10.330
 5497SOL    HW216518   0.510   6.456  10.416
 5498SOL     OW16519   1.360   6.448  10.355
 5498SOL    HW116520   1.285   6.448  10.289
 5498SOL    HW216521   1.397   6.356  10.364
 5499SOL     OW16522   1.209   6.111   9.585
 5499SOL    HW116523   1.222   6.027   9.639
 5499SOL    HW216524   1.180   6.185   9.645
 5500SOL     OW16525   0.307   5.799  10.541
 5500SOL    HW116526   0.284   5.836  10.631
 5500SOL    HW216527   0.277   5.704  10.535
 5501SOL     OW16528   0.037   6.896  10.592
 5501SOL    HW116529   0.090   6.847  10.660
 5501SOL    HW216530   0.059   6.994  10.597
 5502SOL     OW16531   0.732   6.220  10.374
 5502SOL    HW116532   0.791   6.194  10.298
 5502SOL    HW216533   0.704   6.316  10.363
 5503SOL     OW16534   1.728   6.521  11.164
 5503SOL    HW116535   1.682   6.514  11.075
 5503SOL    HW216536   1.666   6.565  11.230
 5504SOL     OW16537   0.307   5.649   9.928
 5504SOL    HW116538   0.296   5.743   9.961
 5504SOL    HW216539   0.302   5.586  10.005
 5505SOL     OW16540   1.622   5.953   9.684
 5505SOL    HW116541   1.624   5.877   9.748
 5505SOL    HW216542   1.574   6.030   9.724
 5506SOL     OW16543   1.023   6.352  10.276
 5506SOL    HW116544   1.038   6.373  10.372
 5506SOL    HW216545   0.993   6.257  10.267
 5507SOL     OW16546   0.980   7.159  11.010
 5507SOL    HW116547   0.960   7.203  10.922
 5507SOL    HW216548   1.019   7.068  10.994
 5508SOL     OW16549   1.859   7.104  10.915
 5508SOL    HW116550   1.873   7.131  10.820
 5508SOL    HW216551   1.942   7.126  10.968
 5509SOL     OW16552   0.350   6.484  11.114
 5509SOL    HW116553   0.426   6.528  11.162
 5509SOL    HW216554   0.385   6.437  11.032
 5510SOL     OW16555   1.540   5.860   9.435
 5510SOL    HW116556   1.479   5.785   9.458
 5510SOL    HW216557   1.562   5.912   9.518
 5511SOL     OW16558   1.303   6.424   9.352
 5511SOL    HW116559   1.337   6.331   9.367
 5511SOL    HW216560   1.321   6.451   9.257
 5512SOL     OW16561   1.068   6.919  10.159
 5512SOL    HW116562   1.075   6.835  10.104
 5512SOL    HW216563   1.130   6.988  10.123
 5513SOL     OW16564   0.319   6.396  10.259
 5513SOL    HW116565   0.412   6.432  10.264
 5513SOL    HW216566   0.313   6.311  10.311
 5514SOL     OW16567   0.339   6.095  10.316
 5514SOL    HW116568   0.287   6.012  10.299
 5514SOL    HW216569   0.416   6.100  10.252
 5515SOL     OW16570   1.138   5.966  10.988
 5515SOL    HW116571   1.093   6.029  11.052
 5515SOL    HW216572   1.231   5.997  10.971
 5516SOL     OW16573   1.160   5.793  10.787
 5516SOL    HW116574   1.160   5.857  10.864
 5516SOL    HW216575   1.188   5.841  10.704
 5517SOL     OW16576   0.008   6.912   9.510
 5517SOL    HW116577  -0.085   6.933   9.479
 5517SOL    HW216578   0.018   6.813   9.523
 5518SOL     OW16579   0.088   7.387  10.237
 5518SOL    HW116580   0.046   7.301  10.210
 5518SOL    HW216581   0.182   7.390  10.203
 5519SOL     OW16582   0.504   7.154  10.220
 5519SOL    HW116583   0.570   7.228  10.229
 5519SOL    HW216584   0.548   7.075  10.178
 5520SOL     OW16585   1.002   6.382  10.548
 5520SOL    HW116586   1.043   6.350  10.634
 5520SOL    HW216587   0.906   6.355  10.545
 5521SOL     OW16588   0.040   6.130  10.424
 5521SOL    HW116589   0.125   6.097  10.383
 5521SOL    HW216590   0.053   6.145  10.522
 5522SOL     OW16591   0.189   6.106  11.032
 5522SOL    HW116592   0.248   6.066  10.962
 5522SOL    HW216593   0.131   6.177  10.991
 5523SOL     OW16594   1.369   6.536  10.970
 5523SOL    HW116595   1.408   6.625  10.990
 5523SOL    HW216596   1.379   6.516  10.873
 5524SOL     OW16597   0.815   6.158   9.635
 5524SOL    HW116598   0.822   6.069   9.589
 5524SOL    HW216599   0.721   6.192   9.627
 5525SOL     OW16600   1.657   6.190  10.516
 5525SOL    HW116601   1.619   6.121  10.578
 5525SOL    HW216602   1.739   6.154  10.472
 5526SOL     OW16603   0.252   7.150  11.054
 5526SOL    HW116604   0.222   7.207  11.130
 5526SOL    HW216605   0.245   7.053  11.080
 5527SOL     OW16606   0.671   6.050  10.579
 5527SOL    HW116607   0.637   5.961  10.549
 5527SOL    HW216608   0.697   6.104  10.499
 5528SOL     OW16609   0.930   7.264  10.775
 5528SOL    HW116610   0.906   7.246  10.680
 5528SOL    HW216611   0.960   7.358  10.785
 5529SOL     OW16612   0.473   6.086   9.501
 5529SOL    HW116613   0.534   6.166   9.505
 5529SOL    HW216614   0.378   6.117   9.508
 5530SOL     OW16615   0.159   6.723  10.776
 5530SOL    HW116616   0.181   6.662  10.852
 5530SOL    HW216617   0.169   6.674  10.690
 5531SOL     OW16618   1.347   6.645  10.544
 5531SOL    HW116619   1.371   6.582  10.470
 5531SOL    HW216620   1.257   6.685  10.526
 5532SOL     OW16621   1.302   6.441   9.619
 5532SOL    HW116622   1.216   6.410   9.661
 5532SOL    HW216623   1.298   6.427   9.520
 5533SOL     OW16624   1.759   7.333  10.464
 5533SOL    HW116625   1.820   7.363  10.391
 5533SOL    HW216626   1.721   7.244  10.442
 5534SOL     OW16627   1.252   7.317  10.438
 5534SOL    HW116628   1.336   7.322  10.384
 5534SOL    HW216629   1.229   7.221  10.456
 5535SOL     OW16630   0.083   6.844  10.332
 5535SOL    HW116631   0.078   6.843  10.432
 5535SOL    HW216632   0.000   6.803  10.294
 5536SOL     OW16633   0.688   7.248  11.026
 5536SOL    HW116634   0.632   7.329  11.035
 5536SOL    HW216635   0.740   7.252  10.940
 5537SOL     OW16636   1.726   5.721   9.833
 5537SOL    HW116637   1.799   5.704   9.766
 5537SOL    HW216638   1.695   5.634   9.871
 5538SOL     OW16639   1.388   7.159   9.787
 5538SOL    HW116640   1.455   7.171   9.713
 5538SOL    HW216641   1.348   7.248   9.810
 5539SOL     OW16642   0.130   7.380  11.161
 5539SOL    HW116643   0.089   7.306  11.214
 5539SOL    HW216644   0.194   7.431  11.219
 5540SOL     OW16645   1.280   6.513   9.982
 5540SOL    HW116646   1.340   6.432   9.984
 5540SOL    HW216647   1.320   6.582   9.922
 5541SOL     OW16648   0.830   6.859  10.732
 5541SOL    HW116649   0.825   6.892  10.827
 5541SOL    HW216650   0.744   6.878  10.686
 5542SOL     OW16651   0.672   7.202   9.464
 5542SOL    HW116652   0.681   7.212   9.365
 5542SOL    HW216653   0.632   7.113   9.485
 5543SOL     OW16654   1.650   7.306  10.704
 5543SOL    HW116655   1.703   7.316  10.620
 5543SOL    HW216656   1.623   7.396  10.738
 5544SOL     OW16657   1.841   5.761  10.273
 5544SOL    HW116658   1.880   5.676  10.237
 5544SOL    HW216659   1.743   5.763  10.254
 5545SOL     OW16660   0.263   5.912  10.030
 5545SOL    HW116661   0.184   5.963   9.996
 5545SOL    HW216662   0.254   5.897  10.128
 5546SOL     OW16663   1.194   7.198   9.341
 5546SOL    HW116664   1.200   7.105   9.378
 5546SOL    HW216665   1.135   7.198   9.261
 5547SOL     OW16666   0.822   6.588  10.682
 5547SOL    HW116667   0.862   6.587  10.590
 5547SOL    HW216668   0.832   6.680  10.722
 5548SOL     OW16669   0.916   6.496   9.601
 5548SOL    HW116670   0.979   6.534   9.533
 5548SOL    HW216671   0.956   6.413   9.640
 5549SOL     OW16672   1.504   7.193   9.354
 5549SOL    HW116673   1.412   7.230   9.361
 5549SOL    HW216674   1.542   7.213   9.264
 5550SOL     OW16675   0.372   6.874  10.800
 5550SOL    HW116676   0.359   6.967  10.766
 5550SOL    HW216677   0.288   6.822  10.787
 5551SOL     OW16678   1.614   6.878  10.599
 5551SOL    HW116679   1.674   6.881  10.679
 5551SOL    HW216680   1.539   6.942  10.612
 5552SOL     OW16681   1.039   6.684  10.006
 5552SOL    HW116682   0.969   6.637  10.060
 5552SOL    HW216683   1.098   6.616   9.963
 5553SOL     OW16684   1.014   5.822  10.281
 5553SOL    HW116685   1.006   5.786  10.188
 5553SOL    HW216686   1.012   5.746  10.346
 5554SOL     OW16687   0.590   7.073   9.801
 5554SOL    HW116688   0.632   7.015   9.731
 5554SOL    HW216689   0.546   7.152   9.757
 5555SOL     OW16690   1.709   5.971  10.691
 5555SOL    HW116691   1.782   6.040  10.695
 5555SOL    HW216692   1.737   5.896  10.632
 5556SOL     OW16693   0.255   6.934   9.600
 5556SOL    HW116694   0.159   6.935   9.573
 5556SOL    HW216695   0.267   6.987   9.684
 5557SOL     OW16696   0.105   6.599  11.036
 5557SOL    HW116697   0.028   6.566  11.090
 5557SOL    HW216698   0.190   6.569  11.078
 5558SOL     OW16699   0.672   5.789  10.799
 5558SOL    HW116700   0.762   5.773  10.759
 5558SOL    HW216701   0.680   5.794  10.898
 5559SOL     OW16702   0.075   5.931   9.343
 5559SOL    HW116703  -0.017   5.903   9.314
 5559SOL    HW216704   0.106   6.008   9.287
 5560SOL     OW16705   1.440   6.442  10.708
 5560SOL    HW116706   1.383   6.494  10.645
 5560SOL    HW216707   1.536   6.454  10.684
 5561SOL     OW16708   0.072   5.752   9.628
 5561SOL    HW116709   0.055   5.835   9.574
 5561SOL    HW216710   0.162   5.715   9.606
 5562SOL     OW16711   1.183   6.921   9.429
 5562SOL    HW116712   1.084   6.910   9.431
 5562SOL    HW216713   1.217   6.936   9.522
 5563SOL     OW16714   0.613   6.428  10.741
 5563SOL    HW116715   0.669   6.509  10.724
 5563SOL    HW216716   0.672   6.348  10.744
 5564SOL     OW16717   1.493   7.353  10.269
 5564SOL    HW116718   1.526   7.417  10.200
 5564SOL    HW216719   1.559   7.347  10.344
 5565SOL     OW16720   0.716   6.151  11.018
 5565SOL    HW116721   0.735   6.216  11.092
 5565SOL    HW216722   0.776   6.071  11.027
 5566SOL     OW16723   1.450   6.806  10.943
 5566SOL    HW116724   1.441   6.796  11.042
 5566SOL    HW216725   1.546   6.799  10.917
 5567SOL     OW16726   0.390   7.327  10.870
 5567SOL    HW116727   0.299   7.368  10.868
 5567SOL    HW216728   0.383   7.233  10.902
 5568SOL     OW16729   1.674   6.469  10.564
 5568SOL    HW116730   1.647   6.380  10.527
 5568SOL    HW216731   1.675   6.537  10.491
 5569SOL     OW16732   1.225   5.911   9.759
 5569SOL    HW116733   1.290   5.837   9.748
 5569SOL    HW216734   1.245   5.961   9.843
 5570SOL     OW16735   0.594   6.331   9.962
 5570SOL    HW116736   0.644   6.416   9.943
 5570SOL    HW216737   0.506   6.333   9.914
 5571SOL     OW16738   1.777   5.928  10.952
 5571SOL    HW116739   1.760   5.959  10.858
 5571SOL    HW216740   1.693   5.891  10.990
 5572SOL     OW16741   1.730   6.520  10.827
 5572SOL    HW116742   1.768   6.611  10.842
 5572SOL    HW216743   1.722   6.503  10.728
 5573SOL     OW16744   0.859   6.960   9.326
 5573SOL    HW116745   0.813   6.975   9.414
 5573SOL    HW216746   0.903   7.045   9.296
 5574SOL     OW16747   0.661   7.376  10.263
 5574SOL    HW116748   0.615   7.464  10.250
 5574SOL    HW216749   0.760   7.388  10.256
 5575SOL     OW16750   0.859   6.542  10.171
 5575SOL    HW116751   0.913   6.473  10.219
 5575SOL    HW216752   0.827   6.611  10.237
 5576SOL     OW16753   1.083   6.570   9.397
 5576SOL    HW116754   1.060   6.623   9.315
 5576SOL    HW216755   1.164   6.514   9.378
 5577SOL     OW16756   1.861   7.155  10.161
 5577SOL    HW116757   1.790   7.143  10.091
 5577SOL    HW216758   1.862   7.076  10.221
 5578SOL     OW16759   0.221   6.900  11.154
 5578SOL    HW116760   0.156   6.827  11.133
 5578SOL    HW216761   0.225   6.914  11.252
 5579SOL     OW16762   0.079   6.826   9.963
 5579SOL    HW116763   0.078   6.779  10.051
 5579SOL    HW216764   0.161   6.798   9.912
 5580SOL     OW16765   0.672   6.977  10.934
 5580SOL    HW116766   0.594   6.927  10.972
 5580SOL    HW216767   0.669   7.072  10.965
 5581SOL     OW16768   1.824   5.778  10.537
 5581SOL    HW116769   1.820   5.688  10.581
 5581SOL    HW216770   1.827   5.767  10.438
 5582SOL     OW16771   0.428   6.010   9.830
 5582SOL    HW116772   0.458   5.938   9.768
 5582SOL    HW216773   0.389   5.970   9.913
 5583SOL     OW16774   1.705   7.073  10.414
 5583SOL    HW116775   1.612   7.048  10.387
 5583SOL    HW216776   1.731   7.023  10.496
 5584SOL     OW16777   0.317   6.133  10.590
 5584SOL    HW116778   0.355   6.074  10.662
 5584SOL    HW216779   0.357   6.107  10.502
 5585SOL     OW16780   0.812   7.172   9.997
 5585SOL    HW116781   0.844   7.182   9.903
 5585SOL    HW216782   0.733   7.110   9.999
 5586SOL     OW16783   1.424   5.800  10.422
 5586SOL    HW116784   1.476   5.735  10.477
 5586SOL    HW216785   1.375   5.863  10.483
 5587SOL     OW16786   1.001   5.620  10.464
 5587SOL    HW116787   0.938   5.548  10.433
 5587SOL    HW216788   1.094   5.584  10.464
 5588SOL     OW16789   0.770   6.916   9.611
 5588SOL    HW116790   0.724   6.829   9.628
 5588SOL    HW216791   0.861   6.913   9.652
 5589SOL     OW16792   0.618   7.153  10.594
 5589SOL    HW116793   0.613   7.235  10.651
 5589SOL    HW216794   0.707   7.150  10.549
 5590SOL     OW16795   1.352   5.638   9.478
 5590SOL    HW116796   1.387   5.597   9.394
 5590SOL    HW216797   1.262   5.600   9.498
 5591SOL     OW16798   1.300   6.039  10.001
 5591SOL    HW116799   1.241   6.119  10.005
 5591SOL    HW216800   1.315   6.004  10.094
 5592SOL     OW16801   1.593   5.807  10.192
 5592SOL    HW116802   1.509   5.806  10.246
 5592SOL    HW216803   1.595   5.890  10.136
 5593SOL     OW16804   0.039   6.663   9.610
 5593SOL    HW116805   0.138   6.652   9.601
 5593SOL    HW216806  -0.001   6.577   9.642
 5594SOL     OW16807   0.875   7.232   9.647
 5594SOL    HW116808   0.798   7.197   9.593
 5594SOL    HW216809   0.843   7.303   9.709
 5595SOL     OW16810   0.230   6.214  11.285
 5595SOL    HW116811   0.137   6.212  11.322
 5595SOL    HW216812   0.231   6.175  11.193
 5596SOL     OW16813   0.225   5.861  12.168
 5596SOL    HW116814   0.260   5.844  12.260
 5596SOL    HW216815   0.137   5.816  12.156
 5597SOL     OW16816   0.019   5.954  11.819
 5597SOL    HW116817  -0.063   5.997  11.858
 5597SOL    HW216818  -0.009   5.881  11.756
 5598SOL     OW16819   0.569   6.861  12.337
 5598SOL    HW116820   0.476   6.854  12.300
 5598SOL    HW216821   0.580   6.950  12.381
 5599SOL     OW16822   1.555   7.097  11.875
 5599SOL    HW116823   1.498   7.081  11.956
 5599SOL    HW216824   1.496   7.107  11.795
 5600SOL     OW16825   1.135   6.289  11.889
 5600SOL    HW116826   1.192   6.367  11.864
 5600SOL    HW216827   1.075   6.315  11.965
 5601SOL     OW16828   1.755   6.193  11.403
 5601SOL    HW116829   1.743   6.180  11.304
 5601SOL    HW216830   1.725   6.112  11.452
 5602SOL     OW16831   0.768   6.730  12.195
 5602SOL    HW116832   0.690   6.747  12.255
 5602SOL    HW216833   0.802   6.817  12.159
 5603SOL     OW16834   0.685   6.598  11.837
 5603SOL    HW116835   0.754   6.582  11.907
 5603SOL    HW216836   0.612   6.655  11.875
 5604SOL     OW16837   0.335   7.021  12.233
 5604SOL    HW116838   0.257   6.990  12.180
 5604SOL    HW216839   0.393   7.079  12.176
 5605SOL     OW16840   1.460   7.091  12.511
 5605SOL    HW116841   1.484   7.185  12.537
 5605SOL    HW216842   1.444   7.037  12.593
 5606SOL     OW16843   0.438   5.978  12.671
 5606SOL    HW116844   0.520   5.922  12.680
 5606SOL    HW216845   0.357   5.920  12.675
 5607SOL     OW16846   1.603   6.033  11.909
 5607SOL    HW116847   1.529   6.079  11.859
 5607SOL    HW216848   1.654   6.101  11.962
 5608SOL     OW16849   0.231   7.299  11.655
 5608SOL    HW116850   0.265   7.376  11.709
 5608SOL    HW216851   0.275   7.299  11.565
 5609SOL     OW16852   0.230   7.020  11.710
 5609SOL    HW116853   0.204   7.116  11.710
 5609SOL    HW216854   0.159   6.966  11.755
 5610SOL     OW16855   0.240   6.677  12.058
 5610SOL    HW116856   0.254   6.593  12.110
 5610SOL    HW216857   0.185   6.741  12.113
 5611SOL     OW16858   0.620   7.372  12.611
 5611SOL    HW116859   0.528   7.355  12.646
 5611SOL    HW216860   0.648   7.464  12.637
 5612SOL     OW16861   0.606   6.550  11.295
 5612SOL    HW116862   0.613   6.634  11.241
 5612SOL    HW216863   0.652   6.563  11.383
 5613SOL     OW16864   1.594   5.700  12.652
 5613SOL    HW116865   1.576   5.767  12.580
 5613SOL    HW216866   1.591   5.746  12.741
 5614SOL     OW16867   0.122   6.229  11.735
 5614SOL    HW116868   0.077   6.141  11.752
 5614SOL    HW216869   0.121   6.283  11.819
 5615SOL     OW16870   1.842   7.353  11.531
 5615SOL    HW116871   1.896   7.324  11.611
 5615SOL    HW216872   1.872   7.443  11.502
 5616SOL     OW16873   0.027   7.182  11.289
 5616SOL    HW116874   0.008   7.086  11.310
 5616SOL    HW216875  -0.006   7.240  11.364
 5617SOL     OW16876   1.689   6.508  11.784
 5617SOL    HW116877   1.784   6.479  11.792
 5617SOL    HW216878   1.681   6.573  11.709
 5618SOL     OW16879   1.641   6.694  11.604
 5618SOL    HW116880   1.727   6.696  11.552
 5618SOL    HW216881   1.655   6.741  11.692
 5619SOL     OW16882   0.613   6.951  11.898
 5619SOL    HW116883   0.564   6.864  11.907
 5619SOL    HW216884   0.590   6.994  11.811
 5620SOL     OW16885   0.809   5.590  11.674
 5620SOL    HW116886   0.849   5.681  11.665
 5620SOL    HW216887   0.709   5.598  11.680
 5621SOL     OW16888   0.197   6.562  12.436
 5621SOL    HW116889   0.286   6.517  12.422
 5621SOL    HW216890   0.124   6.497  12.417
 5622SOL     OW16891   1.525   6.585  11.362
 5622SOL    HW116892   1.462   6.509  11.375
 5622SOL    HW216893   1.573   6.603  11.448
 5623SOL     OW16894   0.317   5.837  12.973
 5623SOL    HW116895   0.388   5.908  12.979
 5623SOL    HW216896   0.229   5.876  13.001
 5624SOL     OW16897   1.466   7.003  12.125
 5624SOL    HW116898   1.407   7.009  12.205
 5624SOL    HW216899   1.451   6.915  12.079
 5625SOL     OW16900   1.667   7.300  11.744
 5625SOL    HW116901   1.626   7.277  11.656
 5625SOL    HW216902   1.649   7.226  11.809
 5626SOL     OW16903   0.598   6.315  11.442
 5626SOL    HW116904   0.622   6.384  11.374
 5626SOL    HW216905   0.520   6.348  11.496
 5627SOL     OW16906   1.281   5.931  12.116
 5627SOL    HW116907   1.195   5.881  12.103
 5627SOL    HW216908   1.343   5.877  12.172
 5628SOL     OW16909   1.576   7.248  11.479
 5628SOL    HW116910   1.665   7.294  11.482
 5628SOL    HW216911   1.555   7.224  11.384
 5629SOL     OW16912   0.807   6.191  12.637
 5629SOL    HW116913   0.760   6.188  12.726
 5629SOL    HW216914   0.756   6.136  12.571
 5630SOL     OW16915   0.991   5.996  12.414
 5630SOL    HW116916   0.914   6.030  12.468
 5630SOL    HW216917   0.957   5.945  12.335
 5631SOL     OW16918   1.041   6.287  11.601
 5631SOL    HW116919   1.067   6.283  11.697
 5631SOL    HW216920   0.956   6.236  11.587
 5632SOL     OW16921   0.076   6.397  11.961
 5632SOL    HW116922   0.175   6.385  11.970
 5632SOL    HW216923   0.052   6.492  11.982
 5633SOL     OW16924   0.130   7.407  12.743
 5633SOL    HW116925   0.120   7.392  12.842
 5633SOL    HW216926   0.044   7.443  12.707
 5634SOL     OW16927   0.865   5.934  11.367
 5634SOL    HW116928   0.924   5.997  11.318
 5634SOL    HW216929   0.884   5.840  11.338
 5635SOL     OW16930   1.362   6.730  11.717
 5635SOL    HW116931   1.445   6.701  11.669
 5635SOL    HW216932   1.313   6.797  11.661
 5636SOL     OW16933   0.550   5.782  12.057
 5636SOL    HW116934   0.545   5.777  12.157
 5636SOL    HW216935   0.552   5.878  12.028
 5637SOL     OW16936   1.008   7.042  11.649
 5637SOL    HW116937   0.962   7.114  11.597
 5637SOL    HW216938   1.004   7.062  11.747
 5638SOL     OW16939   0.351   7.387  12.025
 5638SOL    HW116940   0.401   7.301  12.031
 5638SOL    HW216941   0.416   7.464  12.022
 5639SOL     OW16942   1.795   6.652  12.045
 5639SOL    HW116943   1.733   6.637  11.969
 5639SOL    HW216944   1.743   6.663  12.130
 5640SOL     OW16945   0.321   6.529  11.414
 5640SOL    HW116946   0.403   6.568  11.372
 5640SOL    HW216947   0.294   6.447  11.365
 5641SOL     OW16948   1.458   6.321  11.900
 5641SOL    HW116949   1.453   6.256  11.975
 5641SOL    HW216950   1.538   6.380  11.913
 5642SOL     OW16951   1.111   7.362  11.409
 5642SOL    HW116952   1.051   7.300  11.459
 5642SOL    HW216953   1.142   7.318  11.324
 5643SOL     OW16954   1.632   6.963  11.253
 5643SOL    HW116955   1.600   7.057  11.243
 5643SOL    HW216956   1.556   6.900  11.241
 5644SOL     OW16957   0.464   7.329  11.495
 5644SOL    HW116958   0.497   7.368  11.581
 5644SOL    HW216959   0.540   7.322  11.430
 5645SOL     OW16960   1.400   5.693  11.598
 5645SOL    HW116961   1.376   5.656  11.508
 5645SOL    HW216962   1.499   5.709  11.602
 5646SOL     OW16963   0.249   7.371  12.413
 5646SOL    HW116964   0.306   7.306  12.463
 5646SOL    HW216965   0.233   7.338  12.320
 5647SOL     OW16966   0.940   7.284  12.076
 5647SOL    HW116967   1.020   7.227  12.097
 5647SOL    HW216968   0.891   7.244  11.999
 5648SOL     OW16969   0.382   6.286  11.652
 5648SOL    HW116970   0.427   6.196  11.649
 5648SOL    HW216971   0.288   6.275  11.685
 5649SOL     OW16972   0.614   5.708  11.289
 5649SOL    HW116973   0.712   5.686  11.296
 5649SOL    HW216974   0.583   5.691  11.196
 5650SOL     OW16975   0.888   7.100  12.367
 5650SOL    HW116976   0.865   7.075  12.273
 5650SOL    HW216977   0.949   7.031  12.406
 5651SOL     OW16978   0.803   6.988  12.096
 5651SOL    HW116979   0.893   7.002  12.054
 5651SOL    HW216980   0.732   6.990  12.025
 5652SOL     OW16981   0.922   6.089  12.071
 5652SOL    HW116982   0.897   6.080  11.975
 5652SOL    HW216983   0.970   6.007  12.102
 5653SOL     OW16984   0.539   5.650  11.684
 5653SOL    HW116985   0.458   5.651  11.742
 5653SOL    HW216986   0.542   5.733  11.629
 5654SOL     OW16987   1.434   6.774  11.213
 5654SOL    HW116988   1.466   6.698  11.270
 5654SOL    HW216989   1.342   6.801  11.243
 5655SOL     OW16990   0.297   5.621  11.343
 5655SOL    HW116991   0.346   5.705  11.322
 5655SOL    HW216992   0.359   5.556  11.388
 5656SOL     OW16993   0.935   5.822  11.652
 5656SOL    HW116994   0.887   5.863  11.574
 5656SOL    HW216995   1.034   5.820  11.633
 5657SOL     OW16996   1.227   7.156  11.965
 5657SOL    HW116997   1.248   7.230  11.900
 5657SOL    HW216998   1.295   7.156  12.038
 5658SOL     OW16999   0.459   6.738  11.913
 5658SOL    HW117000   0.388   6.711  11.978
 5658SOL    HW217001   0.433   6.710  11.820
 5659SOL     OW17002   1.271   7.383  11.763
 5659SOL    HW117003   1.315   7.447  11.699
 5659SOL    HW217004   1.221   7.435  11.833
 5660SOL     OW17005   1.032   6.135  11.188
 5660SOL    HW117006   0.991   6.217  11.149
 5660SOL    HW217007   1.096   6.161  11.261
 5661SOL     OW17008   0.078   6.142  12.558
 5661SOL    HW117009   0.170   6.141  12.517
 5661SOL    HW217010   0.072   6.216  12.625
 5662SOL     OW17011   0.561   5.808  12.319
 5662SOL    HW117012   0.599   5.724  12.356
 5662SOL    HW217013   0.473   5.827  12.363
 5663SOL     OW17014   0.866   6.040  11.814
 5663SOL    HW117015   0.834   6.112  11.752
 5663SOL    HW217016   0.890   5.959  11.761
 5664SOL     OW17017   1.017   5.625  11.925
 5664SOL    HW117018   0.945   5.630  11.856
 5664SOL    HW217019   0.993   5.556  11.994
 5665SOL     OW17020   1.429   6.759  12.039
 5665SOL    HW117021   1.374   6.675  12.032
 5665SOL    HW217022   1.455   6.788  11.947
 5666SOL     OW17023   1.466   6.176  12.164
 5666SOL    HW117024   1.436   6.081  12.171
 5666SOL    HW217025   1.539   6.192  12.230
 5667SOL     OW17026   1.857   6.419  11.549
 5667SOL    HW117027   1.899   6.355  11.613
 5667SOL    HW217028   1.819   6.368  11.471
 5668SOL     OW17029   0.488   6.971  11.346
 5668SOL    HW117030   0.401   6.956  11.393
 5668SOL    HW217031   0.471   6.997  11.251
 5669SOL     OW17032   1.664   6.866  11.829
 5669SOL    HW117033   1.763   6.874  11.843
 5669SOL    HW217034   1.619   6.950  11.860
 5670SOL     OW17035   1.390   6.161  11.250
 5670SOL    HW117036   1.336   6.140  11.331
 5670SOL    HW217037   1.481   6.120  11.259
 5671SOL     OW17038   0.527   5.842  11.500
 5671SOL    HW117039   0.554   5.783  11.425
 5671SOL    HW217040   0.527   5.937  11.469
 5672SOL     OW17041   1.064   6.933  12.512
 5672SOL    HW117042   0.984   6.910  12.567
 5672SOL    HW217043   1.147   6.907  12.561
 5673SOL     OW17044   1.111   6.781  12.272
 5673SOL    HW117045   1.071   6.825  12.353
 5673SOL    HW217046   1.070   6.818  12.189
 5674SOL     OW17047   1.638   6.685  12.251
 5674SOL    HW117048   1.643   6.766  12.310
 5674SOL    HW217049   1.552   6.687  12.200
 5675SOL     OW17050   0.915   5.675  12.574
 5675SOL    HW117051   0.940   5.655  12.479
 5675SOL    HW217052   0.987   5.731  12.616
 5676SOL     OW17053   0.705   6.636  11.540
 5676SOL    HW117054   0.691   6.643  11.639
 5676SOL    HW217055   0.789   6.585  11.522
 5677SOL     OW17056   0.410   6.399  12.423
 5677SOL    HW117057   0.496   6.411  12.473
 5677SOL    HW217058   0.368   6.312  12.450
 5678SOL     OW17059   1.274   5.972  12.434
 5678SOL    HW117060   1.295   6.046  12.498
 5678SOL    HW217061   1.185   5.989  12.391
 5679SOL     OW17062   0.064   7.150  12.503
 5679SOL    HW117063   0.018   7.232  12.469
 5679SOL    HW217064   0.162   7.169  12.512
 5680SOL     OW17065   0.367   6.686  11.673
 5680SOL    HW117066   0.360   6.769  11.617
 5680SOL    HW217067   0.371   6.606  11.613
 5681SOL     OW17068   0.566   6.123  12.037
 5681SOL    HW117069   0.578   6.189  11.963
 5681SOL    HW217070   0.612   6.157  12.120
 5682SOL     OW17071   1.252   6.934  11.560
 5682SOL    HW117072   1.302   7.011  11.600
 5682SOL    HW217073   1.157   6.936  11.592
 5683SOL     OW17074   1.272   7.031  12.314
 5683SOL    HW117075   1.319   7.044  12.401
 5683SOL    HW217076   1.206   6.957  12.323
 5684SOL     OW17077   1.582   6.225  11.644
 5684SOL    HW117078   1.551   6.286  11.717
 5684SOL    HW217079   1.632   6.277  11.575
 5685SOL     OW17080   0.354   7.096  12.501
 5685SOL    HW117081   0.333   7.052  12.414
 5685SOL    HW217082   0.451   7.122  12.504
 5686SOL     OW17083   0.402   6.337  12.770
 5686SOL    HW117084   0.470   6.392  12.723
 5686SOL    HW217085   0.442   6.249  12.797
 5687SOL     OW17086   1.587   6.365  12.842
 5687SOL    HW117087   1.495   6.403  12.837
 5687SOL    HW217088   1.647   6.412  12.777
 5688SOL     OW17089   0.573   6.456  12.201
 5688SOL    HW117090   0.617   6.545  12.192
 5688SOL    HW217091   0.510   6.456  12.278
 5689SOL     OW17092   1.360   6.448  12.217
 5689SOL    HW117093   1.285   6.448  12.151
 5689SOL    HW217094   1.397   6.356  12.226
 5690SOL     OW17095   1.209   6.111  11.447
 5690SOL    HW117096   1.222   6.027  11.501
 5690SOL    HW217097   1.180   6.185  11.507
 5691SOL     OW17098   0.307   5.799  12.403
 5691SOL    HW117099   0.284   5.836  12.493
 5691SOL    HW217100   0.277   5.704  12.397
 5692SOL     OW17101   0.037   6.896  12.454
 5692SOL    HW117102   0.090   6.847  12.522
 5692SOL    HW217103   0.059   6.994  12.459
 5693SOL     OW17104   0.732   6.220  12.236
 5693SOL    HW117105   0.791   6.194  12.160
 5693SOL    HW217106   0.704   6.316  12.225
 5694SOL     OW17107   0.307   5.649  11.790
 5694SOL    HW117108   0.296   5.743  11.823
 5694SOL    HW217109   0.302   5.586  11.867
 5695SOL     OW17110   1.622   5.953  11.546
 5695SOL    HW117111   1.624   5.877  11.610
 5695SOL    HW217112   1.574   6.030  11.586
 5696SOL     OW17113   1.023   6.352  12.138
 5696SOL    HW117114   1.038   6.373  12.234
 5696SOL    HW217115   0.993   6.257  12.129
 5697SOL     OW17116   0.980   7.159  12.872
 5697SOL    HW117117   0.960   7.203  12.784
 5697SOL    HW217118   1.019   7.068  12.856
 5698SOL     OW17119   1.540   5.860  11.297
 5698SOL    HW117120   1.479   5.785  11.320
 5698SOL    HW217121   1.562   5.912  11.380
 5699SOL     OW17122   1.303   6.424  11.214
 5699SOL    HW117123   1.337   6.331  11.229
 5699SOL    HW217124   1.321   6.451  11.119
 5700SOL     OW17125   1.068   6.919  12.021
 5700SOL    HW117126   1.075   6.835  11.966
 5700SOL    HW217127   1.130   6.988  11.985
 5701SOL     OW17128   0.319   6.396  12.121
 5701SOL    HW117129   0.412   6.432  12.126
 5701SOL    HW217130   0.313   6.311  12.173
 5702SOL     OW17131   0.339   6.095  12.178
 5702SOL    HW117132   0.287   6.012  12.161
 5702SOL    HW217133   0.416   6.100  12.114
 5703SOL     OW17134   1.138   5.966  12.850
 5703SOL    HW117135   1.093   6.029  12.914
 5703SOL    HW217136   1.231   5.997  12.833
 5704SOL     OW17137   1.160   5.793  12.649
 5704SOL    HW117138   1.160   5.857  12.726
 5704SOL    HW217139   1.188   5.841  12.566
 5705SOL     OW17140   0.008   6.912  11.372
 5705SOL    HW117141  -0.085   6.933  11.341
 5705SOL    HW217142   0.018   6.813  11.385
 5706SOL     OW17143   0.088   7.387  12.099
 5706SOL    HW117144   0.046   7.301  12.072
 5706SOL    HW217145   0.182   7.390  12.065
 5707SOL     OW17146   0.504   7.154  12.082
 5707SOL    HW117147   0.570   7.228  12.091
 5707SOL    HW217148   0.548   7.075  12.040
 5708SOL     OW17149   1.002   6.382  12.410
 5708SOL    HW117150   1.043   6.350  12.496
 5708SOL    HW217151   0.906   6.355  12.407
 5709SOL     OW17152   0.040   6.130  12.286
 5709SOL    HW117153   0.125   6.097  12.245
 5709SOL    HW217154   0.053   6.145  12.384
 5710SOL     OW17155   0.815   6.158  11.497
 5710SOL    HW117156   0.822   6.069  11.451
 5710SOL    HW217157   0.721   6.192  11.489
 5711SOL     OW17158   1.657   6.190  12.378
 5711SOL    HW117159   1.619   6.121  12.440
 5711SOL    HW217160   1.739   6.154  12.334
 5712SOL     OW17161   0.671   6.050  12.441
 5712SOL    HW117162   0.637   5.961  12.411
 5712SOL    HW217163   0.697   6.104  12.361
 5713SOL     OW17164   0.930   7.264  12.637
 5713SOL    HW117165   0.906   7.246  12.542
 5713SOL    HW217166   0.960   7.358  12.647
 5714SOL     OW17167   0.473   6.086  11.363
 5714SOL    HW117168   0.534   6.166  11.367
 5714SOL    HW217169   0.378   6.117  11.370
 5715SOL     OW17170   0.159   6.723  12.638
 5715SOL    HW117171   0.181   6.662  12.714
 5715SOL    HW217172   0.169   6.674  12.552
 5716SOL     OW17173   1.347   6.645  12.406
 5716SOL    HW117174   1.371   6.582  12.332
 5716SOL    HW217175   1.257   6.685  12.388
 5717SOL     OW17176   1.302   6.441  11.481
 5717SOL    HW117177   1.216   6.410  11.523
 5717SOL    HW217178   1.298   6.427  11.382
 5718SOL     OW17179   1.759   7.333  12.326
 5718SOL    HW117180   1.820   7.363  12.253
 5718SOL    HW217181   1.721   7.244  12.304
 5719SOL     OW17182   1.252   7.317  12.300
 5719SOL    HW117183   1.336   7.322  12.246
 5719SOL    HW217184   1.229   7.221  12.318
 5720SOL     OW17185   0.083   6.844  12.194
 5720SOL    HW117186   0.078   6.843  12.294
 5720SOL    HW217187   0.000   6.803  12.156
 5721SOL     OW17188   1.726   5.721  11.695
 5721SOL    HW117189   1.799   5.704  11.628
 5721SOL    HW217190   1.695   5.634  11.733
 5722SOL     OW17191   1.388   7.159  11.649
 5722SOL    HW117192   1.455   7.171  11.575
 5722SOL    HW217193   1.348   7.248  11.672
 5723SOL     OW17194   1.280   6.513  11.844
 5723SOL    HW117195   1.340   6.432  11.846
 5723SOL    HW217196   1.320   6.582  11.784
 5724SOL     OW17197   0.672   7.202  11.326
 5724SOL    HW117198   0.681   7.212  11.227
 5724SOL    HW217199   0.632   7.113  11.347
 5725SOL     OW17200   1.650   7.306  12.566
 5725SOL    HW117201   1.703   7.316  12.482
 5725SOL    HW217202   1.623   7.396  12.600
 5726SOL     OW17203   1.841   5.761  12.135
 5726SOL    HW117204   1.880   5.676  12.099
 5726SOL    HW217205   1.743   5.763  12.116
 5727SOL     OW17206   0.263   5.912  11.892
 5727SOL    HW117207   0.184   5.963  11.858
 5727SOL    HW217208   0.254   5.897  11.990
 5728SOL     OW17209   1.194   7.198  11.203
 5728SOL    HW117210   1.200   7.105  11.240
 5728SOL    HW217211   1.135   7.198  11.123
 5729SOL     OW17212   0.822   6.588  12.544
 5729SOL    HW117213   0.862   6.587  12.452
 5729SOL    HW217214   0.832   6.680  12.584
 5730SOL     OW17215   0.916   6.496  11.463
 5730SOL    HW117216   0.979   6.534  11.395
 5730SOL    HW217217   0.956   6.413  11.502
 5731SOL     OW17218   1.504   7.193  11.216
 5731SOL    HW117219   1.412   7.230  11.223
 5731SOL    HW217220   1.542   7.213  11.126
 5732SOL     OW17221   0.372   6.874  12.662
 5732SOL    HW117222   0.359   6.967  12.628
 5732SOL    HW217223   0.288   6.822  12.649
 5733SOL     OW17224   1.614   6.878  12.461
 5733SOL    HW117225   1.674   6.881  12.541
 5733SOL    HW217226   1.539   6.942  12.474
 5734SOL     OW17227   1.039   6.684  11.868
 5734SOL    HW117228   0.969   6.637  11.922
 5734SOL    HW217229   1.098   6.616  11.825
 5735SOL     OW17230   1.014   5.822  12.143
 5735SOL    HW117231   1.006   5.786  12.050
 5735SOL    HW217232   1.012   5.746  12.208
 5736SOL     OW17233   0.590   7.073  11.663
 5736SOL    HW117234   0.632   7.015  11.593
 5736SOL    HW217235   0.546   7.152  11.619
 5737SOL     OW17236   1.709   5.971  12.553
 5737SOL    HW117237   1.782   6.040  12.557
 5737SOL    HW217238   1.737   5.896  12.494
 5738SOL     OW17239   0.255   6.934  11.462
 5738SOL    HW117240   0.159   6.935  11.435
 5738SOL    HW217241   0.267   6.987  11.546
 5739SOL     OW17242   0.075   5.931  11.205
 5739SOL    HW117243  -0.017   5.903  11.176
 5739SOL    HW217244   0.106   6.008  11.149
 5740SOL     OW17245   1.440   6.442  12.570
 5740SOL    HW117246   1.383   6.494  12.507
 5740SOL    HW217247   1.536   6.454  12.546
 5741SOL     OW17248   0.072   5.752  11.490
 5741SOL    HW117249   0.055   5.835  11.436
 5741SOL    HW217250   0.162   5.715  11.468
 5742SOL     OW17251   1.183   6.921  11.291
 5742SOL    HW117252   1.084   6.910  11.293
 5742SOL    HW217253   1.217   6.936  11.384
 5743SOL     OW17254   0.613   6.428  12.603
 5743SOL    HW117255   0.669   6.509  12.586
 5743SOL    HW217256   0.672   6.348  12.606
 5744SOL     OW17257   1.493   7.353  12.131
 5744SOL    HW117258   1.526   7.417  12.062
 5744SOL    HW217259   1.559   7.347  12.206
 5745SOL     OW17260   0.390   7.327  12.732
 5745SOL    HW117261   0.299   7.368  12.730
 5745SOL    HW217262   0.383   7.233  12.764
 5746SOL     OW17263   1.674   6.469  12.426
 5746SOL    HW117264   1.647   6.380  12.389
 5746SOL    HW217265   1.675   6.537  12.353
 5747SOL     OW17266   1.225   5.911  11.621
 5747SOL    HW117267   1.290   5.837  11.610
 5747SOL    HW217268   1.245   5.961  11.705
 5748SOL     OW17269   0.594   6.331  11.824
 5748SOL    HW117270   0.644   6.416  11.805
 5748SOL    HW217271   0.506   6.333  11.776
 5749SOL     OW17272   1.730   6.520  12.689
 5749SOL    HW117273   1.768   6.611  12.704
 5749SOL    HW217274   1.722   6.503  12.590
 5750SOL     OW17275   0.859   6.960  11.188
 5750SOL    HW117276   0.813   6.975  11.276
 5750SOL    HW217277   0.903   7.045  11.158
 5751SOL     OW17278   0.661   7.376  12.125
 5751SOL    HW117279   0.615   7.464  12.112
 5751SOL    HW217280   0.760   7.388  12.118
 5752SOL     OW17281   0.859   6.542  12.033
 5752SOL    HW117282   0.913   6.473  12.081
 5752SOL    HW217283   0.827   6.611  12.099
 5753SOL     OW17284   1.083   6.570  11.259
 5753SOL    HW117285   1.060   6.623  11.177
 5753SOL    HW217286   1.164   6.514  11.240
 5754SOL     OW17287   1.861   7.155  12.023
 5754SOL    HW117288   1.790   7.143  11.953
 5754SOL    HW217289   1.862   7.076  12.083
 5755SOL     OW17290   0.079   6.826  11.825
 5755SOL    HW117291   0.078   6.779  11.913
 5755SOL    HW217292   0.161   6.798  11.774
 5756SOL     OW17293   1.824   5.778  12.399
 5756SOL    HW117294   1.820   5.688  12.443
 5756SOL    HW217295   1.827   5.767  12.300
 5757SOL     OW17296   0.428   6.010  11.692
 5757SOL    HW117297   0.458   5.938  11.630
 5757SOL    HW217298   0.389   5.970  11.775
 5758SOL     OW17299   1.705   7.073  12.276
 5758SOL    HW117300   1.612   7.048  12.249
 5758SOL    HW217301   1.731   7.023  12.358
 5759SOL     OW17302   0.317   6.133  12.452
 5759SOL    HW117303   0.355   6.074  12.524
 5759SOL    HW217304   0.357   6.107  12.364
 5760SOL     OW17305   0.812   7.172  11.859
 5760SOL    HW117306   0.844   7.182  11.765
 5760SOL    HW217307   0.733   7.110  11.861
 5761SOL     OW17308   1.424   5.800  12.284
 5761SOL    HW117309   1.476   5.735  12.339
 5761SOL    HW217310   1.375   5.863  12.345
 5762SOL     OW17311   1.001   5.620  12.326
 5762SOL    HW117312   0.938   5.548  12.295
 5762SOL    HW217313   1.094   5.584  12.326
 5763SOL     OW17314   0.770   6.916  11.473
 5763SOL    HW117315   0.724   6.829  11.490
 5763SOL    HW217316   0.861   6.913  11.514
 5764SOL     OW17317   0.618   7.153  12.456
 5764SOL    HW117318   0.613   7.235  12.513
 5764SOL    HW217319   0.707   7.150  12.411
 5765SOL     OW17320   1.352   5.638  11.340
 5765SOL    HW117321   1.387   5.597  11.256
 5765SOL    HW217322   1.262   5.600  11.360
 5766SOL     OW17323   1.300   6.039  11.863
 5766SOL    HW117324   1.241   6.119  11.867
 5766SOL    HW217325   1.315   6.004  11.956
 5767SOL     OW17326   1.593   5.807  12.054
 5767SOL    HW117327   1.509   5.806  12.108
 5767SOL    HW217328   1.595   5.890  11.998
 5768SOL     OW17329   0.039   6.663  11.472
 5768SOL    HW117330   0.138   6.652  11.463
 5768SOL    HW217331  -0.001   6.577  11.504
 5769SOL     OW17332   0.875   7.232  11.509
 5769SOL    HW117333   0.798   7.197  11.455
 5769SOL    HW217334   0.843   7.303  11.571
 5770SOL     OW17335   0.230   8.076   0.113
 5770SOL    HW117336   0.137   8.074   0.150
 5770SOL    HW217337   0.231   8.037   0.021
 5771SOL     OW17338   0.225   7.723   0.996
 5771SOL    HW117339   0.260   7.706   1.088
 5771SOL    HW217340   0.137   7.678   0.984
 5772SOL     OW17341   0.019   7.816   0.647
 5772SOL    HW117342  -0.063   7.859   0.686
 5772SOL    HW217343  -0.009   7.743   0.584
 5773SOL     OW17344   0.569   8.723   1.165
 5773SOL    HW117345   0.476   8.716   1.128
 5773SOL    HW217346   0.580   8.812   1.209
 5774SOL     OW17347   1.555   8.959   0.703
 5774SOL    HW117348   1.498   8.943   0.784
 5774SOL    HW217349   1.496   8.969   0.623
 5775SOL     OW17350   1.135   8.151   0.717
 5775SOL    HW117351   1.192   8.229   0.692
 5775SOL    HW217352   1.075   8.177   0.793
 5776SOL     OW17353   1.755   8.055   0.231
 5776SOL    HW117354   1.743   8.042   0.132
 5776SOL    HW217355   1.725   7.974   0.280
 5777SOL     OW17356   0.768   8.592   1.023
 5777SOL    HW117357   0.690   8.609   1.083
 5777SOL    HW217358   0.802   8.679   0.987
 5778SOL     OW17359   0.850   8.246   1.823
 5778SOL    HW117360   0.846   8.322   1.888
 5778SOL    HW217361   0.872   8.282   1.732
 5779SOL     OW17362   0.685   8.460   0.665
 5779SOL    HW117363   0.754   8.444   0.735
 5779SOL    HW217364   0.612   8.517   0.703
 5780SOL     OW17365   0.686   8.609   1.803
 5780SOL    HW117366   0.746   8.688   1.817
 5780SOL    HW217367   0.600   8.640   1.762
 5781SOL     OW17368   0.335   8.883   1.061
 5781SOL    HW117369   0.257   8.852   1.008
 5781SOL    HW217370   0.393   8.941   1.004
 5782SOL     OW17371   1.460   8.953   1.339
 5782SOL    HW117372   1.484   9.047   1.365
 5782SOL    HW217373   1.444   8.899   1.421
 5783SOL     OW17374   0.438   7.840   1.499
 5783SOL    HW117375   0.520   7.784   1.508
 5783SOL    HW217376   0.357   7.782   1.503
 5784SOL     OW17377   1.603   7.895   0.737
 5784SOL    HW117378   1.529   7.941   0.687
 5784SOL    HW217379   1.654   7.963   0.790
 5785SOL     OW17380   0.231   9.161   0.483
 5785SOL    HW117381   0.265   9.238   0.537
 5785SOL    HW217382   0.275   9.161   0.393
 5786SOL     OW17383   1.127   8.789   1.690
 5786SOL    HW117384   1.174   8.789   1.778
 5786SOL    HW217385   1.079   8.702   1.679
 5787SOL     OW17386   0.230   8.882   0.538
 5787SOL    HW117387   0.204   8.978   0.538
 5787SOL    HW217388   0.159   8.828   0.583
 5788SOL     OW17389   0.240   8.539   0.886
 5788SOL    HW117390   0.254   8.455   0.938
 5788SOL    HW217391   0.185   8.603   0.941
 5789SOL     OW17392   0.620   9.234   1.439
 5789SOL    HW117393   0.528   9.217   1.474
 5789SOL    HW217394   0.648   9.326   1.465
 5790SOL     OW17395   0.606   8.412   0.123
 5790SOL    HW117396   0.613   8.496   0.069
 5790SOL    HW217397   0.652   8.425   0.211
 5791SOL     OW17398   1.594   7.562   1.480
 5791SOL    HW117399   1.576   7.629   1.408
 5791SOL    HW217400   1.591   7.608   1.569
 5792SOL     OW17401   0.122   8.091   0.563
 5792SOL    HW117402   0.077   8.003   0.580
 5792SOL    HW217403   0.121   8.145   0.647
 5793SOL     OW17404   1.842   9.215   0.359
 5793SOL    HW117405   1.896   9.186   0.439
 5793SOL    HW217406   1.872   9.305   0.330
 5794SOL     OW17407   0.027   9.044   0.117
 5794SOL    HW117408   0.008   8.948   0.138
 5794SOL    HW217409  -0.006   9.102   0.192
 5795SOL     OW17410   1.689   8.370   0.612
 5795SOL    HW117411   1.784   8.341   0.620
 5795SOL    HW217412   1.681   8.435   0.537
 5796SOL     OW17413   1.641   8.556   0.432
 5796SOL    HW117414   1.727   8.558   0.380
 5796SOL    HW217415   1.655   8.603   0.520
 5797SOL     OW17416   0.113   8.185   1.597
 5797SOL    HW117417   0.201   8.172   1.642
 5797SOL    HW217418   0.100   8.282   1.575
 5798SOL     OW17419   0.613   8.813   0.726
 5798SOL    HW117420   0.564   8.726   0.735
 5798SOL    HW217421   0.590   8.856   0.639
 5799SOL     OW17422   1.293   8.676   1.423
 5799SOL    HW117423   1.330   8.603   1.365
 5799SOL    HW217424   1.345   8.681   1.508
 5800SOL     OW17425   0.809   7.452   0.502
 5800SOL    HW117426   0.849   7.543   0.493
 5800SOL    HW217427   0.709   7.460   0.508
 5801SOL     OW17428   0.197   8.424   1.264
 5801SOL    HW117429   0.286   8.379   1.250
 5801SOL    HW217430   0.124   8.359   1.245
 5802SOL     OW17431   1.525   8.447   0.190
 5802SOL    HW117432   1.462   8.371   0.203
 5802SOL    HW217433   1.573   8.465   0.276
 5803SOL     OW17434   1.187   9.240   1.616
 5803SOL    HW117435   1.211   9.300   1.540
 5803SOL    HW217436   1.194   9.145   1.586
 5804SOL     OW17437   0.317   7.699   1.801
 5804SOL    HW117438   0.388   7.770   1.807
 5804SOL    HW217439   0.229   7.738   1.829
 5805SOL     OW17440   1.466   8.865   0.953
 5805SOL    HW117441   1.407   8.871   1.033
 5805SOL    HW217442   1.451   8.777   0.907
 5806SOL     OW17443   1.667   9.162   0.572
 5806SOL    HW117444   1.626   9.139   0.484
 5806SOL    HW217445   1.649   9.088   0.637
 5807SOL     OW17446   0.598   8.177   0.270
 5807SOL    HW117447   0.622   8.246   0.202
 5807SOL    HW217448   0.520   8.210   0.324
 5808SOL     OW17449   1.281   7.793   0.944
 5808SOL    HW117450   1.195   7.743   0.931
 5808SOL    HW217451   1.343   7.739   1.000
 5809SOL     OW17452   1.576   9.110   0.307
 5809SOL    HW117453   1.665   9.156   0.310
 5809SOL    HW217454   1.555   9.086   0.212
 5810SOL     OW17455   0.807   8.053   1.465
 5810SOL    HW117456   0.760   8.050   1.554
 5810SOL    HW217457   0.756   7.998   1.399
 5811SOL     OW17458   1.394   7.917   1.674
 5811SOL    HW117459   1.374   7.960   1.762
 5811SOL    HW217460   1.472   7.855   1.683
 5812SOL     OW17461   0.973   8.338   1.572
 5812SOL    HW117462   1.019   8.254   1.543
 5812SOL    HW217463   0.917   8.372   1.497
 5813SOL     OW17464   0.991   7.858   1.242
 5813SOL    HW117465   0.914   7.892   1.296
 5813SOL    HW217466   0.957   7.807   1.163
 5814SOL     OW17467   1.041   8.149   0.429
 5814SOL    HW117468   1.067   8.145   0.525
 5814SOL    HW217469   0.956   8.098   0.415
 5815SOL     OW17470   0.076   8.259   0.789
 5815SOL    HW117471   0.175   8.247   0.798
 5815SOL    HW217472   0.052   8.354   0.810
 5816SOL     OW17473   0.130   9.269   1.571
 5816SOL    HW117474   0.120   9.254   1.670
 5816SOL    HW217475   0.044   9.305   1.535
 5817SOL     OW17476   0.865   7.796   0.195
 5817SOL    HW117477   0.924   7.859   0.146
 5817SOL    HW217478   0.884   7.702   0.166
 5818SOL     OW17479   1.719   8.033   1.831
 5818SOL    HW117480   1.693   8.122   1.795
 5818SOL    HW217481   1.717   7.965   1.758
 5819SOL     OW17482   1.362   8.592   0.545
 5819SOL    HW117483   1.445   8.563   0.497
 5819SOL    HW217484   1.313   8.659   0.489
 5820SOL     OW17485   0.550   7.644   0.885
 5820SOL    HW117486   0.545   7.639   0.985
 5820SOL    HW217487   0.552   7.740   0.856
 5821SOL     OW17488   1.008   8.904   0.477
 5821SOL    HW117489   0.962   8.976   0.425
 5821SOL    HW217490   1.004   8.924   0.575
 5822SOL     OW17491   0.351   9.249   0.853
 5822SOL    HW117492   0.401   9.163   0.859
 5822SOL    HW217493   0.416   9.326   0.850
 5823SOL     OW17494   1.795   8.514   0.873
 5823SOL    HW117495   1.733   8.499   0.797
 5823SOL    HW217496   1.743   8.525   0.958
 5824SOL     OW17497   1.227   8.998   1.506
 5824SOL    HW117498   1.233   8.921   1.570
 5824SOL    HW217499   1.175   8.972   1.426
 5825SOL     OW17500   0.321   8.391   0.242
 5825SOL    HW117501   0.403   8.430   0.200
 5825SOL    HW217502   0.294   8.309   0.193
 5826SOL     OW17503   1.458   8.183   0.728
 5826SOL    HW117504   1.453   8.118   0.803
 5826SOL    HW217505   1.538   8.242   0.741
 5827SOL     OW17506   0.461   8.714   1.727
 5827SOL    HW117507   0.411   8.715   1.641
 5827SOL    HW217508   0.398   8.696   1.803
 5828SOL     OW17509   1.111   9.224   0.237
 5828SOL    HW117510   1.051   9.162   0.287
 5828SOL    HW217511   1.142   9.180   0.152
 5829SOL     OW17512   0.202   7.733   1.498
 5829SOL    HW117513   0.122   7.793   1.485
 5829SOL    HW217514   0.192   7.684   1.584
 5830SOL     OW17515   1.632   8.825   0.081
 5830SOL    HW117516   1.600   8.919   0.071
 5830SOL    HW217517   1.556   8.762   0.069
 5831SOL     OW17518   0.464   9.191   0.323
 5831SOL    HW117519   0.497   9.230   0.409
 5831SOL    HW217520   0.540   9.184   0.258
 5832SOL     OW17521   1.400   7.555   0.426
 5832SOL    HW117522   1.376   7.518   0.336
 5832SOL    HW217523   1.499   7.571   0.430
 5833SOL     OW17524   0.249   9.233   1.241
 5833SOL    HW117525   0.306   9.168   1.291
 5833SOL    HW217526   0.233   9.200   1.148
 5834SOL     OW17527   0.940   9.146   0.904
 5834SOL    HW117528   1.020   9.089   0.925
 5834SOL    HW217529   0.891   9.106   0.827
 5835SOL     OW17530   0.382   8.148   0.480
 5835SOL    HW117531   0.427   8.058   0.477
 5835SOL    HW217532   0.288   8.137   0.513
 5836SOL     OW17533   1.547   7.670   1.729
 5836SOL    HW117534   1.542   7.707   1.821
 5836SOL    HW217535   1.475   7.601   1.717
 5837SOL     OW17536   0.614   7.570   0.117
 5837SOL    HW117537   0.712   7.548   0.124
 5837SOL    HW217538   0.583   7.553   0.024
 5838SOL     OW17539   0.781   7.712   1.749
 5838SOL    HW117540   0.848   7.651   1.792
 5838SOL    HW217541   0.708   7.731   1.814
 5839SOL     OW17542   0.888   8.962   1.195
 5839SOL    HW117543   0.865   8.937   1.101
 5839SOL    HW217544   0.949   8.893   1.234
 5840SOL     OW17545   1.351   8.038   1.433
 5840SOL    HW117546   1.379   7.995   1.518
 5840SOL    HW217547   1.376   8.134   1.434
 5841SOL     OW17548   0.803   8.850   0.924
 5841SOL    HW117549   0.893   8.864   0.882
 5841SOL    HW217550   0.732   8.852   0.853
 5842SOL     OW17551   0.922   7.951   0.899
 5842SOL    HW117552   0.897   7.942   0.803
 5842SOL    HW217553   0.970   7.869   0.930
 5843SOL     OW17554   0.539   7.512   0.512
 5843SOL    HW117555   0.458   7.513   0.570
 5843SOL    HW217556   0.542   7.595   0.457
 5844SOL     OW17557   1.434   8.636   0.041
 5844SOL    HW117558   1.466   8.560   0.098
 5844SOL    HW217559   1.342   8.663   0.071
 5845SOL     OW17560   0.297   7.483   0.171
 5845SOL    HW117561   0.346   7.567   0.150
 5845SOL    HW217562   0.359   7.418   0.216
 5846SOL     OW17563   0.935   7.684   0.480
 5846SOL    HW117564   0.887   7.725   0.402
 5846SOL    HW217565   1.034   7.682   0.461
 5847SOL     OW17566   1.076   8.131   1.464
 5847SOL    HW117567   0.996   8.070   1.467
 5847SOL    HW217568   1.157   8.078   1.440
 5848SOL     OW17569   1.227   9.018   0.793
 5848SOL    HW117570   1.248   9.092   0.728
 5848SOL    HW217571   1.295   9.018   0.866
 5849SOL     OW17572   0.459   8.600   0.741
 5849SOL    HW117573   0.388   8.573   0.806
 5849SOL    HW217574   0.433   8.572   0.648
 5850SOL     OW17575   1.271   9.245   0.591
 5850SOL    HW117576   1.315   9.309   0.527
 5850SOL    HW217577   1.221   9.297   0.661
 5851SOL     OW17578   1.032   7.997   0.016
 5851SOL    HW117579   0.991   8.079  -0.023
 5851SOL    HW217580   1.096   8.023   0.089
 5852SOL     OW17581   0.078   8.004   1.386
 5852SOL    HW117582   0.170   8.003   1.345
 5852SOL    HW217583   0.072   8.078   1.453
 5853SOL     OW17584   0.561   7.670   1.147
 5853SOL    HW117585   0.599   7.586   1.184
 5853SOL    HW217586   0.473   7.689   1.191
 5854SOL     OW17587   0.866   7.902   0.642
 5854SOL    HW117588   0.834   7.974   0.580
 5854SOL    HW217589   0.890   7.821   0.589
 5855SOL     OW17590   1.017   7.487   0.753
 5855SOL    HW117591   0.945   7.492   0.684
 5855SOL    HW217592   0.993   7.418   0.822
 5856SOL     OW17593   1.429   8.621   0.867
 5856SOL    HW117594   1.374   8.537   0.860
 5856SOL    HW217595   1.455   8.650   0.775
 5857SOL     OW17596   1.466   8.038   0.992
 5857SOL    HW117597   1.436   7.943   0.999
 5857SOL    HW217598   1.539   8.054   1.058
 5858SOL     OW17599   1.857   8.281   0.377
 5858SOL    HW117600   1.899   8.217   0.441
 5858SOL    HW217601   1.819   8.230   0.299
 5859SOL     OW17602   0.488   8.833   0.174
 5859SOL    HW117603   0.401   8.818   0.221
 5859SOL    HW217604   0.471   8.859   0.079
 5860SOL     OW17605   1.664   8.728   0.657
 5860SOL    HW117606   1.763   8.736   0.671
 5860SOL    HW217607   1.619   8.812   0.688
 5861SOL     OW17608   1.390   8.023   0.078
 5861SOL    HW117609   1.336   8.002   0.159
 5861SOL    HW217610   1.481   7.982   0.087
 5862SOL     OW17611   0.527   7.704   0.328
 5862SOL    HW117612   0.554   7.645   0.253
 5862SOL    HW217613   0.527   7.799   0.297
 5863SOL     OW17614   1.754   8.671   1.588
 5863SOL    HW117615   1.845   8.632   1.575
 5863SOL    HW217616   1.762   8.767   1.612
 5864SOL     OW17617   1.064   8.795   1.340
 5864SOL    HW117618   0.984   8.772   1.395
 5864SOL    HW217619   1.147   8.769   1.389
 5865SOL     OW17620   1.592   9.077   1.625
 5865SOL    HW117621   1.619   9.111   1.535
 5865SOL    HW217622   1.671   9.039   1.671
 5866SOL     OW17623   1.111   8.643   1.100
 5866SOL    HW117624   1.071   8.687   1.181
 5866SOL    HW217625   1.070   8.680   1.017
 5867SOL     OW17626   1.638   8.547   1.079
 5867SOL    HW117627   1.643   8.628   1.138
 5867SOL    HW217628   1.552   8.549   1.028
 5868SOL     OW17629   0.915   7.537   1.402
 5868SOL    HW117630   0.940   7.517   1.307
 5868SOL    HW217631   0.987   7.593   1.444
 5869SOL     OW17632   0.980   8.564   1.719
 5869SOL    HW117633   0.881   8.570   1.729
 5869SOL    HW217634   1.003   8.484   1.663
 5870SOL     OW17635   0.705   8.498   0.368
 5870SOL    HW117636   0.691   8.505   0.467
 5870SOL    HW217637   0.789   8.447   0.350
 5871SOL     OW17638   0.410   8.261   1.251
 5871SOL    HW117639   0.496   8.273   1.301
 5871SOL    HW217640   0.368   8.174   1.278
 5872SOL     OW17641   1.274   7.834   1.262
 5872SOL    HW117642   1.295   7.908   1.326
 5872SOL    HW217643   1.185   7.851   1.219
 5873SOL     OW17644   0.064   9.012   1.331
 5873SOL    HW117645   0.018   9.094   1.297
 5873SOL    HW217646   0.162   9.031   1.340
 5874SOL     OW17647   0.367   8.548   0.501
 5874SOL    HW117648   0.360   8.631   0.445
 5874SOL    HW217649   0.371   8.468   0.441
 5875SOL     OW17650   0.566   7.985   0.865
 5875SOL    HW117651   0.578   8.051   0.791
 5875SOL    HW217652   0.612   8.019   0.948
 5876SOL     OW17653   1.252   8.796   0.388
 5876SOL    HW117654   1.302   8.873   0.428
 5876SOL    HW217655   1.157   8.798   0.420
 5877SOL     OW17656   1.272   8.893   1.142
 5877SOL    HW117657   1.319   8.906   1.229
 5877SOL    HW217658   1.206   8.819   1.151
 5878SOL     OW17659   1.582   8.087   0.472
 5878SOL    HW117660   1.551   8.148   0.545
 5878SOL    HW217661   1.632   8.139   0.403
 5879SOL     OW17662   0.354   8.958   1.329
 5879SOL    HW117663   0.333   8.914   1.242
 5879SOL    HW217664   0.451   8.984   1.332
 5880SOL     OW17665   0.402   8.199   1.598
 5880SOL    HW117666   0.470   8.254   1.551
 5880SOL    HW217667   0.442   8.111   1.625
 5881SOL     OW17668   1.587   8.227   1.670
 5881SOL    HW117669   1.495   8.265   1.665
 5881SOL    HW217670   1.647   8.274   1.605
 5882SOL     OW17671   1.013   7.553   1.770
 5882SOL    HW117672   1.019   7.638   1.718
 5882SOL    HW217673   1.045   7.477   1.713
 5883SOL     OW17674   0.504   7.498   1.740
 5883SOL    HW117675   0.462   7.441   1.670
 5883SOL    HW217676   0.438   7.567   1.772
 5884SOL     OW17677   0.573   8.318   1.029
 5884SOL    HW117678   0.617   8.407   1.020
 5884SOL    HW217679   0.510   8.318   1.106
 5885SOL     OW17680   1.360   8.310   1.045
 5885SOL    HW117681   1.285   8.310   0.979
 5885SOL    HW217682   1.397   8.218   1.054
 5886SOL     OW17683   1.209   7.973   0.275
 5886SOL    HW117684   1.222   7.889   0.329
 5886SOL    HW217685   1.180   8.047   0.335
 5887SOL     OW17686   0.307   7.661   1.231
 5887SOL    HW117687   0.284   7.698   1.321
 5887SOL    HW217688   0.277   7.566   1.225
 5888SOL     OW17689   0.037   8.758   1.282
 5888SOL    HW117690   0.090   8.709   1.350
 5888SOL    HW217691   0.059   8.856   1.287
 5889SOL     OW17692   0.732   8.082   1.064
 5889SOL    HW117693   0.791   8.056   0.988
 5889SOL    HW217694   0.704   8.178   1.053
 5890SOL     OW17695   1.728   8.383   1.854
 5890SOL    HW117696   1.682   8.376   1.765
 5890SOL    HW217697   1.666   8.427   1.920
 5891SOL     OW17698   0.307   7.511   0.618
 5891SOL    HW117699   0.296   7.605   0.651
 5891SOL    HW217700   0.302   7.448   0.695
 5892SOL     OW17701   1.622   7.815   0.374
 5892SOL    HW117702   1.624   7.739   0.438
 5892SOL    HW217703   1.574   7.892   0.414
 5893SOL     OW17704   1.023   8.214   0.966
 5893SOL    HW117705   1.038   8.235   1.062
 5893SOL    HW217706   0.993   8.119   0.957
 5894SOL     OW17707   0.980   9.021   1.700
 5894SOL    HW117708   0.960   9.065   1.612
 5894SOL    HW217709   1.019   8.930   1.684
 5895SOL     OW17710   1.859   8.966   1.605
 5895SOL    HW117711   1.873   8.993   1.510
 5895SOL    HW217712   1.942   8.988   1.658
 5896SOL     OW17713   0.350   8.346   1.804
 5896SOL    HW117714   0.426   8.390   1.852
 5896SOL    HW217715   0.385   8.299   1.722
 5897SOL     OW17716   1.540   7.722   0.125
 5897SOL    HW117717   1.479   7.647   0.148
 5897SOL    HW217718   1.562   7.774   0.208
 5898SOL     OW17719   1.303   8.286   0.042
 5898SOL    HW117720   1.337   8.193   0.057
 5898SOL    HW217721   1.321   8.313  -0.053
 5899SOL     OW17722   1.068   8.781   0.849
 5899SOL    HW117723   1.075   8.697   0.794
 5899SOL    HW217724   1.130   8.850   0.813
 5900SOL     OW17725   0.319   8.258   0.949
 5900SOL    HW117726   0.412   8.294   0.954
 5900SOL    HW217727   0.313   8.173   1.001
 5901SOL     OW17728   0.339   7.957   1.006
 5901SOL    HW117729   0.287   7.874   0.989
 5901SOL    HW217730   0.416   7.962   0.942
 5902SOL     OW17731   1.138   7.828   1.678
 5902SOL    HW117732   1.093   7.891   1.742
 5902SOL    HW217733   1.231   7.859   1.661
 5903SOL     OW17734   1.160   7.655   1.477
 5903SOL    HW117735   1.160   7.719   1.554
 5903SOL    HW217736   1.188   7.703   1.394
 5904SOL     OW17737   0.008   8.774   0.200
 5904SOL    HW117738  -0.085   8.795   0.169
 5904SOL    HW217739   0.018   8.675   0.213
 5905SOL     OW17740   0.088   9.249   0.927
 5905SOL    HW117741   0.046   9.163   0.900
 5905SOL    HW217742   0.182   9.252   0.893
 5906SOL     OW17743   0.504   9.016   0.910
 5906SOL    HW117744   0.570   9.090   0.919
 5906SOL    HW217745   0.548   8.937   0.868
 5907SOL     OW17746   1.002   8.244   1.238
 5907SOL    HW117747   1.043   8.212   1.324
 5907SOL    HW217748   0.906   8.217   1.235
 5908SOL     OW17749   0.040   7.992   1.114
 5908SOL    HW117750   0.125   7.959   1.073
 5908SOL    HW217751   0.053   8.007   1.212
 5909SOL     OW17752   0.189   7.968   1.722
 5909SOL    HW117753   0.248   7.928   1.652
 5909SOL    HW217754   0.131   8.039   1.681
 5910SOL     OW17755   1.369   8.398   1.660
 5910SOL    HW117756   1.408   8.487   1.680
 5910SOL    HW217757   1.379   8.378   1.563
 5911SOL     OW17758   0.815   8.020   0.325
 5911SOL    HW117759   0.822   7.931   0.279
 5911SOL    HW217760   0.721   8.054   0.317
 5912SOL     OW17761   1.657   8.052   1.206
 5912SOL    HW117762   1.619   7.983   1.268
 5912SOL    HW217763   1.739   8.016   1.162
 5913SOL     OW17764   0.252   9.012   1.744
 5913SOL    HW117765   0.222   9.069   1.820
 5913SOL    HW217766   0.245   8.915   1.770
 5914SOL     OW17767   0.671   7.912   1.269
 5914SOL    HW117768   0.637   7.823   1.239
 5914SOL    HW217769   0.697   7.966   1.189
 5915SOL     OW17770   0.930   9.126   1.465
 5915SOL    HW117771   0.906   9.108   1.370
 5915SOL    HW217772   0.960   9.220   1.475
 5916SOL     OW17773   0.473   7.948   0.191
 5916SOL    HW117774   0.534   8.028   0.195
 5916SOL    HW217775   0.378   7.979   0.198
 5917SOL     OW17776   0.159   8.585   1.466
 5917SOL    HW117777   0.181   8.524   1.542
 5917SOL    HW217778   0.169   8.536   1.380
 5918SOL     OW17779   1.347   8.507   1.234
 5918SOL    HW117780   1.371   8.444   1.160
 5918SOL    HW217781   1.257   8.547   1.216
 5919SOL     OW17782   1.302   8.303   0.309
 5919SOL    HW117783   1.216   8.272   0.351
 5919SOL    HW217784   1.298   8.289   0.210
 5920SOL     OW17785   1.759   9.195   1.154
 5920SOL    HW117786   1.820   9.225   1.081
 5920SOL    HW217787   1.721   9.106   1.132
 5921SOL     OW17788   1.252   9.179   1.128
 5921SOL    HW117789   1.336   9.184   1.074
 5921SOL    HW217790   1.229   9.083   1.146
 5922SOL     OW17791   0.083   8.706   1.022
 5922SOL    HW117792   0.078   8.705   1.122
 5922SOL    HW217793   0.000   8.665   0.984
 5923SOL     OW17794   0.688   9.110   1.716
 5923SOL    HW117795   0.632   9.191   1.725
 5923SOL    HW217796   0.740   9.114   1.630
 5924SOL     OW17797   0.903   7.534   0.133
 5924SOL    HW117798   0.954   7.535   0.047
 5924SOL    HW217799   0.959   7.492   0.204
 5925SOL     OW17800   1.726   7.583   0.523
 5925SOL    HW117801   1.799   7.566   0.456
 5925SOL    HW217802   1.695   7.496   0.561
 5926SOL     OW17803   1.388   9.021   0.477
 5926SOL    HW117804   1.455   9.033   0.403
 5926SOL    HW217805   1.348   9.110   0.500
 5927SOL     OW17806   0.130   9.242   1.851
 5927SOL    HW117807   0.089   9.168   1.904
 5927SOL    HW217808   0.194   9.293   1.909
 5928SOL     OW17809   1.280   8.375   0.672
 5928SOL    HW117810   1.340   8.294   0.674
 5928SOL    HW217811   1.320   8.444   0.612
 5929SOL     OW17812   0.830   8.721   1.422
 5929SOL    HW117813   0.825   8.754   1.517
 5929SOL    HW217814   0.744   8.740   1.376
 5930SOL     OW17815   0.672   9.064   0.154
 5930SOL    HW117816   0.681   9.074   0.055
 5930SOL    HW217817   0.632   8.975   0.175
 5931SOL     OW17818   1.650   9.168   1.394
 5931SOL    HW117819   1.703   9.178   1.310
 5931SOL    HW217820   1.623   9.258   1.428
 5932SOL     OW17821   1.841   7.623   0.963
 5932SOL    HW117822   1.880   7.538   0.927
 5932SOL    HW217823   1.743   7.625   0.944
 5933SOL     OW17824   0.263   7.774   0.720
 5933SOL    HW117825   0.184   7.825   0.686
 5933SOL    HW217826   0.254   7.759   0.818
 5934SOL     OW17827   1.194   9.060   0.031
 5934SOL    HW117828   1.200   8.967   0.068
 5934SOL    HW217829   1.135   9.060  -0.049
 5935SOL     OW17830   0.822   8.450   1.372
 5935SOL    HW117831   0.862   8.449   1.280
 5935SOL    HW217832   0.832   8.542   1.412
 5936SOL     OW17833   0.916   8.358   0.291
 5936SOL    HW117834   0.979   8.396   0.223
 5936SOL    HW217835   0.956   8.275   0.330
 5937SOL     OW17836   1.504   9.055   0.044
 5937SOL    HW117837   1.412   9.092   0.051
 5937SOL    HW217838   1.542   9.075  -0.046
 5938SOL     OW17839   0.372   8.736   1.490
 5938SOL    HW117840   0.359   8.829   1.456
 5938SOL    HW217841   0.288   8.684   1.477
 5939SOL     OW17842   1.614   8.740   1.289
 5939SOL    HW117843   1.674   8.743   1.369
 5939SOL    HW217844   1.539   8.804   1.302
 5940SOL     OW17845   1.039   8.546   0.696
 5940SOL    HW117846   0.969   8.499   0.750
 5940SOL    HW217847   1.098   8.478   0.653
 5941SOL     OW17848   1.014   7.684   0.971
 5941SOL    HW117849   1.006   7.648   0.878
 5941SOL    HW217850   1.012   7.608   1.036
 5942SOL     OW17851   0.590   8.935   0.491
 5942SOL    HW117852   0.632   8.877   0.421
 5942SOL    HW217853   0.546   9.014   0.447
 5943SOL     OW17854   1.709   7.833   1.381
 5943SOL    HW117855   1.782   7.902   1.385
 5943SOL    HW217856   1.737   7.758   1.322
 5944SOL     OW17857   0.255   8.796   0.290
 5944SOL    HW117858   0.159   8.797   0.263
 5944SOL    HW217859   0.267   8.849   0.374
 5945SOL     OW17860   0.105   8.461   1.726
 5945SOL    HW117861   0.028   8.428   1.780
 5945SOL    HW217862   0.190   8.431   1.768
 5946SOL     OW17863   0.672   7.651   1.489
 5946SOL    HW117864   0.762   7.635   1.449
 5946SOL    HW217865   0.680   7.656   1.588
 5947SOL     OW17866   0.075   7.793   0.033
 5947SOL    HW117867  -0.017   7.765   0.004
 5947SOL    HW217868   0.106   7.870  -0.023
 5948SOL     OW17869   1.440   8.304   1.398
 5948SOL    HW117870   1.383   8.356   1.335
 5948SOL    HW217871   1.536   8.316   1.374
 5949SOL     OW17872   0.072   7.614   0.318
 5949SOL    HW117873   0.055   7.697   0.264
 5949SOL    HW217874   0.162   7.577   0.296
 5950SOL     OW17875   1.183   8.783   0.119
 5950SOL    HW117876   1.084   8.772   0.121
 5950SOL    HW217877   1.217   8.798   0.212
 5951SOL     OW17878   0.613   8.290   1.431
 5951SOL    HW117879   0.669   8.371   1.414
 5951SOL    HW217880   0.672   8.210   1.434
 5952SOL     OW17881   1.493   9.215   0.959
 5952SOL    HW117882   1.526   9.279   0.890
 5952SOL    HW217883   1.559   9.209   1.034
 5953SOL     OW17884   0.716   8.013   1.708
 5953SOL    HW117885   0.735   8.078   1.782
 5953SOL    HW217886   0.776   7.933   1.717
 5954SOL     OW17887   1.450   8.668   1.633
 5954SOL    HW117888   1.441   8.658   1.732
 5954SOL    HW217889   1.546   8.661   1.607
 5955SOL     OW17890   0.390   9.189   1.560
 5955SOL    HW117891   0.299   9.230   1.558
 5955SOL    HW217892   0.383   9.095   1.592
 5956SOL     OW17893   1.674   8.331   1.254
 5956SOL    HW117894   1.647   8.242   1.217
 5956SOL    HW217895   1.675   8.399   1.181
 5957SOL     OW17896   1.225   7.773   0.449
 5957SOL    HW117897   1.290   7.699   0.438
 5957SOL    HW217898   1.245   7.823   0.533
 5958SOL     OW17899   0.594   8.193   0.652
 5958SOL    HW117900   0.644   8.278   0.633
 5958SOL    HW217901   0.506   8.195   0.604
 5959SOL     OW17902   1.777   7.790   1.642
 5959SOL    HW117903   1.760   7.821   1.548
 5959SOL    HW217904   1.693   7.753   1.680
 5960SOL     OW17905   1.730   8.382   1.517
 5960SOL    HW117906   1.768   8.473   1.532
 5960SOL    HW217907   1.722   8.365   1.418
 5961SOL     OW17908   0.859   8.822   0.016
 5961SOL    HW117909   0.813   8.837   0.104
 5961SOL    HW217910   0.903   8.907  -0.014
 5962SOL     OW17911   0.661   9.238   0.953
 5962SOL    HW117912   0.615   9.326   0.940
 5962SOL    HW217913   0.760   9.250   0.946
 5963SOL     OW17914   0.859   8.404   0.861
 5963SOL    HW117915   0.913   8.335   0.909
 5963SOL    HW217916   0.827   8.473   0.927
 5964SOL     OW17917   1.083   8.432   0.087
 5964SOL    HW117918   1.060   8.485   0.005
 5964SOL    HW217919   1.164   8.376   0.068
 5965SOL     OW17920   1.861   9.017   0.851
 5965SOL    HW117921   1.790   9.005   0.781
 5965SOL    HW217922   1.862   8.938   0.911
 5966SOL     OW17923   0.221   8.762   1.844
 5966SOL    HW117924   0.156   8.689   1.823
 5966SOL    HW217925   0.225   8.776   1.942
 5967SOL     OW17926   0.079   8.688   0.653
 5967SOL    HW117927   0.078   8.641   0.741
 5967SOL    HW217928   0.161   8.660   0.602
 5968SOL     OW17929   0.672   8.839   1.624
 5968SOL    HW117930   0.594   8.789   1.662
 5968SOL    HW217931   0.669   8.934   1.655
 5969SOL     OW17932   1.824   7.640   1.227
 5969SOL    HW117933   1.820   7.550   1.271
 5969SOL    HW217934   1.827   7.629   1.128
 5970SOL     OW17935   0.428   7.872   0.520
 5970SOL    HW117936   0.458   7.800   0.458
 5970SOL    HW217937   0.389   7.832   0.603
 5971SOL     OW17938   1.705   8.935   1.104
 5971SOL    HW117939   1.612   8.910   1.077
 5971SOL    HW217940   1.731   8.885   1.186
 5972SOL     OW17941   0.317   7.995   1.280
 5972SOL    HW117942   0.355   7.936   1.352
 5972SOL    HW217943   0.357   7.969   1.192
 5973SOL     OW17944   0.812   9.034   0.687
 5973SOL    HW117945   0.844   9.044   0.593
 5973SOL    HW217946   0.733   8.972   0.689
 5974SOL     OW17947   1.424   7.662   1.112
 5974SOL    HW117948   1.476   7.597   1.167
 5974SOL    HW217949   1.375   7.725   1.173
 5975SOL     OW17950   1.001   7.482   1.154
 5975SOL    HW117951   0.938   7.410   1.123
 5975SOL    HW217952   1.094   7.446   1.154
 5976SOL     OW17953   0.770   8.778   0.301
 5976SOL    HW117954   0.724   8.691   0.318
 5976SOL    HW217955   0.861   8.775   0.342
 5977SOL     OW17956   0.618   9.015   1.284
 5977SOL    HW117957   0.613   9.097   1.341
 5977SOL    HW217958   0.707   9.012   1.239
 5978SOL     OW17959   1.352   7.500   0.168
 5978SOL    HW117960   1.387   7.459   0.084
 5978SOL    HW217961   1.262   7.462   0.188
 5979SOL     OW17962   1.300   7.901   0.691
 5979SOL    HW117963   1.241   7.981   0.695
 5979SOL    HW217964   1.315   7.866   0.784
 5980SOL     OW17965   1.593   7.669   0.882
 5980SOL    HW117966   1.509   7.668   0.936
 5980SOL    HW217967   1.595   7.752   0.826
 5981SOL     OW17968   0.039   8.525   0.300
 5981SOL    HW117969   0.138   8.514   0.291
 5981SOL    HW217970  -0.001   8.439   0.332
 5982SOL     OW17971   0.875   9.094   0.337
 5982SOL    HW117972   0.798   9.059   0.283
 5982SOL    HW217973   0.843   9.165   0.399
 5983SOL     OW17974   0.230   8.076   1.975
 5983SOL    HW117975   0.137   8.074   2.012
 5983SOL    HW217976   0.231   8.037   1.883
 5984SOL     OW17977   0.225   7.723   2.858
 5984SOL    HW117978   0.260   7.706   2.950
 5984SOL    HW217979   0.137   7.678   2.846
 5985SOL     OW17980   0.019   7.816   2.509
 5985SOL    HW117981  -0.063   7.859   2.548
 5985SOL    HW217982  -0.009   7.743   2.446
 5986SOL     OW17983   0.569   8.723   3.027
 5986SOL    HW117984   0.476   8.716   2.990
 5986SOL    HW217985   0.580   8.812   3.071
 5987SOL     OW17986   1.555   8.959   2.565
 5987SOL    HW117987   1.498   8.943   2.646
 5987SOL    HW217988   1.496   8.969   2.485
 5988SOL     OW17989   1.135   8.151   2.579
 5988SOL    HW117990   1.192   8.229   2.554
 5988SOL    HW217991   1.075   8.177   2.655
 5989SOL     OW17992   1.755   8.055   2.093
 5989SOL    HW117993   1.743   8.042   1.994
 5989SOL    HW217994   1.725   7.974   2.142
 5990SOL     OW17995   0.768   8.592   2.885
 5990SOL    HW117996   0.690   8.609   2.945
 5990SOL    HW217997   0.802   8.679   2.849
 5991SOL     OW17998   0.850   8.246   3.685
 5991SOL    HW117999   0.846   8.322   3.750
 5991SOL    HW218000   0.872   8.282   3.594
 5992SOL     OW18001   0.685   8.460   2.527
 5992SOL    HW118002   0.754   8.444   2.597
 5992SOL    HW218003   0.612   8.517   2.565
 5993SOL     OW18004   0.686   8.609   3.665
 5993SOL    HW118005   0.746   8.688   3.679
 5993SOL    HW218006   0.600   8.640   3.624
 5994SOL     OW18007   0.335   8.883   2.923
 5994SOL    HW118008   0.257   8.852   2.870
 5994SOL    HW218009   0.393   8.941   2.866
 5995SOL     OW18010   1.460   8.953   3.201
 5995SOL    HW118011   1.484   9.047   3.227
 5995SOL    HW218012   1.444   8.899   3.283
 5996SOL     OW18013   0.438   7.840   3.361
 5996SOL    HW118014   0.520   7.784   3.370
 5996SOL    HW218015   0.357   7.782   3.365
 5997SOL     OW18016   1.603   7.895   2.599
 5997SOL    HW118017   1.529   7.941   2.549
 5997SOL    HW218018   1.654   7.963   2.652
 5998SOL     OW18019   0.231   9.161   2.345
 5998SOL    HW118020   0.265   9.238   2.399
 5998SOL    HW218021   0.275   9.161   2.255
 5999SOL     OW18022   1.127   8.789   3.552
 5999SOL    HW118023   1.174   8.789   3.640
 5999SOL    HW218024   1.079   8.702   3.541
 6000SOL     OW18025   0.230   8.882   2.400
 6000SOL    HW118026   0.204   8.978   2.400
 6000SOL    HW218027   0.159   8.828   2.445
 6001SOL     OW18028   0.240   8.539   2.748
 6001SOL    HW118029   0.254   8.455   2.800
 6001SOL    HW218030   0.185   8.603   2.803
 6002SOL     OW18031   0.620   9.234   3.301
 6002SOL    HW118032   0.528   9.217   3.336
 6002SOL    HW218033   0.648   9.326   3.327
 6003SOL     OW18034   0.606   8.412   1.985
 6003SOL    HW118035   0.613   8.496   1.931
 6003SOL    HW218036   0.652   8.425   2.073
 6004SOL     OW18037   1.594   7.562   3.342
 6004SOL    HW118038   1.576   7.629   3.270
 6004SOL    HW218039   1.591   7.608   3.431
 6005SOL     OW18040   0.122   8.091   2.425
 6005SOL    HW118041   0.077   8.003   2.442
 6005SOL    HW218042   0.121   8.145   2.509
 6006SOL     OW18043   1.842   9.215   2.221
 6006SOL    HW118044   1.896   9.186   2.301
 6006SOL    HW218045   1.872   9.305   2.192
 6007SOL     OW18046   0.027   9.044   1.979
 6007SOL    HW118047   0.008   8.948   2.000
 6007SOL    HW218048  -0.006   9.102   2.054
 6008SOL     OW18049   1.689   8.370   2.474
 6008SOL    HW118050   1.784   8.341   2.482
 6008SOL    HW218051   1.681   8.435   2.399
 6009SOL     OW18052   1.641   8.556   2.294
 6009SOL    HW118053   1.727   8.558   2.242
 6009SOL    HW218054   1.655   8.603   2.382
 6010SOL     OW18055   0.113   8.185   3.459
 6010SOL    HW118056   0.201   8.172   3.504
 6010SOL    HW218057   0.100   8.282   3.437
 6011SOL     OW18058   0.613   8.813   2.588
 6011SOL    HW118059   0.564   8.726   2.597
 6011SOL    HW218060   0.590   8.856   2.501
 6012SOL     OW18061   1.293   8.676   3.285
 6012SOL    HW118062   1.330   8.603   3.227
 6012SOL    HW218063   1.345   8.681   3.370
 6013SOL     OW18064   0.809   7.452   2.364
 6013SOL    HW118065   0.849   7.543   2.355
 6013SOL    HW218066   0.709   7.460   2.370
 6014SOL     OW18067   0.197   8.424   3.126
 6014SOL    HW118068   0.286   8.379   3.112
 6014SOL    HW218069   0.124   8.359   3.107
 6015SOL     OW18070   1.525   8.447   2.052
 6015SOL    HW118071   1.462   8.371   2.065
 6015SOL    HW218072   1.573   8.465   2.138
 6016SOL     OW18073   1.187   9.240   3.478
 6016SOL    HW118074   1.211   9.300   3.402
 6016SOL    HW218075   1.194   9.145   3.448
 6017SOL     OW18076   0.317   7.699   3.663
 6017SOL    HW118077   0.388   7.770   3.669
 6017SOL    HW218078   0.229   7.738   3.691
 6018SOL     OW18079   1.466   8.865   2.815
 6018SOL    HW118080   1.407   8.871   2.895
 6018SOL    HW218081   1.451   8.777   2.769
 6019SOL     OW18082   1.667   9.162   2.434
 6019SOL    HW118083   1.626   9.139   2.346
 6019SOL    HW218084   1.649   9.088   2.499
 6020SOL     OW18085   0.598   8.177   2.132
 6020SOL    HW118086   0.622   8.246   2.064
 6020SOL    HW218087   0.520   8.210   2.186
 6021SOL     OW18088   1.281   7.793   2.806
 6021SOL    HW118089   1.195   7.743   2.793
 6021SOL    HW218090   1.343   7.739   2.862
 6022SOL     OW18091   1.576   9.110   2.169
 6022SOL    HW118092   1.665   9.156   2.172
 6022SOL    HW218093   1.555   9.086   2.074
 6023SOL     OW18094   0.807   8.053   3.327
 6023SOL    HW118095   0.760   8.050   3.416
 6023SOL    HW218096   0.756   7.998   3.261
 6024SOL     OW18097   1.394   7.917   3.536
 6024SOL    HW118098   1.374   7.960   3.624
 6024SOL    HW218099   1.472   7.855   3.545
 6025SOL     OW18100   0.973   8.338   3.434
 6025SOL    HW118101   1.019   8.254   3.405
 6025SOL    HW218102   0.917   8.372   3.359
 6026SOL     OW18103   0.991   7.858   3.104
 6026SOL    HW118104   0.914   7.892   3.158
 6026SOL    HW218105   0.957   7.807   3.025
 6027SOL     OW18106   1.041   8.149   2.291
 6027SOL    HW118107   1.067   8.145   2.387
 6027SOL    HW218108   0.956   8.098   2.277
 6028SOL     OW18109   0.076   8.259   2.651
 6028SOL    HW118110   0.175   8.247   2.660
 6028SOL    HW218111   0.052   8.354   2.672
 6029SOL     OW18112   0.130   9.269   3.433
 6029SOL    HW118113   0.120   9.254   3.532
 6029SOL    HW218114   0.044   9.305   3.397
 6030SOL     OW18115   0.865   7.796   2.057
 6030SOL    HW118116   0.924   7.859   2.008
 6030SOL    HW218117   0.884   7.702   2.028
 6031SOL     OW18118   1.719   8.033   3.693
 6031SOL    HW118119   1.693   8.122   3.657
 6031SOL    HW218120   1.717   7.965   3.620
 6032SOL     OW18121   1.362   8.592   2.407
 6032SOL    HW118122   1.445   8.563   2.359
 6032SOL    HW218123   1.313   8.659   2.351
 6033SOL     OW18124   0.550   7.644   2.747
 6033SOL    HW118125   0.545   7.639   2.847
 6033SOL    HW218126   0.552   7.740   2.718
 6034SOL     OW18127   1.008   8.904   2.339
 6034SOL    HW118128   0.962   8.976   2.287
 6034SOL    HW218129   1.004   8.924   2.437
 6035SOL     OW18130   0.351   9.249   2.715
 6035SOL    HW118131   0.401   9.163   2.721
 6035SOL    HW218132   0.416   9.326   2.712
 6036SOL     OW18133   1.795   8.514   2.735
 6036SOL    HW118134   1.733   8.499   2.659
 6036SOL    HW218135   1.743   8.525   2.820
 6037SOL     OW18136   1.227   8.998   3.368
 6037SOL    HW118137   1.233   8.921   3.432
 6037SOL    HW218138   1.175   8.972   3.288
 6038SOL     OW18139   0.321   8.391   2.104
 6038SOL    HW118140   0.403   8.430   2.062
 6038SOL    HW218141   0.294   8.309   2.055
 6039SOL     OW18142   1.458   8.183   2.590
 6039SOL    HW118143   1.453   8.118   2.665
 6039SOL    HW218144   1.538   8.242   2.603
 6040SOL     OW18145   0.461   8.714   3.589
 6040SOL    HW118146   0.411   8.715   3.503
 6040SOL    HW218147   0.398   8.696   3.665
 6041SOL     OW18148   1.111   9.224   2.099
 6041SOL    HW118149   1.051   9.162   2.149
 6041SOL    HW218150   1.142   9.180   2.014
 6042SOL     OW18151   0.202   7.733   3.360
 6042SOL    HW118152   0.122   7.793   3.347
 6042SOL    HW218153   0.192   7.684   3.446
 6043SOL     OW18154   1.632   8.825   1.943
 6043SOL    HW118155   1.600   8.919   1.933
 6043SOL    HW218156   1.556   8.762   1.931
 6044SOL     OW18157   0.464   9.191   2.185
 6044SOL    HW118158   0.497   9.230   2.271
 6044SOL    HW218159   0.540   9.184   2.120
 6045SOL     OW18160   1.400   7.555   2.288
 6045SOL    HW118161   1.376   7.518   2.198
 6045SOL    HW218162   1.499   7.571   2.292
 6046SOL     OW18163   0.249   9.233   3.103
 6046SOL    HW118164   0.306   9.168   3.153
 6046SOL    HW218165   0.233   9.200   3.010
 6047SOL     OW18166   0.940   9.146   2.766
 6047SOL    HW118167   1.020   9.089   2.787
 6047SOL    HW218168   0.891   9.106   2.689
 6048SOL     OW18169   0.382   8.148   2.342
 6048SOL    HW118170   0.427   8.058   2.339
 6048SOL    HW218171   0.288   8.137   2.375
 6049SOL     OW18172   1.547   7.670   3.591
 6049SOL    HW118173   1.542   7.707   3.683
 6049SOL    HW218174   1.475   7.601   3.579
 6050SOL     OW18175   0.614   7.570   1.979
 6050SOL    HW118176   0.712   7.548   1.986
 6050SOL    HW218177   0.583   7.553   1.886
 6051SOL     OW18178   0.781   7.712   3.611
 6051SOL    HW118179   0.848   7.651   3.654
 6051SOL    HW218180   0.708   7.731   3.676
 6052SOL     OW18181   0.888   8.962   3.057
 6052SOL    HW118182   0.865   8.937   2.963
 6052SOL    HW218183   0.949   8.893   3.096
 6053SOL     OW18184   1.351   8.038   3.295
 6053SOL    HW118185   1.379   7.995   3.380
 6053SOL    HW218186   1.376   8.134   3.296
 6054SOL     OW18187   0.803   8.850   2.786
 6054SOL    HW118188   0.893   8.864   2.744
 6054SOL    HW218189   0.732   8.852   2.715
 6055SOL     OW18190   0.922   7.951   2.761
 6055SOL    HW118191   0.897   7.942   2.665
 6055SOL    HW218192   0.970   7.869   2.792
 6056SOL     OW18193   0.539   7.512   2.374
 6056SOL    HW118194   0.458   7.513   2.432
 6056SOL    HW218195   0.542   7.595   2.319
 6057SOL     OW18196   1.434   8.636   1.903
 6057SOL    HW118197   1.466   8.560   1.960
 6057SOL    HW218198   1.342   8.663   1.933
 6058SOL     OW18199   0.297   7.483   2.033
 6058SOL    HW118200   0.346   7.567   2.012
 6058SOL    HW218201   0.359   7.418   2.078
 6059SOL     OW18202   0.935   7.684   2.342
 6059SOL    HW118203   0.887   7.725   2.264
 6059SOL    HW218204   1.034   7.682   2.323
 6060SOL     OW18205   1.076   8.131   3.326
 6060SOL    HW118206   0.996   8.070   3.329
 6060SOL    HW218207   1.157   8.078   3.302
 6061SOL     OW18208   1.227   9.018   2.655
 6061SOL    HW118209   1.248   9.092   2.590
 6061SOL    HW218210   1.295   9.018   2.728
 6062SOL     OW18211   0.459   8.600   2.603
 6062SOL    HW118212   0.388   8.573   2.668
 6062SOL    HW218213   0.433   8.572   2.510
 6063SOL     OW18214   1.271   9.245   2.453
 6063SOL    HW118215   1.315   9.309   2.389
 6063SOL    HW218216   1.221   9.297   2.523
 6064SOL     OW18217   1.032   7.997   1.878
 6064SOL    HW118218   0.991   8.079   1.839
 6064SOL    HW218219   1.096   8.023   1.951
 6065SOL     OW18220   0.078   8.004   3.248
 6065SOL    HW118221   0.170   8.003   3.207
 6065SOL    HW218222   0.072   8.078   3.315
 6066SOL     OW18223   0.561   7.670   3.009
 6066SOL    HW118224   0.599   7.586   3.046
 6066SOL    HW218225   0.473   7.689   3.053
 6067SOL     OW18226   0.866   7.902   2.504
 6067SOL    HW118227   0.834   7.974   2.442
 6067SOL    HW218228   0.890   7.821   2.451
 6068SOL     OW18229   1.429   8.621   2.729
 6068SOL    HW118230   1.374   8.537   2.722
 6068SOL    HW218231   1.455   8.650   2.637
 6069SOL     OW18232   1.466   8.038   2.854
 6069SOL    HW118233   1.436   7.943   2.861
 6069SOL    HW218234   1.539   8.054   2.920
 6070SOL     OW18235   1.857   8.281   2.239
 6070SOL    HW118236   1.899   8.217   2.303
 6070SOL    HW218237   1.819   8.230   2.161
 6071SOL     OW18238   0.488   8.833   2.036
 6071SOL    HW118239   0.401   8.818   2.083
 6071SOL    HW218240   0.471   8.859   1.941
 6072SOL     OW18241   1.664   8.728   2.519
 6072SOL    HW118242   1.763   8.736   2.533
 6072SOL    HW218243   1.619   8.812   2.550
 6073SOL     OW18244   1.390   8.023   1.940
 6073SOL    HW118245   1.336   8.002   2.021
 6073SOL    HW218246   1.481   7.982   1.949
 6074SOL     OW18247   0.527   7.704   2.190
 6074SOL    HW118248   0.554   7.645   2.115
 6074SOL    HW218249   0.527   7.799   2.159
 6075SOL     OW18250   1.754   8.671   3.450
 6075SOL    HW118251   1.845   8.632   3.437
 6075SOL    HW218252   1.762   8.767   3.474
 6076SOL     OW18253   1.064   8.795   3.202
 6076SOL    HW118254   0.984   8.772   3.257
 6076SOL    HW218255   1.147   8.769   3.251
 6077SOL     OW18256   1.592   9.077   3.487
 6077SOL    HW118257   1.619   9.111   3.397
 6077SOL    HW218258   1.671   9.039   3.533
 6078SOL     OW18259   1.111   8.643   2.962
 6078SOL    HW118260   1.071   8.687   3.043
 6078SOL    HW218261   1.070   8.680   2.879
 6079SOL     OW18262   1.638   8.547   2.941
 6079SOL    HW118263   1.643   8.628   3.000
 6079SOL    HW218264   1.552   8.549   2.890
 6080SOL     OW18265   0.915   7.537   3.264
 6080SOL    HW118266   0.940   7.517   3.169
 6080SOL    HW218267   0.987   7.593   3.306
 6081SOL     OW18268   0.980   8.564   3.581
 6081SOL    HW118269   0.881   8.570   3.591
 6081SOL    HW218270   1.003   8.484   3.525
 6082SOL     OW18271   0.705   8.498   2.230
 6082SOL    HW118272   0.691   8.505   2.329
 6082SOL    HW218273   0.789   8.447   2.212
 6083SOL     OW18274   0.410   8.261   3.113
 6083SOL    HW118275   0.496   8.273   3.163
 6083SOL    HW218276   0.368   8.174   3.140
 6084SOL     OW18277   1.274   7.834   3.124
 6084SOL    HW118278   1.295   7.908   3.188
 6084SOL    HW218279   1.185   7.851   3.081
 6085SOL     OW18280   0.064   9.012   3.193
 6085SOL    HW118281   0.018   9.094   3.159
 6085SOL    HW218282   0.162   9.031   3.202
 6086SOL     OW18283   0.367   8.548   2.363
 6086SOL    HW118284   0.360   8.631   2.307
 6086SOL    HW218285   0.371   8.468   2.303
 6087SOL     OW18286   0.566   7.985   2.727
 6087SOL    HW118287   0.578   8.051   2.653
 6087SOL    HW218288   0.612   8.019   2.810
 6088SOL     OW18289   1.252   8.796   2.250
 6088SOL    HW118290   1.302   8.873   2.290
 6088SOL    HW218291   1.157   8.798   2.282
 6089SOL     OW18292   1.272   8.893   3.004
 6089SOL    HW118293   1.319   8.906   3.091
 6089SOL    HW218294   1.206   8.819   3.013
 6090SOL     OW18295   1.582   8.087   2.334
 6090SOL    HW118296   1.551   8.148   2.407
 6090SOL    HW218297   1.632   8.139   2.265
 6091SOL     OW18298   0.354   8.958   3.191
 6091SOL    HW118299   0.333   8.914   3.104
 6091SOL    HW218300   0.451   8.984   3.194
 6092SOL     OW18301   0.402   8.199   3.460
 6092SOL    HW118302   0.470   8.254   3.413
 6092SOL    HW218303   0.442   8.111   3.487
 6093SOL     OW18304   1.587   8.227   3.532
 6093SOL    HW118305   1.495   8.265   3.527
 6093SOL    HW218306   1.647   8.274   3.467
 6094SOL     OW18307   1.013   7.553   3.632
 6094SOL    HW118308   1.019   7.638   3.580
 6094SOL    HW218309   1.045   7.477   3.575
 6095SOL     OW18310   0.504   7.498   3.602
 6095SOL    HW118311   0.462   7.441   3.532
 6095SOL    HW218312   0.438   7.567   3.634
 6096SOL     OW18313   0.573   8.318   2.891
 6096SOL    HW118314   0.617   8.407   2.882
 6096SOL    HW218315   0.510   8.318   2.968
 6097SOL     OW18316   1.360   8.310   2.907
 6097SOL    HW118317   1.285   8.310   2.841
 6097SOL    HW218318   1.397   8.218   2.916
 6098SOL     OW18319   1.209   7.973   2.137
 6098SOL    HW118320   1.222   7.889   2.191
 6098SOL    HW218321   1.180   8.047   2.197
 6099SOL     OW18322   0.307   7.661   3.093
 6099SOL    HW118323   0.284   7.698   3.183
 6099SOL    HW218324   0.277   7.566   3.087
 6100SOL     OW18325   0.037   8.758   3.144
 6100SOL    HW118326   0.090   8.709   3.212
 6100SOL    HW218327   0.059   8.856   3.149
 6101SOL     OW18328   0.732   8.082   2.926
 6101SOL    HW118329   0.791   8.056   2.850
 6101SOL    HW218330   0.704   8.178   2.915
 6102SOL     OW18331   1.728   8.383   3.716
 6102SOL    HW118332   1.682   8.376   3.627
 6102SOL    HW218333   1.666   8.427   3.782
 6103SOL     OW18334   0.307   7.511   2.480
 6103SOL    HW118335   0.296   7.605   2.513
 6103SOL    HW218336   0.302   7.448   2.557
 6104SOL     OW18337   1.622   7.815   2.236
 6104SOL    HW118338   1.624   7.739   2.300
 6104SOL    HW218339   1.574   7.892   2.276
 6105SOL     OW18340   1.023   8.214   2.828
 6105SOL    HW118341   1.038   8.235   2.924
 6105SOL    HW218342   0.993   8.119   2.819
 6106SOL     OW18343   0.980   9.021   3.562
 6106SOL    HW118344   0.960   9.065   3.474
 6106SOL    HW218345   1.019   8.930   3.546
 6107SOL     OW18346   1.859   8.966   3.467
 6107SOL    HW118347   1.873   8.993   3.372
 6107SOL    HW218348   1.942   8.988   3.520
 6108SOL     OW18349   0.350   8.346   3.666
 6108SOL    HW118350   0.426   8.390   3.714
 6108SOL    HW218351   0.385   8.299   3.584
 6109SOL     OW18352   1.540   7.722   1.987
 6109SOL    HW118353   1.479   7.647   2.010
 6109SOL    HW218354   1.562   7.774   2.070
 6110SOL     OW18355   1.303   8.286   1.904
 6110SOL    HW118356   1.337   8.193   1.919
 6110SOL    HW218357   1.321   8.313   1.809
 6111SOL     OW18358   1.068   8.781   2.711
 6111SOL    HW118359   1.075   8.697   2.656
 6111SOL    HW218360   1.130   8.850   2.675
 6112SOL     OW18361   0.319   8.258   2.811
 6112SOL    HW118362   0.412   8.294   2.816
 6112SOL    HW218363   0.313   8.173   2.863
 6113SOL     OW18364   0.339   7.957   2.868
 6113SOL    HW118365   0.287   7.874   2.851
 6113SOL    HW218366   0.416   7.962   2.804
 6114SOL     OW18367   1.138   7.828   3.540
 6114SOL    HW118368   1.093   7.891   3.604
 6114SOL    HW218369   1.231   7.859   3.523
 6115SOL     OW18370   1.160   7.655   3.339
 6115SOL    HW118371   1.160   7.719   3.416
 6115SOL    HW218372   1.188   7.703   3.256
 6116SOL     OW18373   0.008   8.774   2.062
 6116SOL    HW118374  -0.085   8.795   2.031
 6116SOL    HW218375   0.018   8.675   2.075
 6117SOL     OW18376   0.088   9.249   2.789
 6117SOL    HW118377   0.046   9.163   2.762
 6117SOL    HW218378   0.182   9.252   2.755
 6118SOL     OW18379   0.504   9.016   2.772
 6118SOL    HW118380   0.570   9.090   2.781
 6118SOL    HW218381   0.548   8.937   2.730
 6119SOL     OW18382   1.002   8.244   3.100
 6119SOL    HW118383   1.043   8.212   3.186
 6119SOL    HW218384   0.906   8.217   3.097
 6120SOL     OW18385   0.040   7.992   2.976
 6120SOL    HW118386   0.125   7.959   2.935
 6120SOL    HW218387   0.053   8.007   3.074
 6121SOL     OW18388   1.369   8.398   3.522
 6121SOL    HW118389   1.408   8.487   3.542
 6121SOL    HW218390   1.379   8.378   3.425
 6122SOL     OW18391   0.815   8.020   2.187
 6122SOL    HW118392   0.822   7.931   2.141
 6122SOL    HW218393   0.721   8.054   2.179
 6123SOL     OW18394   1.657   8.052   3.068
 6123SOL    HW118395   1.619   7.983   3.130
 6123SOL    HW218396   1.739   8.016   3.024
 6124SOL     OW18397   0.252   9.012   3.606
 6124SOL    HW118398   0.222   9.069   3.682
 6124SOL    HW218399   0.245   8.915   3.632
 6125SOL     OW18400   0.671   7.912   3.131
 6125SOL    HW118401   0.637   7.823   3.101
 6125SOL    HW218402   0.697   7.966   3.051
 6126SOL     OW18403   0.930   9.126   3.327
 6126SOL    HW118404   0.906   9.108   3.232
 6126SOL    HW218405   0.960   9.220   3.337
 6127SOL     OW18406   0.473   7.948   2.053
 6127SOL    HW118407   0.534   8.028   2.057
 6127SOL    HW218408   0.378   7.979   2.060
 6128SOL     OW18409   0.159   8.585   3.328
 6128SOL    HW118410   0.181   8.524   3.404
 6128SOL    HW218411   0.169   8.536   3.242
 6129SOL     OW18412   1.347   8.507   3.096
 6129SOL    HW118413   1.371   8.444   3.022
 6129SOL    HW218414   1.257   8.547   3.078
 6130SOL     OW18415   1.302   8.303   2.171
 6130SOL    HW118416   1.216   8.272   2.213
 6130SOL    HW218417   1.298   8.289   2.072
 6131SOL     OW18418   1.759   9.195   3.016
 6131SOL    HW118419   1.820   9.225   2.943
 6131SOL    HW218420   1.721   9.106   2.994
 6132SOL     OW18421   1.252   9.179   2.990
 6132SOL    HW118422   1.336   9.184   2.936
 6132SOL    HW218423   1.229   9.083   3.008
 6133SOL     OW18424   0.083   8.706   2.884
 6133SOL    HW118425   0.078   8.705   2.984
 6133SOL    HW218426   0.000   8.665   2.846
 6134SOL     OW18427   0.688   9.110   3.578
 6134SOL    HW118428   0.632   9.191   3.587
 6134SOL    HW218429   0.740   9.114   3.492
 6135SOL     OW18430   1.726   7.583   2.385
 6135SOL    HW118431   1.799   7.566   2.318
 6135SOL    HW218432   1.695   7.496   2.423
 6136SOL     OW18433   1.388   9.021   2.339
 6136SOL    HW118434   1.455   9.033   2.265
 6136SOL    HW218435   1.348   9.110   2.362
 6137SOL     OW18436   0.130   9.242   3.713
 6137SOL    HW118437   0.089   9.168   3.766
 6137SOL    HW218438   0.194   9.293   3.771
 6138SOL     OW18439   1.280   8.375   2.534
 6138SOL    HW118440   1.340   8.294   2.536
 6138SOL    HW218441   1.320   8.444   2.474
 6139SOL     OW18442   0.672   9.064   2.016
 6139SOL    HW118443   0.681   9.074   1.917
 6139SOL    HW218444   0.632   8.975   2.037
 6140SOL     OW18445   1.650   9.168   3.256
 6140SOL    HW118446   1.703   9.178   3.172
 6140SOL    HW218447   1.623   9.258   3.290
 6141SOL     OW18448   1.841   7.623   2.825
 6141SOL    HW118449   1.880   7.538   2.789
 6141SOL    HW218450   1.743   7.625   2.806
 6142SOL     OW18451   0.263   7.774   2.582
 6142SOL    HW118452   0.184   7.825   2.548
 6142SOL    HW218453   0.254   7.759   2.680
 6143SOL     OW18454   1.194   9.060   1.893
 6143SOL    HW118455   1.200   8.967   1.930
 6143SOL    HW218456   1.135   9.060   1.813
 6144SOL     OW18457   0.822   8.450   3.234
 6144SOL    HW118458   0.862   8.449   3.142
 6144SOL    HW218459   0.832   8.542   3.274
 6145SOL     OW18460   0.916   8.358   2.153
 6145SOL    HW118461   0.979   8.396   2.085
 6145SOL    HW218462   0.956   8.275   2.192
 6146SOL     OW18463   1.504   9.055   1.906
 6146SOL    HW118464   1.412   9.092   1.913
 6146SOL    HW218465   1.542   9.075   1.816
 6147SOL     OW18466   0.372   8.736   3.352
 6147SOL    HW118467   0.359   8.829   3.318
 6147SOL    HW218468   0.288   8.684   3.339
 6148SOL     OW18469   1.614   8.740   3.151
 6148SOL    HW118470   1.674   8.743   3.231
 6148SOL    HW218471   1.539   8.804   3.164
 6149SOL     OW18472   1.039   8.546   2.558
 6149SOL    HW118473   0.969   8.499   2.612
 6149SOL    HW218474   1.098   8.478   2.515
 6150SOL     OW18475   1.014   7.684   2.833
 6150SOL    HW118476   1.006   7.648   2.740
 6150SOL    HW218477   1.012   7.608   2.898
 6151SOL     OW18478   0.590   8.935   2.353
 6151SOL    HW118479   0.632   8.877   2.283
 6151SOL    HW218480   0.546   9.014   2.309
 6152SOL     OW18481   1.709   7.833   3.243
 6152SOL    HW118482   1.782   7.902   3.247
 6152SOL    HW218483   1.737   7.758   3.184
 6153SOL     OW18484   0.255   8.796   2.152
 6153SOL    HW118485   0.159   8.797   2.125
 6153SOL    HW218486   0.267   8.849   2.236
 6154SOL     OW18487   0.105   8.461   3.588
 6154SOL    HW118488   0.028   8.428   3.642
 6154SOL    HW218489   0.190   8.431   3.630
 6155SOL     OW18490   0.672   7.651   3.351
 6155SOL    HW118491   0.762   7.635   3.311
 6155SOL    HW218492   0.680   7.656   3.450
 6156SOL     OW18493   0.075   7.793   1.895
 6156SOL    HW118494  -0.017   7.765   1.866
 6156SOL    HW218495   0.106   7.870   1.839
 6157SOL     OW18496   1.440   8.304   3.260
 6157SOL    HW118497   1.383   8.356   3.197
 6157SOL    HW218498   1.536   8.316   3.236
 6158SOL     OW18499   0.072   7.614   2.180
 6158SOL    HW118500   0.055   7.697   2.126
 6158SOL    HW218501   0.162   7.577   2.158
 6159SOL     OW18502   1.183   8.783   1.981
 6159SOL    HW118503   1.084   8.772   1.983
 6159SOL    HW218504   1.217   8.798   2.074
 6160SOL     OW18505   0.613   8.290   3.293
 6160SOL    HW118506   0.669   8.371   3.276
 6160SOL    HW218507   0.672   8.210   3.296
 6161SOL     OW18508   1.493   9.215   2.821
 6161SOL    HW118509   1.526   9.279   2.752
 6161SOL    HW218510   1.559   9.209   2.896
 6162SOL     OW18511   0.716   8.013   3.570
 6162SOL    HW118512   0.735   8.078   3.644
 6162SOL    HW218513   0.776   7.933   3.579
 6163SOL     OW18514   1.450   8.668   3.495
 6163SOL    HW118515   1.441   8.658   3.594
 6163SOL    HW218516   1.546   8.661   3.469
 6164SOL     OW18517   0.390   9.189   3.422
 6164SOL    HW118518   0.299   9.230   3.420
 6164SOL    HW218519   0.383   9.095   3.454
 6165SOL     OW18520   1.674   8.331   3.116
 6165SOL    HW118521   1.647   8.242   3.079
 6165SOL    HW218522   1.675   8.399   3.043
 6166SOL     OW18523   1.225   7.773   2.311
 6166SOL    HW118524   1.290   7.699   2.300
 6166SOL    HW218525   1.245   7.823   2.395
 6167SOL     OW18526   0.594   8.193   2.514
 6167SOL    HW118527   0.644   8.278   2.495
 6167SOL    HW218528   0.506   8.195   2.466
 6168SOL     OW18529   1.777   7.790   3.504
 6168SOL    HW118530   1.760   7.821   3.410
 6168SOL    HW218531   1.693   7.753   3.542
 6169SOL     OW18532   1.730   8.382   3.379
 6169SOL    HW118533   1.768   8.473   3.394
 6169SOL    HW218534   1.722   8.365   3.280
 6170SOL     OW18535   0.859   8.822   1.878
 6170SOL    HW118536   0.813   8.837   1.966
 6170SOL    HW218537   0.903   8.907   1.848
 6171SOL     OW18538   0.661   9.238   2.815
 6171SOL    HW118539   0.615   9.326   2.802
 6171SOL    HW218540   0.760   9.250   2.808
 6172SOL     OW18541   0.859   8.404   2.723
 6172SOL    HW118542   0.913   8.335   2.771
 6172SOL    HW218543   0.827   8.473   2.789
 6173SOL     OW18544   1.083   8.432   1.949
 6173SOL    HW118545   1.060   8.485   1.867
 6173SOL    HW218546   1.164   8.376   1.930
 6174SOL     OW18547   1.861   9.017   2.713
 6174SOL    HW118548   1.790   9.005   2.643
 6174SOL    HW218549   1.862   8.938   2.773
 6175SOL     OW18550   0.221   8.762   3.706
 6175SOL    HW118551   0.156   8.689   3.685
 6175SOL    HW218552   0.225   8.776   3.804
 6176SOL     OW18553   0.079   8.688   2.515
 6176SOL    HW118554   0.078   8.641   2.603
 6176SOL    HW218555   0.161   8.660   2.464
 6177SOL     OW18556   0.672   8.839   3.486
 6177SOL    HW118557   0.594   8.789   3.524
 6177SOL    HW218558   0.669   8.934   3.517
 6178SOL     OW18559   1.824   7.640   3.089
 6178SOL    HW118560   1.820   7.550   3.133
 6178SOL    HW218561   1.827   7.629   2.990
 6179SOL     OW18562   0.428   7.872   2.382
 6179SOL    HW118563   0.458   7.800   2.320
 6179SOL    HW218564   0.389   7.832   2.465
 6180SOL     OW18565   1.705   8.935   2.966
 6180SOL    HW118566   1.612   8.910   2.939
 6180SOL    HW218567   1.731   8.885   3.048
 6181SOL     OW18568   0.317   7.995   3.142
 6181SOL    HW118569   0.355   7.936   3.214
 6181SOL    HW218570   0.357   7.969   3.054
 6182SOL     OW18571   0.812   9.034   2.549
 6182SOL    HW118572   0.844   9.044   2.455
 6182SOL    HW218573   0.733   8.972   2.551
 6183SOL     OW18574   1.424   7.662   2.974
 6183SOL    HW118575   1.476   7.597   3.029
 6183SOL    HW218576   1.375   7.725   3.035
 6184SOL     OW18577   1.001   7.482   3.016
 6184SOL    HW118578   0.938   7.410   2.985
 6184SOL    HW218579   1.094   7.446   3.016
 6185SOL     OW18580   0.770   8.778   2.163
 6185SOL    HW118581   0.724   8.691   2.180
 6185SOL    HW218582   0.861   8.775   2.204
 6186SOL     OW18583   0.618   9.015   3.146
 6186SOL    HW118584   0.613   9.097   3.203
 6186SOL    HW218585   0.707   9.012   3.101
 6187SOL     OW18586   1.352   7.500   2.030
 6187SOL    HW118587   1.387   7.459   1.946
 6187SOL    HW218588   1.262   7.462   2.050
 6188SOL     OW18589   1.300   7.901   2.553
 6188SOL    HW118590   1.241   7.981   2.557
 6188SOL    HW218591   1.315   7.866   2.646
 6189SOL     OW18592   1.593   7.669   2.744
 6189SOL    HW118593   1.509   7.668   2.798
 6189SOL    HW218594   1.595   7.752   2.688
 6190SOL     OW18595   0.039   8.525   2.162
 6190SOL    HW118596   0.138   8.514   2.153
 6190SOL    HW218597  -0.001   8.439   2.194
 6191SOL     OW18598   0.875   9.094   2.199
 6191SOL    HW118599   0.798   9.059   2.145
 6191SOL    HW218600   0.843   9.165   2.261
 6192SOL     OW18601   0.230   8.076   3.837
 6192SOL    HW118602   0.137   8.074   3.874
 6192SOL    HW218603   0.231   8.037   3.745
 6193SOL     OW18604   0.225   7.723   4.720
 6193SOL    HW118605   0.260   7.706   4.812
 6193SOL    HW218606   0.137   7.678   4.708
 6194SOL     OW18607   0.019   7.816   4.371
 6194SOL    HW118608  -0.063   7.859   4.410
 6194SOL    HW218609  -0.009   7.743   4.308
 6195SOL     OW18610   0.569   8.723   4.889
 6195SOL    HW118611   0.476   8.716   4.852
 6195SOL    HW218612   0.580   8.812   4.933
 6196SOL     OW18613   1.555   8.959   4.427
 6196SOL    HW118614   1.498   8.943   4.508
 6196SOL    HW218615   1.496   8.969   4.347
 6197SOL     OW18616   1.135   8.151   4.441
 6197SOL    HW118617   1.192   8.229   4.416
 6197SOL    HW218618   1.075   8.177   4.517
 6198SOL     OW18619   1.755   8.055   3.955
 6198SOL    HW118620   1.743   8.042   3.856
 6198SOL    HW218621   1.725   7.974   4.004
 6199SOL     OW18622   0.768   8.592   4.747
 6199SOL    HW118623   0.690   8.609   4.807
 6199SOL    HW218624   0.802   8.679   4.711
 6200SOL     OW18625   0.850   8.246   5.547
 6200SOL    HW118626   0.846   8.322   5.612
 6200SOL    HW218627   0.872   8.282   5.456
 6201SOL     OW18628   0.685   8.460   4.389
 6201SOL    HW118629   0.754   8.444   4.459
 6201SOL    HW218630   0.612   8.517   4.427
 6202SOL     OW18631   0.686   8.609   5.527
 6202SOL    HW118632   0.746   8.688   5.541
 6202SOL    HW218633   0.600   8.640   5.486
 6203SOL     OW18634   0.335   8.883   4.785
 6203SOL    HW118635   0.257   8.852   4.732
 6203SOL    HW218636   0.393   8.941   4.728
 6204SOL     OW18637   1.460   8.953   5.063
 6204SOL    HW118638   1.484   9.047   5.089
 6204SOL    HW218639   1.444   8.899   5.145
 6205SOL     OW18640   0.438   7.840   5.223
 6205SOL    HW118641   0.520   7.784   5.232
 6205SOL    HW218642   0.357   7.782   5.227
 6206SOL     OW18643   1.603   7.895   4.461
 6206SOL    HW118644   1.529   7.941   4.411
 6206SOL    HW218645   1.654   7.963   4.514
 6207SOL     OW18646   0.231   9.161   4.207
 6207SOL    HW118647   0.265   9.238   4.261
 6207SOL    HW218648   0.275   9.161   4.117
 6208SOL     OW18649   1.127   8.789   5.414
 6208SOL    HW118650   1.174   8.789   5.502
 6208SOL    HW218651   1.079   8.702   5.403
 6209SOL     OW18652   0.230   8.882   4.262
 6209SOL    HW118653   0.204   8.978   4.262
 6209SOL    HW218654   0.159   8.828   4.307
 6210SOL     OW18655   0.240   8.539   4.610
 6210SOL    HW118656   0.254   8.455   4.662
 6210SOL    HW218657   0.185   8.603   4.665
 6211SOL     OW18658   0.620   9.234   5.163
 6211SOL    HW118659   0.528   9.217   5.198
 6211SOL    HW218660   0.648   9.326   5.189
 6212SOL     OW18661   0.606   8.412   3.847
 6212SOL    HW118662   0.613   8.496   3.793
 6212SOL    HW218663   0.652   8.425   3.935
 6213SOL     OW18664   1.594   7.562   5.204
 6213SOL    HW118665   1.576   7.629   5.132
 6213SOL    HW218666   1.591   7.608   5.293
 6214SOL     OW18667   0.122   8.091   4.287
 6214SOL    HW118668   0.077   8.003   4.304
 6214SOL    HW218669   0.121   8.145   4.371
 6215SOL     OW18670   1.842   9.215   4.083
 6215SOL    HW118671   1.896   9.186   4.163
 6215SOL    HW218672   1.872   9.305   4.054
 6216SOL     OW18673   0.027   9.044   3.841
 6216SOL    HW118674   0.008   8.948   3.862
 6216SOL    HW218675  -0.006   9.102   3.916
 6217SOL     OW18676   1.689   8.370   4.336
 6217SOL    HW118677   1.784   8.341   4.344
 6217SOL    HW218678   1.681   8.435   4.261
 6218SOL     OW18679   1.641   8.556   4.156
 6218SOL    HW118680   1.727   8.558   4.104
 6218SOL    HW218681   1.655   8.603   4.244
 6219SOL     OW18682   0.113   8.185   5.321
 6219SOL    HW118683   0.201   8.172   5.366
 6219SOL    HW218684   0.100   8.282   5.299
 6220SOL     OW18685   0.613   8.813   4.450
 6220SOL    HW118686   0.564   8.726   4.459
 6220SOL    HW218687   0.590   8.856   4.363
 6221SOL     OW18688   1.293   8.676   5.147
 6221SOL    HW118689   1.330   8.603   5.089
 6221SOL    HW218690   1.345   8.681   5.232
 6222SOL     OW18691   0.809   7.452   4.226
 6222SOL    HW118692   0.849   7.543   4.217
 6222SOL    HW218693   0.709   7.460   4.232
 6223SOL     OW18694   0.197   8.424   4.988
 6223SOL    HW118695   0.286   8.379   4.974
 6223SOL    HW218696   0.124   8.359   4.969
 6224SOL     OW18697   1.525   8.447   3.914
 6224SOL    HW118698   1.462   8.371   3.927
 6224SOL    HW218699   1.573   8.465   4.000
 6225SOL     OW18700   1.187   9.240   5.340
 6225SOL    HW118701   1.211   9.300   5.264
 6225SOL    HW218702   1.194   9.145   5.310
 6226SOL     OW18703   0.317   7.699   5.525
 6226SOL    HW118704   0.388   7.770   5.531
 6226SOL    HW218705   0.229   7.738   5.553
 6227SOL     OW18706   1.466   8.865   4.677
 6227SOL    HW118707   1.407   8.871   4.757
 6227SOL    HW218708   1.451   8.777   4.631
 6228SOL     OW18709   1.667   9.162   4.296
 6228SOL    HW118710   1.626   9.139   4.208
 6228SOL    HW218711   1.649   9.088   4.361
 6229SOL     OW18712   0.598   8.177   3.994
 6229SOL    HW118713   0.622   8.246   3.926
 6229SOL    HW218714   0.520   8.210   4.048
 6230SOL     OW18715   1.281   7.793   4.668
 6230SOL    HW118716   1.195   7.743   4.655
 6230SOL    HW218717   1.343   7.739   4.724
 6231SOL     OW18718   1.576   9.110   4.031
 6231SOL    HW118719   1.665   9.156   4.034
 6231SOL    HW218720   1.555   9.086   3.936
 6232SOL     OW18721   0.807   8.053   5.189
 6232SOL    HW118722   0.760   8.050   5.278
 6232SOL    HW218723   0.756   7.998   5.123
 6233SOL     OW18724   1.394   7.917   5.398
 6233SOL    HW118725   1.374   7.960   5.486
 6233SOL    HW218726   1.472   7.855   5.407
 6234SOL     OW18727   0.973   8.338   5.296
 6234SOL    HW118728   1.019   8.254   5.267
 6234SOL    HW218729   0.917   8.372   5.221
 6235SOL     OW18730   0.991   7.858   4.966
 6235SOL    HW118731   0.914   7.892   5.020
 6235SOL    HW218732   0.957   7.807   4.887
 6236SOL     OW18733   1.041   8.149   4.153
 6236SOL    HW118734   1.067   8.145   4.249
 6236SOL    HW218735   0.956   8.098   4.139
 6237SOL     OW18736   0.076   8.259   4.513
 6237SOL    HW118737   0.175   8.247   4.522
 6237SOL    HW218738   0.052   8.354   4.534
 6238SOL     OW18739   0.130   9.269   5.295
 6238SOL    HW118740   0.120   9.254   5.394
 6238SOL    HW218741   0.044   9.305   5.259
 6239SOL     OW18742   0.865   7.796   3.919
 6239SOL    HW118743   0.924   7.859   3.870
 6239SOL    HW218744   0.884   7.702   3.890
 6240SOL     OW18745   1.719   8.033   5.555
 6240SOL    HW118746   1.693   8.122   5.519
 6240SOL    HW218747   1.717   7.965   5.482
 6241SOL     OW18748   1.362   8.592   4.269
 6241SOL    HW118749   1.445   8.563   4.221
 6241SOL    HW218750   1.313   8.659   4.213
 6242SOL     OW18751   0.550   7.644   4.609
 6242SOL    HW118752   0.545   7.639   4.709
 6242SOL    HW218753   0.552   7.740   4.580
 6243SOL     OW18754   1.008   8.904   4.201
 6243SOL    HW118755   0.962   8.976   4.149
 6243SOL    HW218756   1.004   8.924   4.299
 6244SOL     OW18757   0.351   9.249   4.577
 6244SOL    HW118758   0.401   9.163   4.583
 6244SOL    HW218759   0.416   9.326   4.574
 6245SOL     OW18760   1.795   8.514   4.597
 6245SOL    HW118761   1.733   8.499   4.521
 6245SOL    HW218762   1.743   8.525   4.682
 6246SOL     OW18763   1.227   8.998   5.230
 6246SOL    HW118764   1.233   8.921   5.294
 6246SOL    HW218765   1.175   8.972   5.150
 6247SOL     OW18766   0.321   8.391   3.966
 6247SOL    HW118767   0.403   8.430   3.924
 6247SOL    HW218768   0.294   8.309   3.917
 6248SOL     OW18769   1.458   8.183   4.452
 6248SOL    HW118770   1.453   8.118   4.527
 6248SOL    HW218771   1.538   8.242   4.465
 6249SOL     OW18772   0.461   8.714   5.451
 6249SOL    HW118773   0.411   8.715   5.365
 6249SOL    HW218774   0.398   8.696   5.527
 6250SOL     OW18775   1.111   9.224   3.961
 6250SOL    HW118776   1.051   9.162   4.011
 6250SOL    HW218777   1.142   9.180   3.876
 6251SOL     OW18778   0.202   7.733   5.222
 6251SOL    HW118779   0.122   7.793   5.209
 6251SOL    HW218780   0.192   7.684   5.308
 6252SOL     OW18781   1.632   8.825   3.805
 6252SOL    HW118782   1.600   8.919   3.795
 6252SOL    HW218783   1.556   8.762   3.793
 6253SOL     OW18784   0.464   9.191   4.047
 6253SOL    HW118785   0.497   9.230   4.133
 6253SOL    HW218786   0.540   9.184   3.982
 6254SOL     OW18787   1.400   7.555   4.150
 6254SOL    HW118788   1.376   7.518   4.060
 6254SOL    HW218789   1.499   7.571   4.154
 6255SOL     OW18790   0.249   9.233   4.965
 6255SOL    HW118791   0.306   9.168   5.015
 6255SOL    HW218792   0.233   9.200   4.872
 6256SOL     OW18793   0.940   9.146   4.628
 6256SOL    HW118794   1.020   9.089   4.649
 6256SOL    HW218795   0.891   9.106   4.551
 6257SOL     OW18796   0.382   8.148   4.204
 6257SOL    HW118797   0.427   8.058   4.201
 6257SOL    HW218798   0.288   8.137   4.237
 6258SOL     OW18799   1.547   7.670   5.453
 6258SOL    HW118800   1.542   7.707   5.545
 6258SOL    HW218801   1.475   7.601   5.441
 6259SOL     OW18802   0.614   7.570   3.841
 6259SOL    HW118803   0.712   7.548   3.848
 6259SOL    HW218804   0.583   7.553   3.748
 6260SOL     OW18805   0.781   7.712   5.473
 6260SOL    HW118806   0.848   7.651   5.516
 6260SOL    HW218807   0.708   7.731   5.538
 6261SOL     OW18808   0.888   8.962   4.919
 6261SOL    HW118809   0.865   8.937   4.825
 6261SOL    HW218810   0.949   8.893   4.958
 6262SOL     OW18811   1.351   8.038   5.157
 6262SOL    HW118812   1.379   7.995   5.242
 6262SOL    HW218813   1.376   8.134   5.158
 6263SOL     OW18814   0.803   8.850   4.648
 6263SOL    HW118815   0.893   8.864   4.606
 6263SOL    HW218816   0.732   8.852   4.577
 6264SOL     OW18817   0.922   7.951   4.623
 6264SOL    HW118818   0.897   7.942   4.527
 6264SOL    HW218819   0.970   7.869   4.654
 6265SOL     OW18820   0.539   7.512   4.236
 6265SOL    HW118821   0.458   7.513   4.294
 6265SOL    HW218822   0.542   7.595   4.181
 6266SOL     OW18823   1.434   8.636   3.765
 6266SOL    HW118824   1.466   8.560   3.822
 6266SOL    HW218825   1.342   8.663   3.795
 6267SOL     OW18826   0.297   7.483   3.895
 6267SOL    HW118827   0.346   7.567   3.874
 6267SOL    HW218828   0.359   7.418   3.940
 6268SOL     OW18829   0.935   7.684   4.204
 6268SOL    HW118830   0.887   7.725   4.126
 6268SOL    HW218831   1.034   7.682   4.185
 6269SOL     OW18832   1.076   8.131   5.188
 6269SOL    HW118833   0.996   8.070   5.191
 6269SOL    HW218834   1.157   8.078   5.164
 6270SOL     OW18835   1.227   9.018   4.517
 6270SOL    HW118836   1.248   9.092   4.452
 6270SOL    HW218837   1.295   9.018   4.590
 6271SOL     OW18838   0.459   8.600   4.465
 6271SOL    HW118839   0.388   8.573   4.530
 6271SOL    HW218840   0.433   8.572   4.372
 6272SOL     OW18841   1.032   7.997   3.740
 6272SOL    HW118842   0.991   8.079   3.701
 6272SOL    HW218843   1.096   8.023   3.813
 6273SOL     OW18844   0.078   8.004   5.110
 6273SOL    HW118845   0.170   8.003   5.069
 6273SOL    HW218846   0.072   8.078   5.177
 6274SOL     OW18847   0.561   7.670   4.871
 6274SOL    HW118848   0.599   7.586   4.908
 6274SOL    HW218849   0.473   7.689   4.915
 6275SOL     OW18850   0.866   7.902   4.366
 6275SOL    HW118851   0.834   7.974   4.304
 6275SOL    HW218852   0.890   7.821   4.313
 6276SOL     OW18853   1.017   7.487   4.477
 6276SOL    HW118854   0.945   7.492   4.408
 6276SOL    HW218855   0.993   7.418   4.546
 6277SOL     OW18856   1.429   8.621   4.591
 6277SOL    HW118857   1.374   8.537   4.584
 6277SOL    HW218858   1.455   8.650   4.499
 6278SOL     OW18859   1.466   8.038   4.716
 6278SOL    HW118860   1.436   7.943   4.723
 6278SOL    HW218861   1.539   8.054   4.782
 6279SOL     OW18862   1.857   8.281   4.101
 6279SOL    HW118863   1.899   8.217   4.165
 6279SOL    HW218864   1.819   8.230   4.023
 6280SOL     OW18865   0.488   8.833   3.898
 6280SOL    HW118866   0.401   8.818   3.945
 6280SOL    HW218867   0.471   8.859   3.803
 6281SOL     OW18868   1.664   8.728   4.381
 6281SOL    HW118869   1.763   8.736   4.395
 6281SOL    HW218870   1.619   8.812   4.412
 6282SOL     OW18871   1.390   8.023   3.802
 6282SOL    HW118872   1.336   8.002   3.883
 6282SOL    HW218873   1.481   7.982   3.811
 6283SOL     OW18874   0.527   7.704   4.052
 6283SOL    HW118875   0.554   7.645   3.977
 6283SOL    HW218876   0.527   7.799   4.021
 6284SOL     OW18877   1.754   8.671   5.312
 6284SOL    HW118878   1.845   8.632   5.299
 6284SOL    HW218879   1.762   8.767   5.336
 6285SOL     OW18880   1.064   8.795   5.064
 6285SOL    HW118881   0.984   8.772   5.119
 6285SOL    HW218882   1.147   8.769   5.113
 6286SOL     OW18883   1.592   9.077   5.349
 6286SOL    HW118884   1.619   9.111   5.259
 6286SOL    HW218885   1.671   9.039   5.395
 6287SOL     OW18886   1.111   8.643   4.824
 6287SOL    HW118887   1.071   8.687   4.905
 6287SOL    HW218888   1.070   8.680   4.741
 6288SOL     OW18889   1.638   8.547   4.803
 6288SOL    HW118890   1.643   8.628   4.862
 6288SOL    HW218891   1.552   8.549   4.752
 6289SOL     OW18892   0.915   7.537   5.126
 6289SOL    HW118893   0.940   7.517   5.031
 6289SOL    HW218894   0.987   7.593   5.168
 6290SOL     OW18895   0.980   8.564   5.443
 6290SOL    HW118896   0.881   8.570   5.453
 6290SOL    HW218897   1.003   8.484   5.387
 6291SOL     OW18898   0.705   8.498   4.092
 6291SOL    HW118899   0.691   8.505   4.191
 6291SOL    HW218900   0.789   8.447   4.074
 6292SOL     OW18901   0.410   8.261   4.975
 6292SOL    HW118902   0.496   8.273   5.025
 6292SOL    HW218903   0.368   8.174   5.002
 6293SOL     OW18904   1.274   7.834   4.986
 6293SOL    HW118905   1.295   7.908   5.050
 6293SOL    HW218906   1.185   7.851   4.943
 6294SOL     OW18907   0.064   9.012   5.055
 6294SOL    HW118908   0.018   9.094   5.021
 6294SOL    HW218909   0.162   9.031   5.064
 6295SOL     OW18910   0.367   8.548   4.225
 6295SOL    HW118911   0.360   8.631   4.169
 6295SOL    HW218912   0.371   8.468   4.165
 6296SOL     OW18913   0.566   7.985   4.589
 6296SOL    HW118914   0.578   8.051   4.515
 6296SOL    HW218915   0.612   8.019   4.672
 6297SOL     OW18916   1.252   8.796   4.112
 6297SOL    HW118917   1.302   8.873   4.152
 6297SOL    HW218918   1.157   8.798   4.144
 6298SOL     OW18919   1.272   8.893   4.866
 6298SOL    HW118920   1.319   8.906   4.953
 6298SOL    HW218921   1.206   8.819   4.875
 6299SOL     OW18922   1.582   8.087   4.196
 6299SOL    HW118923   1.551   8.148   4.269
 6299SOL    HW218924   1.632   8.139   4.127
 6300SOL     OW18925   0.354   8.958   5.053
 6300SOL    HW118926   0.333   8.914   4.966
 6300SOL    HW218927   0.451   8.984   5.056
 6301SOL     OW18928   0.402   8.199   5.322
 6301SOL    HW118929   0.470   8.254   5.275
 6301SOL    HW218930   0.442   8.111   5.349
 6302SOL     OW18931   1.587   8.227   5.394
 6302SOL    HW118932   1.495   8.265   5.389
 6302SOL    HW218933   1.647   8.274   5.329
 6303SOL     OW18934   1.013   7.553   5.494
 6303SOL    HW118935   1.019   7.638   5.442
 6303SOL    HW218936   1.045   7.477   5.437
 6304SOL     OW18937   0.504   7.498   5.464
 6304SOL    HW118938   0.462   7.441   5.394
 6304SOL    HW218939   0.438   7.567   5.496
 6305SOL     OW18940   0.573   8.318   4.753
 6305SOL    HW118941   0.617   8.407   4.744
 6305SOL    HW218942   0.510   8.318   4.830
 6306SOL     OW18943   1.360   8.310   4.769
 6306SOL    HW118944   1.285   8.310   4.703
 6306SOL    HW218945   1.397   8.218   4.778
 6307SOL     OW18946   1.209   7.973   3.999
 6307SOL    HW118947   1.222   7.889   4.053
 6307SOL    HW218948   1.180   8.047   4.059
 6308SOL     OW18949   0.307   7.661   4.955
 6308SOL    HW118950   0.284   7.698   5.045
 6308SOL    HW218951   0.277   7.566   4.949
 6309SOL     OW18952   0.037   8.758   5.006
 6309SOL    HW118953   0.090   8.709   5.074
 6309SOL    HW218954   0.059   8.856   5.011
 6310SOL     OW18955   0.732   8.082   4.788
 6310SOL    HW118956   0.791   8.056   4.712
 6310SOL    HW218957   0.704   8.178   4.777
 6311SOL     OW18958   1.728   8.383   5.578
 6311SOL    HW118959   1.682   8.376   5.489
 6311SOL    HW218960   1.666   8.427   5.644
 6312SOL     OW18961   0.307   7.511   4.342
 6312SOL    HW118962   0.296   7.605   4.375
 6312SOL    HW218963   0.302   7.448   4.419
 6313SOL     OW18964   1.622   7.815   4.098
 6313SOL    HW118965   1.624   7.739   4.162
 6313SOL    HW218966   1.574   7.892   4.138
 6314SOL     OW18967   1.023   8.214   4.690
 6314SOL    HW118968   1.038   8.235   4.786
 6314SOL    HW218969   0.993   8.119   4.681
 6315SOL     OW18970   0.980   9.021   5.424
 6315SOL    HW118971   0.960   9.065   5.336
 6315SOL    HW218972   1.019   8.930   5.408
 6316SOL     OW18973   1.859   8.966   5.329
 6316SOL    HW118974   1.873   8.993   5.234
 6316SOL    HW218975   1.942   8.988   5.382
 6317SOL     OW18976   0.350   8.346   5.528
 6317SOL    HW118977   0.426   8.390   5.576
 6317SOL    HW218978   0.385   8.299   5.446
 6318SOL     OW18979   1.540   7.722   3.849
 6318SOL    HW118980   1.479   7.647   3.872
 6318SOL    HW218981   1.562   7.774   3.932
 6319SOL     OW18982   1.303   8.286   3.766
 6319SOL    HW118983   1.337   8.193   3.781
 6319SOL    HW218984   1.321   8.313   3.671
 6320SOL     OW18985   1.068   8.781   4.573
 6320SOL    HW118986   1.075   8.697   4.518
 6320SOL    HW218987   1.130   8.850   4.537
 6321SOL     OW18988   0.319   8.258   4.673
 6321SOL    HW118989   0.412   8.294   4.678
 6321SOL    HW218990   0.313   8.173   4.725
 6322SOL     OW18991   0.339   7.957   4.730
 6322SOL    HW118992   0.287   7.874   4.713
 6322SOL    HW218993   0.416   7.962   4.666
 6323SOL     OW18994   1.138   7.828   5.402
 6323SOL    HW118995   1.093   7.891   5.466
 6323SOL    HW218996   1.231   7.859   5.385
 6324SOL     OW18997   1.160   7.655   5.201
 6324SOL    HW118998   1.160   7.719   5.278
 6324SOL    HW218999   1.188   7.703   5.118
 6325SOL     OW19000   0.008   8.774   3.924
 6325SOL    HW119001  -0.085   8.795   3.893
 6325SOL    HW219002   0.018   8.675   3.937
 6326SOL     OW19003   0.088   9.249   4.651
 6326SOL    HW119004   0.046   9.163   4.624
 6326SOL    HW219005   0.182   9.252   4.617
 6327SOL     OW19006   0.504   9.016   4.634
 6327SOL    HW119007   0.570   9.090   4.643
 6327SOL    HW219008   0.548   8.937   4.592
 6328SOL     OW19009   1.002   8.244   4.962
 6328SOL    HW119010   1.043   8.212   5.048
 6328SOL    HW219011   0.906   8.217   4.959
 6329SOL     OW19012   0.040   7.992   4.838
 6329SOL    HW119013   0.125   7.959   4.797
 6329SOL    HW219014   0.053   8.007   4.936
 6330SOL     OW19015   0.189   7.968   5.446
 6330SOL    HW119016   0.248   7.928   5.376
 6330SOL    HW219017   0.131   8.039   5.405
 6331SOL     OW19018   1.369   8.398   5.384
 6331SOL    HW119019   1.408   8.487   5.404
 6331SOL    HW219020   1.379   8.378   5.287
 6332SOL     OW19021   0.815   8.020   4.049
 6332SOL    HW119022   0.822   7.931   4.003
 6332SOL    HW219023   0.721   8.054   4.041
 6333SOL     OW19024   1.657   8.052   4.930
 6333SOL    HW119025   1.619   7.983   4.992
 6333SOL    HW219026   1.739   8.016   4.886
 6334SOL     OW19027   0.252   9.012   5.468
 6334SOL    HW119028   0.222   9.069   5.544
 6334SOL    HW219029   0.245   8.915   5.494
 6335SOL     OW19030   0.671   7.912   4.993
 6335SOL    HW119031   0.637   7.823   4.963
 6335SOL    HW219032   0.697   7.966   4.913
 6336SOL     OW19033   0.930   9.126   5.189
 6336SOL    HW119034   0.906   9.108   5.094
 6336SOL    HW219035   0.960   9.220   5.199
 6337SOL     OW19036   0.473   7.948   3.915
 6337SOL    HW119037   0.534   8.028   3.919
 6337SOL    HW219038   0.378   7.979   3.922
 6338SOL     OW19039   0.159   8.585   5.190
 6338SOL    HW119040   0.181   8.524   5.266
 6338SOL    HW219041   0.169   8.536   5.104
 6339SOL     OW19042   1.347   8.507   4.958
 6339SOL    HW119043   1.371   8.444   4.884
 6339SOL    HW219044   1.257   8.547   4.940
 6340SOL     OW19045   1.302   8.303   4.033
 6340SOL    HW119046   1.216   8.272   4.075
 6340SOL    HW219047   1.298   8.289   3.934
 6341SOL     OW19048   1.759   9.195   4.878
 6341SOL    HW119049   1.820   9.225   4.805
 6341SOL    HW219050   1.721   9.106   4.856
 6342SOL     OW19051   1.252   9.179   4.852
 6342SOL    HW119052   1.336   9.184   4.798
 6342SOL    HW219053   1.229   9.083   4.870
 6343SOL     OW19054   0.083   8.706   4.746
 6343SOL    HW119055   0.078   8.705   4.846
 6343SOL    HW219056   0.000   8.665   4.708
 6344SOL     OW19057   0.688   9.110   5.440
 6344SOL    HW119058   0.632   9.191   5.449
 6344SOL    HW219059   0.740   9.114   5.354
 6345SOL     OW19060   1.726   7.583   4.247
 6345SOL    HW119061   1.799   7.566   4.180
 6345SOL    HW219062   1.695   7.496   4.285
 6346SOL     OW19063   1.388   9.021   4.201
 6346SOL    HW119064   1.455   9.033   4.127
 6346SOL    HW219065   1.348   9.110   4.224
 6347SOL     OW19066   0.130   9.242   5.575
 6347SOL    HW119067   0.089   9.168   5.628
 6347SOL    HW219068   0.194   9.293   5.633
 6348SOL     OW19069   1.280   8.375   4.396
 6348SOL    HW119070   1.340   8.294   4.398
 6348SOL    HW219071   1.320   8.444   4.336
 6349SOL     OW19072   0.830   8.721   5.146
 6349SOL    HW119073   0.825   8.754   5.241
 6349SOL    HW219074   0.744   8.740   5.100
 6350SOL     OW19075   0.672   9.064   3.878
 6350SOL    HW119076   0.681   9.074   3.779
 6350SOL    HW219077   0.632   8.975   3.899
 6351SOL     OW19078   1.650   9.168   5.118
 6351SOL    HW119079   1.703   9.178   5.034
 6351SOL    HW219080   1.623   9.258   5.152
 6352SOL     OW19081   1.841   7.623   4.687
 6352SOL    HW119082   1.880   7.538   4.651
 6352SOL    HW219083   1.743   7.625   4.668
 6353SOL     OW19084   0.263   7.774   4.444
 6353SOL    HW119085   0.184   7.825   4.410
 6353SOL    HW219086   0.254   7.759   4.542
 6354SOL     OW19087   1.194   9.060   3.755
 6354SOL    HW119088   1.200   8.967   3.792
 6354SOL    HW219089   1.135   9.060   3.675
 6355SOL     OW19090   0.822   8.450   5.096
 6355SOL    HW119091   0.862   8.449   5.004
 6355SOL    HW219092   0.832   8.542   5.136
 6356SOL     OW19093   0.916   8.358   4.015
 6356SOL    HW119094   0.979   8.396   3.947
 6356SOL    HW219095   0.956   8.275   4.054
 6357SOL     OW19096   1.504   9.055   3.768
 6357SOL    HW119097   1.412   9.092   3.775
 6357SOL    HW219098   1.542   9.075   3.678
 6358SOL     OW19099   0.372   8.736   5.214
 6358SOL    HW119100   0.359   8.829   5.180
 6358SOL    HW219101   0.288   8.684   5.201
 6359SOL     OW19102   1.614   8.740   5.013
 6359SOL    HW119103   1.674   8.743   5.093
 6359SOL    HW219104   1.539   8.804   5.026
 6360SOL     OW19105   1.039   8.546   4.420
 6360SOL    HW119106   0.969   8.499   4.474
 6360SOL    HW219107   1.098   8.478   4.377
 6361SOL     OW19108   1.014   7.684   4.695
 6361SOL    HW119109   1.006   7.648   4.602
 6361SOL    HW219110   1.012   7.608   4.760
 6362SOL     OW19111   0.590   8.935   4.215
 6362SOL    HW119112   0.632   8.877   4.145
 6362SOL    HW219113   0.546   9.014   4.171
 6363SOL     OW19114   1.709   7.833   5.105
 6363SOL    HW119115   1.782   7.902   5.109
 6363SOL    HW219116   1.737   7.758   5.046
 6364SOL     OW19117   0.255   8.796   4.014
 6364SOL    HW119118   0.159   8.797   3.987
 6364SOL    HW219119   0.267   8.849   4.098
 6365SOL     OW19120   0.105   8.461   5.450
 6365SOL    HW119121   0.028   8.428   5.504
 6365SOL    HW219122   0.190   8.431   5.492
 6366SOL     OW19123   0.672   7.651   5.213
 6366SOL    HW119124   0.762   7.635   5.173
 6366SOL    HW219125   0.680   7.656   5.312
 6367SOL     OW19126   0.075   7.793   3.757
 6367SOL    HW119127  -0.017   7.765   3.728
 6367SOL    HW219128   0.106   7.870   3.701
 6368SOL     OW19129   1.440   8.304   5.122
 6368SOL    HW119130   1.383   8.356   5.059
 6368SOL    HW219131   1.536   8.316   5.098
 6369SOL     OW19132   0.072   7.614   4.042
 6369SOL    HW119133   0.055   7.697   3.988
 6369SOL    HW219134   0.162   7.577   4.020
 6370SOL     OW19135   1.183   8.783   3.843
 6370SOL    HW119136   1.084   8.772   3.845
 6370SOL    HW219137   1.217   8.798   3.936
 6371SOL     OW19138   0.613   8.290   5.155
 6371SOL    HW119139   0.669   8.371   5.138
 6371SOL    HW219140   0.672   8.210   5.158
 6372SOL     OW19141   1.493   9.215   4.683
 6372SOL    HW119142   1.526   9.279   4.614
 6372SOL    HW219143   1.559   9.209   4.758
 6373SOL     OW19144   0.716   8.013   5.432
 6373SOL    HW119145   0.735   8.078   5.506
 6373SOL    HW219146   0.776   7.933   5.441
 6374SOL     OW19147   1.450   8.668   5.357
 6374SOL    HW119148   1.441   8.658   5.456
 6374SOL    HW219149   1.546   8.661   5.331
 6375SOL     OW19150   0.390   9.189   5.284
 6375SOL    HW119151   0.299   9.230   5.282
 6375SOL    HW219152   0.383   9.095   5.316
 6376SOL     OW19153   1.674   8.331   4.978
 6376SOL    HW119154   1.647   8.242   4.941
 6376SOL    HW219155   1.675   8.399   4.905
 6377SOL     OW19156   1.225   7.773   4.173
 6377SOL    HW119157   1.290   7.699   4.162
 6377SOL    HW219158   1.245   7.823   4.257
 6378SOL     OW19159   0.594   8.193   4.376
 6378SOL    HW119160   0.644   8.278   4.357
 6378SOL    HW219161   0.506   8.195   4.328
 6379SOL     OW19162   1.777   7.790   5.366
 6379SOL    HW119163   1.760   7.821   5.272
 6379SOL    HW219164   1.693   7.753   5.404
 6380SOL     OW19165   1.730   8.382   5.241
 6380SOL    HW119166   1.768   8.473   5.256
 6380SOL    HW219167   1.722   8.365   5.142
 6381SOL     OW19168   0.859   8.822   3.740
 6381SOL    HW119169   0.813   8.837   3.828
 6381SOL    HW219170   0.903   8.907   3.710
 6382SOL     OW19171   0.661   9.238   4.677
 6382SOL    HW119172   0.615   9.326   4.664
 6382SOL    HW219173   0.760   9.250   4.670
 6383SOL     OW19174   0.859   8.404   4.585
 6383SOL    HW119175   0.913   8.335   4.633
 6383SOL    HW219176   0.827   8.473   4.651
 6384SOL     OW19177   1.083   8.432   3.811
 6384SOL    HW119178   1.060   8.485   3.729
 6384SOL    HW219179   1.164   8.376   3.792
 6385SOL     OW19180   1.861   9.017   4.575
 6385SOL    HW119181   1.790   9.005   4.505
 6385SOL    HW219182   1.862   8.938   4.635
 6386SOL     OW19183   0.221   8.762   5.568
 6386SOL    HW119184   0.156   8.689   5.547
 6386SOL    HW219185   0.225   8.776   5.666
 6387SOL     OW19186   0.079   8.688   4.377
 6387SOL    HW119187   0.078   8.641   4.465
 6387SOL    HW219188   0.161   8.660   4.326
 6388SOL     OW19189   0.672   8.839   5.348
 6388SOL    HW119190   0.594   8.789   5.386
 6388SOL    HW219191   0.669   8.934   5.379
 6389SOL     OW19192   1.824   7.640   4.951
 6389SOL    HW119193   1.820   7.550   4.995
 6389SOL    HW219194   1.827   7.629   4.852
 6390SOL     OW19195   0.428   7.872   4.244
 6390SOL    HW119196   0.458   7.800   4.182
 6390SOL    HW219197   0.389   7.832   4.327
 6391SOL     OW19198   1.705   8.935   4.828
 6391SOL    HW119199   1.612   8.910   4.801
 6391SOL    HW219200   1.731   8.885   4.910
 6392SOL     OW19201   0.317   7.995   5.004
 6392SOL    HW119202   0.355   7.936   5.076
 6392SOL    HW219203   0.357   7.969   4.916
 6393SOL     OW19204   0.812   9.034   4.411
 6393SOL    HW119205   0.844   9.044   4.317
 6393SOL    HW219206   0.733   8.972   4.413
 6394SOL     OW19207   1.424   7.662   4.836
 6394SOL    HW119208   1.476   7.597   4.891
 6394SOL    HW219209   1.375   7.725   4.897
 6395SOL     OW19210   1.001   7.482   4.878
 6395SOL    HW119211   0.938   7.410   4.847
 6395SOL    HW219212   1.094   7.446   4.878
 6396SOL     OW19213   0.770   8.778   4.025
 6396SOL    HW119214   0.724   8.691   4.042
 6396SOL    HW219215   0.861   8.775   4.066
 6397SOL     OW19216   0.618   9.015   5.008
 6397SOL    HW119217   0.613   9.097   5.065
 6397SOL    HW219218   0.707   9.012   4.963
 6398SOL     OW19219   1.352   7.500   3.892
 6398SOL    HW119220   1.387   7.459   3.808
 6398SOL    HW219221   1.262   7.462   3.912
 6399SOL     OW19222   1.300   7.901   4.415
 6399SOL    HW119223   1.241   7.981   4.419
 6399SOL    HW219224   1.315   7.866   4.508
 6400SOL     OW19225   1.593   7.669   4.606
 6400SOL    HW119226   1.509   7.668   4.660
 6400SOL    HW219227   1.595   7.752   4.550
 6401SOL     OW19228   0.039   8.525   4.024
 6401SOL    HW119229   0.138   8.514   4.015
 6401SOL    HW219230  -0.001   8.439   4.056
 6402SOL     OW19231   0.875   9.094   4.061
 6402SOL    HW119232   0.798   9.059   4.007
 6402SOL    HW219233   0.843   9.165   4.123
 6403SOL     OW19234   0.230   8.076   5.699
 6403SOL    HW119235   0.137   8.074   5.736
 6403SOL    HW219236   0.231   8.037   5.607
 6404SOL     OW19237   0.225   7.723   6.582
 6404SOL    HW119238   0.260   7.706   6.674
 6404SOL    HW219239   0.137   7.678   6.570
 6405SOL     OW19240   0.019   7.816   6.233
 6405SOL    HW119241  -0.063   7.859   6.272
 6405SOL    HW219242  -0.009   7.743   6.170
 6406SOL     OW19243   0.569   8.723   6.751
 6406SOL    HW119244   0.476   8.716   6.714
 6406SOL    HW219245   0.580   8.812   6.795
 6407SOL     OW19246   1.555   8.959   6.289
 6407SOL    HW119247   1.498   8.943   6.370
 6407SOL    HW219248   1.496   8.969   6.209
 6408SOL     OW19249   1.135   8.151   6.303
 6408SOL    HW119250   1.192   8.229   6.278
 6408SOL    HW219251   1.075   8.177   6.379
 6409SOL     OW19252   1.755   8.055   5.817
 6409SOL    HW119253   1.743   8.042   5.718
 6409SOL    HW219254   1.725   7.974   5.866
 6410SOL     OW19255   0.768   8.592   6.609
 6410SOL    HW119256   0.690   8.609   6.669
 6410SOL    HW219257   0.802   8.679   6.573
 6411SOL     OW19258   0.850   8.246   7.409
 6411SOL    HW119259   0.846   8.322   7.474
 6411SOL    HW219260   0.872   8.282   7.318
 6412SOL     OW19261   0.685   8.460   6.251
 6412SOL    HW119262   0.754   8.444   6.321
 6412SOL    HW219263   0.612   8.517   6.289
 6413SOL     OW19264   0.686   8.609   7.389
 6413SOL    HW119265   0.746   8.688   7.403
 6413SOL    HW219266   0.600   8.640   7.348
 6414SOL     OW19267   0.335   8.883   6.647
 6414SOL    HW119268   0.257   8.852   6.594
 6414SOL    HW219269   0.393   8.941   6.590
 6415SOL     OW19270   1.460   8.953   6.925
 6415SOL    HW119271   1.484   9.047   6.951
 6415SOL    HW219272   1.444   8.899   7.007
 6416SOL     OW19273   0.438   7.840   7.085
 6416SOL    HW119274   0.520   7.784   7.094
 6416SOL    HW219275   0.357   7.782   7.089
 6417SOL     OW19276   1.603   7.895   6.323
 6417SOL    HW119277   1.529   7.941   6.273
 6417SOL    HW219278   1.654   7.963   6.376
 6418SOL     OW19279   0.231   9.161   6.069
 6418SOL    HW119280   0.265   9.238   6.123
 6418SOL    HW219281   0.275   9.161   5.979
 6419SOL     OW19282   1.127   8.789   7.276
 6419SOL    HW119283   1.174   8.789   7.364
 6419SOL    HW219284   1.079   8.702   7.265
 6420SOL     OW19285   0.230   8.882   6.124
 6420SOL    HW119286   0.204   8.978   6.124
 6420SOL    HW219287   0.159   8.828   6.169
 6421SOL     OW19288   0.240   8.539   6.472
 6421SOL    HW119289   0.254   8.455   6.524
 6421SOL    HW219290   0.185   8.603   6.527
 6422SOL     OW19291   0.620   9.234   7.025
 6422SOL    HW119292   0.528   9.217   7.060
 6422SOL    HW219293   0.648   9.326   7.051
 6423SOL     OW19294   0.606   8.412   5.709
 6423SOL    HW119295   0.613   8.496   5.655
 6423SOL    HW219296   0.652   8.425   5.797
 6424SOL     OW19297   1.594   7.562   7.066
 6424SOL    HW119298   1.576   7.629   6.994
 6424SOL    HW219299   1.591   7.608   7.155
 6425SOL     OW19300   0.122   8.091   6.149
 6425SOL    HW119301   0.077   8.003   6.166
 6425SOL    HW219302   0.121   8.145   6.233
 6426SOL     OW19303   1.842   9.215   5.945
 6426SOL    HW119304   1.896   9.186   6.025
 6426SOL    HW219305   1.872   9.305   5.916
 6427SOL     OW19306   0.027   9.044   5.703
 6427SOL    HW119307   0.008   8.948   5.724
 6427SOL    HW219308  -0.006   9.102   5.778
 6428SOL     OW19309   1.689   8.370   6.198
 6428SOL    HW119310   1.784   8.341   6.206
 6428SOL    HW219311   1.681   8.435   6.123
 6429SOL     OW19312   1.641   8.556   6.018
 6429SOL    HW119313   1.727   8.558   5.966
 6429SOL    HW219314   1.655   8.603   6.106
 6430SOL     OW19315   0.113   8.185   7.183
 6430SOL    HW119316   0.201   8.172   7.228
 6430SOL    HW219317   0.100   8.282   7.161
 6431SOL     OW19318   0.613   8.813   6.312
 6431SOL    HW119319   0.564   8.726   6.321
 6431SOL    HW219320   0.590   8.856   6.225
 6432SOL     OW19321   1.293   8.676   7.009
 6432SOL    HW119322   1.330   8.603   6.951
 6432SOL    HW219323   1.345   8.681   7.094
 6433SOL     OW19324   0.809   7.452   6.088
 6433SOL    HW119325   0.849   7.543   6.079
 6433SOL    HW219326   0.709   7.460   6.094
 6434SOL     OW19327   0.197   8.424   6.850
 6434SOL    HW119328   0.286   8.379   6.836
 6434SOL    HW219329   0.124   8.359   6.831
 6435SOL     OW19330   1.525   8.447   5.776
 6435SOL    HW119331   1.462   8.371   5.789
 6435SOL    HW219332   1.573   8.465   5.862
 6436SOL     OW19333   1.187   9.240   7.202
 6436SOL    HW119334   1.211   9.300   7.126
 6436SOL    HW219335   1.194   9.145   7.172
 6437SOL     OW19336   0.317   7.699   7.387
 6437SOL    HW119337   0.388   7.770   7.393
 6437SOL    HW219338   0.229   7.738   7.415
 6438SOL     OW19339   1.466   8.865   6.539
 6438SOL    HW119340   1.407   8.871   6.619
 6438SOL    HW219341   1.451   8.777   6.493
 6439SOL     OW19342   1.667   9.162   6.158
 6439SOL    HW119343   1.626   9.139   6.070
 6439SOL    HW219344   1.649   9.088   6.223
 6440SOL     OW19345   0.598   8.177   5.856
 6440SOL    HW119346   0.622   8.246   5.788
 6440SOL    HW219347   0.520   8.210   5.910
 6441SOL     OW19348   1.281   7.793   6.530
 6441SOL    HW119349   1.195   7.743   6.517
 6441SOL    HW219350   1.343   7.739   6.586
 6442SOL     OW19351   1.576   9.110   5.893
 6442SOL    HW119352   1.665   9.156   5.896
 6442SOL    HW219353   1.555   9.086   5.798
 6443SOL     OW19354   0.807   8.053   7.051
 6443SOL    HW119355   0.760   8.050   7.140
 6443SOL    HW219356   0.756   7.998   6.985
 6444SOL     OW19357   1.394   7.917   7.260
 6444SOL    HW119358   1.374   7.960   7.348
 6444SOL    HW219359   1.472   7.855   7.269
 6445SOL     OW19360   0.973   8.338   7.158
 6445SOL    HW119361   1.019   8.254   7.129
 6445SOL    HW219362   0.917   8.372   7.083
 6446SOL     OW19363   0.991   7.858   6.828
 6446SOL    HW119364   0.914   7.892   6.882
 6446SOL    HW219365   0.957   7.807   6.749
 6447SOL     OW19366   1.041   8.149   6.015
 6447SOL    HW119367   1.067   8.145   6.111
 6447SOL    HW219368   0.956   8.098   6.001
 6448SOL     OW19369   0.076   8.259   6.375
 6448SOL    HW119370   0.175   8.247   6.384
 6448SOL    HW219371   0.052   8.354   6.396
 6449SOL     OW19372   0.130   9.269   7.157
 6449SOL    HW119373   0.120   9.254   7.256
 6449SOL    HW219374   0.044   9.305   7.121
 6450SOL     OW19375   0.865   7.796   5.781
 6450SOL    HW119376   0.924   7.859   5.732
 6450SOL    HW219377   0.884   7.702   5.752
 6451SOL     OW19378   1.719   8.033   7.417
 6451SOL    HW119379   1.693   8.122   7.381
 6451SOL    HW219380   1.717   7.965   7.344
 6452SOL     OW19381   1.362   8.592   6.131
 6452SOL    HW119382   1.445   8.563   6.083
 6452SOL    HW219383   1.313   8.659   6.075
 6453SOL     OW19384   0.550   7.644   6.471
 6453SOL    HW119385   0.545   7.639   6.571
 6453SOL    HW219386   0.552   7.740   6.442
 6454SOL     OW19387   1.008   8.904   6.063
 6454SOL    HW119388   0.962   8.976   6.011
 6454SOL    HW219389   1.004   8.924   6.161
 6455SOL     OW19390   0.351   9.249   6.439
 6455SOL    HW119391   0.401   9.163   6.445
 6455SOL    HW219392   0.416   9.326   6.436
 6456SOL     OW19393   1.795   8.514   6.459
 6456SOL    HW119394   1.733   8.499   6.383
 6456SOL    HW219395   1.743   8.525   6.544
 6457SOL     OW19396   1.227   8.998   7.092
 6457SOL    HW119397   1.233   8.921   7.156
 6457SOL    HW219398   1.175   8.972   7.012
 6458SOL     OW19399   0.321   8.391   5.828
 6458SOL    HW119400   0.403   8.430   5.786
 6458SOL    HW219401   0.294   8.309   5.779
 6459SOL     OW19402   1.458   8.183   6.314
 6459SOL    HW119403   1.453   8.118   6.389
 6459SOL    HW219404   1.538   8.242   6.327
 6460SOL     OW19405   0.461   8.714   7.313
 6460SOL    HW119406   0.411   8.715   7.227
 6460SOL    HW219407   0.398   8.696   7.389
 6461SOL     OW19408   1.111   9.224   5.823
 6461SOL    HW119409   1.051   9.162   5.873
 6461SOL    HW219410   1.142   9.180   5.738
 6462SOL     OW19411   0.202   7.733   7.084
 6462SOL    HW119412   0.122   7.793   7.071
 6462SOL    HW219413   0.192   7.684   7.170
 6463SOL     OW19414   1.632   8.825   5.667
 6463SOL    HW119415   1.600   8.919   5.657
 6463SOL    HW219416   1.556   8.762   5.655
 6464SOL     OW19417   0.464   9.191   5.909
 6464SOL    HW119418   0.497   9.230   5.995
 6464SOL    HW219419   0.540   9.184   5.844
 6465SOL     OW19420   1.400   7.555   6.012
 6465SOL    HW119421   1.376   7.518   5.922
 6465SOL    HW219422   1.499   7.571   6.016
 6466SOL     OW19423   0.249   9.233   6.827
 6466SOL    HW119424   0.306   9.168   6.877
 6466SOL    HW219425   0.233   9.200   6.734
 6467SOL     OW19426   0.940   9.146   6.490
 6467SOL    HW119427   1.020   9.089   6.511
 6467SOL    HW219428   0.891   9.106   6.413
 6468SOL     OW19429   0.382   8.148   6.066
 6468SOL    HW119430   0.427   8.058   6.063
 6468SOL    HW219431   0.288   8.137   6.099
 6469SOL     OW19432   1.547   7.670   7.315
 6469SOL    HW119433   1.542   7.707   7.407
 6469SOL    HW219434   1.475   7.601   7.303
 6470SOL     OW19435   0.614   7.570   5.703
 6470SOL    HW119436   0.712   7.548   5.710
 6470SOL    HW219437   0.583   7.553   5.610
 6471SOL     OW19438   0.781   7.712   7.335
 6471SOL    HW119439   0.848   7.651   7.378
 6471SOL    HW219440   0.708   7.731   7.400
 6472SOL     OW19441   0.888   8.962   6.781
 6472SOL    HW119442   0.865   8.937   6.687
 6472SOL    HW219443   0.949   8.893   6.820
 6473SOL     OW19444   1.351   8.038   7.019
 6473SOL    HW119445   1.379   7.995   7.104
 6473SOL    HW219446   1.376   8.134   7.020
 6474SOL     OW19447   0.803   8.850   6.510
 6474SOL    HW119448   0.893   8.864   6.468
 6474SOL    HW219449   0.732   8.852   6.439
 6475SOL     OW19450   0.922   7.951   6.485
 6475SOL    HW119451   0.897   7.942   6.389
 6475SOL    HW219452   0.970   7.869   6.516
 6476SOL     OW19453   0.539   7.512   6.098
 6476SOL    HW119454   0.458   7.513   6.156
 6476SOL    HW219455   0.542   7.595   6.043
 6477SOL     OW19456   1.434   8.636   5.627
 6477SOL    HW119457   1.466   8.560   5.684
 6477SOL    HW219458   1.342   8.663   5.657
 6478SOL     OW19459   0.297   7.483   5.757
 6478SOL    HW119460   0.346   7.567   5.736
 6478SOL    HW219461   0.359   7.418   5.802
 6479SOL     OW19462   0.935   7.684   6.066
 6479SOL    HW119463   0.887   7.725   5.988
 6479SOL    HW219464   1.034   7.682   6.047
 6480SOL     OW19465   1.076   8.131   7.050
 6480SOL    HW119466   0.996   8.070   7.053
 6480SOL    HW219467   1.157   8.078   7.026
 6481SOL     OW19468   1.227   9.018   6.379
 6481SOL    HW119469   1.248   9.092   6.314
 6481SOL    HW219470   1.295   9.018   6.452
 6482SOL     OW19471   0.459   8.600   6.327
 6482SOL    HW119472   0.388   8.573   6.392
 6482SOL    HW219473   0.433   8.572   6.234
 6483SOL     OW19474   1.271   9.245   6.177
 6483SOL    HW119475   1.315   9.309   6.113
 6483SOL    HW219476   1.221   9.297   6.247
 6484SOL     OW19477   1.032   7.997   5.602
 6484SOL    HW119478   0.991   8.079   5.563
 6484SOL    HW219479   1.096   8.023   5.675
 6485SOL     OW19480   0.078   8.004   6.972
 6485SOL    HW119481   0.170   8.003   6.931
 6485SOL    HW219482   0.072   8.078   7.039
 6486SOL     OW19483   0.561   7.670   6.733
 6486SOL    HW119484   0.599   7.586   6.770
 6486SOL    HW219485   0.473   7.689   6.777
 6487SOL     OW19486   0.866   7.902   6.228
 6487SOL    HW119487   0.834   7.974   6.166
 6487SOL    HW219488   0.890   7.821   6.175
 6488SOL     OW19489   1.017   7.487   6.339
 6488SOL    HW119490   0.945   7.492   6.270
 6488SOL    HW219491   0.993   7.418   6.408
 6489SOL     OW19492   1.429   8.621   6.453
 6489SOL    HW119493   1.374   8.537   6.446
 6489SOL    HW219494   1.455   8.650   6.361
 6490SOL     OW19495   1.466   8.038   6.578
 6490SOL    HW119496   1.436   7.943   6.585
 6490SOL    HW219497   1.539   8.054   6.644
 6491SOL     OW19498   1.857   8.281   5.963
 6491SOL    HW119499   1.899   8.217   6.027
 6491SOL    HW219500   1.819   8.230   5.885
 6492SOL     OW19501   0.488   8.833   5.760
 6492SOL    HW119502   0.401   8.818   5.807
 6492SOL    HW219503   0.471   8.859   5.665
 6493SOL     OW19504   1.664   8.728   6.243
 6493SOL    HW119505   1.763   8.736   6.257
 6493SOL    HW219506   1.619   8.812   6.274
 6494SOL     OW19507   1.390   8.023   5.664
 6494SOL    HW119508   1.336   8.002   5.745
 6494SOL    HW219509   1.481   7.982   5.673
 6495SOL     OW19510   0.527   7.704   5.914
 6495SOL    HW119511   0.554   7.645   5.839
 6495SOL    HW219512   0.527   7.799   5.883
 6496SOL     OW19513   1.754   8.671   7.174
 6496SOL    HW119514   1.845   8.632   7.161
 6496SOL    HW219515   1.762   8.767   7.198
 6497SOL     OW19516   1.064   8.795   6.926
 6497SOL    HW119517   0.984   8.772   6.981
 6497SOL    HW219518   1.147   8.769   6.975
 6498SOL     OW19519   1.592   9.077   7.211
 6498SOL    HW119520   1.619   9.111   7.121
 6498SOL    HW219521   1.671   9.039   7.257
 6499SOL     OW19522   1.111   8.643   6.686
 6499SOL    HW119523   1.071   8.687   6.767
 6499SOL    HW219524   1.070   8.680   6.603
 6500SOL     OW19525   1.638   8.547   6.665
 6500SOL    HW119526   1.643   8.628   6.724
 6500SOL    HW219527   1.552   8.549   6.614
 6501SOL     OW19528   0.915   7.537   6.988
 6501SOL    HW119529   0.940   7.517   6.893
 6501SOL    HW219530   0.987   7.593   7.030
 6502SOL     OW19531   0.980   8.564   7.305
 6502SOL    HW119532   0.881   8.570   7.315
 6502SOL    HW219533   1.003   8.484   7.249
 6503SOL     OW19534   0.705   8.498   5.954
 6503SOL    HW119535   0.691   8.505   6.053
 6503SOL    HW219536   0.789   8.447   5.936
 6504SOL     OW19537   0.410   8.261   6.837
 6504SOL    HW119538   0.496   8.273   6.887
 6504SOL    HW219539   0.368   8.174   6.864
 6505SOL     OW19540   1.274   7.834   6.848
 6505SOL    HW119541   1.295   7.908   6.912
 6505SOL    HW219542   1.185   7.851   6.805
 6506SOL     OW19543   0.064   9.012   6.917
 6506SOL    HW119544   0.018   9.094   6.883
 6506SOL    HW219545   0.162   9.031   6.926
 6507SOL     OW19546   0.367   8.548   6.087
 6507SOL    HW119547   0.360   8.631   6.031
 6507SOL    HW219548   0.371   8.468   6.027
 6508SOL     OW19549   0.566   7.985   6.451
 6508SOL    HW119550   0.578   8.051   6.377
 6508SOL    HW219551   0.612   8.019   6.534
 6509SOL     OW19552   1.272   8.893   6.728
 6509SOL    HW119553   1.319   8.906   6.815
 6509SOL    HW219554   1.206   8.819   6.737
 6510SOL     OW19555   1.582   8.087   6.058
 6510SOL    HW119556   1.551   8.148   6.131
 6510SOL    HW219557   1.632   8.139   5.989
 6511SOL     OW19558   0.354   8.958   6.915
 6511SOL    HW119559   0.333   8.914   6.828
 6511SOL    HW219560   0.451   8.984   6.918
 6512SOL     OW19561   0.402   8.199   7.184
 6512SOL    HW119562   0.470   8.254   7.137
 6512SOL    HW219563   0.442   8.111   7.211
 6513SOL     OW19564   1.587   8.227   7.256
 6513SOL    HW119565   1.495   8.265   7.251
 6513SOL    HW219566   1.647   8.274   7.191
 6514SOL     OW19567   1.013   7.553   7.356
 6514SOL    HW119568   1.019   7.638   7.304
 6514SOL    HW219569   1.045   7.477   7.299
 6515SOL     OW19570   0.504   7.498   7.326
 6515SOL    HW119571   0.462   7.441   7.256
 6515SOL    HW219572   0.438   7.567   7.358
 6516SOL     OW19573   0.573   8.318   6.615
 6516SOL    HW119574   0.617   8.407   6.606
 6516SOL    HW219575   0.510   8.318   6.692
 6517SOL     OW19576   1.360   8.310   6.631
 6517SOL    HW119577   1.285   8.310   6.565
 6517SOL    HW219578   1.397   8.218   6.640
 6518SOL     OW19579   1.209   7.973   5.861
 6518SOL    HW119580   1.222   7.889   5.915
 6518SOL    HW219581   1.180   8.047   5.921
 6519SOL     OW19582   0.307   7.661   6.817
 6519SOL    HW119583   0.284   7.698   6.907
 6519SOL    HW219584   0.277   7.566   6.811
 6520SOL     OW19585   0.037   8.758   6.868
 6520SOL    HW119586   0.090   8.709   6.936
 6520SOL    HW219587   0.059   8.856   6.873
 6521SOL     OW19588   0.732   8.082   6.650
 6521SOL    HW119589   0.791   8.056   6.574
 6521SOL    HW219590   0.704   8.178   6.639
 6522SOL     OW19591   1.728   8.383   7.440
 6522SOL    HW119592   1.682   8.376   7.351
 6522SOL    HW219593   1.666   8.427   7.506
 6523SOL     OW19594   0.307   7.511   6.204
 6523SOL    HW119595   0.296   7.605   6.237
 6523SOL    HW219596   0.302   7.448   6.281
 6524SOL     OW19597   1.622   7.815   5.960
 6524SOL    HW119598   1.624   7.739   6.024
 6524SOL    HW219599   1.574   7.892   6.000
 6525SOL     OW19600   1.023   8.214   6.552
 6525SOL    HW119601   1.038   8.235   6.648
 6525SOL    HW219602   0.993   8.119   6.543
 6526SOL     OW19603   0.980   9.021   7.286
 6526SOL    HW119604   0.960   9.065   7.198
 6526SOL    HW219605   1.019   8.930   7.270
 6527SOL     OW19606   1.859   8.966   7.191
 6527SOL    HW119607   1.873   8.993   7.096
 6527SOL    HW219608   1.942   8.988   7.244
 6528SOL     OW19609   0.350   8.346   7.390
 6528SOL    HW119610   0.426   8.390   7.438
 6528SOL    HW219611   0.385   8.299   7.308
 6529SOL     OW19612   1.540   7.722   5.711
 6529SOL    HW119613   1.479   7.647   5.734
 6529SOL    HW219614   1.562   7.774   5.794
 6530SOL     OW19615   1.303   8.286   5.628
 6530SOL    HW119616   1.337   8.193   5.643
 6530SOL    HW219617   1.321   8.313   5.533
 6531SOL     OW19618   1.068   8.781   6.435
 6531SOL    HW119619   1.075   8.697   6.380
 6531SOL    HW219620   1.130   8.850   6.399
 6532SOL     OW19621   0.319   8.258   6.535
 6532SOL    HW119622   0.412   8.294   6.540
 6532SOL    HW219623   0.313   8.173   6.587
 6533SOL     OW19624   0.339   7.957   6.592
 6533SOL    HW119625   0.287   7.874   6.575
 6533SOL    HW219626   0.416   7.962   6.528
 6534SOL     OW19627   1.138   7.828   7.264
 6534SOL    HW119628   1.093   7.891   7.328
 6534SOL    HW219629   1.231   7.859   7.247
 6535SOL     OW19630   1.160   7.655   7.063
 6535SOL    HW119631   1.160   7.719   7.140
 6535SOL    HW219632   1.188   7.703   6.980
 6536SOL     OW19633   0.008   8.774   5.786
 6536SOL    HW119634  -0.085   8.795   5.755
 6536SOL    HW219635   0.018   8.675   5.799
 6537SOL     OW19636   0.088   9.249   6.513
 6537SOL    HW119637   0.046   9.163   6.486
 6537SOL    HW219638   0.182   9.252   6.479
 6538SOL     OW19639   0.504   9.016   6.496
 6538SOL    HW119640   0.570   9.090   6.505
 6538SOL    HW219641   0.548   8.937   6.454
 6539SOL     OW19642   1.002   8.244   6.824
 6539SOL    HW119643   1.043   8.212   6.910
 6539SOL    HW219644   0.906   8.217   6.821
 6540SOL     OW19645   0.040   7.992   6.700
 6540SOL    HW119646   0.125   7.959   6.659
 6540SOL    HW219647   0.053   8.007   6.798
 6541SOL     OW19648   0.189   7.968   7.308
 6541SOL    HW119649   0.248   7.928   7.238
 6541SOL    HW219650   0.131   8.039   7.267
 6542SOL     OW19651   1.369   8.398   7.246
 6542SOL    HW119652   1.408   8.487   7.266
 6542SOL    HW219653   1.379   8.378   7.149
 6543SOL     OW19654   0.815   8.020   5.911
 6543SOL    HW119655   0.822   7.931   5.865
 6543SOL    HW219656   0.721   8.054   5.903
 6544SOL     OW19657   1.657   8.052   6.792
 6544SOL    HW119658   1.619   7.983   6.854
 6544SOL    HW219659   1.739   8.016   6.748
 6545SOL     OW19660   0.252   9.012   7.330
 6545SOL    HW119661   0.222   9.069   7.406
 6545SOL    HW219662   0.245   8.915   7.356
 6546SOL     OW19663   0.671   7.912   6.855
 6546SOL    HW119664   0.637   7.823   6.825
 6546SOL    HW219665   0.697   7.966   6.775
 6547SOL     OW19666   0.930   9.126   7.051
 6547SOL    HW119667   0.906   9.108   6.956
 6547SOL    HW219668   0.960   9.220   7.061
 6548SOL     OW19669   0.473   7.948   5.777
 6548SOL    HW119670   0.534   8.028   5.781
 6548SOL    HW219671   0.378   7.979   5.784
 6549SOL     OW19672   0.159   8.585   7.052
 6549SOL    HW119673   0.181   8.524   7.128
 6549SOL    HW219674   0.169   8.536   6.966
 6550SOL     OW19675   1.347   8.507   6.820
 6550SOL    HW119676   1.371   8.444   6.746
 6550SOL    HW219677   1.257   8.547   6.802
 6551SOL     OW19678   1.302   8.303   5.895
 6551SOL    HW119679   1.216   8.272   5.937
 6551SOL    HW219680   1.298   8.289   5.796
 6552SOL     OW19681   1.759   9.195   6.740
 6552SOL    HW119682   1.820   9.225   6.667
 6552SOL    HW219683   1.721   9.106   6.718
 6553SOL     OW19684   1.252   9.179   6.714
 6553SOL    HW119685   1.336   9.184   6.660
 6553SOL    HW219686   1.229   9.083   6.732
 6554SOL     OW19687   0.083   8.706   6.608
 6554SOL    HW119688   0.078   8.705   6.708
 6554SOL    HW219689   0.000   8.665   6.570
 6555SOL     OW19690   0.688   9.110   7.302
 6555SOL    HW119691   0.632   9.191   7.311
 6555SOL    HW219692   0.740   9.114   7.216
 6556SOL     OW19693   1.726   7.583   6.109
 6556SOL    HW119694   1.799   7.566   6.042
 6556SOL    HW219695   1.695   7.496   6.147
 6557SOL     OW19696   1.388   9.021   6.063
 6557SOL    HW119697   1.455   9.033   5.989
 6557SOL    HW219698   1.348   9.110   6.086
 6558SOL     OW19699   0.130   9.242   7.437
 6558SOL    HW119700   0.089   9.168   7.490
 6558SOL    HW219701   0.194   9.293   7.495
 6559SOL     OW19702   1.280   8.375   6.258
 6559SOL    HW119703   1.340   8.294   6.260
 6559SOL    HW219704   1.320   8.444   6.198
 6560SOL     OW19705   0.830   8.721   7.008
 6560SOL    HW119706   0.825   8.754   7.103
 6560SOL    HW219707   0.744   8.740   6.962
 6561SOL     OW19708   0.672   9.064   5.740
 6561SOL    HW119709   0.681   9.074   5.641
 6561SOL    HW219710   0.632   8.975   5.761
 6562SOL     OW19711   1.650   9.168   6.980
 6562SOL    HW119712   1.703   9.178   6.896
 6562SOL    HW219713   1.623   9.258   7.014
 6563SOL     OW19714   1.841   7.623   6.549
 6563SOL    HW119715   1.880   7.538   6.513
 6563SOL    HW219716   1.743   7.625   6.530
 6564SOL     OW19717   0.263   7.774   6.306
 6564SOL    HW119718   0.184   7.825   6.272
 6564SOL    HW219719   0.254   7.759   6.404
 6565SOL     OW19720   1.194   9.060   5.617
 6565SOL    HW119721   1.200   8.967   5.654
 6565SOL    HW219722   1.135   9.060   5.537
 6566SOL     OW19723   0.822   8.450   6.958
 6566SOL    HW119724   0.862   8.449   6.866
 6566SOL    HW219725   0.832   8.542   6.998
 6567SOL     OW19726   0.916   8.358   5.877
 6567SOL    HW119727   0.979   8.396   5.809
 6567SOL    HW219728   0.956   8.275   5.916
 6568SOL     OW19729   1.504   9.055   5.630
 6568SOL    HW119730   1.412   9.092   5.637
 6568SOL    HW219731   1.542   9.075   5.540
 6569SOL     OW19732   0.372   8.736   7.076
 6569SOL    HW119733   0.359   8.829   7.042
 6569SOL    HW219734   0.288   8.684   7.063
 6570SOL     OW19735   1.614   8.740   6.875
 6570SOL    HW119736   1.674   8.743   6.955
 6570SOL    HW219737   1.539   8.804   6.888
 6571SOL     OW19738   1.039   8.546   6.282
 6571SOL    HW119739   0.969   8.499   6.336
 6571SOL    HW219740   1.098   8.478   6.239
 6572SOL     OW19741   1.014   7.684   6.557
 6572SOL    HW119742   1.006   7.648   6.464
 6572SOL    HW219743   1.012   7.608   6.622
 6573SOL     OW19744   0.590   8.935   6.077
 6573SOL    HW119745   0.632   8.877   6.007
 6573SOL    HW219746   0.546   9.014   6.033
 6574SOL     OW19747   1.709   7.833   6.967
 6574SOL    HW119748   1.782   7.902   6.971
 6574SOL    HW219749   1.737   7.758   6.908
 6575SOL     OW19750   0.255   8.796   5.876
 6575SOL    HW119751   0.159   8.797   5.849
 6575SOL    HW219752   0.267   8.849   5.960
 6576SOL     OW19753   0.105   8.461   7.312
 6576SOL    HW119754   0.028   8.428   7.366
 6576SOL    HW219755   0.190   8.431   7.354
 6577SOL     OW19756   0.672   7.651   7.075
 6577SOL    HW119757   0.762   7.635   7.035
 6577SOL    HW219758   0.680   7.656   7.174
 6578SOL     OW19759   0.075   7.793   5.619
 6578SOL    HW119760  -0.017   7.765   5.590
 6578SOL    HW219761   0.106   7.870   5.563
 6579SOL     OW19762   1.440   8.304   6.984
 6579SOL    HW119763   1.383   8.356   6.921
 6579SOL    HW219764   1.536   8.316   6.960
 6580SOL     OW19765   0.072   7.614   5.904
 6580SOL    HW119766   0.055   7.697   5.850
 6580SOL    HW219767   0.162   7.577   5.882
 6581SOL     OW19768   1.183   8.783   5.705
 6581SOL    HW119769   1.084   8.772   5.707
 6581SOL    HW219770   1.217   8.798   5.798
 6582SOL     OW19771   0.613   8.290   7.017
 6582SOL    HW119772   0.669   8.371   7.000
 6582SOL    HW219773   0.672   8.210   7.020
 6583SOL     OW19774   1.493   9.215   6.545
 6583SOL    HW119775   1.526   9.279   6.476
 6583SOL    HW219776   1.559   9.209   6.620
 6584SOL     OW19777   0.716   8.013   7.294
 6584SOL    HW119778   0.735   8.078   7.368
 6584SOL    HW219779   0.776   7.933   7.303
 6585SOL     OW19780   1.450   8.668   7.219
 6585SOL    HW119781   1.441   8.658   7.318
 6585SOL    HW219782   1.546   8.661   7.193
 6586SOL     OW19783   0.390   9.189   7.146
 6586SOL    HW119784   0.299   9.230   7.144
 6586SOL    HW219785   0.383   9.095   7.178
 6587SOL     OW19786   1.674   8.331   6.840
 6587SOL    HW119787   1.647   8.242   6.803
 6587SOL    HW219788   1.675   8.399   6.767
 6588SOL     OW19789   1.225   7.773   6.035
 6588SOL    HW119790   1.290   7.699   6.024
 6588SOL    HW219791   1.245   7.823   6.119
 6589SOL     OW19792   0.594   8.193   6.238
 6589SOL    HW119793   0.644   8.278   6.219
 6589SOL    HW219794   0.506   8.195   6.190
 6590SOL     OW19795   1.777   7.790   7.228
 6590SOL    HW119796   1.760   7.821   7.134
 6590SOL    HW219797   1.693   7.753   7.266
 6591SOL     OW19798   1.730   8.382   7.103
 6591SOL    HW119799   1.768   8.473   7.118
 6591SOL    HW219800   1.722   8.365   7.004
 6592SOL     OW19801   0.859   8.822   5.602
 6592SOL    HW119802   0.813   8.837   5.690
 6592SOL    HW219803   0.903   8.907   5.572
 6593SOL     OW19804   0.661   9.238   6.539
 6593SOL    HW119805   0.615   9.326   6.526
 6593SOL    HW219806   0.760   9.250   6.532
 6594SOL     OW19807   0.859   8.404   6.447
 6594SOL    HW119808   0.913   8.335   6.495
 6594SOL    HW219809   0.827   8.473   6.513
 6595SOL     OW19810   1.083   8.432   5.673
 6595SOL    HW119811   1.060   8.485   5.591
 6595SOL    HW219812   1.164   8.376   5.654
 6596SOL     OW19813   1.861   9.017   6.437
 6596SOL    HW119814   1.790   9.005   6.367
 6596SOL    HW219815   1.862   8.938   6.497
 6597SOL     OW19816   0.221   8.762   7.430
 6597SOL    HW119817   0.156   8.689   7.409
 6597SOL    HW219818   0.225   8.776   7.528
 6598SOL     OW19819   0.079   8.688   6.239
 6598SOL    HW119820   0.078   8.641   6.327
 6598SOL    HW219821   0.161   8.660   6.188
 6599SOL     OW19822   0.672   8.839   7.210
 6599SOL    HW119823   0.594   8.789   7.248
 6599SOL    HW219824   0.669   8.934   7.241
 6600SOL     OW19825   1.824   7.640   6.813
 6600SOL    HW119826   1.820   7.550   6.857
 6600SOL    HW219827   1.827   7.629   6.714
 6601SOL     OW19828   0.428   7.872   6.106
 6601SOL    HW119829   0.458   7.800   6.044
 6601SOL    HW219830   0.389   7.832   6.189
 6602SOL     OW19831   1.705   8.935   6.690
 6602SOL    HW119832   1.612   8.910   6.663
 6602SOL    HW219833   1.731   8.885   6.772
 6603SOL     OW19834   0.317   7.995   6.866
 6603SOL    HW119835   0.355   7.936   6.938
 6603SOL    HW219836   0.357   7.969   6.778
 6604SOL     OW19837   0.812   9.034   6.273
 6604SOL    HW119838   0.844   9.044   6.179
 6604SOL    HW219839   0.733   8.972   6.275
 6605SOL     OW19840   1.424   7.662   6.698
 6605SOL    HW119841   1.476   7.597   6.753
 6605SOL    HW219842   1.375   7.725   6.759
 6606SOL     OW19843   1.001   7.482   6.740
 6606SOL    HW119844   0.938   7.410   6.709
 6606SOL    HW219845   1.094   7.446   6.740
 6607SOL     OW19846   0.770   8.778   5.887
 6607SOL    HW119847   0.724   8.691   5.904
 6607SOL    HW219848   0.861   8.775   5.928
 6608SOL     OW19849   0.618   9.015   6.870
 6608SOL    HW119850   0.613   9.097   6.927
 6608SOL    HW219851   0.707   9.012   6.825
 6609SOL     OW19852   1.352   7.500   5.754
 6609SOL    HW119853   1.387   7.459   5.670
 6609SOL    HW219854   1.262   7.462   5.774
 6610SOL     OW19855   1.300   7.901   6.277
 6610SOL    HW119856   1.241   7.981   6.281
 6610SOL    HW219857   1.315   7.866   6.370
 6611SOL     OW19858   1.593   7.669   6.468
 6611SOL    HW119859   1.509   7.668   6.522
 6611SOL    HW219860   1.595   7.752   6.412
 6612SOL     OW19861   0.039   8.525   5.886
 6612SOL    HW119862   0.138   8.514   5.877
 6612SOL    HW219863  -0.001   8.439   5.918
 6613SOL     OW19864   0.875   9.094   5.923
 6613SOL    HW119865   0.798   9.059   5.869
 6613SOL    HW219866   0.843   9.165   5.985
 6614SOL     OW19867   0.230   8.076   7.561
 6614SOL    HW119868   0.137   8.074   7.598
 6614SOL    HW219869   0.231   8.037   7.469
 6615SOL     OW19870   0.225   7.723   8.444
 6615SOL    HW119871   0.260   7.706   8.536
 6615SOL    HW219872   0.137   7.678   8.432
 6616SOL     OW19873   0.019   7.816   8.095
 6616SOL    HW119874  -0.063   7.859   8.134
 6616SOL    HW219875  -0.009   7.743   8.032
 6617SOL     OW19876   0.569   8.723   8.613
 6617SOL    HW119877   0.476   8.716   8.576
 6617SOL    HW219878   0.580   8.812   8.657
 6618SOL     OW19879   1.555   8.959   8.151
 6618SOL    HW119880   1.498   8.943   8.232
 6618SOL    HW219881   1.496   8.969   8.071
 6619SOL     OW19882   1.135   8.151   8.165
 6619SOL    HW119883   1.192   8.229   8.140
 6619SOL    HW219884   1.075   8.177   8.241
 6620SOL     OW19885   1.755   8.055   7.679
 6620SOL    HW119886   1.743   8.042   7.580
 6620SOL    HW219887   1.725   7.974   7.728
 6621SOL     OW19888   0.768   8.592   8.471
 6621SOL    HW119889   0.690   8.609   8.531
 6621SOL    HW219890   0.802   8.679   8.435
 6622SOL     OW19891   0.850   8.246   9.271
 6622SOL    HW119892   0.846   8.322   9.336
 6622SOL    HW219893   0.872   8.282   9.180
 6623SOL     OW19894   0.685   8.460   8.113
 6623SOL    HW119895   0.754   8.444   8.183
 6623SOL    HW219896   0.612   8.517   8.151
 6624SOL     OW19897   0.686   8.609   9.251
 6624SOL    HW119898   0.746   8.688   9.265
 6624SOL    HW219899   0.600   8.640   9.210
 6625SOL     OW19900   0.335   8.883   8.509
 6625SOL    HW119901   0.257   8.852   8.456
 6625SOL    HW219902   0.393   8.941   8.452
 6626SOL     OW19903   1.460   8.953   8.787
 6626SOL    HW119904   1.484   9.047   8.813
 6626SOL    HW219905   1.444   8.899   8.869
 6627SOL     OW19906   0.438   7.840   8.947
 6627SOL    HW119907   0.520   7.784   8.956
 6627SOL    HW219908   0.357   7.782   8.951
 6628SOL     OW19909   1.603   7.895   8.185
 6628SOL    HW119910   1.529   7.941   8.135
 6628SOL    HW219911   1.654   7.963   8.238
 6629SOL     OW19912   0.231   9.161   7.931
 6629SOL    HW119913   0.265   9.238   7.985
 6629SOL    HW219914   0.275   9.161   7.841
 6630SOL     OW19915   1.127   8.789   9.138
 6630SOL    HW119916   1.174   8.789   9.226
 6630SOL    HW219917   1.079   8.702   9.127
 6631SOL     OW19918   0.230   8.882   7.986
 6631SOL    HW119919   0.204   8.978   7.986
 6631SOL    HW219920   0.159   8.828   8.031
 6632SOL     OW19921   0.240   8.539   8.334
 6632SOL    HW119922   0.254   8.455   8.386
 6632SOL    HW219923   0.185   8.603   8.389
 6633SOL     OW19924   0.620   9.234   8.887
 6633SOL    HW119925   0.528   9.217   8.922
 6633SOL    HW219926   0.648   9.326   8.913
 6634SOL     OW19927   0.606   8.412   7.571
 6634SOL    HW119928   0.613   8.496   7.517
 6634SOL    HW219929   0.652   8.425   7.659
 6635SOL     OW19930   1.594   7.562   8.928
 6635SOL    HW119931   1.576   7.629   8.856
 6635SOL    HW219932   1.591   7.608   9.017
 6636SOL     OW19933   0.122   8.091   8.011
 6636SOL    HW119934   0.077   8.003   8.028
 6636SOL    HW219935   0.121   8.145   8.095
 6637SOL     OW19936   1.842   9.215   7.807
 6637SOL    HW119937   1.896   9.186   7.887
 6637SOL    HW219938   1.872   9.305   7.778
 6638SOL     OW19939   0.027   9.044   7.565
 6638SOL    HW119940   0.008   8.948   7.586
 6638SOL    HW219941  -0.006   9.102   7.640
 6639SOL     OW19942   1.689   8.370   8.060
 6639SOL    HW119943   1.784   8.341   8.068
 6639SOL    HW219944   1.681   8.435   7.985
 6640SOL     OW19945   1.641   8.556   7.880
 6640SOL    HW119946   1.727   8.558   7.828
 6640SOL    HW219947   1.655   8.603   7.968
 6641SOL     OW19948   0.113   8.185   9.045
 6641SOL    HW119949   0.201   8.172   9.090
 6641SOL    HW219950   0.100   8.282   9.023
 6642SOL     OW19951   0.613   8.813   8.174
 6642SOL    HW119952   0.564   8.726   8.183
 6642SOL    HW219953   0.590   8.856   8.087
 6643SOL     OW19954   1.293   8.676   8.871
 6643SOL    HW119955   1.330   8.603   8.813
 6643SOL    HW219956   1.345   8.681   8.956
 6644SOL     OW19957   0.809   7.452   7.950
 6644SOL    HW119958   0.849   7.543   7.941
 6644SOL    HW219959   0.709   7.460   7.956
 6645SOL     OW19960   0.197   8.424   8.712
 6645SOL    HW119961   0.286   8.379   8.698
 6645SOL    HW219962   0.124   8.359   8.693
 6646SOL     OW19963   1.525   8.447   7.638
 6646SOL    HW119964   1.462   8.371   7.651
 6646SOL    HW219965   1.573   8.465   7.724
 6647SOL     OW19966   1.187   9.240   9.064
 6647SOL    HW119967   1.211   9.300   8.988
 6647SOL    HW219968   1.194   9.145   9.034
 6648SOL     OW19969   0.317   7.699   9.249
 6648SOL    HW119970   0.388   7.770   9.255
 6648SOL    HW219971   0.229   7.738   9.277
 6649SOL     OW19972   1.466   8.865   8.401
 6649SOL    HW119973   1.407   8.871   8.481
 6649SOL    HW219974   1.451   8.777   8.355
 6650SOL     OW19975   1.667   9.162   8.020
 6650SOL    HW119976   1.626   9.139   7.932
 6650SOL    HW219977   1.649   9.088   8.085
 6651SOL     OW19978   0.598   8.177   7.718
 6651SOL    HW119979   0.622   8.246   7.650
 6651SOL    HW219980   0.520   8.210   7.772
 6652SOL     OW19981   1.281   7.793   8.392
 6652SOL    HW119982   1.195   7.743   8.379
 6652SOL    HW219983   1.343   7.739   8.448
 6653SOL     OW19984   1.576   9.110   7.755
 6653SOL    HW119985   1.665   9.156   7.758
 6653SOL    HW219986   1.555   9.086   7.660
 6654SOL     OW19987   0.807   8.053   8.913
 6654SOL    HW119988   0.760   8.050   9.002
 6654SOL    HW219989   0.756   7.998   8.847
 6655SOL     OW19990   1.394   7.917   9.122
 6655SOL    HW119991   1.374   7.960   9.210
 6655SOL    HW219992   1.472   7.855   9.131
 6656SOL     OW19993   0.973   8.338   9.020
 6656SOL    HW119994   1.019   8.254   8.991
 6656SOL    HW219995   0.917   8.372   8.945
 6657SOL     OW19996   0.991   7.858   8.690
 6657SOL    HW119997   0.914   7.892   8.744
 6657SOL    HW219998   0.957   7.807   8.611
 6658SOL     OW19999   1.041   8.149   7.877
 6658SOL    HW120000   1.067   8.145   7.973
 6658SOL    HW220001   0.956   8.098   7.863
 6659SOL     OW20002   0.076   8.259   8.237
 6659SOL    HW120003   0.175   8.247   8.246
 6659SOL    HW220004   0.052   8.354   8.258
 6660SOL     OW20005   0.130   9.269   9.019
 6660SOL    HW120006   0.120   9.254   9.118
 6660SOL    HW220007   0.044   9.305   8.983
 6661SOL     OW20008   0.865   7.796   7.643
 6661SOL    HW120009   0.924   7.859   7.594
 6661SOL    HW220010   0.884   7.702   7.614
 6662SOL     OW20011   1.719   8.033   9.279
 6662SOL    HW120012   1.693   8.122   9.243
 6662SOL    HW220013   1.717   7.965   9.206
 6663SOL     OW20014   1.362   8.592   7.993
 6663SOL    HW120015   1.445   8.563   7.945
 6663SOL    HW220016   1.313   8.659   7.937
 6664SOL     OW20017   0.550   7.644   8.333
 6664SOL    HW120018   0.545   7.639   8.433
 6664SOL    HW220019   0.552   7.740   8.304
 6665SOL     OW20020   1.008   8.904   7.925
 6665SOL    HW120021   0.962   8.976   7.873
 6665SOL    HW220022   1.004   8.924   8.023
 6666SOL     OW20023   0.351   9.249   8.301
 6666SOL    HW120024   0.401   9.163   8.307
 6666SOL    HW220025   0.416   9.326   8.298
 6667SOL     OW20026   1.795   8.514   8.321
 6667SOL    HW120027   1.733   8.499   8.245
 6667SOL    HW220028   1.743   8.525   8.406
 6668SOL     OW20029   1.227   8.998   8.954
 6668SOL    HW120030   1.233   8.921   9.018
 6668SOL    HW220031   1.175   8.972   8.874
 6669SOL     OW20032   0.321   8.391   7.690
 6669SOL    HW120033   0.403   8.430   7.648
 6669SOL    HW220034   0.294   8.309   7.641
 6670SOL     OW20035   1.458   8.183   8.176
 6670SOL    HW120036   1.453   8.118   8.251
 6670SOL    HW220037   1.538   8.242   8.189
 6671SOL     OW20038   0.461   8.714   9.175
 6671SOL    HW120039   0.411   8.715   9.089
 6671SOL    HW220040   0.398   8.696   9.251
 6672SOL     OW20041   0.202   7.733   8.946
 6672SOL    HW120042   0.122   7.793   8.933
 6672SOL    HW220043   0.192   7.684   9.032
 6673SOL     OW20044   1.632   8.825   7.529
 6673SOL    HW120045   1.600   8.919   7.519
 6673SOL    HW220046   1.556   8.762   7.517
 6674SOL     OW20047   0.464   9.191   7.771
 6674SOL    HW120048   0.497   9.230   7.857
 6674SOL    HW220049   0.540   9.184   7.706
 6675SOL     OW20050   1.400   7.555   7.874
 6675SOL    HW120051   1.376   7.518   7.784
 6675SOL    HW220052   1.499   7.571   7.878
 6676SOL     OW20053   0.249   9.233   8.689
 6676SOL    HW120054   0.306   9.168   8.739
 6676SOL    HW220055   0.233   9.200   8.596
 6677SOL     OW20056   0.940   9.146   8.352
 6677SOL    HW120057   1.020   9.089   8.373
 6677SOL    HW220058   0.891   9.106   8.275
 6678SOL     OW20059   0.382   8.148   7.928
 6678SOL    HW120060   0.427   8.058   7.925
 6678SOL    HW220061   0.288   8.137   7.961
 6679SOL     OW20062   1.547   7.670   9.177
 6679SOL    HW120063   1.542   7.707   9.269
 6679SOL    HW220064   1.475   7.601   9.165
 6680SOL     OW20065   0.614   7.570   7.565
 6680SOL    HW120066   0.712   7.548   7.572
 6680SOL    HW220067   0.583   7.553   7.472
 6681SOL     OW20068   0.781   7.712   9.197
 6681SOL    HW120069   0.848   7.651   9.240
 6681SOL    HW220070   0.708   7.731   9.262
 6682SOL     OW20071   0.888   8.962   8.643
 6682SOL    HW120072   0.865   8.937   8.549
 6682SOL    HW220073   0.949   8.893   8.682
 6683SOL     OW20074   1.351   8.038   8.881
 6683SOL    HW120075   1.379   7.995   8.966
 6683SOL    HW220076   1.376   8.134   8.882
 6684SOL     OW20077   0.803   8.850   8.372
 6684SOL    HW120078   0.893   8.864   8.330
 6684SOL    HW220079   0.732   8.852   8.301
 6685SOL     OW20080   0.922   7.951   8.347
 6685SOL    HW120081   0.897   7.942   8.251
 6685SOL    HW220082   0.970   7.869   8.378
 6686SOL     OW20083   0.539   7.512   7.960
 6686SOL    HW120084   0.458   7.513   8.018
 6686SOL    HW220085   0.542   7.595   7.905
 6687SOL     OW20086   1.434   8.636   7.489
 6687SOL    HW120087   1.466   8.560   7.546
 6687SOL    HW220088   1.342   8.663   7.519
 6688SOL     OW20089   0.297   7.483   7.619
 6688SOL    HW120090   0.346   7.567   7.598
 6688SOL    HW220091   0.359   7.418   7.664
 6689SOL     OW20092   0.935   7.684   7.928
 6689SOL    HW120093   0.887   7.725   7.850
 6689SOL    HW220094   1.034   7.682   7.909
 6690SOL     OW20095   1.076   8.131   8.912
 6690SOL    HW120096   0.996   8.070   8.915
 6690SOL    HW220097   1.157   8.078   8.888
 6691SOL     OW20098   1.227   9.018   8.241
 6691SOL    HW120099   1.248   9.092   8.176
 6691SOL    HW220100   1.295   9.018   8.314
 6692SOL     OW20101   0.459   8.600   8.189
 6692SOL    HW120102   0.388   8.573   8.254
 6692SOL    HW220103   0.433   8.572   8.096
 6693SOL     OW20104   1.271   9.245   8.039
 6693SOL    HW120105   1.315   9.309   7.975
 6693SOL    HW220106   1.221   9.297   8.109
 6694SOL     OW20107   1.032   7.997   7.464
 6694SOL    HW120108   0.991   8.079   7.425
 6694SOL    HW220109   1.096   8.023   7.537
 6695SOL     OW20110   0.078   8.004   8.834
 6695SOL    HW120111   0.170   8.003   8.793
 6695SOL    HW220112   0.072   8.078   8.901
 6696SOL     OW20113   0.561   7.670   8.595
 6696SOL    HW120114   0.599   7.586   8.632
 6696SOL    HW220115   0.473   7.689   8.639
 6697SOL     OW20116   0.866   7.902   8.090
 6697SOL    HW120117   0.834   7.974   8.028
 6697SOL    HW220118   0.890   7.821   8.037
 6698SOL     OW20119   1.017   7.487   8.201
 6698SOL    HW120120   0.945   7.492   8.132
 6698SOL    HW220121   0.993   7.418   8.270
 6699SOL     OW20122   1.429   8.621   8.315
 6699SOL    HW120123   1.374   8.537   8.308
 6699SOL    HW220124   1.455   8.650   8.223
 6700SOL     OW20125   1.466   8.038   8.440
 6700SOL    HW120126   1.436   7.943   8.447
 6700SOL    HW220127   1.539   8.054   8.506
 6701SOL     OW20128   1.857   8.281   7.825
 6701SOL    HW120129   1.899   8.217   7.889
 6701SOL    HW220130   1.819   8.230   7.747
 6702SOL     OW20131   0.488   8.833   7.622
 6702SOL    HW120132   0.401   8.818   7.669
 6702SOL    HW220133   0.471   8.859   7.527
 6703SOL     OW20134   1.664   8.728   8.105
 6703SOL    HW120135   1.763   8.736   8.119
 6703SOL    HW220136   1.619   8.812   8.136
 6704SOL     OW20137   1.390   8.023   7.526
 6704SOL    HW120138   1.336   8.002   7.607
 6704SOL    HW220139   1.481   7.982   7.535
 6705SOL     OW20140   0.527   7.704   7.776
 6705SOL    HW120141   0.554   7.645   7.701
 6705SOL    HW220142   0.527   7.799   7.745
 6706SOL     OW20143   1.754   8.671   9.036
 6706SOL    HW120144   1.845   8.632   9.023
 6706SOL    HW220145   1.762   8.767   9.060
 6707SOL     OW20146   1.064   8.795   8.788
 6707SOL    HW120147   0.984   8.772   8.843
 6707SOL    HW220148   1.147   8.769   8.837
 6708SOL     OW20149   1.592   9.077   9.073
 6708SOL    HW120150   1.619   9.111   8.983
 6708SOL    HW220151   1.671   9.039   9.119
 6709SOL     OW20152   1.111   8.643   8.548
 6709SOL    HW120153   1.071   8.687   8.629
 6709SOL    HW220154   1.070   8.680   8.465
 6710SOL     OW20155   1.638   8.547   8.527
 6710SOL    HW120156   1.643   8.628   8.586
 6710SOL    HW220157   1.552   8.549   8.476
 6711SOL     OW20158   0.915   7.537   8.850
 6711SOL    HW120159   0.940   7.517   8.755
 6711SOL    HW220160   0.987   7.593   8.892
 6712SOL     OW20161   0.980   8.564   9.167
 6712SOL    HW120162   0.881   8.570   9.177
 6712SOL    HW220163   1.003   8.484   9.111
 6713SOL     OW20164   0.705   8.498   7.816
 6713SOL    HW120165   0.691   8.505   7.915
 6713SOL    HW220166   0.789   8.447   7.798
 6714SOL     OW20167   0.410   8.261   8.699
 6714SOL    HW120168   0.496   8.273   8.749
 6714SOL    HW220169   0.368   8.174   8.726
 6715SOL     OW20170   1.274   7.834   8.710
 6715SOL    HW120171   1.295   7.908   8.774
 6715SOL    HW220172   1.185   7.851   8.667
 6716SOL     OW20173   0.064   9.012   8.779
 6716SOL    HW120174   0.018   9.094   8.745
 6716SOL    HW220175   0.162   9.031   8.788
 6717SOL     OW20176   0.367   8.548   7.949
 6717SOL    HW120177   0.360   8.631   7.893
 6717SOL    HW220178   0.371   8.468   7.889
 6718SOL     OW20179   0.566   7.985   8.313
 6718SOL    HW120180   0.578   8.051   8.239
 6718SOL    HW220181   0.612   8.019   8.396
 6719SOL     OW20182   1.252   8.796   7.836
 6719SOL    HW120183   1.302   8.873   7.876
 6719SOL    HW220184   1.157   8.798   7.868
 6720SOL     OW20185   1.272   8.893   8.590
 6720SOL    HW120186   1.319   8.906   8.677
 6720SOL    HW220187   1.206   8.819   8.599
 6721SOL     OW20188   1.582   8.087   7.920
 6721SOL    HW120189   1.551   8.148   7.993
 6721SOL    HW220190   1.632   8.139   7.851
 6722SOL     OW20191   0.354   8.958   8.777
 6722SOL    HW120192   0.333   8.914   8.690
 6722SOL    HW220193   0.451   8.984   8.780
 6723SOL     OW20194   0.402   8.199   9.046
 6723SOL    HW120195   0.470   8.254   8.999
 6723SOL    HW220196   0.442   8.111   9.073
 6724SOL     OW20197   1.587   8.227   9.118
 6724SOL    HW120198   1.495   8.265   9.113
 6724SOL    HW220199   1.647   8.274   9.053
 6725SOL     OW20200   1.013   7.553   9.218
 6725SOL    HW120201   1.019   7.638   9.166
 6725SOL    HW220202   1.045   7.477   9.161
 6726SOL     OW20203   0.504   7.498   9.188
 6726SOL    HW120204   0.462   7.441   9.118
 6726SOL    HW220205   0.438   7.567   9.220
 6727SOL     OW20206   0.573   8.318   8.477
 6727SOL    HW120207   0.617   8.407   8.468
 6727SOL    HW220208   0.510   8.318   8.554
 6728SOL     OW20209   1.360   8.310   8.493
 6728SOL    HW120210   1.285   8.310   8.427
 6728SOL    HW220211   1.397   8.218   8.502
 6729SOL     OW20212   1.209   7.973   7.723
 6729SOL    HW120213   1.222   7.889   7.777
 6729SOL    HW220214   1.180   8.047   7.783
 6730SOL     OW20215   0.307   7.661   8.679
 6730SOL    HW120216   0.284   7.698   8.769
 6730SOL    HW220217   0.277   7.566   8.673
 6731SOL     OW20218   0.037   8.758   8.730
 6731SOL    HW120219   0.090   8.709   8.798
 6731SOL    HW220220   0.059   8.856   8.735
 6732SOL     OW20221   0.732   8.082   8.512
 6732SOL    HW120222   0.791   8.056   8.436
 6732SOL    HW220223   0.704   8.178   8.501
 6733SOL     OW20224   1.728   8.383   9.302
 6733SOL    HW120225   1.682   8.376   9.213
 6733SOL    HW220226   1.666   8.427   9.368
 6734SOL     OW20227   0.307   7.511   8.066
 6734SOL    HW120228   0.296   7.605   8.099
 6734SOL    HW220229   0.302   7.448   8.143
 6735SOL     OW20230   1.622   7.815   7.822
 6735SOL    HW120231   1.624   7.739   7.886
 6735SOL    HW220232   1.574   7.892   7.862
 6736SOL     OW20233   1.023   8.214   8.414
 6736SOL    HW120234   1.038   8.235   8.510
 6736SOL    HW220235   0.993   8.119   8.405
 6737SOL     OW20236   0.980   9.021   9.148
 6737SOL    HW120237   0.960   9.065   9.060
 6737SOL    HW220238   1.019   8.930   9.132
 6738SOL     OW20239   1.859   8.966   9.053
 6738SOL    HW120240   1.873   8.993   8.958
 6738SOL    HW220241   1.942   8.988   9.106
 6739SOL     OW20242   0.350   8.346   9.252
 6739SOL    HW120243   0.426   8.390   9.300
 6739SOL    HW220244   0.385   8.299   9.170
 6740SOL     OW20245   1.540   7.722   7.573
 6740SOL    HW120246   1.479   7.647   7.596
 6740SOL    HW220247   1.562   7.774   7.656
 6741SOL     OW20248   1.303   8.286   7.490
 6741SOL    HW120249   1.337   8.193   7.505
 6741SOL    HW220250   1.321   8.313   7.395
 6742SOL     OW20251   1.068   8.781   8.297
 6742SOL    HW120252   1.075   8.697   8.242
 6742SOL    HW220253   1.130   8.850   8.261
 6743SOL     OW20254   0.319   8.258   8.397
 6743SOL    HW120255   0.412   8.294   8.402
 6743SOL    HW220256   0.313   8.173   8.449
 6744SOL     OW20257   0.339   7.957   8.454
 6744SOL    HW120258   0.287   7.874   8.437
 6744SOL    HW220259   0.416   7.962   8.390
 6745SOL     OW20260   1.138   7.828   9.126
 6745SOL    HW120261   1.093   7.891   9.190
 6745SOL    HW220262   1.231   7.859   9.109
 6746SOL     OW20263   1.160   7.655   8.925
 6746SOL    HW120264   1.160   7.719   9.002
 6746SOL    HW220265   1.188   7.703   8.842
 6747SOL     OW20266   0.008   8.774   7.648
 6747SOL    HW120267  -0.085   8.795   7.617
 6747SOL    HW220268   0.018   8.675   7.661
 6748SOL     OW20269   0.088   9.249   8.375
 6748SOL    HW120270   0.046   9.163   8.348
 6748SOL    HW220271   0.182   9.252   8.341
 6749SOL     OW20272   0.504   9.016   8.358
 6749SOL    HW120273   0.570   9.090   8.367
 6749SOL    HW220274   0.548   8.937   8.316
 6750SOL     OW20275   1.002   8.244   8.686
 6750SOL    HW120276   1.043   8.212   8.772
 6750SOL    HW220277   0.906   8.217   8.683
 6751SOL     OW20278   0.040   7.992   8.562
 6751SOL    HW120279   0.125   7.959   8.521
 6751SOL    HW220280   0.053   8.007   8.660
 6752SOL     OW20281   0.189   7.968   9.170
 6752SOL    HW120282   0.248   7.928   9.100
 6752SOL    HW220283   0.131   8.039   9.129
 6753SOL     OW20284   1.369   8.398   9.108
 6753SOL    HW120285   1.408   8.487   9.128
 6753SOL    HW220286   1.379   8.378   9.011
 6754SOL     OW20287   0.815   8.020   7.773
 6754SOL    HW120288   0.822   7.931   7.727
 6754SOL    HW220289   0.721   8.054   7.765
 6755SOL     OW20290   1.657   8.052   8.654
 6755SOL    HW120291   1.619   7.983   8.716
 6755SOL    HW220292   1.739   8.016   8.610
 6756SOL     OW20293   0.252   9.012   9.192
 6756SOL    HW120294   0.222   9.069   9.268
 6756SOL    HW220295   0.245   8.915   9.218
 6757SOL     OW20296   0.671   7.912   8.717
 6757SOL    HW120297   0.637   7.823   8.687
 6757SOL    HW220298   0.697   7.966   8.637
 6758SOL     OW20299   0.930   9.126   8.913
 6758SOL    HW120300   0.906   9.108   8.818
 6758SOL    HW220301   0.960   9.220   8.923
 6759SOL     OW20302   0.473   7.948   7.639
 6759SOL    HW120303   0.534   8.028   7.643
 6759SOL    HW220304   0.378   7.979   7.646
 6760SOL     OW20305   0.159   8.585   8.914
 6760SOL    HW120306   0.181   8.524   8.990
 6760SOL    HW220307   0.169   8.536   8.828
 6761SOL     OW20308   1.347   8.507   8.682
 6761SOL    HW120309   1.371   8.444   8.608
 6761SOL    HW220310   1.257   8.547   8.664
 6762SOL     OW20311   1.302   8.303   7.757
 6762SOL    HW120312   1.216   8.272   7.799
 6762SOL    HW220313   1.298   8.289   7.658
 6763SOL     OW20314   1.759   9.195   8.602
 6763SOL    HW120315   1.820   9.225   8.529
 6763SOL    HW220316   1.721   9.106   8.580
 6764SOL     OW20317   1.252   9.179   8.576
 6764SOL    HW120318   1.336   9.184   8.522
 6764SOL    HW220319   1.229   9.083   8.594
 6765SOL     OW20320   0.083   8.706   8.470
 6765SOL    HW120321   0.078   8.705   8.570
 6765SOL    HW220322   0.000   8.665   8.432
 6766SOL     OW20323   0.688   9.110   9.164
 6766SOL    HW120324   0.632   9.191   9.173
 6766SOL    HW220325   0.740   9.114   9.078
 6767SOL     OW20326   1.726   7.583   7.971
 6767SOL    HW120327   1.799   7.566   7.904
 6767SOL    HW220328   1.695   7.496   8.009
 6768SOL     OW20329   1.388   9.021   7.925
 6768SOL    HW120330   1.455   9.033   7.851
 6768SOL    HW220331   1.348   9.110   7.948
 6769SOL     OW20332   0.130   9.242   9.299
 6769SOL    HW120333   0.089   9.168   9.352
 6769SOL    HW220334   0.194   9.293   9.357
 6770SOL     OW20335   1.280   8.375   8.120
 6770SOL    HW120336   1.340   8.294   8.122
 6770SOL    HW220337   1.320   8.444   8.060
 6771SOL     OW20338   0.830   8.721   8.870
 6771SOL    HW120339   0.825   8.754   8.965
 6771SOL    HW220340   0.744   8.740   8.824
 6772SOL     OW20341   0.672   9.064   7.602
 6772SOL    HW120342   0.681   9.074   7.503
 6772SOL    HW220343   0.632   8.975   7.623
 6773SOL     OW20344   1.650   9.168   8.842
 6773SOL    HW120345   1.703   9.178   8.758
 6773SOL    HW220346   1.623   9.258   8.876
 6774SOL     OW20347   1.841   7.623   8.411
 6774SOL    HW120348   1.880   7.538   8.375
 6774SOL    HW220349   1.743   7.625   8.392
 6775SOL     OW20350   0.263   7.774   8.168
 6775SOL    HW120351   0.184   7.825   8.134
 6775SOL    HW220352   0.254   7.759   8.266
 6776SOL     OW20353   1.194   9.060   7.479
 6776SOL    HW120354   1.200   8.967   7.516
 6776SOL    HW220355   1.135   9.060   7.399
 6777SOL     OW20356   0.822   8.450   8.820
 6777SOL    HW120357   0.862   8.449   8.728
 6777SOL    HW220358   0.832   8.542   8.860
 6778SOL     OW20359   0.916   8.358   7.739
 6778SOL    HW120360   0.979   8.396   7.671
 6778SOL    HW220361   0.956   8.275   7.778
 6779SOL     OW20362   1.504   9.055   7.492
 6779SOL    HW120363   1.412   9.092   7.499
 6779SOL    HW220364   1.542   9.075   7.402
 6780SOL     OW20365   0.372   8.736   8.938
 6780SOL    HW120366   0.359   8.829   8.904
 6780SOL    HW220367   0.288   8.684   8.925
 6781SOL     OW20368   1.614   8.740   8.737
 6781SOL    HW120369   1.674   8.743   8.817
 6781SOL    HW220370   1.539   8.804   8.750
 6782SOL     OW20371   1.039   8.546   8.144
 6782SOL    HW120372   0.969   8.499   8.198
 6782SOL    HW220373   1.098   8.478   8.101
 6783SOL     OW20374   1.014   7.684   8.419
 6783SOL    HW120375   1.006   7.648   8.326
 6783SOL    HW220376   1.012   7.608   8.484
 6784SOL     OW20377   0.590   8.935   7.939
 6784SOL    HW120378   0.632   8.877   7.869
 6784SOL    HW220379   0.546   9.014   7.895
 6785SOL     OW20380   1.709   7.833   8.829
 6785SOL    HW120381   1.782   7.902   8.833
 6785SOL    HW220382   1.737   7.758   8.770
 6786SOL     OW20383   0.255   8.796   7.738
 6786SOL    HW120384   0.159   8.797   7.711
 6786SOL    HW220385   0.267   8.849   7.822
 6787SOL     OW20386   0.105   8.461   9.174
 6787SOL    HW120387   0.028   8.428   9.228
 6787SOL    HW220388   0.190   8.431   9.216
 6788SOL     OW20389   0.672   7.651   8.937
 6788SOL    HW120390   0.762   7.635   8.897
 6788SOL    HW220391   0.680   7.656   9.036
 6789SOL     OW20392   0.075   7.793   7.481
 6789SOL    HW120393  -0.017   7.765   7.452
 6789SOL    HW220394   0.106   7.870   7.425
 6790SOL     OW20395   1.440   8.304   8.846
 6790SOL    HW120396   1.383   8.356   8.783
 6790SOL    HW220397   1.536   8.316   8.822
 6791SOL     OW20398   0.072   7.614   7.766
 6791SOL    HW120399   0.055   7.697   7.712
 6791SOL    HW220400   0.162   7.577   7.744
 6792SOL     OW20401   1.183   8.783   7.567
 6792SOL    HW120402   1.084   8.772   7.569
 6792SOL    HW220403   1.217   8.798   7.660
 6793SOL     OW20404   0.613   8.290   8.879
 6793SOL    HW120405   0.669   8.371   8.862
 6793SOL    HW220406   0.672   8.210   8.882
 6794SOL     OW20407   1.493   9.215   8.407
 6794SOL    HW120408   1.526   9.279   8.338
 6794SOL    HW220409   1.559   9.209   8.482
 6795SOL     OW20410   0.716   8.013   9.156
 6795SOL    HW120411   0.735   8.078   9.230
 6795SOL    HW220412   0.776   7.933   9.165
 6796SOL     OW20413   1.450   8.668   9.081
 6796SOL    HW120414   1.441   8.658   9.180
 6796SOL    HW220415   1.546   8.661   9.055
 6797SOL     OW20416   0.390   9.189   9.008
 6797SOL    HW120417   0.299   9.230   9.006
 6797SOL    HW220418   0.383   9.095   9.040
 6798SOL     OW20419   1.674   8.331   8.702
 6798SOL    HW120420   1.647   8.242   8.665
 6798SOL    HW220421   1.675   8.399   8.629
 6799SOL     OW20422   1.225   7.773   7.897
 6799SOL    HW120423   1.290   7.699   7.886
 6799SOL    HW220424   1.245   7.823   7.981
 6800SOL     OW20425   0.594   8.193   8.100
 6800SOL    HW120426   0.644   8.278   8.081
 6800SOL    HW220427   0.506   8.195   8.052
 6801SOL     OW20428   1.777   7.790   9.090
 6801SOL    HW120429   1.760   7.821   8.996
 6801SOL    HW220430   1.693   7.753   9.128
 6802SOL     OW20431   1.730   8.382   8.965
 6802SOL    HW120432   1.768   8.473   8.980
 6802SOL    HW220433   1.722   8.365   8.866
 6803SOL     OW20434   0.859   8.822   7.464
 6803SOL    HW120435   0.813   8.837   7.552
 6803SOL    HW220436   0.903   8.907   7.434
 6804SOL     OW20437   0.661   9.238   8.401
 6804SOL    HW120438   0.615   9.326   8.388
 6804SOL    HW220439   0.760   9.250   8.394
 6805SOL     OW20440   1.083   8.432   7.535
 6805SOL    HW120441   1.060   8.485   7.453
 6805SOL    HW220442   1.164   8.376   7.516
 6806SOL     OW20443   1.861   9.017   8.299
 6806SOL    HW120444   1.790   9.005   8.229
 6806SOL    HW220445   1.862   8.938   8.359
 6807SOL     OW20446   0.221   8.762   9.292
 6807SOL    HW120447   0.156   8.689   9.271
 6807SOL    HW220448   0.225   8.776   9.390
 6808SOL     OW20449   0.079   8.688   8.101
 6808SOL    HW120450   0.078   8.641   8.189
 6808SOL    HW220451   0.161   8.660   8.050
 6809SOL     OW20452   0.672   8.839   9.072
 6809SOL    HW120453   0.594   8.789   9.110
 6809SOL    HW220454   0.669   8.934   9.103
 6810SOL     OW20455   1.824   7.640   8.675
 6810SOL    HW120456   1.820   7.550   8.719
 6810SOL    HW220457   1.827   7.629   8.576
 6811SOL     OW20458   0.428   7.872   7.968
 6811SOL    HW120459   0.458   7.800   7.906
 6811SOL    HW220460   0.389   7.832   8.051
 6812SOL     OW20461   1.705   8.935   8.552
 6812SOL    HW120462   1.612   8.910   8.525
 6812SOL    HW220463   1.731   8.885   8.634
 6813SOL     OW20464   0.317   7.995   8.728
 6813SOL    HW120465   0.355   7.936   8.800
 6813SOL    HW220466   0.357   7.969   8.640
 6814SOL     OW20467   0.812   9.034   8.135
 6814SOL    HW120468   0.844   9.044   8.041
 6814SOL    HW220469   0.733   8.972   8.137
 6815SOL     OW20470   1.424   7.662   8.560
 6815SOL    HW120471   1.476   7.597   8.615
 6815SOL    HW220472   1.375   7.725   8.621
 6816SOL     OW20473   1.001   7.482   8.602
 6816SOL    HW120474   0.938   7.410   8.571
 6816SOL    HW220475   1.094   7.446   8.602
 6817SOL     OW20476   0.770   8.778   7.749
 6817SOL    HW120477   0.724   8.691   7.766
 6817SOL    HW220478   0.861   8.775   7.790
 6818SOL     OW20479   0.618   9.015   8.732
 6818SOL    HW120480   0.613   9.097   8.789
 6818SOL    HW220481   0.707   9.012   8.687
 6819SOL     OW20482   1.352   7.500   7.616
 6819SOL    HW120483   1.387   7.459   7.532
 6819SOL    HW220484   1.262   7.462   7.636
 6820SOL     OW20485   1.300   7.901   8.139
 6820SOL    HW120486   1.241   7.981   8.143
 6820SOL    HW220487   1.315   7.866   8.232
 6821SOL     OW20488   1.593   7.669   8.330
 6821SOL    HW120489   1.509   7.668   8.384
 6821SOL    HW220490   1.595   7.752   8.274
 6822SOL     OW20491   0.039   8.525   7.748
 6822SOL    HW120492   0.138   8.514   7.739
 6822SOL    HW220493  -0.001   8.439   7.780
 6823SOL     OW20494   0.875   9.094   7.785
 6823SOL    HW120495   0.798   9.059   7.731
 6823SOL    HW220496   0.843   9.165   7.847
 6824SOL     OW20497   0.230   8.076   9.423
 6824SOL    HW120498   0.137   8.074   9.460
 6824SOL    HW220499   0.231   8.037   9.331
 6825SOL     OW20500   0.225   7.723  10.306
 6825SOL    HW120501   0.260   7.706  10.398
 6825SOL    HW220502   0.137   7.678  10.294
 6826SOL     OW20503   0.019   7.816   9.957
 6826SOL    HW120504  -0.063   7.859   9.996
 6826SOL    HW220505  -0.009   7.743   9.894
 6827SOL     OW20506   0.569   8.723  10.475
 6827SOL    HW120507   0.476   8.716  10.438
 6827SOL    HW220508   0.580   8.812  10.519
 6828SOL     OW20509   1.555   8.959  10.013
 6828SOL    HW120510   1.498   8.943  10.094
 6828SOL    HW220511   1.496   8.969   9.933
 6829SOL     OW20512   1.135   8.151  10.027
 6829SOL    HW120513   1.192   8.229  10.002
 6829SOL    HW220514   1.075   8.177  10.103
 6830SOL     OW20515   1.755   8.055   9.541
 6830SOL    HW120516   1.743   8.042   9.442
 6830SOL    HW220517   1.725   7.974   9.590
 6831SOL     OW20518   0.768   8.592  10.333
 6831SOL    HW120519   0.690   8.609  10.393
 6831SOL    HW220520   0.802   8.679  10.297
 6832SOL     OW20521   0.850   8.246  11.133
 6832SOL    HW120522   0.846   8.322  11.198
 6832SOL    HW220523   0.872   8.282  11.042
 6833SOL     OW20524   0.685   8.460   9.975
 6833SOL    HW120525   0.754   8.444  10.045
 6833SOL    HW220526   0.612   8.517  10.013
 6834SOL     OW20527   0.686   8.609  11.113
 6834SOL    HW120528   0.746   8.688  11.127
 6834SOL    HW220529   0.600   8.640  11.072
 6835SOL     OW20530   0.335   8.883  10.371
 6835SOL    HW120531   0.257   8.852  10.318
 6835SOL    HW220532   0.393   8.941  10.314
 6836SOL     OW20533   1.460   8.953  10.649
 6836SOL    HW120534   1.484   9.047  10.675
 6836SOL    HW220535   1.444   8.899  10.731
 6837SOL     OW20536   0.438   7.840  10.809
 6837SOL    HW120537   0.520   7.784  10.818
 6837SOL    HW220538   0.357   7.782  10.813
 6838SOL     OW20539   1.603   7.895  10.047
 6838SOL    HW120540   1.529   7.941   9.997
 6838SOL    HW220541   1.654   7.963  10.100
 6839SOL     OW20542   0.231   9.161   9.793
 6839SOL    HW120543   0.265   9.238   9.847
 6839SOL    HW220544   0.275   9.161   9.703
 6840SOL     OW20545   1.127   8.789  11.000
 6840SOL    HW120546   1.174   8.789  11.088
 6840SOL    HW220547   1.079   8.702  10.989
 6841SOL     OW20548   0.230   8.882   9.848
 6841SOL    HW120549   0.204   8.978   9.848
 6841SOL    HW220550   0.159   8.828   9.893
 6842SOL     OW20551   0.240   8.539  10.196
 6842SOL    HW120552   0.254   8.455  10.248
 6842SOL    HW220553   0.185   8.603  10.251
 6843SOL     OW20554   0.620   9.234  10.749
 6843SOL    HW120555   0.528   9.217  10.784
 6843SOL    HW220556   0.648   9.326  10.775
 6844SOL     OW20557   0.606   8.412   9.433
 6844SOL    HW120558   0.613   8.496   9.379
 6844SOL    HW220559   0.652   8.425   9.521
 6845SOL     OW20560   1.594   7.562  10.790
 6845SOL    HW120561   1.576   7.629  10.718
 6845SOL    HW220562   1.591   7.608  10.879
 6846SOL     OW20563   0.122   8.091   9.873
 6846SOL    HW120564   0.077   8.003   9.890
 6846SOL    HW220565   0.121   8.145   9.957
 6847SOL     OW20566   1.842   9.215   9.669
 6847SOL    HW120567   1.896   9.186   9.749
 6847SOL    HW220568   1.872   9.305   9.640
 6848SOL     OW20569   0.027   9.044   9.427
 6848SOL    HW120570   0.008   8.948   9.448
 6848SOL    HW220571  -0.006   9.102   9.502
 6849SOL     OW20572   1.689   8.370   9.922
 6849SOL    HW120573   1.784   8.341   9.930
 6849SOL    HW220574   1.681   8.435   9.847
 6850SOL     OW20575   1.641   8.556   9.742
 6850SOL    HW120576   1.727   8.558   9.690
 6850SOL    HW220577   1.655   8.603   9.830
 6851SOL     OW20578   0.113   8.185  10.907
 6851SOL    HW120579   0.201   8.172  10.952
 6851SOL    HW220580   0.100   8.282  10.885
 6852SOL     OW20581   0.613   8.813  10.036
 6852SOL    HW120582   0.564   8.726  10.045
 6852SOL    HW220583   0.590   8.856   9.949
 6853SOL     OW20584   1.293   8.676  10.733
 6853SOL    HW120585   1.330   8.603  10.675
 6853SOL    HW220586   1.345   8.681  10.818
 6854SOL     OW20587   0.809   7.452   9.812
 6854SOL    HW120588   0.849   7.543   9.803
 6854SOL    HW220589   0.709   7.460   9.818
 6855SOL     OW20590   0.197   8.424  10.574
 6855SOL    HW120591   0.286   8.379  10.560
 6855SOL    HW220592   0.124   8.359  10.555
 6856SOL     OW20593   1.525   8.447   9.500
 6856SOL    HW120594   1.462   8.371   9.513
 6856SOL    HW220595   1.573   8.465   9.586
 6857SOL     OW20596   1.187   9.240  10.926
 6857SOL    HW120597   1.211   9.300  10.850
 6857SOL    HW220598   1.194   9.145  10.896
 6858SOL     OW20599   0.317   7.699  11.111
 6858SOL    HW120600   0.388   7.770  11.117
 6858SOL    HW220601   0.229   7.738  11.139
 6859SOL     OW20602   1.466   8.865  10.263
 6859SOL    HW120603   1.407   8.871  10.343
 6859SOL    HW220604   1.451   8.777  10.217
 6860SOL     OW20605   1.667   9.162   9.882
 6860SOL    HW120606   1.626   9.139   9.794
 6860SOL    HW220607   1.649   9.088   9.947
 6861SOL     OW20608   0.598   8.177   9.580
 6861SOL    HW120609   0.622   8.246   9.512
 6861SOL    HW220610   0.520   8.210   9.634
 6862SOL     OW20611   1.281   7.793  10.254
 6862SOL    HW120612   1.195   7.743  10.241
 6862SOL    HW220613   1.343   7.739  10.310
 6863SOL     OW20614   1.576   9.110   9.617
 6863SOL    HW120615   1.665   9.156   9.620
 6863SOL    HW220616   1.555   9.086   9.522
 6864SOL     OW20617   0.807   8.053  10.775
 6864SOL    HW120618   0.760   8.050  10.864
 6864SOL    HW220619   0.756   7.998  10.709
 6865SOL     OW20620   1.394   7.917  10.984
 6865SOL    HW120621   1.374   7.960  11.072
 6865SOL    HW220622   1.472   7.855  10.993
 6866SOL     OW20623   0.973   8.338  10.882
 6866SOL    HW120624   1.019   8.254  10.853
 6866SOL    HW220625   0.917   8.372  10.807
 6867SOL     OW20626   0.991   7.858  10.552
 6867SOL    HW120627   0.914   7.892  10.606
 6867SOL    HW220628   0.957   7.807  10.473
 6868SOL     OW20629   1.041   8.149   9.739
 6868SOL    HW120630   1.067   8.145   9.835
 6868SOL    HW220631   0.956   8.098   9.725
 6869SOL     OW20632   0.076   8.259  10.099
 6869SOL    HW120633   0.175   8.247  10.108
 6869SOL    HW220634   0.052   8.354  10.120
 6870SOL     OW20635   0.130   9.269  10.881
 6870SOL    HW120636   0.120   9.254  10.980
 6870SOL    HW220637   0.044   9.305  10.845
 6871SOL     OW20638   0.865   7.796   9.505
 6871SOL    HW120639   0.924   7.859   9.456
 6871SOL    HW220640   0.884   7.702   9.476
 6872SOL     OW20641   1.719   8.033  11.141
 6872SOL    HW120642   1.693   8.122  11.105
 6872SOL    HW220643   1.717   7.965  11.068
 6873SOL     OW20644   1.362   8.592   9.855
 6873SOL    HW120645   1.445   8.563   9.807
 6873SOL    HW220646   1.313   8.659   9.799
 6874SOL     OW20647   0.550   7.644  10.195
 6874SOL    HW120648   0.545   7.639  10.295
 6874SOL    HW220649   0.552   7.740  10.166
 6875SOL     OW20650   1.008   8.904   9.787
 6875SOL    HW120651   0.962   8.976   9.735
 6875SOL    HW220652   1.004   8.924   9.885
 6876SOL     OW20653   0.351   9.249  10.163
 6876SOL    HW120654   0.401   9.163  10.169
 6876SOL    HW220655   0.416   9.326  10.160
 6877SOL     OW20656   1.795   8.514  10.183
 6877SOL    HW120657   1.733   8.499  10.107
 6877SOL    HW220658   1.743   8.525  10.268
 6878SOL     OW20659   1.227   8.998  10.816
 6878SOL    HW120660   1.233   8.921  10.880
 6878SOL    HW220661   1.175   8.972  10.736
 6879SOL     OW20662   0.321   8.391   9.552
 6879SOL    HW120663   0.403   8.430   9.510
 6879SOL    HW220664   0.294   8.309   9.503
 6880SOL     OW20665   1.458   8.183  10.038
 6880SOL    HW120666   1.453   8.118  10.113
 6880SOL    HW220667   1.538   8.242  10.051
 6881SOL     OW20668   0.461   8.714  11.037
 6881SOL    HW120669   0.411   8.715  10.951
 6881SOL    HW220670   0.398   8.696  11.113
 6882SOL     OW20671   1.111   9.224   9.547
 6882SOL    HW120672   1.051   9.162   9.597
 6882SOL    HW220673   1.142   9.180   9.462
 6883SOL     OW20674   0.202   7.733  10.808
 6883SOL    HW120675   0.122   7.793  10.795
 6883SOL    HW220676   0.192   7.684  10.894
 6884SOL     OW20677   1.632   8.825   9.391
 6884SOL    HW120678   1.600   8.919   9.381
 6884SOL    HW220679   1.556   8.762   9.379
 6885SOL     OW20680   0.464   9.191   9.633
 6885SOL    HW120681   0.497   9.230   9.719
 6885SOL    HW220682   0.540   9.184   9.568
 6886SOL     OW20683   1.400   7.555   9.736
 6886SOL    HW120684   1.376   7.518   9.646
 6886SOL    HW220685   1.499   7.571   9.740
 6887SOL     OW20686   0.249   9.233  10.551
 6887SOL    HW120687   0.306   9.168  10.601
 6887SOL    HW220688   0.233   9.200  10.458
 6888SOL     OW20689   0.940   9.146  10.214
 6888SOL    HW120690   1.020   9.089  10.235
 6888SOL    HW220691   0.891   9.106  10.137
 6889SOL     OW20692   0.382   8.148   9.790
 6889SOL    HW120693   0.427   8.058   9.787
 6889SOL    HW220694   0.288   8.137   9.823
 6890SOL     OW20695   1.547   7.670  11.039
 6890SOL    HW120696   1.542   7.707  11.131
 6890SOL    HW220697   1.475   7.601  11.027
 6891SOL     OW20698   0.614   7.570   9.427
 6891SOL    HW120699   0.712   7.548   9.434
 6891SOL    HW220700   0.583   7.553   9.334
 6892SOL     OW20701   0.781   7.712  11.059
 6892SOL    HW120702   0.848   7.651  11.102
 6892SOL    HW220703   0.708   7.731  11.124
 6893SOL     OW20704   0.888   8.962  10.505
 6893SOL    HW120705   0.865   8.937  10.411
 6893SOL    HW220706   0.949   8.893  10.544
 6894SOL     OW20707   1.351   8.038  10.743
 6894SOL    HW120708   1.379   7.995  10.828
 6894SOL    HW220709   1.376   8.134  10.744
 6895SOL     OW20710   0.803   8.850  10.234
 6895SOL    HW120711   0.893   8.864  10.192
 6895SOL    HW220712   0.732   8.852  10.163
 6896SOL     OW20713   0.922   7.951  10.209
 6896SOL    HW120714   0.897   7.942  10.113
 6896SOL    HW220715   0.970   7.869  10.240
 6897SOL     OW20716   0.539   7.512   9.822
 6897SOL    HW120717   0.458   7.513   9.880
 6897SOL    HW220718   0.542   7.595   9.767
 6898SOL     OW20719   1.434   8.636   9.351
 6898SOL    HW120720   1.466   8.560   9.408
 6898SOL    HW220721   1.342   8.663   9.381
 6899SOL     OW20722   0.297   7.483   9.481
 6899SOL    HW120723   0.346   7.567   9.460
 6899SOL    HW220724   0.359   7.418   9.526
 6900SOL     OW20725   0.935   7.684   9.790
 6900SOL    HW120726   0.887   7.725   9.712
 6900SOL    HW220727   1.034   7.682   9.771
 6901SOL     OW20728   1.076   8.131  10.774
 6901SOL    HW120729   0.996   8.070  10.777
 6901SOL    HW220730   1.157   8.078  10.750
 6902SOL     OW20731   1.227   9.018  10.103
 6902SOL    HW120732   1.248   9.092  10.038
 6902SOL    HW220733   1.295   9.018  10.176
 6903SOL     OW20734   0.459   8.600  10.051
 6903SOL    HW120735   0.388   8.573  10.116
 6903SOL    HW220736   0.433   8.572   9.958
 6904SOL     OW20737   1.271   9.245   9.901
 6904SOL    HW120738   1.315   9.309   9.837
 6904SOL    HW220739   1.221   9.297   9.971
 6905SOL     OW20740   1.032   7.997   9.326
 6905SOL    HW120741   0.991   8.079   9.287
 6905SOL    HW220742   1.096   8.023   9.399
 6906SOL     OW20743   0.078   8.004  10.696
 6906SOL    HW120744   0.170   8.003  10.655
 6906SOL    HW220745   0.072   8.078  10.763
 6907SOL     OW20746   0.561   7.670  10.457
 6907SOL    HW120747   0.599   7.586  10.494
 6907SOL    HW220748   0.473   7.689  10.501
 6908SOL     OW20749   0.866   7.902   9.952
 6908SOL    HW120750   0.834   7.974   9.890
 6908SOL    HW220751   0.890   7.821   9.899
 6909SOL     OW20752   1.017   7.487  10.063
 6909SOL    HW120753   0.945   7.492   9.994
 6909SOL    HW220754   0.993   7.418  10.132
 6910SOL     OW20755   1.429   8.621  10.177
 6910SOL    HW120756   1.374   8.537  10.170
 6910SOL    HW220757   1.455   8.650  10.085
 6911SOL     OW20758   1.466   8.038  10.302
 6911SOL    HW120759   1.436   7.943  10.309
 6911SOL    HW220760   1.539   8.054  10.368
 6912SOL     OW20761   1.857   8.281   9.687
 6912SOL    HW120762   1.899   8.217   9.751
 6912SOL    HW220763   1.819   8.230   9.609
 6913SOL     OW20764   0.488   8.833   9.484
 6913SOL    HW120765   0.401   8.818   9.531
 6913SOL    HW220766   0.471   8.859   9.389
 6914SOL     OW20767   1.664   8.728   9.967
 6914SOL    HW120768   1.763   8.736   9.981
 6914SOL    HW220769   1.619   8.812   9.998
 6915SOL     OW20770   1.390   8.023   9.388
 6915SOL    HW120771   1.336   8.002   9.469
 6915SOL    HW220772   1.481   7.982   9.397
 6916SOL     OW20773   0.527   7.704   9.638
 6916SOL    HW120774   0.554   7.645   9.563
 6916SOL    HW220775   0.527   7.799   9.607
 6917SOL     OW20776   1.754   8.671  10.898
 6917SOL    HW120777   1.845   8.632  10.885
 6917SOL    HW220778   1.762   8.767  10.922
 6918SOL     OW20779   1.064   8.795  10.650
 6918SOL    HW120780   0.984   8.772  10.705
 6918SOL    HW220781   1.147   8.769  10.699
 6919SOL     OW20782   1.592   9.077  10.935
 6919SOL    HW120783   1.619   9.111  10.845
 6919SOL    HW220784   1.671   9.039  10.981
 6920SOL     OW20785   1.111   8.643  10.410
 6920SOL    HW120786   1.071   8.687  10.491
 6920SOL    HW220787   1.070   8.680  10.327
 6921SOL     OW20788   1.638   8.547  10.389
 6921SOL    HW120789   1.643   8.628  10.448
 6921SOL    HW220790   1.552   8.549  10.338
 6922SOL     OW20791   0.915   7.537  10.712
 6922SOL    HW120792   0.940   7.517  10.617
 6922SOL    HW220793   0.987   7.593  10.754
 6923SOL     OW20794   0.980   8.564  11.029
 6923SOL    HW120795   0.881   8.570  11.039
 6923SOL    HW220796   1.003   8.484  10.973
 6924SOL     OW20797   0.705   8.498   9.678
 6924SOL    HW120798   0.691   8.505   9.777
 6924SOL    HW220799   0.789   8.447   9.660
 6925SOL     OW20800   0.410   8.261  10.561
 6925SOL    HW120801   0.496   8.273  10.611
 6925SOL    HW220802   0.368   8.174  10.588
 6926SOL     OW20803   1.274   7.834  10.572
 6926SOL    HW120804   1.295   7.908  10.636
 6926SOL    HW220805   1.185   7.851  10.529
 6927SOL     OW20806   0.064   9.012  10.641
 6927SOL    HW120807   0.018   9.094  10.607
 6927SOL    HW220808   0.162   9.031  10.650
 6928SOL     OW20809   0.367   8.548   9.811
 6928SOL    HW120810   0.360   8.631   9.755
 6928SOL    HW220811   0.371   8.468   9.751
 6929SOL     OW20812   0.566   7.985  10.175
 6929SOL    HW120813   0.578   8.051  10.101
 6929SOL    HW220814   0.612   8.019  10.258
 6930SOL     OW20815   1.252   8.796   9.698
 6930SOL    HW120816   1.302   8.873   9.738
 6930SOL    HW220817   1.157   8.798   9.730
 6931SOL     OW20818   1.272   8.893  10.452
 6931SOL    HW120819   1.319   8.906  10.539
 6931SOL    HW220820   1.206   8.819  10.461
 6932SOL     OW20821   1.582   8.087   9.782
 6932SOL    HW120822   1.551   8.148   9.855
 6932SOL    HW220823   1.632   8.139   9.713
 6933SOL     OW20824   0.354   8.958  10.639
 6933SOL    HW120825   0.333   8.914  10.552
 6933SOL    HW220826   0.451   8.984  10.642
 6934SOL     OW20827   0.402   8.199  10.908
 6934SOL    HW120828   0.470   8.254  10.861
 6934SOL    HW220829   0.442   8.111  10.935
 6935SOL     OW20830   1.587   8.227  10.980
 6935SOL    HW120831   1.495   8.265  10.975
 6935SOL    HW220832   1.647   8.274  10.915
 6936SOL     OW20833   1.013   7.553  11.080
 6936SOL    HW120834   1.019   7.638  11.028
 6936SOL    HW220835   1.045   7.477  11.023
 6937SOL     OW20836   0.504   7.498  11.050
 6937SOL    HW120837   0.462   7.441  10.980
 6937SOL    HW220838   0.438   7.567  11.082
 6938SOL     OW20839   0.573   8.318  10.339
 6938SOL    HW120840   0.617   8.407  10.330
 6938SOL    HW220841   0.510   8.318  10.416
 6939SOL     OW20842   1.360   8.310  10.355
 6939SOL    HW120843   1.285   8.310  10.289
 6939SOL    HW220844   1.397   8.218  10.364
 6940SOL     OW20845   1.209   7.973   9.585
 6940SOL    HW120846   1.222   7.889   9.639
 6940SOL    HW220847   1.180   8.047   9.645
 6941SOL     OW20848   0.307   7.661  10.541
 6941SOL    HW120849   0.284   7.698  10.631
 6941SOL    HW220850   0.277   7.566  10.535
 6942SOL     OW20851   0.037   8.758  10.592
 6942SOL    HW120852   0.090   8.709  10.660
 6942SOL    HW220853   0.059   8.856  10.597
 6943SOL     OW20854   0.732   8.082  10.374
 6943SOL    HW120855   0.791   8.056  10.298
 6943SOL    HW220856   0.704   8.178  10.363
 6944SOL     OW20857   1.728   8.383  11.164
 6944SOL    HW120858   1.682   8.376  11.075
 6944SOL    HW220859   1.666   8.427  11.230
 6945SOL     OW20860   0.307   7.511   9.928
 6945SOL    HW120861   0.296   7.605   9.961
 6945SOL    HW220862   0.302   7.448  10.005
 6946SOL     OW20863   1.622   7.815   9.684
 6946SOL    HW120864   1.624   7.739   9.748
 6946SOL    HW220865   1.574   7.892   9.724
 6947SOL     OW20866   1.023   8.214  10.276
 6947SOL    HW120867   1.038   8.235  10.372
 6947SOL    HW220868   0.993   8.119  10.267
 6948SOL     OW20869   0.980   9.021  11.010
 6948SOL    HW120870   0.960   9.065  10.922
 6948SOL    HW220871   1.019   8.930  10.994
 6949SOL     OW20872   1.859   8.966  10.915
 6949SOL    HW120873   1.873   8.993  10.820
 6949SOL    HW220874   1.942   8.988  10.968
 6950SOL     OW20875   0.350   8.346  11.114
 6950SOL    HW120876   0.426   8.390  11.162
 6950SOL    HW220877   0.385   8.299  11.032
 6951SOL     OW20878   1.540   7.722   9.435
 6951SOL    HW120879   1.479   7.647   9.458
 6951SOL    HW220880   1.562   7.774   9.518
 6952SOL     OW20881   1.303   8.286   9.352
 6952SOL    HW120882   1.337   8.193   9.367
 6952SOL    HW220883   1.321   8.313   9.257
 6953SOL     OW20884   1.068   8.781  10.159
 6953SOL    HW120885   1.075   8.697  10.104
 6953SOL    HW220886   1.130   8.850  10.123
 6954SOL     OW20887   0.339   7.957  10.316
 6954SOL    HW120888   0.287   7.874  10.299
 6954SOL    HW220889   0.416   7.962  10.252
 6955SOL     OW20890   1.138   7.828  10.988
 6955SOL    HW120891   1.093   7.891  11.052
 6955SOL    HW220892   1.231   7.859  10.971
 6956SOL     OW20893   1.160   7.655  10.787
 6956SOL    HW120894   1.160   7.719  10.864
 6956SOL    HW220895   1.188   7.703  10.704
 6957SOL     OW20896   0.008   8.774   9.510
 6957SOL    HW120897  -0.085   8.795   9.479
 6957SOL    HW220898   0.018   8.675   9.523
 6958SOL     OW20899   0.088   9.249  10.237
 6958SOL    HW120900   0.046   9.163  10.210
 6958SOL    HW220901   0.182   9.252  10.203
 6959SOL     OW20902   0.504   9.016  10.220
 6959SOL    HW120903   0.570   9.090  10.229
 6959SOL    HW220904   0.548   8.937  10.178
 6960SOL     OW20905   1.002   8.244  10.548
 6960SOL    HW120906   1.043   8.212  10.634
 6960SOL    HW220907   0.906   8.217  10.545
 6961SOL     OW20908   0.040   7.992  10.424
 6961SOL    HW120909   0.125   7.959  10.383
 6961SOL    HW220910   0.053   8.007  10.522
 6962SOL     OW20911   0.189   7.968  11.032
 6962SOL    HW120912   0.248   7.928  10.962
 6962SOL    HW220913   0.131   8.039  10.991
 6963SOL     OW20914   1.369   8.398  10.970
 6963SOL    HW120915   1.408   8.487  10.990
 6963SOL    HW220916   1.379   8.378  10.873
 6964SOL     OW20917   0.815   8.020   9.635
 6964SOL    HW120918   0.822   7.931   9.589
 6964SOL    HW220919   0.721   8.054   9.627
 6965SOL     OW20920   1.657   8.052  10.516
 6965SOL    HW120921   1.619   7.983  10.578
 6965SOL    HW220922   1.739   8.016  10.472
 6966SOL     OW20923   0.252   9.012  11.054
 6966SOL    HW120924   0.222   9.069  11.130
 6966SOL    HW220925   0.245   8.915  11.080
 6967SOL     OW20926   0.671   7.912  10.579
 6967SOL    HW120927   0.637   7.823  10.549
 6967SOL    HW220928   0.697   7.966  10.499
 6968SOL     OW20929   0.930   9.126  10.775
 6968SOL    HW120930   0.906   9.108  10.680
 6968SOL    HW220931   0.960   9.220  10.785
 6969SOL     OW20932   0.473   7.948   9.501
 6969SOL    HW120933   0.534   8.028   9.505
 6969SOL    HW220934   0.378   7.979   9.508
 6970SOL     OW20935   0.159   8.585  10.776
 6970SOL    HW120936   0.181   8.524  10.852
 6970SOL    HW220937   0.169   8.536  10.690
 6971SOL     OW20938   1.347   8.507  10.544
 6971SOL    HW120939   1.371   8.444  10.470
 6971SOL    HW220940   1.257   8.547  10.526
 6972SOL     OW20941   1.302   8.303   9.619
 6972SOL    HW120942   1.216   8.272   9.661
 6972SOL    HW220943   1.298   8.289   9.520
 6973SOL     OW20944   1.759   9.195  10.464
 6973SOL    HW120945   1.820   9.225  10.391
 6973SOL    HW220946   1.721   9.106  10.442
 6974SOL     OW20947   1.252   9.179  10.438
 6974SOL    HW120948   1.336   9.184  10.384
 6974SOL    HW220949   1.229   9.083  10.456
 6975SOL     OW20950   0.083   8.706  10.332
 6975SOL    HW120951   0.078   8.705  10.432
 6975SOL    HW220952   0.000   8.665  10.294
 6976SOL     OW20953   0.688   9.110  11.026
 6976SOL    HW120954   0.632   9.191  11.035
 6976SOL    HW220955   0.740   9.114  10.940
 6977SOL     OW20956   1.726   7.583   9.833
 6977SOL    HW120957   1.799   7.566   9.766
 6977SOL    HW220958   1.695   7.496   9.871
 6978SOL     OW20959   1.388   9.021   9.787
 6978SOL    HW120960   1.455   9.033   9.713
 6978SOL    HW220961   1.348   9.110   9.810
 6979SOL     OW20962   0.130   9.242  11.161
 6979SOL    HW120963   0.089   9.168  11.214
 6979SOL    HW220964   0.194   9.293  11.219
 6980SOL     OW20965   1.280   8.375   9.982
 6980SOL    HW120966   1.340   8.294   9.984
 6980SOL    HW220967   1.320   8.444   9.922
 6981SOL     OW20968   0.830   8.721  10.732
 6981SOL    HW120969   0.825   8.754  10.827
 6981SOL    HW220970   0.744   8.740  10.686
 6982SOL     OW20971   0.672   9.064   9.464
 6982SOL    HW120972   0.681   9.074   9.365
 6982SOL    HW220973   0.632   8.975   9.485
 6983SOL     OW20974   1.650   9.168  10.704
 6983SOL    HW120975   1.703   9.178  10.620
 6983SOL    HW220976   1.623   9.258  10.738
 6984SOL     OW20977   0.263   7.774  10.030
 6984SOL    HW120978   0.184   7.825   9.996
 6984SOL    HW220979   0.254   7.759  10.128
 6985SOL     OW20980   1.194   9.060   9.341
 6985SOL    HW120981   1.200   8.967   9.378
 6985SOL    HW220982   1.135   9.060   9.261
 6986SOL     OW20983   0.822   8.450  10.682
 6986SOL    HW120984   0.862   8.449  10.590
 6986SOL    HW220985   0.832   8.542  10.722
 6987SOL     OW20986   0.916   8.358   9.601
 6987SOL    HW120987   0.979   8.396   9.533
 6987SOL    HW220988   0.956   8.275   9.640
 6988SOL     OW20989   1.504   9.055   9.354
 6988SOL    HW120990   1.412   9.092   9.361
 6988SOL    HW220991   1.542   9.075   9.264
 6989SOL     OW20992   0.372   8.736  10.800
 6989SOL    HW120993   0.359   8.829  10.766
 6989SOL    HW220994   0.288   8.684  10.787
 6990SOL     OW20995   1.614   8.740  10.599
 6990SOL    HW120996   1.674   8.743  10.679
 6990SOL    HW220997   1.539   8.804  10.612
 6991SOL     OW20998   1.039   8.546  10.006
 6991SOL    HW120999   0.969   8.499  10.060
 6991SOL    HW221000   1.098   8.478   9.963
 6992SOL     OW21001   1.014   7.684  10.281
 6992SOL    HW121002   1.006   7.648  10.188
 6992SOL    HW221003   1.012   7.608  10.346
 6993SOL     OW21004   0.590   8.935   9.801
 6993SOL    HW121005   0.632   8.877   9.731
 6993SOL    HW221006   0.546   9.014   9.757
 6994SOL     OW21007   1.709   7.833  10.691
 6994SOL    HW121008   1.782   7.902  10.695
 6994SOL    HW221009   1.737   7.758  10.632
 6995SOL     OW21010   0.255   8.796   9.600
 6995SOL    HW121011   0.159   8.797   9.573
 6995SOL    HW221012   0.267   8.849   9.684
 6996SOL     OW21013   0.105   8.461  11.036
 6996SOL    HW121014   0.028   8.428  11.090
 6996SOL    HW221015   0.190   8.431  11.078
 6997SOL     OW21016   0.672   7.651  10.799
 6997SOL    HW121017   0.762   7.635  10.759
 6997SOL    HW221018   0.680   7.656  10.898
 6998SOL     OW21019   0.075   7.793   9.343
 6998SOL    HW121020  -0.017   7.765   9.314
 6998SOL    HW221021   0.106   7.870   9.287
 6999SOL     OW21022   1.440   8.304  10.708
 6999SOL    HW121023   1.383   8.356  10.645
 6999SOL    HW221024   1.536   8.316  10.684
 7000SOL     OW21025   0.072   7.614   9.628
 7000SOL    HW121026   0.055   7.697   9.574
 7000SOL    HW221027   0.162   7.577   9.606
 7001SOL     OW21028   1.183   8.783   9.429
 7001SOL    HW121029   1.084   8.772   9.431
 7001SOL    HW221030   1.217   8.798   9.522
 7002SOL     OW21031   0.613   8.290  10.741
 7002SOL    HW121032   0.669   8.371  10.724
 7002SOL    HW221033   0.672   8.210  10.744
 7003SOL     OW21034   1.493   9.215  10.269
 7003SOL    HW121035   1.526   9.279  10.200
 7003SOL    HW221036   1.559   9.209  10.344
 7004SOL     OW21037   0.716   8.013  11.018
 7004SOL    HW121038   0.735   8.078  11.092
 7004SOL    HW221039   0.776   7.933  11.027
 7005SOL     OW21040   1.450   8.668  10.943
 7005SOL    HW121041   1.441   8.658  11.042
 7005SOL    HW221042   1.546   8.661  10.917
 7006SOL     OW21043   0.390   9.189  10.870
 7006SOL    HW121044   0.299   9.230  10.868
 7006SOL    HW221045   0.383   9.095  10.902
 7007SOL     OW21046   1.674   8.331  10.564
 7007SOL    HW121047   1.647   8.242  10.527
 7007SOL    HW221048   1.675   8.399  10.491
 7008SOL     OW21049   1.225   7.773   9.759
 7008SOL    HW121050   1.290   7.699   9.748
 7008SOL    HW221051   1.245   7.823   9.843
 7009SOL     OW21052   0.594   8.193   9.962
 7009SOL    HW121053   0.644   8.278   9.943
 7009SOL    HW221054   0.506   8.195   9.914
 7010SOL     OW21055   1.777   7.790  10.952
 7010SOL    HW121056   1.760   7.821  10.858
 7010SOL    HW221057   1.693   7.753  10.990
 7011SOL     OW21058   1.730   8.382  10.827
 7011SOL    HW121059   1.768   8.473  10.842
 7011SOL    HW221060   1.722   8.365  10.728
 7012SOL     OW21061   0.859   8.822   9.326
 7012SOL    HW121062   0.813   8.837   9.414
 7012SOL    HW221063   0.903   8.907   9.296
 7013SOL     OW21064   0.661   9.238  10.263
 7013SOL    HW121065   0.615   9.326  10.250
 7013SOL    HW221066   0.760   9.250  10.256
 7014SOL     OW21067   0.859   8.404  10.171
 7014SOL    HW121068   0.913   8.335  10.219
 7014SOL    HW221069   0.827   8.473  10.237
 7015SOL     OW21070   1.083   8.432   9.397
 7015SOL    HW121071   1.060   8.485   9.315
 7015SOL    HW221072   1.164   8.376   9.378
 7016SOL     OW21073   1.861   9.017  10.161
 7016SOL    HW121074   1.790   9.005  10.091
 7016SOL    HW221075   1.862   8.938  10.221
 7017SOL     OW21076   0.221   8.762  11.154
 7017SOL    HW121077   0.156   8.689  11.133
 7017SOL    HW221078   0.225   8.776  11.252
 7018SOL     OW21079   0.079   8.688   9.963
 7018SOL    HW121080   0.078   8.641  10.051
 7018SOL    HW221081   0.161   8.660   9.912
 7019SOL     OW21082   0.672   8.839  10.934
 7019SOL    HW121083   0.594   8.789  10.972
 7019SOL    HW221084   0.669   8.934  10.965
 7020SOL     OW21085   1.824   7.640  10.537
 7020SOL    HW121086   1.820   7.550  10.581
 7020SOL    HW221087   1.827   7.629  10.438
 7021SOL     OW21088   0.428   7.872   9.830
 7021SOL    HW121089   0.458   7.800   9.768
 7021SOL    HW221090   0.389   7.832   9.913
 7022SOL     OW21091   1.705   8.935  10.414
 7022SOL    HW121092   1.612   8.910  10.387
 7022SOL    HW221093   1.731   8.885  10.496
 7023SOL     OW21094   0.317   7.995  10.590
 7023SOL    HW121095   0.355   7.936  10.662
 7023SOL    HW221096   0.357   7.969  10.502
 7024SOL     OW21097   0.812   9.034   9.997
 7024SOL    HW121098   0.844   9.044   9.903
 7024SOL    HW221099   0.733   8.972   9.999
 7025SOL     OW21100   1.424   7.662  10.422
 7025SOL    HW121101   1.476   7.597  10.477
 7025SOL    HW221102   1.375   7.725  10.483
 7026SOL     OW21103   1.001   7.482  10.464
 7026SOL    HW121104   0.938   7.410  10.433
 7026SOL    HW221105   1.094   7.446  10.464
 7027SOL     OW21106   0.770   8.778   9.611
 7027SOL    HW121107   0.724   8.691   9.628
 7027SOL    HW221108   0.861   8.775   9.652
 7028SOL     OW21109   0.618   9.015  10.594
 7028SOL    HW121110   0.613   9.097  10.651
 7028SOL    HW221111   0.707   9.012  10.549
 7029SOL     OW21112   1.352   7.500   9.478
 7029SOL    HW121113   1.387   7.459   9.394
 7029SOL    HW221114   1.262   7.462   9.498
 7030SOL     OW21115   1.300   7.901  10.001
 7030SOL    HW121116   1.241   7.981  10.005
 7030SOL    HW221117   1.315   7.866  10.094
 7031SOL     OW21118   1.593   7.669  10.192
 7031SOL    HW121119   1.509   7.668  10.246
 7031SOL    HW221120   1.595   7.752  10.136
 7032SOL     OW21121   0.039   8.525   9.610
 7032SOL    HW121122   0.138   8.514   9.601
 7032SOL    HW221123  -0.001   8.439   9.642
 7033SOL     OW21124   0.875   9.094   9.647
 7033SOL    HW121125   0.798   9.059   9.593
 7033SOL    HW221126   0.843   9.165   9.709
 7034SOL     OW21127   0.230   8.076  11.285
 7034SOL    HW121128   0.137   8.074  11.322
 7034SOL    HW221129   0.231   8.037  11.193
 7035SOL     OW21130   0.225   7.723  12.168
 7035SOL    HW121131   0.260   7.706  12.260
 7035SOL    HW221132   0.137   7.678  12.156
 7036SOL     OW21133   0.019   7.816  11.819
 7036SOL    HW121134  -0.063   7.859  11.858
 7036SOL    HW221135  -0.009   7.743  11.756
 7037SOL     OW21136   0.569   8.723  12.337
 7037SOL    HW121137   0.476   8.716  12.300
 7037SOL    HW221138   0.580   8.812  12.381
 7038SOL     OW21139   1.135   8.151  11.889
 7038SOL    HW121140   1.192   8.229  11.864
 7038SOL    HW221141   1.075   8.177  11.965
 7039SOL     OW21142   1.755   8.055  11.403
 7039SOL    HW121143   1.743   8.042  11.304
 7039SOL    HW221144   1.725   7.974  11.452
 7040SOL     OW21145   0.768   8.592  12.195
 7040SOL    HW121146   0.690   8.609  12.255
 7040SOL    HW221147   0.802   8.679  12.159
 7041SOL     OW21148   0.685   8.460  11.837
 7041SOL    HW121149   0.754   8.444  11.907
 7041SOL    HW221150   0.612   8.517  11.875
 7042SOL     OW21151   0.335   8.883  12.233
 7042SOL    HW121152   0.257   8.852  12.180
 7042SOL    HW221153   0.393   8.941  12.176
 7043SOL     OW21154   1.460   8.953  12.511
 7043SOL    HW121155   1.484   9.047  12.537
 7043SOL    HW221156   1.444   8.899  12.593
 7044SOL     OW21157   0.438   7.840  12.671
 7044SOL    HW121158   0.520   7.784  12.680
 7044SOL    HW221159   0.357   7.782  12.675
 7045SOL     OW21160   1.603   7.895  11.909
 7045SOL    HW121161   1.529   7.941  11.859
 7045SOL    HW221162   1.654   7.963  11.962
 7046SOL     OW21163   0.231   9.161  11.655
 7046SOL    HW121164   0.265   9.238  11.709
 7046SOL    HW221165   0.275   9.161  11.565
 7047SOL     OW21166   0.230   8.882  11.710
 7047SOL    HW121167   0.204   8.978  11.710
 7047SOL    HW221168   0.159   8.828  11.755
 7048SOL     OW21169   0.240   8.539  12.058
 7048SOL    HW121170   0.254   8.455  12.110
 7048SOL    HW221171   0.185   8.603  12.113
 7049SOL     OW21172   0.620   9.234  12.611
 7049SOL    HW121173   0.528   9.217  12.646
 7049SOL    HW221174   0.648   9.326  12.637
 7050SOL     OW21175   0.606   8.412  11.295
 7050SOL    HW121176   0.613   8.496  11.241
 7050SOL    HW221177   0.652   8.425  11.383
 7051SOL     OW21178   1.594   7.562  12.652
 7051SOL    HW121179   1.576   7.629  12.580
 7051SOL    HW221180   1.591   7.608  12.741
 7052SOL     OW21181   0.122   8.091  11.735
 7052SOL    HW121182   0.077   8.003  11.752
 7052SOL    HW221183   0.121   8.145  11.819
 7053SOL     OW21184   1.842   9.215  11.531
 7053SOL    HW121185   1.896   9.186  11.611
 7053SOL    HW221186   1.872   9.305  11.502
 7054SOL     OW21187   0.027   9.044  11.289
 7054SOL    HW121188   0.008   8.948  11.310
 7054SOL    HW221189  -0.006   9.102  11.364
 7055SOL     OW21190   1.689   8.370  11.784
 7055SOL    HW121191   1.784   8.341  11.792
 7055SOL    HW221192   1.681   8.435  11.709
 7056SOL     OW21193   1.641   8.556  11.604
 7056SOL    HW121194   1.727   8.558  11.552
 7056SOL    HW221195   1.655   8.603  11.692
 7057SOL     OW21196   0.613   8.813  11.898
 7057SOL    HW121197   0.564   8.726  11.907
 7057SOL    HW221198   0.590   8.856  11.811
 7058SOL     OW21199   0.809   7.452  11.674
 7058SOL    HW121200   0.849   7.543  11.665
 7058SOL    HW221201   0.709   7.460  11.680
 7059SOL     OW21202   0.197   8.424  12.436
 7059SOL    HW121203   0.286   8.379  12.422
 7059SOL    HW221204   0.124   8.359  12.417
 7060SOL     OW21205   1.525   8.447  11.362
 7060SOL    HW121206   1.462   8.371  11.375
 7060SOL    HW221207   1.573   8.465  11.448
 7061SOL     OW21208   0.317   7.699  12.973
 7061SOL    HW121209   0.388   7.770  12.979
 7061SOL    HW221210   0.229   7.738  13.001
 7062SOL     OW21211   1.466   8.865  12.125
 7062SOL    HW121212   1.407   8.871  12.205
 7062SOL    HW221213   1.451   8.777  12.079
 7063SOL     OW21214   1.667   9.162  11.744
 7063SOL    HW121215   1.626   9.139  11.656
 7063SOL    HW221216   1.649   9.088  11.809
 7064SOL     OW21217   0.598   8.177  11.442
 7064SOL    HW121218   0.622   8.246  11.374
 7064SOL    HW221219   0.520   8.210  11.496
 7065SOL     OW21220   1.281   7.793  12.116
 7065SOL    HW121221   1.195   7.743  12.103
 7065SOL    HW221222   1.343   7.739  12.172
 7066SOL     OW21223   1.576   9.110  11.479
 7066SOL    HW121224   1.665   9.156  11.482
 7066SOL    HW221225   1.555   9.086  11.384
 7067SOL     OW21226   0.807   8.053  12.637
 7067SOL    HW121227   0.760   8.050  12.726
 7067SOL    HW221228   0.756   7.998  12.571
 7068SOL     OW21229   0.991   7.858  12.414
 7068SOL    HW121230   0.914   7.892  12.468
 7068SOL    HW221231   0.957   7.807  12.335
 7069SOL     OW21232   1.041   8.149  11.601
 7069SOL    HW121233   1.067   8.145  11.697
 7069SOL    HW221234   0.956   8.098  11.587
 7070SOL     OW21235   0.076   8.259  11.961
 7070SOL    HW121236   0.175   8.247  11.970
 7070SOL    HW221237   0.052   8.354  11.982
 7071SOL     OW21238   0.130   9.269  12.743
 7071SOL    HW121239   0.120   9.254  12.842
 7071SOL    HW221240   0.044   9.305  12.707
 7072SOL     OW21241   0.865   7.796  11.367
 7072SOL    HW121242   0.924   7.859  11.318
 7072SOL    HW221243   0.884   7.702  11.338
 7073SOL     OW21244   1.362   8.592  11.717
 7073SOL    HW121245   1.445   8.563  11.669
 7073SOL    HW221246   1.313   8.659  11.661
 7074SOL     OW21247   0.550   7.644  12.057
 7074SOL    HW121248   0.545   7.639  12.157
 7074SOL    HW221249   0.552   7.740  12.028
 7075SOL     OW21250   1.008   8.904  11.649
 7075SOL    HW121251   0.962   8.976  11.597
 7075SOL    HW221252   1.004   8.924  11.747
 7076SOL     OW21253   0.351   9.249  12.025
 7076SOL    HW121254   0.401   9.163  12.031
 7076SOL    HW221255   0.416   9.326  12.022
 7077SOL     OW21256   1.795   8.514  12.045
 7077SOL    HW121257   1.733   8.499  11.969
 7077SOL    HW221258   1.743   8.525  12.130
 7078SOL     OW21259   0.321   8.391  11.414
 7078SOL    HW121260   0.403   8.430  11.372
 7078SOL    HW221261   0.294   8.309  11.365
 7079SOL     OW21262   1.458   8.183  11.900
 7079SOL    HW121263   1.453   8.118  11.975
 7079SOL    HW221264   1.538   8.242  11.913
 7080SOL     OW21265   1.111   9.224  11.409
 7080SOL    HW121266   1.051   9.162  11.459
 7080SOL    HW221267   1.142   9.180  11.324
 7081SOL     OW21268   1.632   8.825  11.253
 7081SOL    HW121269   1.600   8.919  11.243
 7081SOL    HW221270   1.556   8.762  11.241
 7082SOL     OW21271   0.464   9.191  11.495
 7082SOL    HW121272   0.497   9.230  11.581
 7082SOL    HW221273   0.540   9.184  11.430
 7083SOL     OW21274   1.400   7.555  11.598
 7083SOL    HW121275   1.376   7.518  11.508
 7083SOL    HW221276   1.499   7.571  11.602
 7084SOL     OW21277   0.249   9.233  12.413
 7084SOL    HW121278   0.306   9.168  12.463
 7084SOL    HW221279   0.233   9.200  12.320
 7085SOL     OW21280   0.940   9.146  12.076
 7085SOL    HW121281   1.020   9.089  12.097
 7085SOL    HW221282   0.891   9.106  11.999
 7086SOL     OW21283   0.382   8.148  11.652
 7086SOL    HW121284   0.427   8.058  11.649
 7086SOL    HW221285   0.288   8.137  11.685
 7087SOL     OW21286   0.614   7.570  11.289
 7087SOL    HW121287   0.712   7.548  11.296
 7087SOL    HW221288   0.583   7.553  11.196
 7088SOL     OW21289   0.888   8.962  12.367
 7088SOL    HW121290   0.865   8.937  12.273
 7088SOL    HW221291   0.949   8.893  12.406
 7089SOL     OW21292   0.803   8.850  12.096
 7089SOL    HW121293   0.893   8.864  12.054
 7089SOL    HW221294   0.732   8.852  12.025
 7090SOL     OW21295   0.922   7.951  12.071
 7090SOL    HW121296   0.897   7.942  11.975
 7090SOL    HW221297   0.970   7.869  12.102
 7091SOL     OW21298   0.539   7.512  11.684
 7091SOL    HW121299   0.458   7.513  11.742
 7091SOL    HW221300   0.542   7.595  11.629
 7092SOL     OW21301   1.434   8.636  11.213
 7092SOL    HW121302   1.466   8.560  11.270
 7092SOL    HW221303   1.342   8.663  11.243
 7093SOL     OW21304   0.297   7.483  11.343
 7093SOL    HW121305   0.346   7.567  11.322
 7093SOL    HW221306   0.359   7.418  11.388
 7094SOL     OW21307   0.935   7.684  11.652
 7094SOL    HW121308   0.887   7.725  11.574
 7094SOL    HW221309   1.034   7.682  11.633
 7095SOL     OW21310   1.227   9.018  11.965
 7095SOL    HW121311   1.248   9.092  11.900
 7095SOL    HW221312   1.295   9.018  12.038
 7096SOL     OW21313   0.459   8.600  11.913
 7096SOL    HW121314   0.388   8.573  11.978
 7096SOL    HW221315   0.433   8.572  11.820
 7097SOL     OW21316   1.271   9.245  11.763
 7097SOL    HW121317   1.315   9.309  11.699
 7097SOL    HW221318   1.221   9.297  11.833
 7098SOL     OW21319   1.032   7.997  11.188
 7098SOL    HW121320   0.991   8.079  11.149
 7098SOL    HW221321   1.096   8.023  11.261
 7099SOL     OW21322   0.078   8.004  12.558
 7099SOL    HW121323   0.170   8.003  12.517
 7099SOL    HW221324   0.072   8.078  12.625
 7100SOL     OW21325   0.561   7.670  12.319
 7100SOL    HW121326   0.599   7.586  12.356
 7100SOL    HW221327   0.473   7.689  12.363
 7101SOL     OW21328   0.866   7.902  11.814
 7101SOL    HW121329   0.834   7.974  11.752
 7101SOL    HW221330   0.890   7.821  11.761
 7102SOL     OW21331   1.017   7.487  11.925
 7102SOL    HW121332   0.945   7.492  11.856
 7102SOL    HW221333   0.993   7.418  11.994
 7103SOL     OW21334   1.429   8.621  12.039
 7103SOL    HW121335   1.374   8.537  12.032
 7103SOL    HW221336   1.455   8.650  11.947
 7104SOL     OW21337   1.466   8.038  12.164
 7104SOL    HW121338   1.436   7.943  12.171
 7104SOL    HW221339   1.539   8.054  12.230
 7105SOL     OW21340   1.857   8.281  11.549
 7105SOL    HW121341   1.899   8.217  11.613
 7105SOL    HW221342   1.819   8.230  11.471
 7106SOL     OW21343   0.488   8.833  11.346
 7106SOL    HW121344   0.401   8.818  11.393
 7106SOL    HW221345   0.471   8.859  11.251
 7107SOL     OW21346   1.664   8.728  11.829
 7107SOL    HW121347   1.763   8.736  11.843
 7107SOL    HW221348   1.619   8.812  11.860
 7108SOL     OW21349   1.390   8.023  11.250
 7108SOL    HW121350   1.336   8.002  11.331
 7108SOL    HW221351   1.481   7.982  11.259
 7109SOL     OW21352   0.527   7.704  11.500
 7109SOL    HW121353   0.554   7.645  11.425
 7109SOL    HW221354   0.527   7.799  11.469
 7110SOL     OW21355   1.064   8.795  12.512
 7110SOL    HW121356   0.984   8.772  12.567
 7110SOL    HW221357   1.147   8.769  12.561
 7111SOL     OW21358   1.111   8.643  12.272
 7111SOL    HW121359   1.071   8.687  12.353
 7111SOL    HW221360   1.070   8.680  12.189
 7112SOL     OW21361   1.638   8.547  12.251
 7112SOL    HW121362   1.643   8.628  12.310
 7112SOL    HW221363   1.552   8.549  12.200
 7113SOL     OW21364   0.915   7.537  12.574
 7113SOL    HW121365   0.940   7.517  12.479
 7113SOL    HW221366   0.987   7.593  12.616
 7114SOL     OW21367   0.705   8.498  11.540
 7114SOL    HW121368   0.691   8.505  11.639
 7114SOL    HW221369   0.789   8.447  11.522
 7115SOL     OW21370   0.410   8.261  12.423
 7115SOL    HW121371   0.496   8.273  12.473
 7115SOL    HW221372   0.368   8.174  12.450
 7116SOL     OW21373   1.274   7.834  12.434
 7116SOL    HW121374   1.295   7.908  12.498
 7116SOL    HW221375   1.185   7.851  12.391
 7117SOL     OW21376   0.064   9.012  12.503
 7117SOL    HW121377   0.018   9.094  12.469
 7117SOL    HW221378   0.162   9.031  12.512
 7118SOL     OW21379   0.367   8.548  11.673
 7118SOL    HW121380   0.360   8.631  11.617
 7118SOL    HW221381   0.371   8.468  11.613
 7119SOL     OW21382   0.566   7.985  12.037
 7119SOL    HW121383   0.578   8.051  11.963
 7119SOL    HW221384   0.612   8.019  12.120
 7120SOL     OW21385   1.252   8.796  11.560
 7120SOL    HW121386   1.302   8.873  11.600
 7120SOL    HW221387   1.157   8.798  11.592
 7121SOL     OW21388   1.272   8.893  12.314
 7121SOL    HW121389   1.319   8.906  12.401
 7121SOL    HW221390   1.206   8.819  12.323
 7122SOL     OW21391   1.582   8.087  11.644
 7122SOL    HW121392   1.551   8.148  11.717
 7122SOL    HW221393   1.632   8.139  11.575
 7123SOL     OW21394   0.354   8.958  12.501
 7123SOL    HW121395   0.333   8.914  12.414
 7123SOL    HW221396   0.451   8.984  12.504
 7124SOL     OW21397   0.402   8.199  12.770
 7124SOL    HW121398   0.470   8.254  12.723
 7124SOL    HW221399   0.442   8.111  12.797
 7125SOL     OW21400   1.587   8.227  12.842
 7125SOL    HW121401   1.495   8.265  12.837
 7125SOL    HW221402   1.647   8.274  12.777
 7126SOL     OW21403   0.573   8.318  12.201
 7126SOL    HW121404   0.617   8.407  12.192
 7126SOL    HW221405   0.510   8.318  12.278
 7127SOL     OW21406   1.360   8.310  12.217
 7127SOL    HW121407   1.285   8.310  12.151
 7127SOL    HW221408   1.397   8.218  12.226
 7128SOL     OW21409   1.209   7.973  11.447
 7128SOL    HW121410   1.222   7.889  11.501
 7128SOL    HW221411   1.180   8.047  11.507
 7129SOL     OW21412   0.307   7.661  12.403
 7129SOL    HW121413   0.284   7.698  12.493
 7129SOL    HW221414   0.277   7.566  12.397
 7130SOL     OW21415   0.037   8.758  12.454
 7130SOL    HW121416   0.090   8.709  12.522
 7130SOL    HW221417   0.059   8.856  12.459
 7131SOL     OW21418   0.732   8.082  12.236
 7131SOL    HW121419   0.791   8.056  12.160
 7131SOL    HW221420   0.704   8.178  12.225
 7132SOL     OW21421   0.307   7.511  11.790
 7132SOL    HW121422   0.296   7.605  11.823
 7132SOL    HW221423   0.302   7.448  11.867
 7133SOL     OW21424   1.622   7.815  11.546
 7133SOL    HW121425   1.624   7.739  11.610
 7133SOL    HW221426   1.574   7.892  11.586
 7134SOL     OW21427   1.023   8.214  12.138
 7134SOL    HW121428   1.038   8.235  12.234
 7134SOL    HW221429   0.993   8.119  12.129
 7135SOL     OW21430   0.980   9.021  12.872
 7135SOL    HW121431   0.960   9.065  12.784
 7135SOL    HW221432   1.019   8.930  12.856
 7136SOL     OW21433   1.540   7.722  11.297
 7136SOL    HW121434   1.479   7.647  11.320
 7136SOL    HW221435   1.562   7.774  11.380
 7137SOL     OW21436   1.303   8.286  11.214
 7137SOL    HW121437   1.337   8.193  11.229
 7137SOL    HW221438   1.321   8.313  11.119
 7138SOL     OW21439   1.068   8.781  12.021
 7138SOL    HW121440   1.075   8.697  11.966
 7138SOL    HW221441   1.130   8.850  11.985
 7139SOL     OW21442   0.319   8.258  12.121
 7139SOL    HW121443   0.412   8.294  12.126
 7139SOL    HW221444   0.313   8.173  12.173
 7140SOL     OW21445   0.339   7.957  12.178
 7140SOL    HW121446   0.287   7.874  12.161
 7140SOL    HW221447   0.416   7.962  12.114
 7141SOL     OW21448   1.138   7.828  12.850
 7141SOL    HW121449   1.093   7.891  12.914
 7141SOL    HW221450   1.231   7.859  12.833
 7142SOL     OW21451   1.160   7.655  12.649
 7142SOL    HW121452   1.160   7.719  12.726
 7142SOL    HW221453   1.188   7.703  12.566
 7143SOL     OW21454   0.008   8.774  11.372
 7143SOL    HW121455  -0.085   8.795  11.341
 7143SOL    HW221456   0.018   8.675  11.385
 7144SOL     OW21457   0.088   9.249  12.099
 7144SOL    HW121458   0.046   9.163  12.072
 7144SOL    HW221459   0.182   9.252  12.065
 7145SOL     OW21460   0.504   9.016  12.082
 7145SOL    HW121461   0.570   9.090  12.091
 7145SOL    HW221462   0.548   8.937  12.040
 7146SOL     OW21463   1.002   8.244  12.410
 7146SOL    HW121464   1.043   8.212  12.496
 7146SOL    HW221465   0.906   8.217  12.407
 7147SOL     OW21466   0.040   7.992  12.286
 7147SOL    HW121467   0.125   7.959  12.245
 7147SOL    HW221468   0.053   8.007  12.384
 7148SOL     OW21469   0.815   8.020  11.497
 7148SOL    HW121470   0.822   7.931  11.451
 7148SOL    HW221471   0.721   8.054  11.489
 7149SOL     OW21472   1.657   8.052  12.378
 7149SOL    HW121473   1.619   7.983  12.440
 7149SOL    HW221474   1.739   8.016  12.334
 7150SOL     OW21475   0.671   7.912  12.441
 7150SOL    HW121476   0.637   7.823  12.411
 7150SOL    HW221477   0.697   7.966  12.361
 7151SOL     OW21478   0.930   9.126  12.637
 7151SOL    HW121479   0.906   9.108  12.542
 7151SOL    HW221480   0.960   9.220  12.647
 7152SOL     OW21481   0.473   7.948  11.363
 7152SOL    HW121482   0.534   8.028  11.367
 7152SOL    HW221483   0.378   7.979  11.370
 7153SOL     OW21484   0.159   8.585  12.638
 7153SOL    HW121485   0.181   8.524  12.714
 7153SOL    HW221486   0.169   8.536  12.552
 7154SOL     OW21487   1.347   8.507  12.406
 7154SOL    HW121488   1.371   8.444  12.332
 7154SOL    HW221489   1.257   8.547  12.388
 7155SOL     OW21490   1.302   8.303  11.481
 7155SOL    HW121491   1.216   8.272  11.523
 7155SOL    HW221492   1.298   8.289  11.382
 7156SOL     OW21493   1.759   9.195  12.326
 7156SOL    HW121494   1.820   9.225  12.253
 7156SOL    HW221495   1.721   9.106  12.304
 7157SOL     OW21496   1.252   9.179  12.300
 7157SOL    HW121497   1.336   9.184  12.246
 7157SOL    HW221498   1.229   9.083  12.318
 7158SOL     OW21499   0.083   8.706  12.194
 7158SOL    HW121500   0.078   8.705  12.294
 7158SOL    HW221501   0.000   8.665  12.156
 7159SOL     OW21502   1.726   7.583  11.695
 7159SOL    HW121503   1.799   7.566  11.628
 7159SOL    HW221504   1.695   7.496  11.733
 7160SOL     OW21505   1.388   9.021  11.649
 7160SOL    HW121506   1.455   9.033  11.575
 7160SOL    HW221507   1.348   9.110  11.672
 7161SOL     OW21508   1.280   8.375  11.844
 7161SOL    HW121509   1.340   8.294  11.846
 7161SOL    HW221510   1.320   8.444  11.784
 7162SOL     OW21511   0.672   9.064  11.326
 7162SOL    HW121512   0.681   9.074  11.227
 7162SOL    HW221513   0.632   8.975  11.347
 7163SOL     OW21514   1.650   9.168  12.566
 7163SOL    HW121515   1.703   9.178  12.482
 7163SOL    HW221516   1.623   9.258  12.600
 7164SOL     OW21517   1.841   7.623  12.135
 7164SOL    HW121518   1.880   7.538  12.099
 7164SOL    HW221519   1.743   7.625  12.116
 7165SOL     OW21520   0.263   7.774  11.892
 7165SOL    HW121521   0.184   7.825  11.858
 7165SOL    HW221522   0.254   7.759  11.990
 7166SOL     OW21523   1.194   9.060  11.203
 7166SOL    HW121524   1.200   8.967  11.240
 7166SOL    HW221525   1.135   9.060  11.123
 7167SOL     OW21526   0.822   8.450  12.544
 7167SOL    HW121527   0.862   8.449  12.452
 7167SOL    HW221528   0.832   8.542  12.584
 7168SOL     OW21529   0.916   8.358  11.463
 7168SOL    HW121530   0.979   8.396  11.395
 7168SOL    HW221531   0.956   8.275  11.502
 7169SOL     OW21532   1.504   9.055  11.216
 7169SOL    HW121533   1.412   9.092  11.223
 7169SOL    HW221534   1.542   9.075  11.126
 7170SOL     OW21535   0.372   8.736  12.662
 7170SOL    HW121536   0.359   8.829  12.628
 7170SOL    HW221537   0.288   8.684  12.649
 7171SOL     OW21538   1.614   8.740  12.461
 7171SOL    HW121539   1.674   8.743  12.541
 7171SOL    HW221540   1.539   8.804  12.474
 7172SOL     OW21541   1.039   8.546  11.868
 7172SOL    HW121542   0.969   8.499  11.922
 7172SOL    HW221543   1.098   8.478  11.825
 7173SOL     OW21544   1.014   7.684  12.143
 7173SOL    HW121545   1.006   7.648  12.050
 7173SOL    HW221546   1.012   7.608  12.208
 7174SOL     OW21547   0.590   8.935  11.663
 7174SOL    HW121548   0.632   8.877  11.593
 7174SOL    HW221549   0.546   9.014  11.619
 7175SOL     OW21550   1.709   7.833  12.553
 7175SOL    HW121551   1.782   7.902  12.557
 7175SOL    HW221552   1.737   7.758  12.494
 7176SOL     OW21553   0.255   8.796  11.462
 7176SOL    HW121554   0.159   8.797  11.435
 7176SOL    HW221555   0.267   8.849  11.546
 7177SOL     OW21556   0.075   7.793  11.205
 7177SOL    HW121557  -0.017   7.765  11.176
 7177SOL    HW221558   0.106   7.870  11.149
 7178SOL     OW21559   1.440   8.304  12.570
 7178SOL    HW121560   1.383   8.356  12.507
 7178SOL    HW221561   1.536   8.316  12.546
 7179SOL     OW21562   0.072   7.614  11.490
 7179SOL    HW121563   0.055   7.697  11.436
 7179SOL    HW221564   0.162   7.577  11.468
 7180SOL     OW21565   1.183   8.783  11.291
 7180SOL    HW121566   1.084   8.772  11.293
 7180SOL    HW221567   1.217   8.798  11.384
 7181SOL     OW21568   0.613   8.290  12.603
 7181SOL    HW121569   0.669   8.371  12.586
 7181SOL    HW221570   0.672   8.210  12.606
 7182SOL     OW21571   1.493   9.215  12.131
 7182SOL    HW121572   1.526   9.279  12.062
 7182SOL    HW221573   1.559   9.209  12.206
 7183SOL     OW21574   0.390   9.189  12.732
 7183SOL    HW121575   0.299   9.230  12.730
 7183SOL    HW221576   0.383   9.095  12.764
 7184SOL     OW21577   1.674   8.331  12.426
 7184SOL    HW121578   1.647   8.242  12.389
 7184SOL    HW221579   1.675   8.399  12.353
 7185SOL     OW21580   1.225   7.773  11.621
 7185SOL    HW121581   1.290   7.699  11.610
 7185SOL    HW221582   1.245   7.823  11.705
 7186SOL     OW21583   0.594   8.193  11.824
 7186SOL    HW121584   0.644   8.278  11.805
 7186SOL    HW221585   0.506   8.195  11.776
 7187SOL     OW21586   1.777   7.790  12.814
 7187SOL    HW121587   1.760   7.821  12.720
 7187SOL    HW221588   1.693   7.753  12.852
 7188SOL     OW21589   1.730   8.382  12.689
 7188SOL    HW121590   1.768   8.473  12.704
 7188SOL    HW221591   1.722   8.365  12.590
 7189SOL     OW21592   0.859   8.822  11.188
 7189SOL    HW121593   0.813   8.837  11.276
 7189SOL    HW221594   0.903   8.907  11.158
 7190SOL     OW21595   0.661   9.238  12.125
 7190SOL    HW121596   0.615   9.326  12.112
 7190SOL    HW221597   0.760   9.250  12.118
 7191SOL     OW21598   0.859   8.404  12.033
 7191SOL    HW121599   0.913   8.335  12.081
 7191SOL    HW221600   0.827   8.473  12.099
 7192SOL     OW21601   1.083   8.432  11.259
 7192SOL    HW121602   1.060   8.485  11.177
 7192SOL    HW221603   1.164   8.376  11.240
 7193SOL     OW21604   1.861   9.017  12.023
 7193SOL    HW121605   1.790   9.005  11.953
 7193SOL    HW221606   1.862   8.938  12.083
 7194SOL     OW21607   0.079   8.688  11.825
 7194SOL    HW121608   0.078   8.641  11.913
 7194SOL    HW221609   0.161   8.660  11.774
 7195SOL     OW21610   1.824   7.640  12.399
 7195SOL    HW121611   1.820   7.550  12.443
 7195SOL    HW221612   1.827   7.629  12.300
 7196SOL     OW21613   0.428   7.872  11.692
 7196SOL    HW121614   0.458   7.800  11.630
 7196SOL    HW221615   0.389   7.832  11.775
 7197SOL     OW21616   1.705   8.935  12.276
 7197SOL    HW121617   1.612   8.910  12.249
 7197SOL    HW221618   1.731   8.885  12.358
 7198SOL     OW21619   0.317   7.995  12.452
 7198SOL    HW121620   0.355   7.936  12.524
 7198SOL    HW221621   0.357   7.969  12.364
 7199SOL     OW21622   0.812   9.034  11.859
 7199SOL    HW121623   0.844   9.044  11.765
 7199SOL    HW221624   0.733   8.972  11.861
 7200SOL     OW21625   1.424   7.662  12.284
 7200SOL    HW121626   1.476   7.597  12.339
 7200SOL    HW221627   1.375   7.725  12.345
 7201SOL     OW21628   1.001   7.482  12.326
 7201SOL    HW121629   0.938   7.410  12.295
 7201SOL    HW221630   1.094   7.446  12.326
 7202SOL     OW21631   0.770   8.778  11.473
 7202SOL    HW121632   0.724   8.691  11.490
 7202SOL    HW221633   0.861   8.775  11.514
 7203SOL     OW21634   0.618   9.015  12.456
 7203SOL    HW121635   0.613   9.097  12.513
 7203SOL    HW221636   0.707   9.012  12.411
 7204SOL     OW21637   1.352   7.500  11.340
 7204SOL    HW121638   1.387   7.459  11.256
 7204SOL    HW221639   1.262   7.462  11.360
 7205SOL     OW21640   1.300   7.901  11.863
 7205SOL    HW121641   1.241   7.981  11.867
 7205SOL    HW221642   1.315   7.866  11.956
 7206SOL     OW21643   1.593   7.669  12.054
 7206SOL    HW121644   1.509   7.668  12.108
 7206SOL    HW221645   1.595   7.752  11.998
 7207SOL     OW21646   0.039   8.525  11.472
 7207SOL    HW121647   0.138   8.514  11.463
 7207SOL    HW221648  -0.001   8.439  11.504
 7208SOL     OW21649   0.875   9.094  11.509
 7208SOL    HW121650   0.798   9.059  11.455
 7208SOL    HW221651   0.843   9.165  11.571
 7209SOL     OW21652   0.230   9.938   0.113
 7209SOL    HW121653   0.137   9.936   0.150
 7209SOL    HW221654   0.231   9.899   0.021
 7210SOL     OW21655   0.225   9.585   0.996
 7210SOL    HW121656   0.260   9.568   1.088
 7210SOL    HW221657   0.137   9.540   0.984
 7211SOL     OW21658   0.019   9.678   0.647
 7211SOL    HW121659  -0.063   9.721   0.686
 7211SOL    HW221660  -0.009   9.605   0.584
 7212SOL     OW21661   0.569  10.585   1.165
 7212SOL    HW121662   0.476  10.578   1.128
 7212SOL    HW221663   0.580  10.674   1.209
 7213SOL     OW21664   1.555  10.821   0.703
 7213SOL    HW121665   1.498  10.805   0.784
 7213SOL    HW221666   1.496  10.831   0.623
 7214SOL     OW21667   1.135  10.013   0.717
 7214SOL    HW121668   1.192  10.091   0.692
 7214SOL    HW221669   1.075  10.039   0.793
 7215SOL     OW21670   1.755   9.917   0.231
 7215SOL    HW121671   1.743   9.904   0.132
 7215SOL    HW221672   1.725   9.836   0.280
 7216SOL     OW21673   0.768  10.454   1.023
 7216SOL    HW121674   0.690  10.471   1.083
 7216SOL    HW221675   0.802  10.541   0.987
 7217SOL     OW21676   0.850  10.108   1.823
 7217SOL    HW121677   0.846  10.184   1.888
 7217SOL    HW221678   0.872  10.144   1.732
 7218SOL     OW21679   0.685  10.322   0.665
 7218SOL    HW121680   0.754  10.306   0.735
 7218SOL    HW221681   0.612  10.379   0.703
 7219SOL     OW21682   0.686  10.471   1.803
 7219SOL    HW121683   0.746  10.550   1.817
 7219SOL    HW221684   0.600  10.502   1.762
 7220SOL     OW21685   0.335  10.745   1.061
 7220SOL    HW121686   0.257  10.714   1.008
 7220SOL    HW221687   0.393  10.803   1.004
 7221SOL     OW21688   1.460  10.815   1.339
 7221SOL    HW121689   1.484  10.909   1.365
 7221SOL    HW221690   1.444  10.761   1.421
 7222SOL     OW21691   0.438   9.702   1.499
 7222SOL    HW121692   0.520   9.646   1.508
 7222SOL    HW221693   0.357   9.644   1.503
 7223SOL     OW21694   1.603   9.757   0.737
 7223SOL    HW121695   1.529   9.803   0.687
 7223SOL    HW221696   1.654   9.825   0.790
 7224SOL     OW21697   0.231  11.023   0.483
 7224SOL    HW121698   0.265  11.100   0.537
 7224SOL    HW221699   0.275  11.023   0.393
 7225SOL     OW21700   1.127  10.651   1.690
 7225SOL    HW121701   1.174  10.651   1.778
 7225SOL    HW221702   1.079  10.564   1.679
 7226SOL     OW21703   0.230  10.744   0.538
 7226SOL    HW121704   0.204  10.840   0.538
 7226SOL    HW221705   0.159  10.690   0.583
 7227SOL     OW21706   0.240  10.401   0.886
 7227SOL    HW121707   0.254  10.317   0.938
 7227SOL    HW221708   0.185  10.465   0.941
 7228SOL     OW21709   0.620  11.096   1.439
 7228SOL    HW121710   0.528  11.079   1.474
 7228SOL    HW221711   0.648  11.188   1.465
 7229SOL     OW21712   0.606  10.274   0.123
 7229SOL    HW121713   0.613  10.358   0.069
 7229SOL    HW221714   0.652  10.287   0.211
 7230SOL     OW21715   1.594   9.424   1.480
 7230SOL    HW121716   1.576   9.491   1.408
 7230SOL    HW221717   1.591   9.470   1.569
 7231SOL     OW21718   0.122   9.953   0.563
 7231SOL    HW121719   0.077   9.865   0.580
 7231SOL    HW221720   0.121  10.007   0.647
 7232SOL     OW21721   1.842  11.077   0.359
 7232SOL    HW121722   1.896  11.048   0.439
 7232SOL    HW221723   1.872  11.167   0.330
 7233SOL     OW21724   0.027  10.906   0.117
 7233SOL    HW121725   0.008  10.810   0.138
 7233SOL    HW221726  -0.006  10.964   0.192
 7234SOL     OW21727   1.689  10.232   0.612
 7234SOL    HW121728   1.784  10.203   0.620
 7234SOL    HW221729   1.681  10.297   0.537
 7235SOL     OW21730   1.641  10.418   0.432
 7235SOL    HW121731   1.727  10.420   0.380
 7235SOL    HW221732   1.655  10.465   0.520
 7236SOL     OW21733   0.113  10.047   1.597
 7236SOL    HW121734   0.201  10.034   1.642
 7236SOL    HW221735   0.100  10.144   1.575
 7237SOL     OW21736   0.613  10.675   0.726
 7237SOL    HW121737   0.564  10.588   0.735
 7237SOL    HW221738   0.590  10.718   0.639
 7238SOL     OW21739   1.293  10.538   1.423
 7238SOL    HW121740   1.330  10.465   1.365
 7238SOL    HW221741   1.345  10.543   1.508
 7239SOL     OW21742   0.809   9.314   0.502
 7239SOL    HW121743   0.849   9.405   0.493
 7239SOL    HW221744   0.709   9.322   0.508
 7240SOL     OW21745   0.197  10.286   1.264
 7240SOL    HW121746   0.286  10.241   1.250
 7240SOL    HW221747   0.124  10.221   1.245
 7241SOL     OW21748   1.525  10.309   0.190
 7241SOL    HW121749   1.462  10.233   0.203
 7241SOL    HW221750   1.573  10.327   0.276
 7242SOL     OW21751   1.187  11.102   1.616
 7242SOL    HW121752   1.211  11.162   1.540
 7242SOL    HW221753   1.194  11.007   1.586
 7243SOL     OW21754   0.317   9.561   1.801
 7243SOL    HW121755   0.388   9.632   1.807
 7243SOL    HW221756   0.229   9.600   1.829
 7244SOL     OW21757   1.466  10.727   0.953
 7244SOL    HW121758   1.407  10.733   1.033
 7244SOL    HW221759   1.451  10.639   0.907
 7245SOL     OW21760   1.667  11.024   0.572
 7245SOL    HW121761   1.626  11.001   0.484
 7245SOL    HW221762   1.649  10.950   0.637
 7246SOL     OW21763   0.598  10.039   0.270
 7246SOL    HW121764   0.622  10.108   0.202
 7246SOL    HW221765   0.520  10.072   0.324
 7247SOL     OW21766   1.281   9.655   0.944
 7247SOL    HW121767   1.195   9.605   0.931
 7247SOL    HW221768   1.343   9.601   1.000
 7248SOL     OW21769   1.576  10.972   0.307
 7248SOL    HW121770   1.665  11.018   0.310
 7248SOL    HW221771   1.555  10.948   0.212
 7249SOL     OW21772   0.807   9.915   1.465
 7249SOL    HW121773   0.760   9.912   1.554
 7249SOL    HW221774   0.756   9.860   1.399
 7250SOL     OW21775   1.394   9.779   1.674
 7250SOL    HW121776   1.374   9.822   1.762
 7250SOL    HW221777   1.472   9.717   1.683
 7251SOL     OW21778   0.973  10.200   1.572
 7251SOL    HW121779   1.019  10.116   1.543
 7251SOL    HW221780   0.917  10.234   1.497
 7252SOL     OW21781   0.991   9.720   1.242
 7252SOL    HW121782   0.914   9.754   1.296
 7252SOL    HW221783   0.957   9.669   1.163
 7253SOL     OW21784   1.041  10.011   0.429
 7253SOL    HW121785   1.067  10.007   0.525
 7253SOL    HW221786   0.956   9.960   0.415
 7254SOL     OW21787   0.076  10.121   0.789
 7254SOL    HW121788   0.175  10.109   0.798
 7254SOL    HW221789   0.052  10.216   0.810
 7255SOL     OW21790   0.130  11.131   1.571
 7255SOL    HW121791   0.120  11.116   1.670
 7255SOL    HW221792   0.044  11.167   1.535
 7256SOL     OW21793   0.865   9.658   0.195
 7256SOL    HW121794   0.924   9.721   0.146
 7256SOL    HW221795   0.884   9.564   0.166
 7257SOL     OW21796   1.719   9.895   1.831
 7257SOL    HW121797   1.693   9.984   1.795
 7257SOL    HW221798   1.717   9.827   1.758
 7258SOL     OW21799   1.362  10.454   0.545
 7258SOL    HW121800   1.445  10.425   0.497
 7258SOL    HW221801   1.313  10.521   0.489
 7259SOL     OW21802   0.550   9.506   0.885
 7259SOL    HW121803   0.545   9.501   0.985
 7259SOL    HW221804   0.552   9.602   0.856
 7260SOL     OW21805   1.008  10.766   0.477
 7260SOL    HW121806   0.962  10.838   0.425
 7260SOL    HW221807   1.004  10.786   0.575
 7261SOL     OW21808   0.351  11.111   0.853
 7261SOL    HW121809   0.401  11.025   0.859
 7261SOL    HW221810   0.416  11.188   0.850
 7262SOL     OW21811   1.795  10.376   0.873
 7262SOL    HW121812   1.733  10.361   0.797
 7262SOL    HW221813   1.743  10.387   0.958
 7263SOL     OW21814   1.227  10.860   1.506
 7263SOL    HW121815   1.233  10.783   1.570
 7263SOL    HW221816   1.175  10.834   1.426
 7264SOL     OW21817   0.321  10.253   0.242
 7264SOL    HW121818   0.403  10.292   0.200
 7264SOL    HW221819   0.294  10.171   0.193
 7265SOL     OW21820   1.458  10.045   0.728
 7265SOL    HW121821   1.453   9.980   0.803
 7265SOL    HW221822   1.538  10.104   0.741
 7266SOL     OW21823   0.461  10.576   1.727
 7266SOL    HW121824   0.411  10.577   1.641
 7266SOL    HW221825   0.398  10.558   1.803
 7267SOL     OW21826   1.111  11.086   0.237
 7267SOL    HW121827   1.051  11.024   0.287
 7267SOL    HW221828   1.142  11.042   0.152
 7268SOL     OW21829   0.202   9.595   1.498
 7268SOL    HW121830   0.122   9.655   1.485
 7268SOL    HW221831   0.192   9.546   1.584
 7269SOL     OW21832   1.632  10.687   0.081
 7269SOL    HW121833   1.600  10.781   0.071
 7269SOL    HW221834   1.556  10.624   0.069
 7270SOL     OW21835   0.464  11.053   0.323
 7270SOL    HW121836   0.497  11.092   0.409
 7270SOL    HW221837   0.540  11.046   0.258
 7271SOL     OW21838   1.400   9.417   0.426
 7271SOL    HW121839   1.376   9.380   0.336
 7271SOL    HW221840   1.499   9.433   0.430
 7272SOL     OW21841   0.249  11.095   1.241
 7272SOL    HW121842   0.306  11.030   1.291
 7272SOL    HW221843   0.233  11.062   1.148
 7273SOL     OW21844   0.940  11.008   0.904
 7273SOL    HW121845   1.020  10.951   0.925
 7273SOL    HW221846   0.891  10.968   0.827
 7274SOL     OW21847   0.382  10.010   0.480
 7274SOL    HW121848   0.427   9.920   0.477
 7274SOL    HW221849   0.288   9.999   0.513
 7275SOL     OW21850   1.547   9.532   1.729
 7275SOL    HW121851   1.542   9.569   1.821
 7275SOL    HW221852   1.475   9.463   1.717
 7276SOL     OW21853   0.614   9.432   0.117
 7276SOL    HW121854   0.712   9.410   0.124
 7276SOL    HW221855   0.583   9.415   0.024
 7277SOL     OW21856   0.781   9.574   1.749
 7277SOL    HW121857   0.848   9.513   1.792
 7277SOL    HW221858   0.708   9.593   1.814
 7278SOL     OW21859   0.888  10.824   1.195
 7278SOL    HW121860   0.865  10.799   1.101
 7278SOL    HW221861   0.949  10.755   1.234
 7279SOL     OW21862   1.351   9.900   1.433
 7279SOL    HW121863   1.379   9.857   1.518
 7279SOL    HW221864   1.376   9.996   1.434
 7280SOL     OW21865   0.803  10.712   0.924
 7280SOL    HW121866   0.893  10.726   0.882
 7280SOL    HW221867   0.732  10.714   0.853
 7281SOL     OW21868   0.922   9.813   0.899
 7281SOL    HW121869   0.897   9.804   0.803
 7281SOL    HW221870   0.970   9.731   0.930
 7282SOL     OW21871   0.539   9.374   0.512
 7282SOL    HW121872   0.458   9.375   0.570
 7282SOL    HW221873   0.542   9.457   0.457
 7283SOL     OW21874   1.434  10.498   0.041
 7283SOL    HW121875   1.466  10.422   0.098
 7283SOL    HW221876   1.342  10.525   0.071
 7284SOL     OW21877   0.297   9.345   0.171
 7284SOL    HW121878   0.346   9.429   0.150
 7284SOL    HW221879   0.359   9.280   0.216
 7285SOL     OW21880   0.935   9.546   0.480
 7285SOL    HW121881   0.887   9.587   0.402
 7285SOL    HW221882   1.034   9.544   0.461
 7286SOL     OW21883   1.076   9.993   1.464
 7286SOL    HW121884   0.996   9.932   1.467
 7286SOL    HW221885   1.157   9.940   1.440
 7287SOL     OW21886   1.227  10.880   0.793
 7287SOL    HW121887   1.248  10.954   0.728
 7287SOL    HW221888   1.295  10.880   0.866
 7288SOL     OW21889   0.459  10.462   0.741
 7288SOL    HW121890   0.388  10.435   0.806
 7288SOL    HW221891   0.433  10.434   0.648
 7289SOL     OW21892   1.271  11.107   0.591
 7289SOL    HW121893   1.315  11.171   0.527
 7289SOL    HW221894   1.221  11.159   0.661
 7290SOL     OW21895   1.032   9.859   0.016
 7290SOL    HW121896   0.991   9.941  -0.023
 7290SOL    HW221897   1.096   9.885   0.089
 7291SOL     OW21898   0.078   9.866   1.386
 7291SOL    HW121899   0.170   9.865   1.345
 7291SOL    HW221900   0.072   9.940   1.453
 7292SOL     OW21901   0.561   9.532   1.147
 7292SOL    HW121902   0.599   9.448   1.184
 7292SOL    HW221903   0.473   9.551   1.191
 7293SOL     OW21904   0.866   9.764   0.642
 7293SOL    HW121905   0.834   9.836   0.580
 7293SOL    HW221906   0.890   9.683   0.589
 7294SOL     OW21907   1.017   9.349   0.753
 7294SOL    HW121908   0.945   9.354   0.684
 7294SOL    HW221909   0.993   9.280   0.822
 7295SOL     OW21910   1.429  10.483   0.867
 7295SOL    HW121911   1.374  10.399   0.860
 7295SOL    HW221912   1.455  10.512   0.775
 7296SOL     OW21913   1.466   9.900   0.992
 7296SOL    HW121914   1.436   9.805   0.999
 7296SOL    HW221915   1.539   9.916   1.058
 7297SOL     OW21916   1.857  10.143   0.377
 7297SOL    HW121917   1.899  10.079   0.441
 7297SOL    HW221918   1.819  10.092   0.299
 7298SOL     OW21919   0.488  10.695   0.174
 7298SOL    HW121920   0.401  10.680   0.221
 7298SOL    HW221921   0.471  10.721   0.079
 7299SOL     OW21922   1.664  10.590   0.657
 7299SOL    HW121923   1.763  10.598   0.671
 7299SOL    HW221924   1.619  10.674   0.688
 7300SOL     OW21925   0.527   9.566   0.328
 7300SOL    HW121926   0.554   9.507   0.253
 7300SOL    HW221927   0.527   9.661   0.297
 7301SOL     OW21928   1.754  10.533   1.588
 7301SOL    HW121929   1.845  10.494   1.575
 7301SOL    HW221930   1.762  10.629   1.612
 7302SOL     OW21931   1.064  10.657   1.340
 7302SOL    HW121932   0.984  10.634   1.395
 7302SOL    HW221933   1.147  10.631   1.389
 7303SOL     OW21934   1.592  10.939   1.625
 7303SOL    HW121935   1.619  10.973   1.535
 7303SOL    HW221936   1.671  10.901   1.671
 7304SOL     OW21937   1.111  10.505   1.100
 7304SOL    HW121938   1.071  10.549   1.181
 7304SOL    HW221939   1.070  10.542   1.017
 7305SOL     OW21940   1.638  10.409   1.079
 7305SOL    HW121941   1.643  10.490   1.138
 7305SOL    HW221942   1.552  10.411   1.028
 7306SOL     OW21943   0.915   9.399   1.402
 7306SOL    HW121944   0.940   9.379   1.307
 7306SOL    HW221945   0.987   9.455   1.444
 7307SOL     OW21946   0.980  10.426   1.719
 7307SOL    HW121947   0.881  10.432   1.729
 7307SOL    HW221948   1.003  10.346   1.663
 7308SOL     OW21949   0.705  10.360   0.368
 7308SOL    HW121950   0.691  10.367   0.467
 7308SOL    HW221951   0.789  10.309   0.350
 7309SOL     OW21952   0.410  10.123   1.251
 7309SOL    HW121953   0.496  10.135   1.301
 7309SOL    HW221954   0.368  10.036   1.278
 7310SOL     OW21955   1.274   9.696   1.262
 7310SOL    HW121956   1.295   9.770   1.326
 7310SOL    HW221957   1.185   9.713   1.219
 7311SOL     OW21958   0.064  10.874   1.331
 7311SOL    HW121959   0.018  10.956   1.297
 7311SOL    HW221960   0.162  10.893   1.340
 7312SOL     OW21961   0.367  10.410   0.501
 7312SOL    HW121962   0.360  10.493   0.445
 7312SOL    HW221963   0.371  10.330   0.441
 7313SOL     OW21964   0.566   9.847   0.865
 7313SOL    HW121965   0.578   9.913   0.791
 7313SOL    HW221966   0.612   9.881   0.948
 7314SOL     OW21967   1.252  10.658   0.388
 7314SOL    HW121968   1.302  10.735   0.428
 7314SOL    HW221969   1.157  10.660   0.420
 7315SOL     OW21970   1.272  10.755   1.142
 7315SOL    HW121971   1.319  10.768   1.229
 7315SOL    HW221972   1.206  10.681   1.151
 7316SOL     OW21973   1.582   9.949   0.472
 7316SOL    HW121974   1.551  10.010   0.545
 7316SOL    HW221975   1.632  10.001   0.403
 7317SOL     OW21976   0.354  10.820   1.329
 7317SOL    HW121977   0.333  10.776   1.242
 7317SOL    HW221978   0.451  10.846   1.332
 7318SOL     OW21979   0.402  10.061   1.598
 7318SOL    HW121980   0.470  10.116   1.551
 7318SOL    HW221981   0.442   9.973   1.625
 7319SOL     OW21982   1.587  10.089   1.670
 7319SOL    HW121983   1.495  10.127   1.665
 7319SOL    HW221984   1.647  10.136   1.605
 7320SOL     OW21985   1.013   9.415   1.770
 7320SOL    HW121986   1.019   9.500   1.718
 7320SOL    HW221987   1.045   9.339   1.713
 7321SOL     OW21988   0.504   9.360   1.740
 7321SOL    HW121989   0.462   9.303   1.670
 7321SOL    HW221990   0.438   9.429   1.772
 7322SOL     OW21991   0.573  10.180   1.029
 7322SOL    HW121992   0.617  10.269   1.020
 7322SOL    HW221993   0.510  10.180   1.106
 7323SOL     OW21994   1.360  10.172   1.045
 7323SOL    HW121995   1.285  10.172   0.979
 7323SOL    HW221996   1.397  10.080   1.054
 7324SOL     OW21997   1.209   9.835   0.275
 7324SOL    HW121998   1.222   9.751   0.329
 7324SOL    HW221999   1.180   9.909   0.335
 7325SOL     OW22000   0.307   9.523   1.231
 7325SOL    HW122001   0.284   9.560   1.321
 7325SOL    HW222002   0.277   9.428   1.225
 7326SOL     OW22003   0.037  10.620   1.282
 7326SOL    HW122004   0.090  10.571   1.350
 7326SOL    HW222005   0.059  10.718   1.287
 7327SOL     OW22006   0.732   9.944   1.064
 7327SOL    HW122007   0.791   9.918   0.988
 7327SOL    HW222008   0.704  10.040   1.053
 7328SOL     OW22009   1.728  10.245   1.854
 7328SOL    HW122010   1.682  10.238   1.765
 7328SOL    HW222011   1.666  10.289   1.920
 7329SOL     OW22012   0.307   9.373   0.618
 7329SOL    HW122013   0.296   9.467   0.651
 7329SOL    HW222014   0.302   9.310   0.695
 7330SOL     OW22015   1.622   9.677   0.374
 7330SOL    HW122016   1.624   9.601   0.438
 7330SOL    HW222017   1.574   9.754   0.414
 7331SOL     OW22018   1.023  10.076   0.966
 7331SOL    HW122019   1.038  10.097   1.062
 7331SOL    HW222020   0.993   9.981   0.957
 7332SOL     OW22021   0.980  10.883   1.700
 7332SOL    HW122022   0.960  10.927   1.612
 7332SOL    HW222023   1.019  10.792   1.684
 7333SOL     OW22024   1.859  10.828   1.605
 7333SOL    HW122025   1.873  10.855   1.510
 7333SOL    HW222026   1.942  10.850   1.658
 7334SOL     OW22027   0.350  10.208   1.804
 7334SOL    HW122028   0.426  10.252   1.852
 7334SOL    HW222029   0.385  10.161   1.722
 7335SOL     OW22030   1.540   9.584   0.125
 7335SOL    HW122031   1.479   9.509   0.148
 7335SOL    HW222032   1.562   9.636   0.208
 7336SOL     OW22033   1.303  10.148   0.042
 7336SOL    HW122034   1.337  10.055   0.057
 7336SOL    HW222035   1.321  10.175  -0.053
 7337SOL     OW22036   1.068  10.643   0.849
 7337SOL    HW122037   1.075  10.559   0.794
 7337SOL    HW222038   1.130  10.712   0.813
 7338SOL     OW22039   0.319  10.120   0.949
 7338SOL    HW122040   0.412  10.156   0.954
 7338SOL    HW222041   0.313  10.035   1.001
 7339SOL     OW22042   0.339   9.819   1.006
 7339SOL    HW122043   0.287   9.736   0.989
 7339SOL    HW222044   0.416   9.824   0.942
 7340SOL     OW22045   1.138   9.690   1.678
 7340SOL    HW122046   1.093   9.753   1.742
 7340SOL    HW222047   1.231   9.721   1.661
 7341SOL     OW22048   1.160   9.517   1.477
 7341SOL    HW122049   1.160   9.581   1.554
 7341SOL    HW222050   1.188   9.565   1.394
 7342SOL     OW22051   0.008  10.636   0.200
 7342SOL    HW122052  -0.085  10.657   0.169
 7342SOL    HW222053   0.018  10.537   0.213
 7343SOL     OW22054   0.088  11.111   0.927
 7343SOL    HW122055   0.046  11.025   0.900
 7343SOL    HW222056   0.182  11.114   0.893
 7344SOL     OW22057   0.504  10.878   0.910
 7344SOL    HW122058   0.570  10.952   0.919
 7344SOL    HW222059   0.548  10.799   0.868
 7345SOL     OW22060   1.002  10.106   1.238
 7345SOL    HW122061   1.043  10.074   1.324
 7345SOL    HW222062   0.906  10.079   1.235
 7346SOL     OW22063   0.040   9.854   1.114
 7346SOL    HW122064   0.125   9.821   1.073
 7346SOL    HW222065   0.053   9.869   1.212
 7347SOL     OW22066   0.189   9.830   1.722
 7347SOL    HW122067   0.248   9.790   1.652
 7347SOL    HW222068   0.131   9.901   1.681
 7348SOL     OW22069   1.369  10.260   1.660
 7348SOL    HW122070   1.408  10.349   1.680
 7348SOL    HW222071   1.379  10.240   1.563
 7349SOL     OW22072   0.815   9.882   0.325
 7349SOL    HW122073   0.822   9.793   0.279
 7349SOL    HW222074   0.721   9.916   0.317
 7350SOL     OW22075   1.657   9.914   1.206
 7350SOL    HW122076   1.619   9.845   1.268
 7350SOL    HW222077   1.739   9.878   1.162
 7351SOL     OW22078   0.252  10.874   1.744
 7351SOL    HW122079   0.222  10.931   1.820
 7351SOL    HW222080   0.245  10.777   1.770
 7352SOL     OW22081   0.671   9.774   1.269
 7352SOL    HW122082   0.637   9.685   1.239
 7352SOL    HW222083   0.697   9.828   1.189
 7353SOL     OW22084   0.930  10.988   1.465
 7353SOL    HW122085   0.906  10.970   1.370
 7353SOL    HW222086   0.960  11.082   1.475
 7354SOL     OW22087   0.473   9.810   0.191
 7354SOL    HW122088   0.534   9.890   0.195
 7354SOL    HW222089   0.378   9.841   0.198
 7355SOL     OW22090   0.159  10.447   1.466
 7355SOL    HW122091   0.181  10.386   1.542
 7355SOL    HW222092   0.169  10.398   1.380
 7356SOL     OW22093   1.347  10.369   1.234
 7356SOL    HW122094   1.371  10.306   1.160
 7356SOL    HW222095   1.257  10.409   1.216
 7357SOL     OW22096   1.302  10.165   0.309
 7357SOL    HW122097   1.216  10.134   0.351
 7357SOL    HW222098   1.298  10.151   0.210
 7358SOL     OW22099   1.759  11.057   1.154
 7358SOL    HW122100   1.820  11.087   1.081
 7358SOL    HW222101   1.721  10.968   1.132
 7359SOL     OW22102   1.252  11.041   1.128
 7359SOL    HW122103   1.336  11.046   1.074
 7359SOL    HW222104   1.229  10.945   1.146
 7360SOL     OW22105   0.083  10.568   1.022
 7360SOL    HW122106   0.078  10.567   1.122
 7360SOL    HW222107   0.000  10.527   0.984
 7361SOL     OW22108   0.688  10.972   1.716
 7361SOL    HW122109   0.632  11.053   1.725
 7361SOL    HW222110   0.740  10.976   1.630
 7362SOL     OW22111   0.903   9.396   0.133
 7362SOL    HW122112   0.954   9.397   0.047
 7362SOL    HW222113   0.959   9.354   0.204
 7363SOL     OW22114   1.726   9.445   0.523
 7363SOL    HW122115   1.799   9.428   0.456
 7363SOL    HW222116   1.695   9.358   0.561
 7364SOL     OW22117   1.388  10.883   0.477
 7364SOL    HW122118   1.455  10.895   0.403
 7364SOL    HW222119   1.348  10.972   0.500
 7365SOL     OW22120   0.130  11.104   1.851
 7365SOL    HW122121   0.089  11.030   1.904
 7365SOL    HW222122   0.194  11.155   1.909
 7366SOL     OW22123   1.280  10.237   0.672
 7366SOL    HW122124   1.340  10.156   0.674
 7366SOL    HW222125   1.320  10.306   0.612
 7367SOL     OW22126   0.830  10.583   1.422
 7367SOL    HW122127   0.825  10.616   1.517
 7367SOL    HW222128   0.744  10.602   1.376
 7368SOL     OW22129   0.672  10.926   0.154
 7368SOL    HW122130   0.681  10.936   0.055
 7368SOL    HW222131   0.632  10.837   0.175
 7369SOL     OW22132   1.650  11.030   1.394
 7369SOL    HW122133   1.703  11.040   1.310
 7369SOL    HW222134   1.623  11.120   1.428
 7370SOL     OW22135   1.841   9.485   0.963
 7370SOL    HW122136   1.880   9.400   0.927
 7370SOL    HW222137   1.743   9.487   0.944
 7371SOL     OW22138   0.263   9.636   0.720
 7371SOL    HW122139   0.184   9.687   0.686
 7371SOL    HW222140   0.254   9.621   0.818
 7372SOL     OW22141   1.194  10.922   0.031
 7372SOL    HW122142   1.200  10.829   0.068
 7372SOL    HW222143   1.135  10.922  -0.049
 7373SOL     OW22144   0.822  10.312   1.372
 7373SOL    HW122145   0.862  10.311   1.280
 7373SOL    HW222146   0.832  10.404   1.412
 7374SOL     OW22147   0.916  10.220   0.291
 7374SOL    HW122148   0.979  10.258   0.223
 7374SOL    HW222149   0.956  10.137   0.330
 7375SOL     OW22150   1.504  10.917   0.044
 7375SOL    HW122151   1.412  10.954   0.051
 7375SOL    HW222152   1.542  10.937  -0.046
 7376SOL     OW22153   0.372  10.598   1.490
 7376SOL    HW122154   0.359  10.691   1.456
 7376SOL    HW222155   0.288  10.546   1.477
 7377SOL     OW22156   1.614  10.602   1.289
 7377SOL    HW122157   1.674  10.605   1.369
 7377SOL    HW222158   1.539  10.666   1.302
 7378SOL     OW22159   1.039  10.408   0.696
 7378SOL    HW122160   0.969  10.361   0.750
 7378SOL    HW222161   1.098  10.340   0.653
 7379SOL     OW22162   1.014   9.546   0.971
 7379SOL    HW122163   1.006   9.510   0.878
 7379SOL    HW222164   1.012   9.470   1.036
 7380SOL     OW22165   0.590  10.797   0.491
 7380SOL    HW122166   0.632  10.739   0.421
 7380SOL    HW222167   0.546  10.876   0.447
 7381SOL     OW22168   1.709   9.695   1.381
 7381SOL    HW122169   1.782   9.764   1.385
 7381SOL    HW222170   1.737   9.620   1.322
 7382SOL     OW22171   0.255  10.658   0.290
 7382SOL    HW122172   0.159  10.659   0.263
 7382SOL    HW222173   0.267  10.711   0.374
 7383SOL     OW22174   0.105  10.323   1.726
 7383SOL    HW122175   0.028  10.290   1.780
 7383SOL    HW222176   0.190  10.293   1.768
 7384SOL     OW22177   0.672   9.513   1.489
 7384SOL    HW122178   0.762   9.497   1.449
 7384SOL    HW222179   0.680   9.518   1.588
 7385SOL     OW22180   0.075   9.655   0.033
 7385SOL    HW122181  -0.017   9.627   0.004
 7385SOL    HW222182   0.106   9.732  -0.023
 7386SOL     OW22183   1.440  10.166   1.398
 7386SOL    HW122184   1.383  10.218   1.335
 7386SOL    HW222185   1.536  10.178   1.374
 7387SOL     OW22186   0.072   9.476   0.318
 7387SOL    HW122187   0.055   9.559   0.264
 7387SOL    HW222188   0.162   9.439   0.296
 7388SOL     OW22189   1.183  10.645   0.119
 7388SOL    HW122190   1.084  10.634   0.121
 7388SOL    HW222191   1.217  10.660   0.212
 7389SOL     OW22192   0.613  10.152   1.431
 7389SOL    HW122193   0.669  10.233   1.414
 7389SOL    HW222194   0.672  10.072   1.434
 7390SOL     OW22195   1.493  11.077   0.959
 7390SOL    HW122196   1.526  11.141   0.890
 7390SOL    HW222197   1.559  11.071   1.034
 7391SOL     OW22198   0.716   9.875   1.708
 7391SOL    HW122199   0.735   9.940   1.782
 7391SOL    HW222200   0.776   9.795   1.717
 7392SOL     OW22201   1.450  10.530   1.633
 7392SOL    HW122202   1.441  10.520   1.732
 7392SOL    HW222203   1.546  10.523   1.607
 7393SOL     OW22204   0.390  11.051   1.560
 7393SOL    HW122205   0.299  11.092   1.558
 7393SOL    HW222206   0.383  10.957   1.592
 7394SOL     OW22207   1.674  10.193   1.254
 7394SOL    HW122208   1.647  10.104   1.217
 7394SOL    HW222209   1.675  10.261   1.181
 7395SOL     OW22210   1.225   9.635   0.449
 7395SOL    HW122211   1.290   9.561   0.438
 7395SOL    HW222212   1.245   9.685   0.533
 7396SOL     OW22213   0.594  10.055   0.652
 7396SOL    HW122214   0.644  10.140   0.633
 7396SOL    HW222215   0.506  10.057   0.604
 7397SOL     OW22216   1.777   9.652   1.642
 7397SOL    HW122217   1.760   9.683   1.548
 7397SOL    HW222218   1.693   9.615   1.680
 7398SOL     OW22219   1.730  10.244   1.517
 7398SOL    HW122220   1.768  10.335   1.532
 7398SOL    HW222221   1.722  10.227   1.418
 7399SOL     OW22222   0.859  10.684   0.016
 7399SOL    HW122223   0.813  10.699   0.104
 7399SOL    HW222224   0.903  10.769  -0.014
 7400SOL     OW22225   0.661  11.100   0.953
 7400SOL    HW122226   0.615  11.188   0.940
 7400SOL    HW222227   0.760  11.112   0.946
 7401SOL     OW22228   0.859  10.266   0.861
 7401SOL    HW122229   0.913  10.197   0.909
 7401SOL    HW222230   0.827  10.335   0.927
 7402SOL     OW22231   1.083  10.294   0.087
 7402SOL    HW122232   1.060  10.347   0.005
 7402SOL    HW222233   1.164  10.238   0.068
 7403SOL     OW22234   1.861  10.879   0.851
 7403SOL    HW122235   1.790  10.867   0.781
 7403SOL    HW222236   1.862  10.800   0.911
 7404SOL     OW22237   0.221  10.624   1.844
 7404SOL    HW122238   0.156  10.551   1.823
 7404SOL    HW222239   0.225  10.638   1.942
 7405SOL     OW22240   0.079  10.550   0.653
 7405SOL    HW122241   0.078  10.503   0.741
 7405SOL    HW222242   0.161  10.522   0.602
 7406SOL     OW22243   0.672  10.701   1.624
 7406SOL    HW122244   0.594  10.651   1.662
 7406SOL    HW222245   0.669  10.796   1.655
 7407SOL     OW22246   1.824   9.502   1.227
 7407SOL    HW122247   1.820   9.412   1.271
 7407SOL    HW222248   1.827   9.491   1.128
 7408SOL     OW22249   0.428   9.734   0.520
 7408SOL    HW122250   0.458   9.662   0.458
 7408SOL    HW222251   0.389   9.694   0.603
 7409SOL     OW22252   1.705  10.797   1.104
 7409SOL    HW122253   1.612  10.772   1.077
 7409SOL    HW222254   1.731  10.747   1.186
 7410SOL     OW22255   0.317   9.857   1.280
 7410SOL    HW122256   0.355   9.798   1.352
 7410SOL    HW222257   0.357   9.831   1.192
 7411SOL     OW22258   0.812  10.896   0.687
 7411SOL    HW122259   0.844  10.906   0.593
 7411SOL    HW222260   0.733  10.834   0.689
 7412SOL     OW22261   1.424   9.524   1.112
 7412SOL    HW122262   1.476   9.459   1.167
 7412SOL    HW222263   1.375   9.587   1.173
 7413SOL     OW22264   1.001   9.344   1.154
 7413SOL    HW122265   0.938   9.272   1.123
 7413SOL    HW222266   1.094   9.308   1.154
 7414SOL     OW22267   0.770  10.640   0.301
 7414SOL    HW122268   0.724  10.553   0.318
 7414SOL    HW222269   0.861  10.637   0.342
 7415SOL     OW22270   0.618  10.877   1.284
 7415SOL    HW122271   0.613  10.959   1.341
 7415SOL    HW222272   0.707  10.874   1.239
 7416SOL     OW22273   1.352   9.362   0.168
 7416SOL    HW122274   1.387   9.321   0.084
 7416SOL    HW222275   1.262   9.324   0.188
 7417SOL     OW22276   1.300   9.763   0.691
 7417SOL    HW122277   1.241   9.843   0.695
 7417SOL    HW222278   1.315   9.728   0.784
 7418SOL     OW22279   1.593   9.531   0.882
 7418SOL    HW122280   1.509   9.530   0.936
 7418SOL    HW222281   1.595   9.614   0.826
 7419SOL     OW22282   0.039  10.387   0.300
 7419SOL    HW122283   0.138  10.376   0.291
 7419SOL    HW222284  -0.001  10.301   0.332
 7420SOL     OW22285   0.875  10.956   0.337
 7420SOL    HW122286   0.798  10.921   0.283
 7420SOL    HW222287   0.843  11.027   0.399
 7421SOL     OW22288   0.230   9.938   1.975
 7421SOL    HW122289   0.137   9.936   2.012
 7421SOL    HW222290   0.231   9.899   1.883
 7422SOL     OW22291   0.225   9.585   2.858
 7422SOL    HW122292   0.260   9.568   2.950
 7422SOL    HW222293   0.137   9.540   2.846
 7423SOL     OW22294   0.019   9.678   2.509
 7423SOL    HW122295  -0.063   9.721   2.548
 7423SOL    HW222296  -0.009   9.605   2.446
 7424SOL     OW22297   0.569  10.585   3.027
 7424SOL    HW122298   0.476  10.578   2.990
 7424SOL    HW222299   0.580  10.674   3.071
 7425SOL     OW22300   1.555  10.821   2.565
 7425SOL    HW122301   1.498  10.805   2.646
 7425SOL    HW222302   1.496  10.831   2.485
 7426SOL     OW22303   1.135  10.013   2.579
 7426SOL    HW122304   1.192  10.091   2.554
 7426SOL    HW222305   1.075  10.039   2.655
 7427SOL     OW22306   1.755   9.917   2.093
 7427SOL    HW122307   1.743   9.904   1.994
 7427SOL    HW222308   1.725   9.836   2.142
 7428SOL     OW22309   0.768  10.454   2.885
 7428SOL    HW122310   0.690  10.471   2.945
 7428SOL    HW222311   0.802  10.541   2.849
 7429SOL     OW22312   0.850  10.108   3.685
 7429SOL    HW122313   0.846  10.184   3.750
 7429SOL    HW222314   0.872  10.144   3.594
 7430SOL     OW22315   0.685  10.322   2.527
 7430SOL    HW122316   0.754  10.306   2.597
 7430SOL    HW222317   0.612  10.379   2.565
 7431SOL     OW22318   0.686  10.471   3.665
 7431SOL    HW122319   0.746  10.550   3.679
 7431SOL    HW222320   0.600  10.502   3.624
 7432SOL     OW22321   0.335  10.745   2.923
 7432SOL    HW122322   0.257  10.714   2.870
 7432SOL    HW222323   0.393  10.803   2.866
 7433SOL     OW22324   1.460  10.815   3.201
 7433SOL    HW122325   1.484  10.909   3.227
 7433SOL    HW222326   1.444  10.761   3.283
 7434SOL     OW22327   0.438   9.702   3.361
 7434SOL    HW122328   0.520   9.646   3.370
 7434SOL    HW222329   0.357   9.644   3.365
 7435SOL     OW22330   1.603   9.757   2.599
 7435SOL    HW122331   1.529   9.803   2.549
 7435SOL    HW222332   1.654   9.825   2.652
 7436SOL     OW22333   0.231  11.023   2.345
 7436SOL    HW122334   0.265  11.100   2.399
 7436SOL    HW222335   0.275  11.023   2.255
 7437SOL     OW22336   1.127  10.651   3.552
 7437SOL    HW122337   1.174  10.651   3.640
 7437SOL    HW222338   1.079  10.564   3.541
 7438SOL     OW22339   0.230  10.744   2.400
 7438SOL    HW122340   0.204  10.840   2.400
 7438SOL    HW222341   0.159  10.690   2.445
 7439SOL     OW22342   0.240  10.401   2.748
 7439SOL    HW122343   0.254  10.317   2.800
 7439SOL    HW222344   0.185  10.465   2.803
 7440SOL     OW22345   0.620  11.096   3.301
 7440SOL    HW122346   0.528  11.079   3.336
 7440SOL    HW222347   0.648  11.188   3.327
 7441SOL     OW22348   0.606  10.274   1.985
 7441SOL    HW122349   0.613  10.358   1.931
 7441SOL    HW222350   0.652  10.287   2.073
 7442SOL     OW22351   1.594   9.424   3.342
 7442SOL    HW122352   1.576   9.491   3.270
 7442SOL    HW222353   1.591   9.470   3.431
 7443SOL     OW22354   0.122   9.953   2.425
 7443SOL    HW122355   0.077   9.865   2.442
 7443SOL    HW222356   0.121  10.007   2.509
 7444SOL     OW22357   1.842  11.077   2.221
 7444SOL    HW122358   1.896  11.048   2.301
 7444SOL    HW222359   1.872  11.167   2.192
 7445SOL     OW22360   0.027  10.906   1.979
 7445SOL    HW122361   0.008  10.810   2.000
 7445SOL    HW222362  -0.006  10.964   2.054
 7446SOL     OW22363   1.689  10.232   2.474
 7446SOL    HW122364   1.784  10.203   2.482
 7446SOL    HW222365   1.681  10.297   2.399
 7447SOL     OW22366   1.641  10.418   2.294
 7447SOL    HW122367   1.727  10.420   2.242
 7447SOL    HW222368   1.655  10.465   2.382
 7448SOL     OW22369   0.113  10.047   3.459
 7448SOL    HW122370   0.201  10.034   3.504
 7448SOL    HW222371   0.100  10.144   3.437
 7449SOL     OW22372   0.613  10.675   2.588
 7449SOL    HW122373   0.564  10.588   2.597
 7449SOL    HW222374   0.590  10.718   2.501
 7450SOL     OW22375   1.293  10.538   3.285
 7450SOL    HW122376   1.330  10.465   3.227
 7450SOL    HW222377   1.345  10.543   3.370
 7451SOL     OW22378   0.809   9.314   2.364
 7451SOL    HW122379   0.849   9.405   2.355
 7451SOL    HW222380   0.709   9.322   2.370
 7452SOL     OW22381   0.197  10.286   3.126
 7452SOL    HW122382   0.286  10.241   3.112
 7452SOL    HW222383   0.124  10.221   3.107
 7453SOL     OW22384   1.525  10.309   2.052
 7453SOL    HW122385   1.462  10.233   2.065
 7453SOL    HW222386   1.573  10.327   2.138
 7454SOL     OW22387   1.187  11.102   3.478
 7454SOL    HW122388   1.211  11.162   3.402
 7454SOL    HW222389   1.194  11.007   3.448
 7455SOL     OW22390   0.317   9.561   3.663
 7455SOL    HW122391   0.388   9.632   3.669
 7455SOL    HW222392   0.229   9.600   3.691
 7456SOL     OW22393   1.667  11.024   2.434
 7456SOL    HW122394   1.626  11.001   2.346
 7456SOL    HW222395   1.649  10.950   2.499
 7457SOL     OW22396   0.598  10.039   2.132
 7457SOL    HW122397   0.622  10.108   2.064
 7457SOL    HW222398   0.520  10.072   2.186
 7458SOL     OW22399   1.281   9.655   2.806
 7458SOL    HW122400   1.195   9.605   2.793
 7458SOL    HW222401   1.343   9.601   2.862
 7459SOL     OW22402   1.576  10.972   2.169
 7459SOL    HW122403   1.665  11.018   2.172
 7459SOL    HW222404   1.555  10.948   2.074
 7460SOL     OW22405   0.807   9.915   3.327
 7460SOL    HW122406   0.760   9.912   3.416
 7460SOL    HW222407   0.756   9.860   3.261
 7461SOL     OW22408   1.394   9.779   3.536
 7461SOL    HW122409   1.374   9.822   3.624
 7461SOL    HW222410   1.472   9.717   3.545
 7462SOL     OW22411   0.973  10.200   3.434
 7462SOL    HW122412   1.019  10.116   3.405
 7462SOL    HW222413   0.917  10.234   3.359
 7463SOL     OW22414   0.991   9.720   3.104
 7463SOL    HW122415   0.914   9.754   3.158
 7463SOL    HW222416   0.957   9.669   3.025
 7464SOL     OW22417   1.041  10.011   2.291
 7464SOL    HW122418   1.067  10.007   2.387
 7464SOL    HW222419   0.956   9.960   2.277
 7465SOL     OW22420   0.076  10.121   2.651
 7465SOL    HW122421   0.175  10.109   2.660
 7465SOL    HW222422   0.052  10.216   2.672
 7466SOL     OW22423   0.130  11.131   3.433
 7466SOL    HW122424   0.120  11.116   3.532
 7466SOL    HW222425   0.044  11.167   3.397
 7467SOL     OW22426   0.865   9.658   2.057
 7467SOL    HW122427   0.924   9.721   2.008
 7467SOL    HW222428   0.884   9.564   2.028
 7468SOL     OW22429   1.719   9.895   3.693
 7468SOL    HW122430   1.693   9.984   3.657
 7468SOL    HW222431   1.717   9.827   3.620
 7469SOL     OW22432   1.362  10.454   2.407
 7469SOL    HW122433   1.445  10.425   2.359
 7469SOL    HW222434   1.313  10.521   2.351
 7470SOL     OW22435   0.550   9.506   2.747
 7470SOL    HW122436   0.545   9.501   2.847
 7470SOL    HW222437   0.552   9.602   2.718
 7471SOL     OW22438   1.008  10.766   2.339
 7471SOL    HW122439   0.962  10.838   2.287
 7471SOL    HW222440   1.004  10.786   2.437
 7472SOL     OW22441   0.351  11.111   2.715
 7472SOL    HW122442   0.401  11.025   2.721
 7472SOL    HW222443   0.416  11.188   2.712
 7473SOL     OW22444   1.795  10.376   2.735
 7473SOL    HW122445   1.733  10.361   2.659
 7473SOL    HW222446   1.743  10.387   2.820
 7474SOL     OW22447   1.227  10.860   3.368
 7474SOL    HW122448   1.233  10.783   3.432
 7474SOL    HW222449   1.175  10.834   3.288
 7475SOL     OW22450   1.458  10.045   2.590
 7475SOL    HW122451   1.453   9.980   2.665
 7475SOL    HW222452   1.538  10.104   2.603
 7476SOL     OW22453   1.111  11.086   2.099
 7476SOL    HW122454   1.051  11.024   2.149
 7476SOL    HW222455   1.142  11.042   2.014
 7477SOL     OW22456   0.202   9.595   3.360
 7477SOL    HW122457   0.122   9.655   3.347
 7477SOL    HW222458   0.192   9.546   3.446
 7478SOL     OW22459   1.632  10.687   1.943
 7478SOL    HW122460   1.600  10.781   1.933
 7478SOL    HW222461   1.556  10.624   1.931
 7479SOL     OW22462   0.464  11.053   2.185
 7479SOL    HW122463   0.497  11.092   2.271
 7479SOL    HW222464   0.540  11.046   2.120
 7480SOL     OW22465   1.400   9.417   2.288
 7480SOL    HW122466   1.376   9.380   2.198
 7480SOL    HW222467   1.499   9.433   2.292
 7481SOL     OW22468   0.249  11.095   3.103
 7481SOL    HW122469   0.306  11.030   3.153
 7481SOL    HW222470   0.233  11.062   3.010
 7482SOL     OW22471   0.940  11.008   2.766
 7482SOL    HW122472   1.020  10.951   2.787
 7482SOL    HW222473   0.891  10.968   2.689
 7483SOL     OW22474   0.382  10.010   2.342
 7483SOL    HW122475   0.427   9.920   2.339
 7483SOL    HW222476   0.288   9.999   2.375
 7484SOL     OW22477   1.547   9.532   3.591
 7484SOL    HW122478   1.542   9.569   3.683
 7484SOL    HW222479   1.475   9.463   3.579
 7485SOL     OW22480   0.614   9.432   1.979
 7485SOL    HW122481   0.712   9.410   1.986
 7485SOL    HW222482   0.583   9.415   1.886
 7486SOL     OW22483   0.781   9.574   3.611
 7486SOL    HW122484   0.848   9.513   3.654
 7486SOL    HW222485   0.708   9.593   3.676
 7487SOL     OW22486   0.888  10.824   3.057
 7487SOL    HW122487   0.865  10.799   2.963
 7487SOL    HW222488   0.949  10.755   3.096
 7488SOL     OW22489   1.351   9.900   3.295
 7488SOL    HW122490   1.379   9.857   3.380
 7488SOL    HW222491   1.376   9.996   3.296
 7489SOL     OW22492   0.803  10.712   2.786
 7489SOL    HW122493   0.893  10.726   2.744
 7489SOL    HW222494   0.732  10.714   2.715
 7490SOL     OW22495   0.922   9.813   2.761
 7490SOL    HW122496   0.897   9.804   2.665
 7490SOL    HW222497   0.970   9.731   2.792
 7491SOL     OW22498   0.539   9.374   2.374
 7491SOL    HW122499   0.458   9.375   2.432
 7491SOL    HW222500   0.542   9.457   2.319
 7492SOL     OW22501   1.434  10.498   1.903
 7492SOL    HW122502   1.466  10.422   1.960
 7492SOL    HW222503   1.342  10.525   1.933
 7493SOL     OW22504   0.297   9.345   2.033
 7493SOL    HW122505   0.346   9.429   2.012
 7493SOL    HW222506   0.359   9.280   2.078
 7494SOL     OW22507   0.935   9.546   2.342
 7494SOL    HW122508   0.887   9.587   2.264
 7494SOL    HW222509   1.034   9.544   2.323
 7495SOL     OW22510   1.076   9.993   3.326
 7495SOL    HW122511   0.996   9.932   3.329
 7495SOL    HW222512   1.157   9.940   3.302
 7496SOL     OW22513   1.227  10.880   2.655
 7496SOL    HW122514   1.248  10.954   2.590
 7496SOL    HW222515   1.295  10.880   2.728
 7497SOL     OW22516   0.459  10.462   2.603
 7497SOL    HW122517   0.388  10.435   2.668
 7497SOL    HW222518   0.433  10.434   2.510
 7498SOL     OW22519   1.271  11.107   2.453
 7498SOL    HW122520   1.315  11.171   2.389
 7498SOL    HW222521   1.221  11.159   2.523
 7499SOL     OW22522   1.032   9.859   1.878
 7499SOL    HW122523   0.991   9.941   1.839
 7499SOL    HW222524   1.096   9.885   1.951
 7500SOL     OW22525   0.078   9.866   3.248
 7500SOL    HW122526   0.170   9.865   3.207
 7500SOL    HW222527   0.072   9.940   3.315
 7501SOL     OW22528   0.561   9.532   3.009
 7501SOL    HW122529   0.599   9.448   3.046
 7501SOL    HW222530   0.473   9.551   3.053
 7502SOL     OW22531   0.866   9.764   2.504
 7502SOL    HW122532   0.834   9.836   2.442
 7502SOL    HW222533   0.890   9.683   2.451
 7503SOL     OW22534   1.017   9.349   2.615
 7503SOL    HW122535   0.945   9.354   2.546
 7503SOL    HW222536   0.993   9.280   2.684
 7504SOL     OW22537   1.429  10.483   2.729
 7504SOL    HW122538   1.374  10.399   2.722
 7504SOL    HW222539   1.455  10.512   2.637
 7505SOL     OW22540   1.466   9.900   2.854
 7505SOL    HW122541   1.436   9.805   2.861
 7505SOL    HW222542   1.539   9.916   2.920
 7506SOL     OW22543   1.857  10.143   2.239
 7506SOL    HW122544   1.899  10.079   2.303
 7506SOL    HW222545   1.819  10.092   2.161
 7507SOL     OW22546   0.488  10.695   2.036
 7507SOL    HW122547   0.401  10.680   2.083
 7507SOL    HW222548   0.471  10.721   1.941
 7508SOL     OW22549   1.664  10.590   2.519
 7508SOL    HW122550   1.763  10.598   2.533
 7508SOL    HW222551   1.619  10.674   2.550
 7509SOL     OW22552   1.390   9.885   1.940
 7509SOL    HW122553   1.336   9.864   2.021
 7509SOL    HW222554   1.481   9.844   1.949
 7510SOL     OW22555   0.527   9.566   2.190
 7510SOL    HW122556   0.554   9.507   2.115
 7510SOL    HW222557   0.527   9.661   2.159
 7511SOL     OW22558   1.754  10.533   3.450
 7511SOL    HW122559   1.845  10.494   3.437
 7511SOL    HW222560   1.762  10.629   3.474
 7512SOL     OW22561   1.064  10.657   3.202
 7512SOL    HW122562   0.984  10.634   3.257
 7512SOL    HW222563   1.147  10.631   3.251
 7513SOL     OW22564   1.592  10.939   3.487
 7513SOL    HW122565   1.619  10.973   3.397
 7513SOL    HW222566   1.671  10.901   3.533
 7514SOL     OW22567   1.111  10.505   2.962
 7514SOL    HW122568   1.071  10.549   3.043
 7514SOL    HW222569   1.070  10.542   2.879
 7515SOL     OW22570   1.638  10.409   2.941
 7515SOL    HW122571   1.643  10.490   3.000
 7515SOL    HW222572   1.552  10.411   2.890
 7516SOL     OW22573   0.915   9.399   3.264
 7516SOL    HW122574   0.940   9.379   3.169
 7516SOL    HW222575   0.987   9.455   3.306
 7517SOL     OW22576   0.980  10.426   3.581
 7517SOL    HW122577   0.881  10.432   3.591
 7517SOL    HW222578   1.003  10.346   3.525
 7518SOL     OW22579   0.705  10.360   2.230
 7518SOL    HW122580   0.691  10.367   2.329
 7518SOL    HW222581   0.789  10.309   2.212
 7519SOL     OW22582   0.410  10.123   3.113
 7519SOL    HW122583   0.496  10.135   3.163
 7519SOL    HW222584   0.368  10.036   3.140
 7520SOL     OW22585   1.274   9.696   3.124
 7520SOL    HW122586   1.295   9.770   3.188
 7520SOL    HW222587   1.185   9.713   3.081
 7521SOL     OW22588   0.064  10.874   3.193
 7521SOL    HW122589   0.018  10.956   3.159
 7521SOL    HW222590   0.162  10.893   3.202
 7522SOL     OW22591   0.367  10.410   2.363
 7522SOL    HW122592   0.360  10.493   2.307
 7522SOL    HW222593   0.371  10.330   2.303
 7523SOL     OW22594   0.566   9.847   2.727
 7523SOL    HW122595   0.578   9.913   2.653
 7523SOL    HW222596   0.612   9.881   2.810
 7524SOL     OW22597   1.252  10.658   2.250
 7524SOL    HW122598   1.302  10.735   2.290
 7524SOL    HW222599   1.157  10.660   2.282
 7525SOL     OW22600   1.272  10.755   3.004
 7525SOL    HW122601   1.319  10.768   3.091
 7525SOL    HW222602   1.206  10.681   3.013
 7526SOL     OW22603   1.582   9.949   2.334
 7526SOL    HW122604   1.551  10.010   2.407
 7526SOL    HW222605   1.632  10.001   2.265
 7527SOL     OW22606   0.354  10.820   3.191
 7527SOL    HW122607   0.333  10.776   3.104
 7527SOL    HW222608   0.451  10.846   3.194
 7528SOL     OW22609   0.402  10.061   3.460
 7528SOL    HW122610   0.470  10.116   3.413
 7528SOL    HW222611   0.442   9.973   3.487
 7529SOL     OW22612   1.587  10.089   3.532
 7529SOL    HW122613   1.495  10.127   3.527
 7529SOL    HW222614   1.647  10.136   3.467
 7530SOL     OW22615   1.013   9.415   3.632
 7530SOL    HW122616   1.019   9.500   3.580
 7530SOL    HW222617   1.045   9.339   3.575
 7531SOL     OW22618   0.504   9.360   3.602
 7531SOL    HW122619   0.462   9.303   3.532
 7531SOL    HW222620   0.438   9.429   3.634
 7532SOL     OW22621   0.573  10.180   2.891
 7532SOL    HW122622   0.617  10.269   2.882
 7532SOL    HW222623   0.510  10.180   2.968
 7533SOL     OW22624   1.360  10.172   2.907
 7533SOL    HW122625   1.285  10.172   2.841
 7533SOL    HW222626   1.397  10.080   2.916
 7534SOL     OW22627   1.209   9.835   2.137
 7534SOL    HW122628   1.222   9.751   2.191
 7534SOL    HW222629   1.180   9.909   2.197
 7535SOL     OW22630   0.307   9.523   3.093
 7535SOL    HW122631   0.284   9.560   3.183
 7535SOL    HW222632   0.277   9.428   3.087
 7536SOL     OW22633   0.037  10.620   3.144
 7536SOL    HW122634   0.090  10.571   3.212
 7536SOL    HW222635   0.059  10.718   3.149
 7537SOL     OW22636   0.732   9.944   2.926
 7537SOL    HW122637   0.791   9.918   2.850
 7537SOL    HW222638   0.704  10.040   2.915
 7538SOL     OW22639   1.728  10.245   3.716
 7538SOL    HW122640   1.682  10.238   3.627
 7538SOL    HW222641   1.666  10.289   3.782
 7539SOL     OW22642   0.307   9.373   2.480
 7539SOL    HW122643   0.296   9.467   2.513
 7539SOL    HW222644   0.302   9.310   2.557
 7540SOL     OW22645   1.622   9.677   2.236
 7540SOL    HW122646   1.624   9.601   2.300
 7540SOL    HW222647   1.574   9.754   2.276
 7541SOL     OW22648   1.023  10.076   2.828
 7541SOL    HW122649   1.038  10.097   2.924
 7541SOL    HW222650   0.993   9.981   2.819
 7542SOL     OW22651   0.980  10.883   3.562
 7542SOL    HW122652   0.960  10.927   3.474
 7542SOL    HW222653   1.019  10.792   3.546
 7543SOL     OW22654   1.859  10.828   3.467
 7543SOL    HW122655   1.873  10.855   3.372
 7543SOL    HW222656   1.942  10.850   3.520
 7544SOL     OW22657   0.350  10.208   3.666
 7544SOL    HW122658   0.426  10.252   3.714
 7544SOL    HW222659   0.385  10.161   3.584
 7545SOL     OW22660   1.540   9.584   1.987
 7545SOL    HW122661   1.479   9.509   2.010
 7545SOL    HW222662   1.562   9.636   2.070
 7546SOL     OW22663   1.303  10.148   1.904
 7546SOL    HW122664   1.337  10.055   1.919
 7546SOL    HW222665   1.321  10.175   1.809
 7547SOL     OW22666   1.068  10.643   2.711
 7547SOL    HW122667   1.075  10.559   2.656
 7547SOL    HW222668   1.130  10.712   2.675
 7548SOL     OW22669   0.319  10.120   2.811
 7548SOL    HW122670   0.412  10.156   2.816
 7548SOL    HW222671   0.313  10.035   2.863
 7549SOL     OW22672   0.339   9.819   2.868
 7549SOL    HW122673   0.287   9.736   2.851
 7549SOL    HW222674   0.416   9.824   2.804
 7550SOL     OW22675   1.138   9.690   3.540
 7550SOL    HW122676   1.093   9.753   3.604
 7550SOL    HW222677   1.231   9.721   3.523
 7551SOL     OW22678   1.160   9.517   3.339
 7551SOL    HW122679   1.160   9.581   3.416
 7551SOL    HW222680   1.188   9.565   3.256
 7552SOL     OW22681   0.008  10.636   2.062
 7552SOL    HW122682  -0.085  10.657   2.031
 7552SOL    HW222683   0.018  10.537   2.075
 7553SOL     OW22684   0.088  11.111   2.789
 7553SOL    HW122685   0.046  11.025   2.762
 7553SOL    HW222686   0.182  11.114   2.755
 7554SOL     OW22687   0.504  10.878   2.772
 7554SOL    HW122688   0.570  10.952   2.781
 7554SOL    HW222689   0.548  10.799   2.730
 7555SOL     OW22690   1.002  10.106   3.100
 7555SOL    HW122691   1.043  10.074   3.186
 7555SOL    HW222692   0.906  10.079   3.097
 7556SOL     OW22693   0.040   9.854   2.976
 7556SOL    HW122694   0.125   9.821   2.935
 7556SOL    HW222695   0.053   9.869   3.074
 7557SOL     OW22696   0.189   9.830   3.584
 7557SOL    HW122697   0.248   9.790   3.514
 7557SOL    HW222698   0.131   9.901   3.543
 7558SOL     OW22699   1.369  10.260   3.522
 7558SOL    HW122700   1.408  10.349   3.542
 7558SOL    HW222701   1.379  10.240   3.425
 7559SOL     OW22702   0.815   9.882   2.187
 7559SOL    HW122703   0.822   9.793   2.141
 7559SOL    HW222704   0.721   9.916   2.179
 7560SOL     OW22705   1.657   9.914   3.068
 7560SOL    HW122706   1.619   9.845   3.130
 7560SOL    HW222707   1.739   9.878   3.024
 7561SOL     OW22708   0.252  10.874   3.606
 7561SOL    HW122709   0.222  10.931   3.682
 7561SOL    HW222710   0.245  10.777   3.632
 7562SOL     OW22711   0.671   9.774   3.131
 7562SOL    HW122712   0.637   9.685   3.101
 7562SOL    HW222713   0.697   9.828   3.051
 7563SOL     OW22714   0.930  10.988   3.327
 7563SOL    HW122715   0.906  10.970   3.232
 7563SOL    HW222716   0.960  11.082   3.337
 7564SOL     OW22717   0.473   9.810   2.053
 7564SOL    HW122718   0.534   9.890   2.057
 7564SOL    HW222719   0.378   9.841   2.060
 7565SOL     OW22720   0.159  10.447   3.328
 7565SOL    HW122721   0.181  10.386   3.404
 7565SOL    HW222722   0.169  10.398   3.242
 7566SOL     OW22723   1.347  10.369   3.096
 7566SOL    HW122724   1.371  10.306   3.022
 7566SOL    HW222725   1.257  10.409   3.078
 7567SOL     OW22726   1.302  10.165   2.171
 7567SOL    HW122727   1.216  10.134   2.213
 7567SOL    HW222728   1.298  10.151   2.072
 7568SOL     OW22729   1.759  11.057   3.016
 7568SOL    HW122730   1.820  11.087   2.943
 7568SOL    HW222731   1.721  10.968   2.994
 7569SOL     OW22732   1.252  11.041   2.990
 7569SOL    HW122733   1.336  11.046   2.936
 7569SOL    HW222734   1.229  10.945   3.008
 7570SOL     OW22735   0.083  10.568   2.884
 7570SOL    HW122736   0.078  10.567   2.984
 7570SOL    HW222737   0.000  10.527   2.846
 7571SOL     OW22738   0.688  10.972   3.578
 7571SOL    HW122739   0.632  11.053   3.587
 7571SOL    HW222740   0.740  10.976   3.492
 7572SOL     OW22741   1.726   9.445   2.385
 7572SOL    HW122742   1.799   9.428   2.318
 7572SOL    HW222743   1.695   9.358   2.423
 7573SOL     OW22744   1.388  10.883   2.339
 7573SOL    HW122745   1.455  10.895   2.265
 7573SOL    HW222746   1.348  10.972   2.362
 7574SOL     OW22747   0.130  11.104   3.713
 7574SOL    HW122748   0.089  11.030   3.766
 7574SOL    HW222749   0.194  11.155   3.771
 7575SOL     OW22750   1.280  10.237   2.534
 7575SOL    HW122751   1.340  10.156   2.536
 7575SOL    HW222752   1.320  10.306   2.474
 7576SOL     OW22753   0.830  10.583   3.284
 7576SOL    HW122754   0.825  10.616   3.379
 7576SOL    HW222755   0.744  10.602   3.238
 7577SOL     OW22756   0.672  10.926   2.016
 7577SOL    HW122757   0.681  10.936   1.917
 7577SOL    HW222758   0.632  10.837   2.037
 7578SOL     OW22759   1.650  11.030   3.256
 7578SOL    HW122760   1.703  11.040   3.172
 7578SOL    HW222761   1.623  11.120   3.290
 7579SOL     OW22762   1.841   9.485   2.825
 7579SOL    HW122763   1.880   9.400   2.789
 7579SOL    HW222764   1.743   9.487   2.806
 7580SOL     OW22765   0.263   9.636   2.582
 7580SOL    HW122766   0.184   9.687   2.548
 7580SOL    HW222767   0.254   9.621   2.680
 7581SOL     OW22768   1.194  10.922   1.893
 7581SOL    HW122769   1.200  10.829   1.930
 7581SOL    HW222770   1.135  10.922   1.813
 7582SOL     OW22771   0.822  10.312   3.234
 7582SOL    HW122772   0.862  10.311   3.142
 7582SOL    HW222773   0.832  10.404   3.274
 7583SOL     OW22774   0.916  10.220   2.153
 7583SOL    HW122775   0.979  10.258   2.085
 7583SOL    HW222776   0.956  10.137   2.192
 7584SOL     OW22777   1.504  10.917   1.906
 7584SOL    HW122778   1.412  10.954   1.913
 7584SOL    HW222779   1.542  10.937   1.816
 7585SOL     OW22780   0.372  10.598   3.352
 7585SOL    HW122781   0.359  10.691   3.318
 7585SOL    HW222782   0.288  10.546   3.339
 7586SOL     OW22783   1.614  10.602   3.151
 7586SOL    HW122784   1.674  10.605   3.231
 7586SOL    HW222785   1.539  10.666   3.164
 7587SOL     OW22786   1.039  10.408   2.558
 7587SOL    HW122787   0.969  10.361   2.612
 7587SOL    HW222788   1.098  10.340   2.515
 7588SOL     OW22789   1.014   9.546   2.833
 7588SOL    HW122790   1.006   9.510   2.740
 7588SOL    HW222791   1.012   9.470   2.898
 7589SOL     OW22792   0.590  10.797   2.353
 7589SOL    HW122793   0.632  10.739   2.283
 7589SOL    HW222794   0.546  10.876   2.309
 7590SOL     OW22795   1.709   9.695   3.243
 7590SOL    HW122796   1.782   9.764   3.247
 7590SOL    HW222797   1.737   9.620   3.184
 7591SOL     OW22798   0.255  10.658   2.152
 7591SOL    HW122799   0.159  10.659   2.125
 7591SOL    HW222800   0.267  10.711   2.236
 7592SOL     OW22801   0.105  10.323   3.588
 7592SOL    HW122802   0.028  10.290   3.642
 7592SOL    HW222803   0.190  10.293   3.630
 7593SOL     OW22804   0.672   9.513   3.351
 7593SOL    HW122805   0.762   9.497   3.311
 7593SOL    HW222806   0.680   9.518   3.450
 7594SOL     OW22807   0.075   9.655   1.895
 7594SOL    HW122808  -0.017   9.627   1.866
 7594SOL    HW222809   0.106   9.732   1.839
 7595SOL     OW22810   1.440  10.166   3.260
 7595SOL    HW122811   1.383  10.218   3.197
 7595SOL    HW222812   1.536  10.178   3.236
 7596SOL     OW22813   0.072   9.476   2.180
 7596SOL    HW122814   0.055   9.559   2.126
 7596SOL    HW222815   0.162   9.439   2.158
 7597SOL     OW22816   1.183  10.645   1.981
 7597SOL    HW122817   1.084  10.634   1.983
 7597SOL    HW222818   1.217  10.660   2.074
 7598SOL     OW22819   0.613  10.152   3.293
 7598SOL    HW122820   0.669  10.233   3.276
 7598SOL    HW222821   0.672  10.072   3.296
 7599SOL     OW22822   1.493  11.077   2.821
 7599SOL    HW122823   1.526  11.141   2.752
 7599SOL    HW222824   1.559  11.071   2.896
 7600SOL     OW22825   0.716   9.875   3.570
 7600SOL    HW122826   0.735   9.940   3.644
 7600SOL    HW222827   0.776   9.795   3.579
 7601SOL     OW22828   1.450  10.530   3.495
 7601SOL    HW122829   1.441  10.520   3.594
 7601SOL    HW222830   1.546  10.523   3.469
 7602SOL     OW22831   0.390  11.051   3.422
 7602SOL    HW122832   0.299  11.092   3.420
 7602SOL    HW222833   0.383  10.957   3.454
 7603SOL     OW22834   1.674  10.193   3.116
 7603SOL    HW122835   1.647  10.104   3.079
 7603SOL    HW222836   1.675  10.261   3.043
 7604SOL     OW22837   1.225   9.635   2.311
 7604SOL    HW122838   1.290   9.561   2.300
 7604SOL    HW222839   1.245   9.685   2.395
 7605SOL     OW22840   0.594  10.055   2.514
 7605SOL    HW122841   0.644  10.140   2.495
 7605SOL    HW222842   0.506  10.057   2.466
 7606SOL     OW22843   1.777   9.652   3.504
 7606SOL    HW122844   1.760   9.683   3.410
 7606SOL    HW222845   1.693   9.615   3.542
 7607SOL     OW22846   1.730  10.244   3.379
 7607SOL    HW122847   1.768  10.335   3.394
 7607SOL    HW222848   1.722  10.227   3.280
 7608SOL     OW22849   0.859  10.684   1.878
 7608SOL    HW122850   0.813  10.699   1.966
 7608SOL    HW222851   0.903  10.769   1.848
 7609SOL     OW22852   0.661  11.100   2.815
 7609SOL    HW122853   0.615  11.188   2.802
 7609SOL    HW222854   0.760  11.112   2.808
 7610SOL     OW22855   0.859  10.266   2.723
 7610SOL    HW122856   0.913  10.197   2.771
 7610SOL    HW222857   0.827  10.335   2.789
 7611SOL     OW22858   1.083  10.294   1.949
 7611SOL    HW122859   1.060  10.347   1.867
 7611SOL    HW222860   1.164  10.238   1.930
 7612SOL     OW22861   1.861  10.879   2.713
 7612SOL    HW122862   1.790  10.867   2.643
 7612SOL    HW222863   1.862  10.800   2.773
 7613SOL     OW22864   0.221  10.624   3.706
 7613SOL    HW122865   0.156  10.551   3.685
 7613SOL    HW222866   0.225  10.638   3.804
 7614SOL     OW22867   0.079  10.550   2.515
 7614SOL    HW122868   0.078  10.503   2.603
 7614SOL    HW222869   0.161  10.522   2.464
 7615SOL     OW22870   0.672  10.701   3.486
 7615SOL    HW122871   0.594  10.651   3.524
 7615SOL    HW222872   0.669  10.796   3.517
 7616SOL     OW22873   1.824   9.502   3.089
 7616SOL    HW122874   1.820   9.412   3.133
 7616SOL    HW222875   1.827   9.491   2.990
 7617SOL     OW22876   0.428   9.734   2.382
 7617SOL    HW122877   0.458   9.662   2.320
 7617SOL    HW222878   0.389   9.694   2.465
 7618SOL     OW22879   1.705  10.797   2.966
 7618SOL    HW122880   1.612  10.772   2.939
 7618SOL    HW222881   1.731  10.747   3.048
 7619SOL     OW22882   0.317   9.857   3.142
 7619SOL    HW122883   0.355   9.798   3.214
 7619SOL    HW222884   0.357   9.831   3.054
 7620SOL     OW22885   0.812  10.896   2.549
 7620SOL    HW122886   0.844  10.906   2.455
 7620SOL    HW222887   0.733  10.834   2.551
 7621SOL     OW22888   1.424   9.524   2.974
 7621SOL    HW122889   1.476   9.459   3.029
 7621SOL    HW222890   1.375   9.587   3.035
 7622SOL     OW22891   1.001   9.344   3.016
 7622SOL    HW122892   0.938   9.272   2.985
 7622SOL    HW222893   1.094   9.308   3.016
 7623SOL     OW22894   0.770  10.640   2.163
 7623SOL    HW122895   0.724  10.553   2.180
 7623SOL    HW222896   0.861  10.637   2.204
 7624SOL     OW22897   0.618  10.877   3.146
 7624SOL    HW122898   0.613  10.959   3.203
 7624SOL    HW222899   0.707  10.874   3.101
 7625SOL     OW22900   1.352   9.362   2.030
 7625SOL    HW122901   1.387   9.321   1.946
 7625SOL    HW222902   1.262   9.324   2.050
 7626SOL     OW22903   1.300   9.763   2.553
 7626SOL    HW122904   1.241   9.843   2.557
 7626SOL    HW222905   1.315   9.728   2.646
 7627SOL     OW22906   1.593   9.531   2.744
 7627SOL    HW122907   1.509   9.530   2.798
 7627SOL    HW222908   1.595   9.614   2.688
 7628SOL     OW22909   0.039  10.387   2.162
 7628SOL    HW122910   0.138  10.376   2.153
 7628SOL    HW222911  -0.001  10.301   2.194
 7629SOL     OW22912   0.875  10.956   2.199
 7629SOL    HW122913   0.798  10.921   2.145
 7629SOL    HW222914   0.843  11.027   2.261
 7630SOL     OW22915   0.230   9.938   3.837
 7630SOL    HW122916   0.137   9.936   3.874
 7630SOL    HW222917   0.231   9.899   3.745
 7631SOL     OW22918   0.225   9.585   4.720
 7631SOL    HW122919   0.260   9.568   4.812
 7631SOL    HW222920   0.137   9.540   4.708
 7632SOL     OW22921   0.019   9.678   4.371
 7632SOL    HW122922  -0.063   9.721   4.410
 7632SOL    HW222923  -0.009   9.605   4.308
 7633SOL     OW22924   0.569  10.585   4.889
 7633SOL    HW122925   0.476  10.578   4.852
 7633SOL    HW222926   0.580  10.674   4.933
 7634SOL     OW22927   1.555  10.821   4.427
 7634SOL    HW122928   1.498  10.805   4.508
 7634SOL    HW222929   1.496  10.831   4.347
 7635SOL     OW22930   1.135  10.013   4.441
 7635SOL    HW122931   1.192  10.091   4.416
 7635SOL    HW222932   1.075  10.039   4.517
 7636SOL     OW22933   1.755   9.917   3.955
 7636SOL    HW122934   1.743   9.904   3.856
 7636SOL    HW222935   1.725   9.836   4.004
 7637SOL     OW22936   0.768  10.454   4.747
 7637SOL    HW122937   0.690  10.471   4.807
 7637SOL    HW222938   0.802  10.541   4.711
 7638SOL     OW22939   0.850  10.108   5.547
 7638SOL    HW122940   0.846  10.184   5.612
 7638SOL    HW222941   0.872  10.144   5.456
 7639SOL     OW22942   0.685  10.322   4.389
 7639SOL    HW122943   0.754  10.306   4.459
 7639SOL    HW222944   0.612  10.379   4.427
 7640SOL     OW22945   0.686  10.471   5.527
 7640SOL    HW122946   0.746  10.550   5.541
 7640SOL    HW222947   0.600  10.502   5.486
 7641SOL     OW22948   0.335  10.745   4.785
 7641SOL    HW122949   0.257  10.714   4.732
 7641SOL    HW222950   0.393  10.803   4.728
 7642SOL     OW22951   1.460  10.815   5.063
 7642SOL    HW122952   1.484  10.909   5.089
 7642SOL    HW222953   1.444  10.761   5.145
 7643SOL     OW22954   0.438   9.702   5.223
 7643SOL    HW122955   0.520   9.646   5.232
 7643SOL    HW222956   0.357   9.644   5.227
 7644SOL     OW22957   1.603   9.757   4.461
 7644SOL    HW122958   1.529   9.803   4.411
 7644SOL    HW222959   1.654   9.825   4.514
 7645SOL     OW22960   0.231  11.023   4.207
 7645SOL    HW122961   0.265  11.100   4.261
 7645SOL    HW222962   0.275  11.023   4.117
 7646SOL     OW22963   1.127  10.651   5.414
 7646SOL    HW122964   1.174  10.651   5.502
 7646SOL    HW222965   1.079  10.564   5.403
 7647SOL     OW22966   0.230  10.744   4.262
 7647SOL    HW122967   0.204  10.840   4.262
 7647SOL    HW222968   0.159  10.690   4.307
 7648SOL     OW22969   0.240  10.401   4.610
 7648SOL    HW122970   0.254  10.317   4.662
 7648SOL    HW222971   0.185  10.465   4.665
 7649SOL     OW22972   0.620  11.096   5.163
 7649SOL    HW122973   0.528  11.079   5.198
 7649SOL    HW222974   0.648  11.188   5.189
 7650SOL     OW22975   0.606  10.274   3.847
 7650SOL    HW122976   0.613  10.358   3.793
 7650SOL    HW222977   0.652  10.287   3.935
 7651SOL     OW22978   1.594   9.424   5.204
 7651SOL    HW122979   1.576   9.491   5.132
 7651SOL    HW222980   1.591   9.470   5.293
 7652SOL     OW22981   0.122   9.953   4.287
 7652SOL    HW122982   0.077   9.865   4.304
 7652SOL    HW222983   0.121  10.007   4.371
 7653SOL     OW22984   1.842  11.077   4.083
 7653SOL    HW122985   1.896  11.048   4.163
 7653SOL    HW222986   1.872  11.167   4.054
 7654SOL     OW22987   0.027  10.906   3.841
 7654SOL    HW122988   0.008  10.810   3.862
 7654SOL    HW222989  -0.006  10.964   3.916
 7655SOL     OW22990   1.689  10.232   4.336
 7655SOL    HW122991   1.784  10.203   4.344
 7655SOL    HW222992   1.681  10.297   4.261
 7656SOL     OW22993   1.641  10.418   4.156
 7656SOL    HW122994   1.727  10.420   4.104
 7656SOL    HW222995   1.655  10.465   4.244
 7657SOL     OW22996   0.113  10.047   5.321
 7657SOL    HW122997   0.201  10.034   5.366
 7657SOL    HW222998   0.100  10.144   5.299
 7658SOL     OW22999   0.613  10.675   4.450
 7658SOL    HW123000   0.564  10.588   4.459
 7658SOL    HW223001   0.590  10.718   4.363
 7659SOL     OW23002   1.293  10.538   5.147
 7659SOL    HW123003   1.330  10.465   5.089
 7659SOL    HW223004   1.345  10.543   5.232
 7660SOL     OW23005   0.809   9.314   4.226
 7660SOL    HW123006   0.849   9.405   4.217
 7660SOL    HW223007   0.709   9.322   4.232
 7661SOL     OW23008   0.197  10.286   4.988
 7661SOL    HW123009   0.286  10.241   4.974
 7661SOL    HW223010   0.124  10.221   4.969
 7662SOL     OW23011   1.525  10.309   3.914
 7662SOL    HW123012   1.462  10.233   3.927
 7662SOL    HW223013   1.573  10.327   4.000
 7663SOL     OW23014   1.187  11.102   5.340
 7663SOL    HW123015   1.211  11.162   5.264
 7663SOL    HW223016   1.194  11.007   5.310
 7664SOL     OW23017   0.317   9.561   5.525
 7664SOL    HW123018   0.388   9.632   5.531
 7664SOL    HW223019   0.229   9.600   5.553
 7665SOL     OW23020   1.466  10.727   4.677
 7665SOL    HW123021   1.407  10.733   4.757
 7665SOL    HW223022   1.451  10.639   4.631
 7666SOL     OW23023   1.667  11.024   4.296
 7666SOL    HW123024   1.626  11.001   4.208
 7666SOL    HW223025   1.649  10.950   4.361
 7667SOL     OW23026   0.598  10.039   3.994
 7667SOL    HW123027   0.622  10.108   3.926
 7667SOL    HW223028   0.520  10.072   4.048
 7668SOL     OW23029   1.281   9.655   4.668
 7668SOL    HW123030   1.195   9.605   4.655
 7668SOL    HW223031   1.343   9.601   4.724
 7669SOL     OW23032   1.576  10.972   4.031
 7669SOL    HW123033   1.665  11.018   4.034
 7669SOL    HW223034   1.555  10.948   3.936
 7670SOL     OW23035   0.807   9.915   5.189
 7670SOL    HW123036   0.760   9.912   5.278
 7670SOL    HW223037   0.756   9.860   5.123
 7671SOL     OW23038   1.394   9.779   5.398
 7671SOL    HW123039   1.374   9.822   5.486
 7671SOL    HW223040   1.472   9.717   5.407
 7672SOL     OW23041   0.973  10.200   5.296
 7672SOL    HW123042   1.019  10.116   5.267
 7672SOL    HW223043   0.917  10.234   5.221
 7673SOL     OW23044   0.991   9.720   4.966
 7673SOL    HW123045   0.914   9.754   5.020
 7673SOL    HW223046   0.957   9.669   4.887
 7674SOL     OW23047   1.041  10.011   4.153
 7674SOL    HW123048   1.067  10.007   4.249
 7674SOL    HW223049   0.956   9.960   4.139
 7675SOL     OW23050   0.076  10.121   4.513
 7675SOL    HW123051   0.175  10.109   4.522
 7675SOL    HW223052   0.052  10.216   4.534
 7676SOL     OW23053   0.130  11.131   5.295
 7676SOL    HW123054   0.120  11.116   5.394
 7676SOL    HW223055   0.044  11.167   5.259
 7677SOL     OW23056   0.865   9.658   3.919
 7677SOL    HW123057   0.924   9.721   3.870
 7677SOL    HW223058   0.884   9.564   3.890
 7678SOL     OW23059   1.719   9.895   5.555
 7678SOL    HW123060   1.693   9.984   5.519
 7678SOL    HW223061   1.717   9.827   5.482
 7679SOL     OW23062   1.362  10.454   4.269
 7679SOL    HW123063   1.445  10.425   4.221
 7679SOL    HW223064   1.313  10.521   4.213
 7680SOL     OW23065   0.550   9.506   4.609
 7680SOL    HW123066   0.545   9.501   4.709
 7680SOL    HW223067   0.552   9.602   4.580
 7681SOL     OW23068   1.008  10.766   4.201
 7681SOL    HW123069   0.962  10.838   4.149
 7681SOL    HW223070   1.004  10.786   4.299
 7682SOL     OW23071   0.351  11.111   4.577
 7682SOL    HW123072   0.401  11.025   4.583
 7682SOL    HW223073   0.416  11.188   4.574
 7683SOL     OW23074   1.795  10.376   4.597
 7683SOL    HW123075   1.733  10.361   4.521
 7683SOL    HW223076   1.743  10.387   4.682
 7684SOL     OW23077   1.227  10.860   5.230
 7684SOL    HW123078   1.233  10.783   5.294
 7684SOL    HW223079   1.175  10.834   5.150
 7685SOL     OW23080   0.321  10.253   3.966
 7685SOL    HW123081   0.403  10.292   3.924
 7685SOL    HW223082   0.294  10.171   3.917
 7686SOL     OW23083   1.458  10.045   4.452
 7686SOL    HW123084   1.453   9.980   4.527
 7686SOL    HW223085   1.538  10.104   4.465
 7687SOL     OW23086   0.461  10.576   5.451
 7687SOL    HW123087   0.411  10.577   5.365
 7687SOL    HW223088   0.398  10.558   5.527
 7688SOL     OW23089   1.111  11.086   3.961
 7688SOL    HW123090   1.051  11.024   4.011
 7688SOL    HW223091   1.142  11.042   3.876
 7689SOL     OW23092   0.202   9.595   5.222
 7689SOL    HW123093   0.122   9.655   5.209
 7689SOL    HW223094   0.192   9.546   5.308
 7690SOL     OW23095   1.632  10.687   3.805
 7690SOL    HW123096   1.600  10.781   3.795
 7690SOL    HW223097   1.556  10.624   3.793
 7691SOL     OW23098   0.464  11.053   4.047
 7691SOL    HW123099   0.497  11.092   4.133
 7691SOL    HW223100   0.540  11.046   3.982
 7692SOL     OW23101   1.400   9.417   4.150
 7692SOL    HW123102   1.376   9.380   4.060
 7692SOL    HW223103   1.499   9.433   4.154
 7693SOL     OW23104   0.249  11.095   4.965
 7693SOL    HW123105   0.306  11.030   5.015
 7693SOL    HW223106   0.233  11.062   4.872
 7694SOL     OW23107   0.940  11.008   4.628
 7694SOL    HW123108   1.020  10.951   4.649
 7694SOL    HW223109   0.891  10.968   4.551
 7695SOL     OW23110   0.382  10.010   4.204
 7695SOL    HW123111   0.427   9.920   4.201
 7695SOL    HW223112   0.288   9.999   4.237
 7696SOL     OW23113   1.547   9.532   5.453
 7696SOL    HW123114   1.542   9.569   5.545
 7696SOL    HW223115   1.475   9.463   5.441
 7697SOL     OW23116   0.614   9.432   3.841
 7697SOL    HW123117   0.712   9.410   3.848
 7697SOL    HW223118   0.583   9.415   3.748
 7698SOL     OW23119   0.781   9.574   5.473
 7698SOL    HW123120   0.848   9.513   5.516
 7698SOL    HW223121   0.708   9.593   5.538
 7699SOL     OW23122   0.888  10.824   4.919
 7699SOL    HW123123   0.865  10.799   4.825
 7699SOL    HW223124   0.949  10.755   4.958
 7700SOL     OW23125   1.351   9.900   5.157
 7700SOL    HW123126   1.379   9.857   5.242
 7700SOL    HW223127   1.376   9.996   5.158
 7701SOL     OW23128   0.803  10.712   4.648
 7701SOL    HW123129   0.893  10.726   4.606
 7701SOL    HW223130   0.732  10.714   4.577
 7702SOL     OW23131   0.922   9.813   4.623
 7702SOL    HW123132   0.897   9.804   4.527
 7702SOL    HW223133   0.970   9.731   4.654
 7703SOL     OW23134   0.539   9.374   4.236
 7703SOL    HW123135   0.458   9.375   4.294
 7703SOL    HW223136   0.542   9.457   4.181
 7704SOL     OW23137   1.434  10.498   3.765
 7704SOL    HW123138   1.466  10.422   3.822
 7704SOL    HW223139   1.342  10.525   3.795
 7705SOL     OW23140   0.297   9.345   3.895
 7705SOL    HW123141   0.346   9.429   3.874
 7705SOL    HW223142   0.359   9.280   3.940
 7706SOL     OW23143   0.935   9.546   4.204
 7706SOL    HW123144   0.887   9.587   4.126
 7706SOL    HW223145   1.034   9.544   4.185
 7707SOL     OW23146   1.076   9.993   5.188
 7707SOL    HW123147   0.996   9.932   5.191
 7707SOL    HW223148   1.157   9.940   5.164
 7708SOL     OW23149   1.227  10.880   4.517
 7708SOL    HW123150   1.248  10.954   4.452
 7708SOL    HW223151   1.295  10.880   4.590
 7709SOL     OW23152   0.459  10.462   4.465
 7709SOL    HW123153   0.388  10.435   4.530
 7709SOL    HW223154   0.433  10.434   4.372
 7710SOL     OW23155   1.271  11.107   4.315
 7710SOL    HW123156   1.315  11.171   4.251
 7710SOL    HW223157   1.221  11.159   4.385
 7711SOL     OW23158   1.032   9.859   3.740
 7711SOL    HW123159   0.991   9.941   3.701
 7711SOL    HW223160   1.096   9.885   3.813
 7712SOL     OW23161   0.078   9.866   5.110
 7712SOL    HW123162   0.170   9.865   5.069
 7712SOL    HW223163   0.072   9.940   5.177
 7713SOL     OW23164   0.561   9.532   4.871
 7713SOL    HW123165   0.599   9.448   4.908
 7713SOL    HW223166   0.473   9.551   4.915
 7714SOL     OW23167   0.866   9.764   4.366
 7714SOL    HW123168   0.834   9.836   4.304
 7714SOL    HW223169   0.890   9.683   4.313
 7715SOL     OW23170   1.017   9.349   4.477
 7715SOL    HW123171   0.945   9.354   4.408
 7715SOL    HW223172   0.993   9.280   4.546
 7716SOL     OW23173   1.429  10.483   4.591
 7716SOL    HW123174   1.374  10.399   4.584
 7716SOL    HW223175   1.455  10.512   4.499
 7717SOL     OW23176   1.466   9.900   4.716
 7717SOL    HW123177   1.436   9.805   4.723
 7717SOL    HW223178   1.539   9.916   4.782
 7718SOL     OW23179   1.857  10.143   4.101
 7718SOL    HW123180   1.899  10.079   4.165
 7718SOL    HW223181   1.819  10.092   4.023
 7719SOL     OW23182   0.488  10.695   3.898
 7719SOL    HW123183   0.401  10.680   3.945
 7719SOL    HW223184   0.471  10.721   3.803
 7720SOL     OW23185   1.664  10.590   4.381
 7720SOL    HW123186   1.763  10.598   4.395
 7720SOL    HW223187   1.619  10.674   4.412
 7721SOL     OW23188   1.390   9.885   3.802
 7721SOL    HW123189   1.336   9.864   3.883
 7721SOL    HW223190   1.481   9.844   3.811
 7722SOL     OW23191   0.527   9.566   4.052
 7722SOL    HW123192   0.554   9.507   3.977
 7722SOL    HW223193   0.527   9.661   4.021
 7723SOL     OW23194   1.754  10.533   5.312
 7723SOL    HW123195   1.845  10.494   5.299
 7723SOL    HW223196   1.762  10.629   5.336
 7724SOL     OW23197   1.064  10.657   5.064
 7724SOL    HW123198   0.984  10.634   5.119
 7724SOL    HW223199   1.147  10.631   5.113
 7725SOL     OW23200   1.592  10.939   5.349
 7725SOL    HW123201   1.619  10.973   5.259
 7725SOL    HW223202   1.671  10.901   5.395
 7726SOL     OW23203   1.111  10.505   4.824
 7726SOL    HW123204   1.071  10.549   4.905
 7726SOL    HW223205   1.070  10.542   4.741
 7727SOL     OW23206   1.638  10.409   4.803
 7727SOL    HW123207   1.643  10.490   4.862
 7727SOL    HW223208   1.552  10.411   4.752
 7728SOL     OW23209   0.915   9.399   5.126
 7728SOL    HW123210   0.940   9.379   5.031
 7728SOL    HW223211   0.987   9.455   5.168
 7729SOL     OW23212   0.980  10.426   5.443
 7729SOL    HW123213   0.881  10.432   5.453
 7729SOL    HW223214   1.003  10.346   5.387
 7730SOL     OW23215   0.705  10.360   4.092
 7730SOL    HW123216   0.691  10.367   4.191
 7730SOL    HW223217   0.789  10.309   4.074
 7731SOL     OW23218   0.410  10.123   4.975
 7731SOL    HW123219   0.496  10.135   5.025
 7731SOL    HW223220   0.368  10.036   5.002
 7732SOL     OW23221   1.274   9.696   4.986
 7732SOL    HW123222   1.295   9.770   5.050
 7732SOL    HW223223   1.185   9.713   4.943
 7733SOL     OW23224   0.064  10.874   5.055
 7733SOL    HW123225   0.018  10.956   5.021
 7733SOL    HW223226   0.162  10.893   5.064
 7734SOL     OW23227   0.367  10.410   4.225
 7734SOL    HW123228   0.360  10.493   4.169
 7734SOL    HW223229   0.371  10.330   4.165
 7735SOL     OW23230   0.566   9.847   4.589
 7735SOL    HW123231   0.578   9.913   4.515
 7735SOL    HW223232   0.612   9.881   4.672
 7736SOL     OW23233   1.252  10.658   4.112
 7736SOL    HW123234   1.302  10.735   4.152
 7736SOL    HW223235   1.157  10.660   4.144
 7737SOL     OW23236   1.272  10.755   4.866
 7737SOL    HW123237   1.319  10.768   4.953
 7737SOL    HW223238   1.206  10.681   4.875
 7738SOL     OW23239   1.582   9.949   4.196
 7738SOL    HW123240   1.551  10.010   4.269
 7738SOL    HW223241   1.632  10.001   4.127
 7739SOL     OW23242   0.354  10.820   5.053
 7739SOL    HW123243   0.333  10.776   4.966
 7739SOL    HW223244   0.451  10.846   5.056
 7740SOL     OW23245   0.402  10.061   5.322
 7740SOL    HW123246   0.470  10.116   5.275
 7740SOL    HW223247   0.442   9.973   5.349
 7741SOL     OW23248   1.587  10.089   5.394
 7741SOL    HW123249   1.495  10.127   5.389
 7741SOL    HW223250   1.647  10.136   5.329
 7742SOL     OW23251   1.013   9.415   5.494
 7742SOL    HW123252   1.019   9.500   5.442
 7742SOL    HW223253   1.045   9.339   5.437
 7743SOL     OW23254   0.504   9.360   5.464
 7743SOL    HW123255   0.462   9.303   5.394
 7743SOL    HW223256   0.438   9.429   5.496
 7744SOL     OW23257   0.573  10.180   4.753
 7744SOL    HW123258   0.617  10.269   4.744
 7744SOL    HW223259   0.510  10.180   4.830
 7745SOL     OW23260   1.360  10.172   4.769
 7745SOL    HW123261   1.285  10.172   4.703
 7745SOL    HW223262   1.397  10.080   4.778
 7746SOL     OW23263   1.209   9.835   3.999
 7746SOL    HW123264   1.222   9.751   4.053
 7746SOL    HW223265   1.180   9.909   4.059
 7747SOL     OW23266   0.307   9.523   4.955
 7747SOL    HW123267   0.284   9.560   5.045
 7747SOL    HW223268   0.277   9.428   4.949
 7748SOL     OW23269   0.037  10.620   5.006
 7748SOL    HW123270   0.090  10.571   5.074
 7748SOL    HW223271   0.059  10.718   5.011
 7749SOL     OW23272   0.732   9.944   4.788
 7749SOL    HW123273   0.791   9.918   4.712
 7749SOL    HW223274   0.704  10.040   4.777
 7750SOL     OW23275   1.728  10.245   5.578
 7750SOL    HW123276   1.682  10.238   5.489
 7750SOL    HW223277   1.666  10.289   5.644
 7751SOL     OW23278   0.307   9.373   4.342
 7751SOL    HW123279   0.296   9.467   4.375
 7751SOL    HW223280   0.302   9.310   4.419
 7752SOL     OW23281   1.622   9.677   4.098
 7752SOL    HW123282   1.624   9.601   4.162
 7752SOL    HW223283   1.574   9.754   4.138
 7753SOL     OW23284   1.023  10.076   4.690
 7753SOL    HW123285   1.038  10.097   4.786
 7753SOL    HW223286   0.993   9.981   4.681
 7754SOL     OW23287   0.980  10.883   5.424
 7754SOL    HW123288   0.960  10.927   5.336
 7754SOL    HW223289   1.019  10.792   5.408
 7755SOL     OW23290   1.859  10.828   5.329
 7755SOL    HW123291   1.873  10.855   5.234
 7755SOL    HW223292   1.942  10.850   5.382
 7756SOL     OW23293   0.350  10.208   5.528
 7756SOL    HW123294   0.426  10.252   5.576
 7756SOL    HW223295   0.385  10.161   5.446
 7757SOL     OW23296   1.540   9.584   3.849
 7757SOL    HW123297   1.479   9.509   3.872
 7757SOL    HW223298   1.562   9.636   3.932
 7758SOL     OW23299   1.303  10.148   3.766
 7758SOL    HW123300   1.337  10.055   3.781
 7758SOL    HW223301   1.321  10.175   3.671
 7759SOL     OW23302   1.068  10.643   4.573
 7759SOL    HW123303   1.075  10.559   4.518
 7759SOL    HW223304   1.130  10.712   4.537
 7760SOL     OW23305   0.319  10.120   4.673
 7760SOL    HW123306   0.412  10.156   4.678
 7760SOL    HW223307   0.313  10.035   4.725
 7761SOL     OW23308   0.339   9.819   4.730
 7761SOL    HW123309   0.287   9.736   4.713
 7761SOL    HW223310   0.416   9.824   4.666
 7762SOL     OW23311   1.138   9.690   5.402
 7762SOL    HW123312   1.093   9.753   5.466
 7762SOL    HW223313   1.231   9.721   5.385
 7763SOL     OW23314   1.160   9.517   5.201
 7763SOL    HW123315   1.160   9.581   5.278
 7763SOL    HW223316   1.188   9.565   5.118
 7764SOL     OW23317   0.008  10.636   3.924
 7764SOL    HW123318  -0.085  10.657   3.893
 7764SOL    HW223319   0.018  10.537   3.937
 7765SOL     OW23320   0.088  11.111   4.651
 7765SOL    HW123321   0.046  11.025   4.624
 7765SOL    HW223322   0.182  11.114   4.617
 7766SOL     OW23323   0.504  10.878   4.634
 7766SOL    HW123324   0.570  10.952   4.643
 7766SOL    HW223325   0.548  10.799   4.592
 7767SOL     OW23326   1.002  10.106   4.962
 7767SOL    HW123327   1.043  10.074   5.048
 7767SOL    HW223328   0.906  10.079   4.959
 7768SOL     OW23329   0.040   9.854   4.838
 7768SOL    HW123330   0.125   9.821   4.797
 7768SOL    HW223331   0.053   9.869   4.936
 7769SOL     OW23332   0.189   9.830   5.446
 7769SOL    HW123333   0.248   9.790   5.376
 7769SOL    HW223334   0.131   9.901   5.405
 7770SOL     OW23335   1.369  10.260   5.384
 7770SOL    HW123336   1.408  10.349   5.404
 7770SOL    HW223337   1.379  10.240   5.287
 7771SOL     OW23338   0.815   9.882   4.049
 7771SOL    HW123339   0.822   9.793   4.003
 7771SOL    HW223340   0.721   9.916   4.041
 7772SOL     OW23341   1.657   9.914   4.930
 7772SOL    HW123342   1.619   9.845   4.992
 7772SOL    HW223343   1.739   9.878   4.886
 7773SOL     OW23344   0.252  10.874   5.468
 7773SOL    HW123345   0.222  10.931   5.544
 7773SOL    HW223346   0.245  10.777   5.494
 7774SOL     OW23347   0.671   9.774   4.993
 7774SOL    HW123348   0.637   9.685   4.963
 7774SOL    HW223349   0.697   9.828   4.913
 7775SOL     OW23350   0.930  10.988   5.189
 7775SOL    HW123351   0.906  10.970   5.094
 7775SOL    HW223352   0.960  11.082   5.199
 7776SOL     OW23353   0.473   9.810   3.915
 7776SOL    HW123354   0.534   9.890   3.919
 7776SOL    HW223355   0.378   9.841   3.922
 7777SOL     OW23356   0.159  10.447   5.190
 7777SOL    HW123357   0.181  10.386   5.266
 7777SOL    HW223358   0.169  10.398   5.104
 7778SOL     OW23359   1.347  10.369   4.958
 7778SOL    HW123360   1.371  10.306   4.884
 7778SOL    HW223361   1.257  10.409   4.940
 7779SOL     OW23362   1.302  10.165   4.033
 7779SOL    HW123363   1.216  10.134   4.075
 7779SOL    HW223364   1.298  10.151   3.934
 7780SOL     OW23365   1.759  11.057   4.878
 7780SOL    HW123366   1.820  11.087   4.805
 7780SOL    HW223367   1.721  10.968   4.856
 7781SOL     OW23368   1.252  11.041   4.852
 7781SOL    HW123369   1.336  11.046   4.798
 7781SOL    HW223370   1.229  10.945   4.870
 7782SOL     OW23371   0.083  10.568   4.746
 7782SOL    HW123372   0.078  10.567   4.846
 7782SOL    HW223373   0.000  10.527   4.708
 7783SOL     OW23374   0.688  10.972   5.440
 7783SOL    HW123375   0.632  11.053   5.449
 7783SOL    HW223376   0.740  10.976   5.354
 7784SOL     OW23377   1.726   9.445   4.247
 7784SOL    HW123378   1.799   9.428   4.180
 7784SOL    HW223379   1.695   9.358   4.285
 7785SOL     OW23380   1.388  10.883   4.201
 7785SOL    HW123381   1.455  10.895   4.127
 7785SOL    HW223382   1.348  10.972   4.224
 7786SOL     OW23383   0.130  11.104   5.575
 7786SOL    HW123384   0.089  11.030   5.628
 7786SOL    HW223385   0.194  11.155   5.633
 7787SOL     OW23386   1.280  10.237   4.396
 7787SOL    HW123387   1.340  10.156   4.398
 7787SOL    HW223388   1.320  10.306   4.336
 7788SOL     OW23389   0.830  10.583   5.146
 7788SOL    HW123390   0.825  10.616   5.241
 7788SOL    HW223391   0.744  10.602   5.100
 7789SOL     OW23392   0.672  10.926   3.878
 7789SOL    HW123393   0.681  10.936   3.779
 7789SOL    HW223394   0.632  10.837   3.899
 7790SOL     OW23395   1.650  11.030   5.118
 7790SOL    HW123396   1.703  11.040   5.034
 7790SOL    HW223397   1.623  11.120   5.152
 7791SOL     OW23398   1.841   9.485   4.687
 7791SOL    HW123399   1.880   9.400   4.651
 7791SOL    HW223400   1.743   9.487   4.668
 7792SOL     OW23401   0.263   9.636   4.444
 7792SOL    HW123402   0.184   9.687   4.410
 7792SOL    HW223403   0.254   9.621   4.542
 7793SOL     OW23404   1.194  10.922   3.755
 7793SOL    HW123405   1.200  10.829   3.792
 7793SOL    HW223406   1.135  10.922   3.675
 7794SOL     OW23407   0.822  10.312   5.096
 7794SOL    HW123408   0.862  10.311   5.004
 7794SOL    HW223409   0.832  10.404   5.136
 7795SOL     OW23410   0.916  10.220   4.015
 7795SOL    HW123411   0.979  10.258   3.947
 7795SOL    HW223412   0.956  10.137   4.054
 7796SOL     OW23413   1.504  10.917   3.768
 7796SOL    HW123414   1.412  10.954   3.775
 7796SOL    HW223415   1.542  10.937   3.678
 7797SOL     OW23416   0.372  10.598   5.214
 7797SOL    HW123417   0.359  10.691   5.180
 7797SOL    HW223418   0.288  10.546   5.201
 7798SOL     OW23419   1.614  10.602   5.013
 7798SOL    HW123420   1.674  10.605   5.093
 7798SOL    HW223421   1.539  10.666   5.026
 7799SOL     OW23422   1.039  10.408   4.420
 7799SOL    HW123423   0.969  10.361   4.474
 7799SOL    HW223424   1.098  10.340   4.377
 7800SOL     OW23425   1.014   9.546   4.695
 7800SOL    HW123426   1.006   9.510   4.602
 7800SOL    HW223427   1.012   9.470   4.760
 7801SOL     OW23428   0.590  10.797   4.215
 7801SOL    HW123429   0.632  10.739   4.145
 7801SOL    HW223430   0.546  10.876   4.171
 7802SOL     OW23431   1.709   9.695   5.105
 7802SOL    HW123432   1.782   9.764   5.109
 7802SOL    HW223433   1.737   9.620   5.046
 7803SOL     OW23434   0.255  10.658   4.014
 7803SOL    HW123435   0.159  10.659   3.987
 7803SOL    HW223436   0.267  10.711   4.098
 7804SOL     OW23437   0.105  10.323   5.450
 7804SOL    HW123438   0.028  10.290   5.504
 7804SOL    HW223439   0.190  10.293   5.492
 7805SOL     OW23440   0.672   9.513   5.213
 7805SOL    HW123441   0.762   9.497   5.173
 7805SOL    HW223442   0.680   9.518   5.312
 7806SOL     OW23443   0.075   9.655   3.757
 7806SOL    HW123444  -0.017   9.627   3.728
 7806SOL    HW223445   0.106   9.732   3.701
 7807SOL     OW23446   1.440  10.166   5.122
 7807SOL    HW123447   1.383  10.218   5.059
 7807SOL    HW223448   1.536  10.178   5.098
 7808SOL     OW23449   0.072   9.476   4.042
 7808SOL    HW123450   0.055   9.559   3.988
 7808SOL    HW223451   0.162   9.439   4.020
 7809SOL     OW23452   1.183  10.645   3.843
 7809SOL    HW123453   1.084  10.634   3.845
 7809SOL    HW223454   1.217  10.660   3.936
 7810SOL     OW23455   0.613  10.152   5.155
 7810SOL    HW123456   0.669  10.233   5.138
 7810SOL    HW223457   0.672  10.072   5.158
 7811SOL     OW23458   1.493  11.077   4.683
 7811SOL    HW123459   1.526  11.141   4.614
 7811SOL    HW223460   1.559  11.071   4.758
 7812SOL     OW23461   0.716   9.875   5.432
 7812SOL    HW123462   0.735   9.940   5.506
 7812SOL    HW223463   0.776   9.795   5.441
 7813SOL     OW23464   1.450  10.530   5.357
 7813SOL    HW123465   1.441  10.520   5.456
 7813SOL    HW223466   1.546  10.523   5.331
 7814SOL     OW23467   0.390  11.051   5.284
 7814SOL    HW123468   0.299  11.092   5.282
 7814SOL    HW223469   0.383  10.957   5.316
 7815SOL     OW23470   1.674  10.193   4.978
 7815SOL    HW123471   1.647  10.104   4.941
 7815SOL    HW223472   1.675  10.261   4.905
 7816SOL     OW23473   1.225   9.635   4.173
 7816SOL    HW123474   1.290   9.561   4.162
 7816SOL    HW223475   1.245   9.685   4.257
 7817SOL     OW23476   0.594  10.055   4.376
 7817SOL    HW123477   0.644  10.140   4.357
 7817SOL    HW223478   0.506  10.057   4.328
 7818SOL     OW23479   1.777   9.652   5.366
 7818SOL    HW123480   1.760   9.683   5.272
 7818SOL    HW223481   1.693   9.615   5.404
 7819SOL     OW23482   1.730  10.244   5.241
 7819SOL    HW123483   1.768  10.335   5.256
 7819SOL    HW223484   1.722  10.227   5.142
 7820SOL     OW23485   0.859  10.684   3.740
 7820SOL    HW123486   0.813  10.699   3.828
 7820SOL    HW223487   0.903  10.769   3.710
 7821SOL     OW23488   0.661  11.100   4.677
 7821SOL    HW123489   0.615  11.188   4.664
 7821SOL    HW223490   0.760  11.112   4.670
 7822SOL     OW23491   0.859  10.266   4.585
 7822SOL    HW123492   0.913  10.197   4.633
 7822SOL    HW223493   0.827  10.335   4.651
 7823SOL     OW23494   1.083  10.294   3.811
 7823SOL    HW123495   1.060  10.347   3.729
 7823SOL    HW223496   1.164  10.238   3.792
 7824SOL     OW23497   1.861  10.879   4.575
 7824SOL    HW123498   1.790  10.867   4.505
 7824SOL    HW223499   1.862  10.800   4.635
 7825SOL     OW23500   0.221  10.624   5.568
 7825SOL    HW123501   0.156  10.551   5.547
 7825SOL    HW223502   0.225  10.638   5.666
 7826SOL     OW23503   0.079  10.550   4.377
 7826SOL    HW123504   0.078  10.503   4.465
 7826SOL    HW223505   0.161  10.522   4.326
 7827SOL     OW23506   0.672  10.701   5.348
 7827SOL    HW123507   0.594  10.651   5.386
 7827SOL    HW223508   0.669  10.796   5.379
 7828SOL     OW23509   1.824   9.502   4.951
 7828SOL    HW123510   1.820   9.412   4.995
 7828SOL    HW223511   1.827   9.491   4.852
 7829SOL     OW23512   0.428   9.734   4.244
 7829SOL    HW123513   0.458   9.662   4.182
 7829SOL    HW223514   0.389   9.694   4.327
 7830SOL     OW23515   1.705  10.797   4.828
 7830SOL    HW123516   1.612  10.772   4.801
 7830SOL    HW223517   1.731  10.747   4.910
 7831SOL     OW23518   0.317   9.857   5.004
 7831SOL    HW123519   0.355   9.798   5.076
 7831SOL    HW223520   0.357   9.831   4.916
 7832SOL     OW23521   0.812  10.896   4.411
 7832SOL    HW123522   0.844  10.906   4.317
 7832SOL    HW223523   0.733  10.834   4.413
 7833SOL     OW23524   1.424   9.524   4.836
 7833SOL    HW123525   1.476   9.459   4.891
 7833SOL    HW223526   1.375   9.587   4.897
 7834SOL     OW23527   1.001   9.344   4.878
 7834SOL    HW123528   0.938   9.272   4.847
 7834SOL    HW223529   1.094   9.308   4.878
 7835SOL     OW23530   0.770  10.640   4.025
 7835SOL    HW123531   0.724  10.553   4.042
 7835SOL    HW223532   0.861  10.637   4.066
 7836SOL     OW23533   0.618  10.877   5.008
 7836SOL    HW123534   0.613  10.959   5.065
 7836SOL    HW223535   0.707  10.874   4.963
 7837SOL     OW23536   1.352   9.362   3.892
 7837SOL    HW123537   1.387   9.321   3.808
 7837SOL    HW223538   1.262   9.324   3.912
 7838SOL     OW23539   1.300   9.763   4.415
 7838SOL    HW123540   1.241   9.843   4.419
 7838SOL    HW223541   1.315   9.728   4.508
 7839SOL     OW23542   1.593   9.531   4.606
 7839SOL    HW123543   1.509   9.530   4.660
 7839SOL    HW223544   1.595   9.614   4.550
 7840SOL     OW23545   0.039  10.387   4.024
 7840SOL    HW123546   0.138  10.376   4.015
 7840SOL    HW223547  -0.001  10.301   4.056
 7841SOL     OW23548   0.875  10.956   4.061
 7841SOL    HW123549   0.798  10.921   4.007
 7841SOL    HW223550   0.843  11.027   4.123
 7842SOL     OW23551   0.230   9.938   5.699
 7842SOL    HW123552   0.137   9.936   5.736
 7842SOL    HW223553   0.231   9.899   5.607
 7843SOL     OW23554   0.225   9.585   6.582
 7843SOL    HW123555   0.260   9.568   6.674
 7843SOL    HW223556   0.137   9.540   6.570
 7844SOL     OW23557   0.019   9.678   6.233
 7844SOL    HW123558  -0.063   9.721   6.272
 7844SOL    HW223559  -0.009   9.605   6.170
 7845SOL     OW23560   0.569  10.585   6.751
 7845SOL    HW123561   0.476  10.578   6.714
 7845SOL    HW223562   0.580  10.674   6.795
 7846SOL     OW23563   1.555  10.821   6.289
 7846SOL    HW123564   1.498  10.805   6.370
 7846SOL    HW223565   1.496  10.831   6.209
 7847SOL     OW23566   1.135  10.013   6.303
 7847SOL    HW123567   1.192  10.091   6.278
 7847SOL    HW223568   1.075  10.039   6.379
 7848SOL     OW23569   1.755   9.917   5.817
 7848SOL    HW123570   1.743   9.904   5.718
 7848SOL    HW223571   1.725   9.836   5.866
 7849SOL     OW23572   0.768  10.454   6.609
 7849SOL    HW123573   0.690  10.471   6.669
 7849SOL    HW223574   0.802  10.541   6.573
 7850SOL     OW23575   0.850  10.108   7.409
 7850SOL    HW123576   0.846  10.184   7.474
 7850SOL    HW223577   0.872  10.144   7.318
 7851SOL     OW23578   0.685  10.322   6.251
 7851SOL    HW123579   0.754  10.306   6.321
 7851SOL    HW223580   0.612  10.379   6.289
 7852SOL     OW23581   0.686  10.471   7.389
 7852SOL    HW123582   0.746  10.550   7.403
 7852SOL    HW223583   0.600  10.502   7.348
 7853SOL     OW23584   0.335  10.745   6.647
 7853SOL    HW123585   0.257  10.714   6.594
 7853SOL    HW223586   0.393  10.803   6.590
 7854SOL     OW23587   1.460  10.815   6.925
 7854SOL    HW123588   1.484  10.909   6.951
 7854SOL    HW223589   1.444  10.761   7.007
 7855SOL     OW23590   0.438   9.702   7.085
 7855SOL    HW123591   0.520   9.646   7.094
 7855SOL    HW223592   0.357   9.644   7.089
 7856SOL     OW23593   1.603   9.757   6.323
 7856SOL    HW123594   1.529   9.803   6.273
 7856SOL    HW223595   1.654   9.825   6.376
 7857SOL     OW23596   0.231  11.023   6.069
 7857SOL    HW123597   0.265  11.100   6.123
 7857SOL    HW223598   0.275  11.023   5.979
 7858SOL     OW23599   1.127  10.651   7.276
 7858SOL    HW123600   1.174  10.651   7.364
 7858SOL    HW223601   1.079  10.564   7.265
 7859SOL     OW23602   0.230  10.744   6.124
 7859SOL    HW123603   0.204  10.840   6.124
 7859SOL    HW223604   0.159  10.690   6.169
 7860SOL     OW23605   0.240  10.401   6.472
 7860SOL    HW123606   0.254  10.317   6.524
 7860SOL    HW223607   0.185  10.465   6.527
 7861SOL     OW23608   0.620  11.096   7.025
 7861SOL    HW123609   0.528  11.079   7.060
 7861SOL    HW223610   0.648  11.188   7.051
 7862SOL     OW23611   0.606  10.274   5.709
 7862SOL    HW123612   0.613  10.358   5.655
 7862SOL    HW223613   0.652  10.287   5.797
 7863SOL     OW23614   1.594   9.424   7.066
 7863SOL    HW123615   1.576   9.491   6.994
 7863SOL    HW223616   1.591   9.470   7.155
 7864SOL     OW23617   0.122   9.953   6.149
 7864SOL    HW123618   0.077   9.865   6.166
 7864SOL    HW223619   0.121  10.007   6.233
 7865SOL     OW23620   1.842  11.077   5.945
 7865SOL    HW123621   1.896  11.048   6.025
 7865SOL    HW223622   1.872  11.167   5.916
 7866SOL     OW23623   0.027  10.906   5.703
 7866SOL    HW123624   0.008  10.810   5.724
 7866SOL    HW223625  -0.006  10.964   5.778
 7867SOL     OW23626   1.689  10.232   6.198
 7867SOL    HW123627   1.784  10.203   6.206
 7867SOL    HW223628   1.681  10.297   6.123
 7868SOL     OW23629   1.641  10.418   6.018
 7868SOL    HW123630   1.727  10.420   5.966
 7868SOL    HW223631   1.655  10.465   6.106
 7869SOL     OW23632   0.113  10.047   7.183
 7869SOL    HW123633   0.201  10.034   7.228
 7869SOL    HW223634   0.100  10.144   7.161
 7870SOL     OW23635   0.613  10.675   6.312
 7870SOL    HW123636   0.564  10.588   6.321
 7870SOL    HW223637   0.590  10.718   6.225
 7871SOL     OW23638   1.293  10.538   7.009
 7871SOL    HW123639   1.330  10.465   6.951
 7871SOL    HW223640   1.345  10.543   7.094
 7872SOL     OW23641   0.809   9.314   6.088
 7872SOL    HW123642   0.849   9.405   6.079
 7872SOL    HW223643   0.709   9.322   6.094
 7873SOL     OW23644   0.197  10.286   6.850
 7873SOL    HW123645   0.286  10.241   6.836
 7873SOL    HW223646   0.124  10.221   6.831
 7874SOL     OW23647   1.525  10.309   5.776
 7874SOL    HW123648   1.462  10.233   5.789
 7874SOL    HW223649   1.573  10.327   5.862
 7875SOL     OW23650   1.187  11.102   7.202
 7875SOL    HW123651   1.211  11.162   7.126
 7875SOL    HW223652   1.194  11.007   7.172
 7876SOL     OW23653   0.317   9.561   7.387
 7876SOL    HW123654   0.388   9.632   7.393
 7876SOL    HW223655   0.229   9.600   7.415
 7877SOL     OW23656   1.466  10.727   6.539
 7877SOL    HW123657   1.407  10.733   6.619
 7877SOL    HW223658   1.451  10.639   6.493
 7878SOL     OW23659   1.667  11.024   6.158
 7878SOL    HW123660   1.626  11.001   6.070
 7878SOL    HW223661   1.649  10.950   6.223
 7879SOL     OW23662   0.598  10.039   5.856
 7879SOL    HW123663   0.622  10.108   5.788
 7879SOL    HW223664   0.520  10.072   5.910
 7880SOL     OW23665   1.281   9.655   6.530
 7880SOL    HW123666   1.195   9.605   6.517
 7880SOL    HW223667   1.343   9.601   6.586
 7881SOL     OW23668   1.576  10.972   5.893
 7881SOL    HW123669   1.665  11.018   5.896
 7881SOL    HW223670   1.555  10.948   5.798
 7882SOL     OW23671   0.807   9.915   7.051
 7882SOL    HW123672   0.760   9.912   7.140
 7882SOL    HW223673   0.756   9.860   6.985
 7883SOL     OW23674   1.394   9.779   7.260
 7883SOL    HW123675   1.374   9.822   7.348
 7883SOL    HW223676   1.472   9.717   7.269
 7884SOL     OW23677   0.973  10.200   7.158
 7884SOL    HW123678   1.019  10.116   7.129
 7884SOL    HW223679   0.917  10.234   7.083
 7885SOL     OW23680   0.991   9.720   6.828
 7885SOL    HW123681   0.914   9.754   6.882
 7885SOL    HW223682   0.957   9.669   6.749
 7886SOL     OW23683   1.041  10.011   6.015
 7886SOL    HW123684   1.067  10.007   6.111
 7886SOL    HW223685   0.956   9.960   6.001
 7887SOL     OW23686   0.076  10.121   6.375
 7887SOL    HW123687   0.175  10.109   6.384
 7887SOL    HW223688   0.052  10.216   6.396
 7888SOL     OW23689   0.130  11.131   7.157
 7888SOL    HW123690   0.120  11.116   7.256
 7888SOL    HW223691   0.044  11.167   7.121
 7889SOL     OW23692   0.865   9.658   5.781
 7889SOL    HW123693   0.924   9.721   5.732
 7889SOL    HW223694   0.884   9.564   5.752
 7890SOL     OW23695   1.719   9.895   7.417
 7890SOL    HW123696   1.693   9.984   7.381
 7890SOL    HW223697   1.717   9.827   7.344
 7891SOL     OW23698   1.362  10.454   6.131
 7891SOL    HW123699   1.445  10.425   6.083
 7891SOL    HW223700   1.313  10.521   6.075
 7892SOL     OW23701   0.550   9.506   6.471
 7892SOL    HW123702   0.545   9.501   6.571
 7892SOL    HW223703   0.552   9.602   6.442
 7893SOL     OW23704   0.351  11.111   6.439
 7893SOL    HW123705   0.401  11.025   6.445
 7893SOL    HW223706   0.416  11.188   6.436
 7894SOL     OW23707   1.795  10.376   6.459
 7894SOL    HW123708   1.733  10.361   6.383
 7894SOL    HW223709   1.743  10.387   6.544
 7895SOL     OW23710   1.227  10.860   7.092
 7895SOL    HW123711   1.233  10.783   7.156
 7895SOL    HW223712   1.175  10.834   7.012
 7896SOL     OW23713   0.321  10.253   5.828
 7896SOL    HW123714   0.403  10.292   5.786
 7896SOL    HW223715   0.294  10.171   5.779
 7897SOL     OW23716   1.458  10.045   6.314
 7897SOL    HW123717   1.453   9.980   6.389
 7897SOL    HW223718   1.538  10.104   6.327
 7898SOL     OW23719   0.461  10.576   7.313
 7898SOL    HW123720   0.411  10.577   7.227
 7898SOL    HW223721   0.398  10.558   7.389
 7899SOL     OW23722   1.111  11.086   5.823
 7899SOL    HW123723   1.051  11.024   5.873
 7899SOL    HW223724   1.142  11.042   5.738
 7900SOL     OW23725   0.202   9.595   7.084
 7900SOL    HW123726   0.122   9.655   7.071
 7900SOL    HW223727   0.192   9.546   7.170
 7901SOL     OW23728   1.632  10.687   5.667
 7901SOL    HW123729   1.600  10.781   5.657
 7901SOL    HW223730   1.556  10.624   5.655
 7902SOL     OW23731   0.464  11.053   5.909
 7902SOL    HW123732   0.497  11.092   5.995
 7902SOL    HW223733   0.540  11.046   5.844
 7903SOL     OW23734   1.400   9.417   6.012
 7903SOL    HW123735   1.376   9.380   5.922
 7903SOL    HW223736   1.499   9.433   6.016
 7904SOL     OW23737   0.249  11.095   6.827
 7904SOL    HW123738   0.306  11.030   6.877
 7904SOL    HW223739   0.233  11.062   6.734
 7905SOL     OW23740   0.940  11.008   6.490
 7905SOL    HW123741   1.020  10.951   6.511
 7905SOL    HW223742   0.891  10.968   6.413
 7906SOL     OW23743   0.382  10.010   6.066
 7906SOL    HW123744   0.427   9.920   6.063
 7906SOL    HW223745   0.288   9.999   6.099
 7907SOL     OW23746   1.547   9.532   7.315
 7907SOL    HW123747   1.542   9.569   7.407
 7907SOL    HW223748   1.475   9.463   7.303
 7908SOL     OW23749   0.614   9.432   5.703
 7908SOL    HW123750   0.712   9.410   5.710
 7908SOL    HW223751   0.583   9.415   5.610
 7909SOL     OW23752   0.781   9.574   7.335
 7909SOL    HW123753   0.848   9.513   7.378
 7909SOL    HW223754   0.708   9.593   7.400
 7910SOL     OW23755   0.888  10.824   6.781
 7910SOL    HW123756   0.865  10.799   6.687
 7910SOL    HW223757   0.949  10.755   6.820
 7911SOL     OW23758   1.351   9.900   7.019
 7911SOL    HW123759   1.379   9.857   7.104
 7911SOL    HW223760   1.376   9.996   7.020
 7912SOL     OW23761   0.803  10.712   6.510
 7912SOL    HW123762   0.893  10.726   6.468
 7912SOL    HW223763   0.732  10.714   6.439
 7913SOL     OW23764   0.922   9.813   6.485
 7913SOL    HW123765   0.897   9.804   6.389
 7913SOL    HW223766   0.970   9.731   6.516
 7914SOL     OW23767   0.539   9.374   6.098
 7914SOL    HW123768   0.458   9.375   6.156
 7914SOL    HW223769   0.542   9.457   6.043
 7915SOL     OW23770   1.434  10.498   5.627
 7915SOL    HW123771   1.466  10.422   5.684
 7915SOL    HW223772   1.342  10.525   5.657
 7916SOL     OW23773   0.297   9.345   5.757
 7916SOL    HW123774   0.346   9.429   5.736
 7916SOL    HW223775   0.359   9.280   5.802
 7917SOL     OW23776   0.935   9.546   6.066
 7917SOL    HW123777   0.887   9.587   5.988
 7917SOL    HW223778   1.034   9.544   6.047
 7918SOL     OW23779   1.076   9.993   7.050
 7918SOL    HW123780   0.996   9.932   7.053
 7918SOL    HW223781   1.157   9.940   7.026
 7919SOL     OW23782   1.227  10.880   6.379
 7919SOL    HW123783   1.248  10.954   6.314
 7919SOL    HW223784   1.295  10.880   6.452
 7920SOL     OW23785   0.459  10.462   6.327
 7920SOL    HW123786   0.388  10.435   6.392
 7920SOL    HW223787   0.433  10.434   6.234
 7921SOL     OW23788   1.271  11.107   6.177
 7921SOL    HW123789   1.315  11.171   6.113
 7921SOL    HW223790   1.221  11.159   6.247
 7922SOL     OW23791   1.032   9.859   5.602
 7922SOL    HW123792   0.991   9.941   5.563
 7922SOL    HW223793   1.096   9.885   5.675
 7923SOL     OW23794   0.078   9.866   6.972
 7923SOL    HW123795   0.170   9.865   6.931
 7923SOL    HW223796   0.072   9.940   7.039
 7924SOL     OW23797   0.561   9.532   6.733
 7924SOL    HW123798   0.599   9.448   6.770
 7924SOL    HW223799   0.473   9.551   6.777
 7925SOL     OW23800   0.866   9.764   6.228
 7925SOL    HW123801   0.834   9.836   6.166
 7925SOL    HW223802   0.890   9.683   6.175
 7926SOL     OW23803   1.017   9.349   6.339
 7926SOL    HW123804   0.945   9.354   6.270
 7926SOL    HW223805   0.993   9.280   6.408
 7927SOL     OW23806   1.429  10.483   6.453
 7927SOL    HW123807   1.374  10.399   6.446
 7927SOL    HW223808   1.455  10.512   6.361
 7928SOL     OW23809   1.466   9.900   6.578
 7928SOL    HW123810   1.436   9.805   6.585
 7928SOL    HW223811   1.539   9.916   6.644
 7929SOL     OW23812   1.857  10.143   5.963
 7929SOL    HW123813   1.899  10.079   6.027
 7929SOL    HW223814   1.819  10.092   5.885
 7930SOL     OW23815   0.488  10.695   5.760
 7930SOL    HW123816   0.401  10.680   5.807
 7930SOL    HW223817   0.471  10.721   5.665
 7931SOL     OW23818   1.664  10.590   6.243
 7931SOL    HW123819   1.763  10.598   6.257
 7931SOL    HW223820   1.619  10.674   6.274
 7932SOL     OW23821   1.390   9.885   5.664
 7932SOL    HW123822   1.336   9.864   5.745
 7932SOL    HW223823   1.481   9.844   5.673
 7933SOL     OW23824   0.527   9.566   5.914
 7933SOL    HW123825   0.554   9.507   5.839
 7933SOL    HW223826   0.527   9.661   5.883
 7934SOL     OW23827   1.754  10.533   7.174
 7934SOL    HW123828   1.845  10.494   7.161
 7934SOL    HW223829   1.762  10.629   7.198
 7935SOL     OW23830   1.064  10.657   6.926
 7935SOL    HW123831   0.984  10.634   6.981
 7935SOL    HW223832   1.147  10.631   6.975
 7936SOL     OW23833   1.592  10.939   7.211
 7936SOL    HW123834   1.619  10.973   7.121
 7936SOL    HW223835   1.671  10.901   7.257
 7937SOL     OW23836   1.111  10.505   6.686
 7937SOL    HW123837   1.071  10.549   6.767
 7937SOL    HW223838   1.070  10.542   6.603
 7938SOL     OW23839   1.638  10.409   6.665
 7938SOL    HW123840   1.643  10.490   6.724
 7938SOL    HW223841   1.552  10.411   6.614
 7939SOL     OW23842   0.980  10.426   7.305
 7939SOL    HW123843   0.881  10.432   7.315
 7939SOL    HW223844   1.003  10.346   7.249
 7940SOL     OW23845   0.705  10.360   5.954
 7940SOL    HW123846   0.691  10.367   6.053
 7940SOL    HW223847   0.789  10.309   5.936
 7941SOL     OW23848   0.410  10.123   6.837
 7941SOL    HW123849   0.496  10.135   6.887
 7941SOL    HW223850   0.368  10.036   6.864
 7942SOL     OW23851   1.274   9.696   6.848
 7942SOL    HW123852   1.295   9.770   6.912
 7942SOL    HW223853   1.185   9.713   6.805
 7943SOL     OW23854   0.064  10.874   6.917
 7943SOL    HW123855   0.018  10.956   6.883
 7943SOL    HW223856   0.162  10.893   6.926
 7944SOL     OW23857   0.367  10.410   6.087
 7944SOL    HW123858   0.360  10.493   6.031
 7944SOL    HW223859   0.371  10.330   6.027
 7945SOL     OW23860   0.566   9.847   6.451
 7945SOL    HW123861   0.578   9.913   6.377
 7945SOL    HW223862   0.612   9.881   6.534
 7946SOL     OW23863   1.252  10.658   5.974
 7946SOL    HW123864   1.302  10.735   6.014
 7946SOL    HW223865   1.157  10.660   6.006
 7947SOL     OW23866   1.272  10.755   6.728
 7947SOL    HW123867   1.319  10.768   6.815
 7947SOL    HW223868   1.206  10.681   6.737
 7948SOL     OW23869   1.582   9.949   6.058
 7948SOL    HW123870   1.551  10.010   6.131
 7948SOL    HW223871   1.632  10.001   5.989
 7949SOL     OW23872   0.354  10.820   6.915
 7949SOL    HW123873   0.333  10.776   6.828
 7949SOL    HW223874   0.451  10.846   6.918
 7950SOL     OW23875   0.402  10.061   7.184
 7950SOL    HW123876   0.470  10.116   7.137
 7950SOL    HW223877   0.442   9.973   7.211
 7951SOL     OW23878   1.587  10.089   7.256
 7951SOL    HW123879   1.495  10.127   7.251
 7951SOL    HW223880   1.647  10.136   7.191
 7952SOL     OW23881   1.013   9.415   7.356
 7952SOL    HW123882   1.019   9.500   7.304
 7952SOL    HW223883   1.045   9.339   7.299
 7953SOL     OW23884   0.504   9.360   7.326
 7953SOL    HW123885   0.462   9.303   7.256
 7953SOL    HW223886   0.438   9.429   7.358
 7954SOL     OW23887   0.573  10.180   6.615
 7954SOL    HW123888   0.617  10.269   6.606
 7954SOL    HW223889   0.510  10.180   6.692
 7955SOL     OW23890   1.360  10.172   6.631
 7955SOL    HW123891   1.285  10.172   6.565
 7955SOL    HW223892   1.397  10.080   6.640
 7956SOL     OW23893   1.209   9.835   5.861
 7956SOL    HW123894   1.222   9.751   5.915
 7956SOL    HW223895   1.180   9.909   5.921
 7957SOL     OW23896   0.307   9.523   6.817
 7957SOL    HW123897   0.284   9.560   6.907
 7957SOL    HW223898   0.277   9.428   6.811
 7958SOL     OW23899   0.037  10.620   6.868
 7958SOL    HW123900   0.090  10.571   6.936
 7958SOL    HW223901   0.059  10.718   6.873
 7959SOL     OW23902   0.732   9.944   6.650
 7959SOL    HW123903   0.791   9.918   6.574
 7959SOL    HW223904   0.704  10.040   6.639
 7960SOL     OW23905   1.728  10.245   7.440
 7960SOL    HW123906   1.682  10.238   7.351
 7960SOL    HW223907   1.666  10.289   7.506
 7961SOL     OW23908   0.307   9.373   6.204
 7961SOL    HW123909   0.296   9.467   6.237
 7961SOL    HW223910   0.302   9.310   6.281
 7962SOL     OW23911   1.622   9.677   5.960
 7962SOL    HW123912   1.624   9.601   6.024
 7962SOL    HW223913   1.574   9.754   6.000
 7963SOL     OW23914   1.023  10.076   6.552
 7963SOL    HW123915   1.038  10.097   6.648
 7963SOL    HW223916   0.993   9.981   6.543
 7964SOL     OW23917   0.980  10.883   7.286
 7964SOL    HW123918   0.960  10.927   7.198
 7964SOL    HW223919   1.019  10.792   7.270
 7965SOL     OW23920   1.859  10.828   7.191
 7965SOL    HW123921   1.873  10.855   7.096
 7965SOL    HW223922   1.942  10.850   7.244
 7966SOL     OW23923   0.350  10.208   7.390
 7966SOL    HW123924   0.426  10.252   7.438
 7966SOL    HW223925   0.385  10.161   7.308
 7967SOL     OW23926   1.540   9.584   5.711
 7967SOL    HW123927   1.479   9.509   5.734
 7967SOL    HW223928   1.562   9.636   5.794
 7968SOL     OW23929   1.303  10.148   5.628
 7968SOL    HW123930   1.337  10.055   5.643
 7968SOL    HW223931   1.321  10.175   5.533
 7969SOL     OW23932   1.068  10.643   6.435
 7969SOL    HW123933   1.075  10.559   6.380
 7969SOL    HW223934   1.130  10.712   6.399
 7970SOL     OW23935   0.319  10.120   6.535
 7970SOL    HW123936   0.412  10.156   6.540
 7970SOL    HW223937   0.313  10.035   6.587
 7971SOL     OW23938   0.339   9.819   6.592
 7971SOL    HW123939   0.287   9.736   6.575
 7971SOL    HW223940   0.416   9.824   6.528
 7972SOL     OW23941   1.138   9.690   7.264
 7972SOL    HW123942   1.093   9.753   7.328
 7972SOL    HW223943   1.231   9.721   7.247
 7973SOL     OW23944   1.160   9.517   7.063
 7973SOL    HW123945   1.160   9.581   7.140
 7973SOL    HW223946   1.188   9.565   6.980
 7974SOL     OW23947   0.008  10.636   5.786
 7974SOL    HW123948  -0.085  10.657   5.755
 7974SOL    HW223949   0.018  10.537   5.799
 7975SOL     OW23950   0.088  11.111   6.513
 7975SOL    HW123951   0.046  11.025   6.486
 7975SOL    HW223952   0.182  11.114   6.479
 7976SOL     OW23953   0.504  10.878   6.496
 7976SOL    HW123954   0.570  10.952   6.505
 7976SOL    HW223955   0.548  10.799   6.454
 7977SOL     OW23956   1.002  10.106   6.824
 7977SOL    HW123957   1.043  10.074   6.910
 7977SOL    HW223958   0.906  10.079   6.821
 7978SOL     OW23959   0.040   9.854   6.700
 7978SOL    HW123960   0.125   9.821   6.659
 7978SOL    HW223961   0.053   9.869   6.798
 7979SOL     OW23962   0.189   9.830   7.308
 7979SOL    HW123963   0.248   9.790   7.238
 7979SOL    HW223964   0.131   9.901   7.267
 7980SOL     OW23965   1.369  10.260   7.246
 7980SOL    HW123966   1.408  10.349   7.266
 7980SOL    HW223967   1.379  10.240   7.149
 7981SOL     OW23968   0.815   9.882   5.911
 7981SOL    HW123969   0.822   9.793   5.865
 7981SOL    HW223970   0.721   9.916   5.903
 7982SOL     OW23971   1.657   9.914   6.792
 7982SOL    HW123972   1.619   9.845   6.854
 7982SOL    HW223973   1.739   9.878   6.748
 7983SOL     OW23974   0.252  10.874   7.330
 7983SOL    HW123975   0.222  10.931   7.406
 7983SOL    HW223976   0.245  10.777   7.356
 7984SOL     OW23977   0.671   9.774   6.855
 7984SOL    HW123978   0.637   9.685   6.825
 7984SOL    HW223979   0.697   9.828   6.775
 7985SOL     OW23980   0.930  10.988   7.051
 7985SOL    HW123981   0.906  10.970   6.956
 7985SOL    HW223982   0.960  11.082   7.061
 7986SOL     OW23983   0.473   9.810   5.777
 7986SOL    HW123984   0.534   9.890   5.781
 7986SOL    HW223985   0.378   9.841   5.784
 7987SOL     OW23986   0.159  10.447   7.052
 7987SOL    HW123987   0.181  10.386   7.128
 7987SOL    HW223988   0.169  10.398   6.966
 7988SOL     OW23989   1.347  10.369   6.820
 7988SOL    HW123990   1.371  10.306   6.746
 7988SOL    HW223991   1.257  10.409   6.802
 7989SOL     OW23992   1.302  10.165   5.895
 7989SOL    HW123993   1.216  10.134   5.937
 7989SOL    HW223994   1.298  10.151   5.796
 7990SOL     OW23995   1.759  11.057   6.740
 7990SOL    HW123996   1.820  11.087   6.667
 7990SOL    HW223997   1.721  10.968   6.718
 7991SOL     OW23998   1.252  11.041   6.714
 7991SOL    HW123999   1.336  11.046   6.660
 7991SOL    HW224000   1.229  10.945   6.732
 7992SOL     OW24001   0.083  10.568   6.608
 7992SOL    HW124002   0.078  10.567   6.708
 7992SOL    HW224003   0.000  10.527   6.570
 7993SOL     OW24004   0.688  10.972   7.302
 7993SOL    HW124005   0.632  11.053   7.311
 7993SOL    HW224006   0.740  10.976   7.216
 7994SOL     OW24007   1.726   9.445   6.109
 7994SOL    HW124008   1.799   9.428   6.042
 7994SOL    HW224009   1.695   9.358   6.147
 7995SOL     OW24010   1.388  10.883   6.063
 7995SOL    HW124011   1.455  10.895   5.989
 7995SOL    HW224012   1.348  10.972   6.086
 7996SOL     OW24013   0.130  11.104   7.437
 7996SOL    HW124014   0.089  11.030   7.490
 7996SOL    HW224015   0.194  11.155   7.495
 7997SOL     OW24016   1.280  10.237   6.258
 7997SOL    HW124017   1.340  10.156   6.260
 7997SOL    HW224018   1.320  10.306   6.198
 7998SOL     OW24019   0.830  10.583   7.008
 7998SOL    HW124020   0.825  10.616   7.103
 7998SOL    HW224021   0.744  10.602   6.962
 7999SOL     OW24022   0.672  10.926   5.740
 7999SOL    HW124023   0.681  10.936   5.641
 7999SOL    HW224024   0.632  10.837   5.761
 8000SOL     OW24025   1.650  11.030   6.980
 8000SOL    HW124026   1.703  11.040   6.896
 8000SOL    HW224027   1.623  11.120   7.014
 8001SOL     OW24028   1.841   9.485   6.549
 8001SOL    HW124029   1.880   9.400   6.513
 8001SOL    HW224030   1.743   9.487   6.530
 8002SOL     OW24031   0.263   9.636   6.306
 8002SOL    HW124032   0.184   9.687   6.272
 8002SOL    HW224033   0.254   9.621   6.404
 8003SOL     OW24034   1.194  10.922   5.617
 8003SOL    HW124035   1.200  10.829   5.654
 8003SOL    HW224036   1.135  10.922   5.537
 8004SOL     OW24037   0.822  10.312   6.958
 8004SOL    HW124038   0.862  10.311   6.866
 8004SOL    HW224039   0.832  10.404   6.998
 8005SOL     OW24040   0.916  10.220   5.877
 8005SOL    HW124041   0.979  10.258   5.809
 8005SOL    HW224042   0.956  10.137   5.916
 8006SOL     OW24043   1.504  10.917   5.630
 8006SOL    HW124044   1.412  10.954   5.637
 8006SOL    HW224045   1.542  10.937   5.540
 8007SOL     OW24046   0.372  10.598   7.076
 8007SOL    HW124047   0.359  10.691   7.042
 8007SOL    HW224048   0.288  10.546   7.063
 8008SOL     OW24049   1.614  10.602   6.875
 8008SOL    HW124050   1.674  10.605   6.955
 8008SOL    HW224051   1.539  10.666   6.888
 8009SOL     OW24052   1.039  10.408   6.282
 8009SOL    HW124053   0.969  10.361   6.336
 8009SOL    HW224054   1.098  10.340   6.239
 8010SOL     OW24055   1.014   9.546   6.557
 8010SOL    HW124056   1.006   9.510   6.464
 8010SOL    HW224057   1.012   9.470   6.622
 8011SOL     OW24058   0.590  10.797   6.077
 8011SOL    HW124059   0.632  10.739   6.007
 8011SOL    HW224060   0.546  10.876   6.033
 8012SOL     OW24061   1.709   9.695   6.967
 8012SOL    HW124062   1.782   9.764   6.971
 8012SOL    HW224063   1.737   9.620   6.908
 8013SOL     OW24064   0.255  10.658   5.876
 8013SOL    HW124065   0.159  10.659   5.849
 8013SOL    HW224066   0.267  10.711   5.960
 8014SOL     OW24067   0.105  10.323   7.312
 8014SOL    HW124068   0.028  10.290   7.366
 8014SOL    HW224069   0.190  10.293   7.354
 8015SOL     OW24070   0.672   9.513   7.075
 8015SOL    HW124071   0.762   9.497   7.035
 8015SOL    HW224072   0.680   9.518   7.174
 8016SOL     OW24073   0.075   9.655   5.619
 8016SOL    HW124074  -0.017   9.627   5.590
 8016SOL    HW224075   0.106   9.732   5.563
 8017SOL     OW24076   1.440  10.166   6.984
 8017SOL    HW124077   1.383  10.218   6.921
 8017SOL    HW224078   1.536  10.178   6.960
 8018SOL     OW24079   0.072   9.476   5.904
 8018SOL    HW124080   0.055   9.559   5.850
 8018SOL    HW224081   0.162   9.439   5.882
 8019SOL     OW24082   1.183  10.645   5.705
 8019SOL    HW124083   1.084  10.634   5.707
 8019SOL    HW224084   1.217  10.660   5.798
 8020SOL     OW24085   0.613  10.152   7.017
 8020SOL    HW124086   0.669  10.233   7.000
 8020SOL    HW224087   0.672  10.072   7.020
 8021SOL     OW24088   1.493  11.077   6.545
 8021SOL    HW124089   1.526  11.141   6.476
 8021SOL    HW224090   1.559  11.071   6.620
 8022SOL     OW24091   0.716   9.875   7.294
 8022SOL    HW124092   0.735   9.940   7.368
 8022SOL    HW224093   0.776   9.795   7.303
 8023SOL     OW24094   1.450  10.530   7.219
 8023SOL    HW124095   1.441  10.520   7.318
 8023SOL    HW224096   1.546  10.523   7.193
 8024SOL     OW24097   0.390  11.051   7.146
 8024SOL    HW124098   0.299  11.092   7.144
 8024SOL    HW224099   0.383  10.957   7.178
 8025SOL     OW24100   1.674  10.193   6.840
 8025SOL    HW124101   1.647  10.104   6.803
 8025SOL    HW224102   1.675  10.261   6.767
 8026SOL     OW24103   1.225   9.635   6.035
 8026SOL    HW124104   1.290   9.561   6.024
 8026SOL    HW224105   1.245   9.685   6.119
 8027SOL     OW24106   0.594  10.055   6.238
 8027SOL    HW124107   0.644  10.140   6.219
 8027SOL    HW224108   0.506  10.057   6.190
 8028SOL     OW24109   1.777   9.652   7.228
 8028SOL    HW124110   1.760   9.683   7.134
 8028SOL    HW224111   1.693   9.615   7.266
 8029SOL     OW24112   1.730  10.244   7.103
 8029SOL    HW124113   1.768  10.335   7.118
 8029SOL    HW224114   1.722  10.227   7.004
 8030SOL     OW24115   0.859  10.684   5.602
 8030SOL    HW124116   0.813  10.699   5.690
 8030SOL    HW224117   0.903  10.769   5.572
 8031SOL     OW24118   0.661  11.100   6.539
 8031SOL    HW124119   0.615  11.188   6.526
 8031SOL    HW224120   0.760  11.112   6.532
 8032SOL     OW24121   0.859  10.266   6.447
 8032SOL    HW124122   0.913  10.197   6.495
 8032SOL    HW224123   0.827  10.335   6.513
 8033SOL     OW24124   1.083  10.294   5.673
 8033SOL    HW124125   1.060  10.347   5.591
 8033SOL    HW224126   1.164  10.238   5.654
 8034SOL     OW24127   1.861  10.879   6.437
 8034SOL    HW124128   1.790  10.867   6.367
 8034SOL    HW224129   1.862  10.800   6.497
 8035SOL     OW24130   0.221  10.624   7.430
 8035SOL    HW124131   0.156  10.551   7.409
 8035SOL    HW224132   0.225  10.638   7.528
 8036SOL     OW24133   0.079  10.550   6.239
 8036SOL    HW124134   0.078  10.503   6.327
 8036SOL    HW224135   0.161  10.522   6.188
 8037SOL     OW24136   0.672  10.701   7.210
 8037SOL    HW124137   0.594  10.651   7.248
 8037SOL    HW224138   0.669  10.796   7.241
 8038SOL     OW24139   1.824   9.502   6.813
 8038SOL    HW124140   1.820   9.412   6.857
 8038SOL    HW224141   1.827   9.491   6.714
 8039SOL     OW24142   0.428   9.734   6.106
 8039SOL    HW124143   0.458   9.662   6.044
 8039SOL    HW224144   0.389   9.694   6.189
 8040SOL     OW24145   1.705  10.797   6.690
 8040SOL    HW124146   1.612  10.772   6.663
 8040SOL    HW224147   1.731  10.747   6.772
 8041SOL     OW24148   0.317   9.857   6.866
 8041SOL    HW124149   0.355   9.798   6.938
 8041SOL    HW224150   0.357   9.831   6.778
 8042SOL     OW24151   0.812  10.896   6.273
 8042SOL    HW124152   0.844  10.906   6.179
 8042SOL    HW224153   0.733  10.834   6.275
 8043SOL     OW24154   1.424   9.524   6.698
 8043SOL    HW124155   1.476   9.459   6.753
 8043SOL    HW224156   1.375   9.587   6.759
 8044SOL     OW24157   1.001   9.344   6.740
 8044SOL    HW124158   0.938   9.272   6.709
 8044SOL    HW224159   1.094   9.308   6.740
 8045SOL     OW24160   0.770  10.640   5.887
 8045SOL    HW124161   0.724  10.553   5.904
 8045SOL    HW224162   0.861  10.637   5.928
 8046SOL     OW24163   0.618  10.877   6.870
 8046SOL    HW124164   0.613  10.959   6.927
 8046SOL    HW224165   0.707  10.874   6.825
 8047SOL     OW24166   1.352   9.362   5.754
 8047SOL    HW124167   1.387   9.321   5.670
 8047SOL    HW224168   1.262   9.324   5.774
 8048SOL     OW24169   1.300   9.763   6.277
 8048SOL    HW124170   1.241   9.843   6.281
 8048SOL    HW224171   1.315   9.728   6.370
 8049SOL     OW24172   1.593   9.531   6.468
 8049SOL    HW124173   1.509   9.530   6.522
 8049SOL    HW224174   1.595   9.614   6.412
 8050SOL     OW24175   0.039  10.387   5.886
 8050SOL    HW124176   0.138  10.376   5.877
 8050SOL    HW224177  -0.001  10.301   5.918
 8051SOL     OW24178   0.875  10.956   5.923
 8051SOL    HW124179   0.798  10.921   5.869
 8051SOL    HW224180   0.843  11.027   5.985
 8052SOL     OW24181   0.230   9.938   7.561
 8052SOL    HW124182   0.137   9.936   7.598
 8052SOL    HW224183   0.231   9.899   7.469
 8053SOL     OW24184   0.225   9.585   8.444
 8053SOL    HW124185   0.260   9.568   8.536
 8053SOL    HW224186   0.137   9.540   8.432
 8054SOL     OW24187   0.019   9.678   8.095
 8054SOL    HW124188  -0.063   9.721   8.134
 8054SOL    HW224189  -0.009   9.605   8.032
 8055SOL     OW24190   0.569  10.585   8.613
 8055SOL    HW124191   0.476  10.578   8.576
 8055SOL    HW224192   0.580  10.674   8.657
 8056SOL     OW24193   1.555  10.821   8.151
 8056SOL    HW124194   1.498  10.805   8.232
 8056SOL    HW224195   1.496  10.831   8.071
 8057SOL     OW24196   1.135  10.013   8.165
 8057SOL    HW124197   1.192  10.091   8.140
 8057SOL    HW224198   1.075  10.039   8.241
 8058SOL     OW24199   1.755   9.917   7.679
 8058SOL    HW124200   1.743   9.904   7.580
 8058SOL    HW224201   1.725   9.836   7.728
 8059SOL     OW24202   0.768  10.454   8.471
 8059SOL    HW124203   0.690  10.471   8.531
 8059SOL    HW224204   0.802  10.541   8.435
 8060SOL     OW24205   0.850  10.108   9.271
 8060SOL    HW124206   0.846  10.184   9.336
 8060SOL    HW224207   0.872  10.144   9.180
 8061SOL     OW24208   0.685  10.322   8.113
 8061SOL    HW124209   0.754  10.306   8.183
 8061SOL    HW224210   0.612  10.379   8.151
 8062SOL     OW24211   0.686  10.471   9.251
 8062SOL    HW124212   0.746  10.550   9.265
 8062SOL    HW224213   0.600  10.502   9.210
 8063SOL     OW24214   0.335  10.745   8.509
 8063SOL    HW124215   0.257  10.714   8.456
 8063SOL    HW224216   0.393  10.803   8.452
 8064SOL     OW24217   1.460  10.815   8.787
 8064SOL    HW124218   1.484  10.909   8.813
 8064SOL    HW224219   1.444  10.761   8.869
 8065SOL     OW24220   0.438   9.702   8.947
 8065SOL    HW124221   0.520   9.646   8.956
 8065SOL    HW224222   0.357   9.644   8.951
 8066SOL     OW24223   1.603   9.757   8.185
 8066SOL    HW124224   1.529   9.803   8.135
 8066SOL    HW224225   1.654   9.825   8.238
 8067SOL     OW24226   0.231  11.023   7.931
 8067SOL    HW124227   0.265  11.100   7.985
 8067SOL    HW224228   0.275  11.023   7.841
 8068SOL     OW24229   1.127  10.651   9.138
 8068SOL    HW124230   1.174  10.651   9.226
 8068SOL    HW224231   1.079  10.564   9.127
 8069SOL     OW24232   0.230  10.744   7.986
 8069SOL    HW124233   0.204  10.840   7.986
 8069SOL    HW224234   0.159  10.690   8.031
 8070SOL     OW24235   0.240  10.401   8.334
 8070SOL    HW124236   0.254  10.317   8.386
 8070SOL    HW224237   0.185  10.465   8.389
 8071SOL     OW24238   0.620  11.096   8.887
 8071SOL    HW124239   0.528  11.079   8.922
 8071SOL    HW224240   0.648  11.188   8.913
 8072SOL     OW24241   0.606  10.274   7.571
 8072SOL    HW124242   0.613  10.358   7.517
 8072SOL    HW224243   0.652  10.287   7.659
 8073SOL     OW24244   1.594   9.424   8.928
 8073SOL    HW124245   1.576   9.491   8.856
 8073SOL    HW224246   1.591   9.470   9.017
 8074SOL     OW24247   0.122   9.953   8.011
 8074SOL    HW124248   0.077   9.865   8.028
 8074SOL    HW224249   0.121  10.007   8.095
 8075SOL     OW24250   1.842  11.077   7.807
 8075SOL    HW124251   1.896  11.048   7.887
 8075SOL    HW224252   1.872  11.167   7.778
 8076SOL     OW24253   0.027  10.906   7.565
 8076SOL    HW124254   0.008  10.810   7.586
 8076SOL    HW224255  -0.006  10.964   7.640
 8077SOL     OW24256   1.689  10.232   8.060
 8077SOL    HW124257   1.784  10.203   8.068
 8077SOL    HW224258   1.681  10.297   7.985
 8078SOL     OW24259   1.641  10.418   7.880
 8078SOL    HW124260   1.727  10.420   7.828
 8078SOL    HW224261   1.655  10.465   7.968
 8079SOL     OW24262   0.113  10.047   9.045
 8079SOL    HW124263   0.201  10.034   9.090
 8079SOL    HW224264   0.100  10.144   9.023
 8080SOL     OW24265   0.613  10.675   8.174
 8080SOL    HW124266   0.564  10.588   8.183
 8080SOL    HW224267   0.590  10.718   8.087
 8081SOL     OW24268   1.293  10.538   8.871
 8081SOL    HW124269   1.330  10.465   8.813
 8081SOL    HW224270   1.345  10.543   8.956
 8082SOL     OW24271   0.809   9.314   7.950
 8082SOL    HW124272   0.849   9.405   7.941
 8082SOL    HW224273   0.709   9.322   7.956
 8083SOL     OW24274   0.197  10.286   8.712
 8083SOL    HW124275   0.286  10.241   8.698
 8083SOL    HW224276   0.124  10.221   8.693
 8084SOL     OW24277   1.525  10.309   7.638
 8084SOL    HW124278   1.462  10.233   7.651
 8084SOL    HW224279   1.573  10.327   7.724
 8085SOL     OW24280   1.187  11.102   9.064
 8085SOL    HW124281   1.211  11.162   8.988
 8085SOL    HW224282   1.194  11.007   9.034
 8086SOL     OW24283   0.317   9.561   9.249
 8086SOL    HW124284   0.388   9.632   9.255
 8086SOL    HW224285   0.229   9.600   9.277
 8087SOL     OW24286   1.466  10.727   8.401
 8087SOL    HW124287   1.407  10.733   8.481
 8087SOL    HW224288   1.451  10.639   8.355
 8088SOL     OW24289   1.667  11.024   8.020
 8088SOL    HW124290   1.626  11.001   7.932
 8088SOL    HW224291   1.649  10.950   8.085
 8089SOL     OW24292   0.598  10.039   7.718
 8089SOL    HW124293   0.622  10.108   7.650
 8089SOL    HW224294   0.520  10.072   7.772
 8090SOL     OW24295   1.281   9.655   8.392
 8090SOL    HW124296   1.195   9.605   8.379
 8090SOL    HW224297   1.343   9.601   8.448
 8091SOL     OW24298   1.576  10.972   7.755
 8091SOL    HW124299   1.665  11.018   7.758
 8091SOL    HW224300   1.555  10.948   7.660
 8092SOL     OW24301   0.807   9.915   8.913
 8092SOL    HW124302   0.760   9.912   9.002
 8092SOL    HW224303   0.756   9.860   8.847
 8093SOL     OW24304   1.394   9.779   9.122
 8093SOL    HW124305   1.374   9.822   9.210
 8093SOL    HW224306   1.472   9.717   9.131
 8094SOL     OW24307   0.973  10.200   9.020
 8094SOL    HW124308   1.019  10.116   8.991
 8094SOL    HW224309   0.917  10.234   8.945
 8095SOL     OW24310   0.991   9.720   8.690
 8095SOL    HW124311   0.914   9.754   8.744
 8095SOL    HW224312   0.957   9.669   8.611
 8096SOL     OW24313   1.041  10.011   7.877
 8096SOL    HW124314   1.067  10.007   7.973
 8096SOL    HW224315   0.956   9.960   7.863
 8097SOL     OW24316   0.076  10.121   8.237
 8097SOL    HW124317   0.175  10.109   8.246
 8097SOL    HW224318   0.052  10.216   8.258
 8098SOL     OW24319   0.130  11.131   9.019
 8098SOL    HW124320   0.120  11.116   9.118
 8098SOL    HW224321   0.044  11.167   8.983
 8099SOL     OW24322   0.865   9.658   7.643
 8099SOL    HW124323   0.924   9.721   7.594
 8099SOL    HW224324   0.884   9.564   7.614
 8100SOL     OW24325   1.719   9.895   9.279
 8100SOL    HW124326   1.693   9.984   9.243
 8100SOL    HW224327   1.717   9.827   9.206
 8101SOL     OW24328   1.362  10.454   7.993
 8101SOL    HW124329   1.445  10.425   7.945
 8101SOL    HW224330   1.313  10.521   7.937
 8102SOL     OW24331   0.550   9.506   8.333
 8102SOL    HW124332   0.545   9.501   8.433
 8102SOL    HW224333   0.552   9.602   8.304
 8103SOL     OW24334   1.008  10.766   7.925
 8103SOL    HW124335   0.962  10.838   7.873
 8103SOL    HW224336   1.004  10.786   8.023
 8104SOL     OW24337   0.351  11.111   8.301
 8104SOL    HW124338   0.401  11.025   8.307
 8104SOL    HW224339   0.416  11.188   8.298
 8105SOL     OW24340   1.795  10.376   8.321
 8105SOL    HW124341   1.733  10.361   8.245
 8105SOL    HW224342   1.743  10.387   8.406
 8106SOL     OW24343   1.227  10.860   8.954
 8106SOL    HW124344   1.233  10.783   9.018
 8106SOL    HW224345   1.175  10.834   8.874
 8107SOL     OW24346   0.321  10.253   7.690
 8107SOL    HW124347   0.403  10.292   7.648
 8107SOL    HW224348   0.294  10.171   7.641
 8108SOL     OW24349   1.458  10.045   8.176
 8108SOL    HW124350   1.453   9.980   8.251
 8108SOL    HW224351   1.538  10.104   8.189
 8109SOL     OW24352   0.461  10.576   9.175
 8109SOL    HW124353   0.411  10.577   9.089
 8109SOL    HW224354   0.398  10.558   9.251
 8110SOL     OW24355   1.111  11.086   7.685
 8110SOL    HW124356   1.051  11.024   7.735
 8110SOL    HW224357   1.142  11.042   7.600
 8111SOL     OW24358   0.202   9.595   8.946
 8111SOL    HW124359   0.122   9.655   8.933
 8111SOL    HW224360   0.192   9.546   9.032
 8112SOL     OW24361   1.632  10.687   7.529
 8112SOL    HW124362   1.600  10.781   7.519
 8112SOL    HW224363   1.556  10.624   7.517
 8113SOL     OW24364   0.464  11.053   7.771
 8113SOL    HW124365   0.497  11.092   7.857
 8113SOL    HW224366   0.540  11.046   7.706
 8114SOL     OW24367   1.400   9.417   7.874
 8114SOL    HW124368   1.376   9.380   7.784
 8114SOL    HW224369   1.499   9.433   7.878
 8115SOL     OW24370   0.249  11.095   8.689
 8115SOL    HW124371   0.306  11.030   8.739
 8115SOL    HW224372   0.233  11.062   8.596
 8116SOL     OW24373   0.940  11.008   8.352
 8116SOL    HW124374   1.020  10.951   8.373
 8116SOL    HW224375   0.891  10.968   8.275
 8117SOL     OW24376   0.382  10.010   7.928
 8117SOL    HW124377   0.427   9.920   7.925
 8117SOL    HW224378   0.288   9.999   7.961
 8118SOL     OW24379   1.547   9.532   9.177
 8118SOL    HW124380   1.542   9.569   9.269
 8118SOL    HW224381   1.475   9.463   9.165
 8119SOL     OW24382   0.614   9.432   7.565
 8119SOL    HW124383   0.712   9.410   7.572
 8119SOL    HW224384   0.583   9.415   7.472
 8120SOL     OW24385   0.781   9.574   9.197
 8120SOL    HW124386   0.848   9.513   9.240
 8120SOL    HW224387   0.708   9.593   9.262
 8121SOL     OW24388   0.888  10.824   8.643
 8121SOL    HW124389   0.865  10.799   8.549
 8121SOL    HW224390   0.949  10.755   8.682
 8122SOL     OW24391   1.351   9.900   8.881
 8122SOL    HW124392   1.379   9.857   8.966
 8122SOL    HW224393   1.376   9.996   8.882
 8123SOL     OW24394   0.803  10.712   8.372
 8123SOL    HW124395   0.893  10.726   8.330
 8123SOL    HW224396   0.732  10.714   8.301
 8124SOL     OW24397   0.922   9.813   8.347
 8124SOL    HW124398   0.897   9.804   8.251
 8124SOL    HW224399   0.970   9.731   8.378
 8125SOL     OW24400   0.539   9.374   7.960
 8125SOL    HW124401   0.458   9.375   8.018
 8125SOL    HW224402   0.542   9.457   7.905
 8126SOL     OW24403   1.434  10.498   7.489
 8126SOL    HW124404   1.466  10.422   7.546
 8126SOL    HW224405   1.342  10.525   7.519
 8127SOL     OW24406   0.297   9.345   7.619
 8127SOL    HW124407   0.346   9.429   7.598
 8127SOL    HW224408   0.359   9.280   7.664
 8128SOL     OW24409   0.935   9.546   7.928
 8128SOL    HW124410   0.887   9.587   7.850
 8128SOL    HW224411   1.034   9.544   7.909
 8129SOL     OW24412   1.076   9.993   8.912
 8129SOL    HW124413   0.996   9.932   8.915
 8129SOL    HW224414   1.157   9.940   8.888
 8130SOL     OW24415   1.227  10.880   8.241
 8130SOL    HW124416   1.248  10.954   8.176
 8130SOL    HW224417   1.295  10.880   8.314
 8131SOL     OW24418   0.459  10.462   8.189
 8131SOL    HW124419   0.388  10.435   8.254
 8131SOL    HW224420   0.433  10.434   8.096
 8132SOL     OW24421   1.271  11.107   8.039
 8132SOL    HW124422   1.315  11.171   7.975
 8132SOL    HW224423   1.221  11.159   8.109
 8133SOL     OW24424   1.032   9.859   7.464
 8133SOL    HW124425   0.991   9.941   7.425
 8133SOL    HW224426   1.096   9.885   7.537
 8134SOL     OW24427   0.078   9.866   8.834
 8134SOL    HW124428   0.170   9.865   8.793
 8134SOL    HW224429   0.072   9.940   8.901
 8135SOL     OW24430   0.561   9.532   8.595
 8135SOL    HW124431   0.599   9.448   8.632
 8135SOL    HW224432   0.473   9.551   8.639
 8136SOL     OW24433   0.866   9.764   8.090
 8136SOL    HW124434   0.834   9.836   8.028
 8136SOL    HW224435   0.890   9.683   8.037
 8137SOL     OW24436   1.017   9.349   8.201
 8137SOL    HW124437   0.945   9.354   8.132
 8137SOL    HW224438   0.993   9.280   8.270
 8138SOL     OW24439   1.429  10.483   8.315
 8138SOL    HW124440   1.374  10.399   8.308
 8138SOL    HW224441   1.455  10.512   8.223
 8139SOL     OW24442   1.466   9.900   8.440
 8139SOL    HW124443   1.436   9.805   8.447
 8139SOL    HW224444   1.539   9.916   8.506
 8140SOL     OW24445   1.857  10.143   7.825
 8140SOL    HW124446   1.899  10.079   7.889
 8140SOL    HW224447   1.819  10.092   7.747
 8141SOL     OW24448   0.488  10.695   7.622
 8141SOL    HW124449   0.401  10.680   7.669
 8141SOL    HW224450   0.471  10.721   7.527
 8142SOL     OW24451   1.664  10.590   8.105
 8142SOL    HW124452   1.763  10.598   8.119
 8142SOL    HW224453   1.619  10.674   8.136
 8143SOL     OW24454   1.390   9.885   7.526
 8143SOL    HW124455   1.336   9.864   7.607
 8143SOL    HW224456   1.481   9.844   7.535
 8144SOL     OW24457   0.527   9.566   7.776
 8144SOL    HW124458   0.554   9.507   7.701
 8144SOL    HW224459   0.527   9.661   7.745
 8145SOL     OW24460   1.754  10.533   9.036
 8145SOL    HW124461   1.845  10.494   9.023
 8145SOL    HW224462   1.762  10.629   9.060
 8146SOL     OW24463   1.064  10.657   8.788
 8146SOL    HW124464   0.984  10.634   8.843
 8146SOL    HW224465   1.147  10.631   8.837
 8147SOL     OW24466   1.592  10.939   9.073
 8147SOL    HW124467   1.619  10.973   8.983
 8147SOL    HW224468   1.671  10.901   9.119
 8148SOL     OW24469   1.111  10.505   8.548
 8148SOL    HW124470   1.071  10.549   8.629
 8148SOL    HW224471   1.070  10.542   8.465
 8149SOL     OW24472   1.638  10.409   8.527
 8149SOL    HW124473   1.643  10.490   8.586
 8149SOL    HW224474   1.552  10.411   8.476
 8150SOL     OW24475   0.915   9.399   8.850
 8150SOL    HW124476   0.940   9.379   8.755
 8150SOL    HW224477   0.987   9.455   8.892
 8151SOL     OW24478   0.980  10.426   9.167
 8151SOL    HW124479   0.881  10.432   9.177
 8151SOL    HW224480   1.003  10.346   9.111
 8152SOL     OW24481   0.705  10.360   7.816
 8152SOL    HW124482   0.691  10.367   7.915
 8152SOL    HW224483   0.789  10.309   7.798
 8153SOL     OW24484   0.410  10.123   8.699
 8153SOL    HW124485   0.496  10.135   8.749
 8153SOL    HW224486   0.368  10.036   8.726
 8154SOL     OW24487   1.274   9.696   8.710
 8154SOL    HW124488   1.295   9.770   8.774
 8154SOL    HW224489   1.185   9.713   8.667
 8155SOL     OW24490   0.064  10.874   8.779
 8155SOL    HW124491   0.018  10.956   8.745
 8155SOL    HW224492   0.162  10.893   8.788
 8156SOL     OW24493   0.367  10.410   7.949
 8156SOL    HW124494   0.360  10.493   7.893
 8156SOL    HW224495   0.371  10.330   7.889
 8157SOL     OW24496   0.566   9.847   8.313
 8157SOL    HW124497   0.578   9.913   8.239
 8157SOL    HW224498   0.612   9.881   8.396
 8158SOL     OW24499   1.252  10.658   7.836
 8158SOL    HW124500   1.302  10.735   7.876
 8158SOL    HW224501   1.157  10.660   7.868
 8159SOL     OW24502   1.272  10.755   8.590
 8159SOL    HW124503   1.319  10.768   8.677
 8159SOL    HW224504   1.206  10.681   8.599
 8160SOL     OW24505   1.582   9.949   7.920
 8160SOL    HW124506   1.551  10.010   7.993
 8160SOL    HW224507   1.632  10.001   7.851
 8161SOL     OW24508   0.354  10.820   8.777
 8161SOL    HW124509   0.333  10.776   8.690
 8161SOL    HW224510   0.451  10.846   8.780
 8162SOL     OW24511   0.402  10.061   9.046
 8162SOL    HW124512   0.470  10.116   8.999
 8162SOL    HW224513   0.442   9.973   9.073
 8163SOL     OW24514   1.587  10.089   9.118
 8163SOL    HW124515   1.495  10.127   9.113
 8163SOL    HW224516   1.647  10.136   9.053
 8164SOL     OW24517   1.013   9.415   9.218
 8164SOL    HW124518   1.019   9.500   9.166
 8164SOL    HW224519   1.045   9.339   9.161
 8165SOL     OW24520   0.504   9.360   9.188
 8165SOL    HW124521   0.462   9.303   9.118
 8165SOL    HW224522   0.438   9.429   9.220
 8166SOL     OW24523   0.573  10.180   8.477
 8166SOL    HW124524   0.617  10.269   8.468
 8166SOL    HW224525   0.510  10.180   8.554
 8167SOL     OW24526   1.360  10.172   8.493
 8167SOL    HW124527   1.285  10.172   8.427
 8167SOL    HW224528   1.397  10.080   8.502
 8168SOL     OW24529   1.209   9.835   7.723
 8168SOL    HW124530   1.222   9.751   7.777
 8168SOL    HW224531   1.180   9.909   7.783
 8169SOL     OW24532   0.307   9.523   8.679
 8169SOL    HW124533   0.284   9.560   8.769
 8169SOL    HW224534   0.277   9.428   8.673
 8170SOL     OW24535   0.037  10.620   8.730
 8170SOL    HW124536   0.090  10.571   8.798
 8170SOL    HW224537   0.059  10.718   8.735
 8171SOL     OW24538   0.732   9.944   8.512
 8171SOL    HW124539   0.791   9.918   8.436
 8171SOL    HW224540   0.704  10.040   8.501
 8172SOL     OW24541   1.728  10.245   9.302
 8172SOL    HW124542   1.682  10.238   9.213
 8172SOL    HW224543   1.666  10.289   9.368
 8173SOL     OW24544   0.307   9.373   8.066
 8173SOL    HW124545   0.296   9.467   8.099
 8173SOL    HW224546   0.302   9.310   8.143
 8174SOL     OW24547   1.622   9.677   7.822
 8174SOL    HW124548   1.624   9.601   7.886
 8174SOL    HW224549   1.574   9.754   7.862
 8175SOL     OW24550   1.023  10.076   8.414
 8175SOL    HW124551   1.038  10.097   8.510
 8175SOL    HW224552   0.993   9.981   8.405
 8176SOL     OW24553   0.980  10.883   9.148
 8176SOL    HW124554   0.960  10.927   9.060
 8176SOL    HW224555   1.019  10.792   9.132
 8177SOL     OW24556   1.859  10.828   9.053
 8177SOL    HW124557   1.873  10.855   8.958
 8177SOL    HW224558   1.942  10.850   9.106
 8178SOL     OW24559   0.350  10.208   9.252
 8178SOL    HW124560   0.426  10.252   9.300
 8178SOL    HW224561   0.385  10.161   9.170
 8179SOL     OW24562   1.540   9.584   7.573
 8179SOL    HW124563   1.479   9.509   7.596
 8179SOL    HW224564   1.562   9.636   7.656
 8180SOL     OW24565   1.303  10.148   7.490
 8180SOL    HW124566   1.337  10.055   7.505
 8180SOL    HW224567   1.321  10.175   7.395
 8181SOL     OW24568   1.068  10.643   8.297
 8181SOL    HW124569   1.075  10.559   8.242
 8181SOL    HW224570   1.130  10.712   8.261
 8182SOL     OW24571   0.319  10.120   8.397
 8182SOL    HW124572   0.412  10.156   8.402
 8182SOL    HW224573   0.313  10.035   8.449
 8183SOL     OW24574   0.339   9.819   8.454
 8183SOL    HW124575   0.287   9.736   8.437
 8183SOL    HW224576   0.416   9.824   8.390
 8184SOL     OW24577   1.138   9.690   9.126
 8184SOL    HW124578   1.093   9.753   9.190
 8184SOL    HW224579   1.231   9.721   9.109
 8185SOL     OW24580   1.160   9.517   8.925
 8185SOL    HW124581   1.160   9.581   9.002
 8185SOL    HW224582   1.188   9.565   8.842
 8186SOL     OW24583   0.008  10.636   7.648
 8186SOL    HW124584  -0.085  10.657   7.617
 8186SOL    HW224585   0.018  10.537   7.661
 8187SOL     OW24586   0.088  11.111   8.375
 8187SOL    HW124587   0.046  11.025   8.348
 8187SOL    HW224588   0.182  11.114   8.341
 8188SOL     OW24589   0.504  10.878   8.358
 8188SOL    HW124590   0.570  10.952   8.367
 8188SOL    HW224591   0.548  10.799   8.316
 8189SOL     OW24592   1.002  10.106   8.686
 8189SOL    HW124593   1.043  10.074   8.772
 8189SOL    HW224594   0.906  10.079   8.683
 8190SOL     OW24595   0.040   9.854   8.562
 8190SOL    HW124596   0.125   9.821   8.521
 8190SOL    HW224597   0.053   9.869   8.660
 8191SOL     OW24598   0.189   9.830   9.170
 8191SOL    HW124599   0.248   9.790   9.100
 8191SOL    HW224600   0.131   9.901   9.129
 8192SOL     OW24601   1.369  10.260   9.108
 8192SOL    HW124602   1.408  10.349   9.128
 8192SOL    HW224603   1.379  10.240   9.011
 8193SOL     OW24604   0.815   9.882   7.773
 8193SOL    HW124605   0.822   9.793   7.727
 8193SOL    HW224606   0.721   9.916   7.765
 8194SOL     OW24607   1.657   9.914   8.654
 8194SOL    HW124608   1.619   9.845   8.716
 8194SOL    HW224609   1.739   9.878   8.610
 8195SOL     OW24610   0.252  10.874   9.192
 8195SOL    HW124611   0.222  10.931   9.268
 8195SOL    HW224612   0.245  10.777   9.218
 8196SOL     OW24613   0.671   9.774   8.717
 8196SOL    HW124614   0.637   9.685   8.687
 8196SOL    HW224615   0.697   9.828   8.637
 8197SOL     OW24616   0.930  10.988   8.913
 8197SOL    HW124617   0.906  10.970   8.818
 8197SOL    HW224618   0.960  11.082   8.923
 8198SOL     OW24619   0.473   9.810   7.639
 8198SOL    HW124620   0.534   9.890   7.643
 8198SOL    HW224621   0.378   9.841   7.646
 8199SOL     OW24622   0.159  10.447   8.914
 8199SOL    HW124623   0.181  10.386   8.990
 8199SOL    HW224624   0.169  10.398   8.828
 8200SOL     OW24625   1.347  10.369   8.682
 8200SOL    HW124626   1.371  10.306   8.608
 8200SOL    HW224627   1.257  10.409   8.664
 8201SOL     OW24628   1.302  10.165   7.757
 8201SOL    HW124629   1.216  10.134   7.799
 8201SOL    HW224630   1.298  10.151   7.658
 8202SOL     OW24631   1.759  11.057   8.602
 8202SOL    HW124632   1.820  11.087   8.529
 8202SOL    HW224633   1.721  10.968   8.580
 8203SOL     OW24634   1.252  11.041   8.576
 8203SOL    HW124635   1.336  11.046   8.522
 8203SOL    HW224636   1.229  10.945   8.594
 8204SOL     OW24637   0.083  10.568   8.470
 8204SOL    HW124638   0.078  10.567   8.570
 8204SOL    HW224639   0.000  10.527   8.432
 8205SOL     OW24640   0.688  10.972   9.164
 8205SOL    HW124641   0.632  11.053   9.173
 8205SOL    HW224642   0.740  10.976   9.078
 8206SOL     OW24643   1.726   9.445   7.971
 8206SOL    HW124644   1.799   9.428   7.904
 8206SOL    HW224645   1.695   9.358   8.009
 8207SOL     OW24646   1.388  10.883   7.925
 8207SOL    HW124647   1.455  10.895   7.851
 8207SOL    HW224648   1.348  10.972   7.948
 8208SOL     OW24649   0.130  11.104   9.299
 8208SOL    HW124650   0.089  11.030   9.352
 8208SOL    HW224651   0.194  11.155   9.357
 8209SOL     OW24652   1.280  10.237   8.120
 8209SOL    HW124653   1.340  10.156   8.122
 8209SOL    HW224654   1.320  10.306   8.060
 8210SOL     OW24655   0.830  10.583   8.870
 8210SOL    HW124656   0.825  10.616   8.965
 8210SOL    HW224657   0.744  10.602   8.824
 8211SOL     OW24658   0.672  10.926   7.602
 8211SOL    HW124659   0.681  10.936   7.503
 8211SOL    HW224660   0.632  10.837   7.623
 8212SOL     OW24661   1.650  11.030   8.842
 8212SOL    HW124662   1.703  11.040   8.758
 8212SOL    HW224663   1.623  11.120   8.876
 8213SOL     OW24664   1.841   9.485   8.411
 8213SOL    HW124665   1.880   9.400   8.375
 8213SOL    HW224666   1.743   9.487   8.392
 8214SOL     OW24667   0.263   9.636   8.168
 8214SOL    HW124668   0.184   9.687   8.134
 8214SOL    HW224669   0.254   9.621   8.266
 8215SOL     OW24670   1.194  10.922   7.479
 8215SOL    HW124671   1.200  10.829   7.516
 8215SOL    HW224672   1.135  10.922   7.399
 8216SOL     OW24673   0.822  10.312   8.820
 8216SOL    HW124674   0.862  10.311   8.728
 8216SOL    HW224675   0.832  10.404   8.860
 8217SOL     OW24676   0.916  10.220   7.739
 8217SOL    HW124677   0.979  10.258   7.671
 8217SOL    HW224678   0.956  10.137   7.778
 8218SOL     OW24679   1.504  10.917   7.492
 8218SOL    HW124680   1.412  10.954   7.499
 8218SOL    HW224681   1.542  10.937   7.402
 8219SOL     OW24682   0.372  10.598   8.938
 8219SOL    HW124683   0.359  10.691   8.904
 8219SOL    HW224684   0.288  10.546   8.925
 8220SOL     OW24685   1.614  10.602   8.737
 8220SOL    HW124686   1.674  10.605   8.817
 8220SOL    HW224687   1.539  10.666   8.750
 8221SOL     OW24688   1.039  10.408   8.144
 8221SOL    HW124689   0.969  10.361   8.198
 8221SOL    HW224690   1.098  10.340   8.101
 8222SOL     OW24691   1.014   9.546   8.419
 8222SOL    HW124692   1.006   9.510   8.326
 8222SOL    HW224693   1.012   9.470   8.484
 8223SOL     OW24694   0.590  10.797   7.939
 8223SOL    HW124695   0.632  10.739   7.869
 8223SOL    HW224696   0.546  10.876   7.895
 8224SOL     OW24697   1.709   9.695   8.829
 8224SOL    HW124698   1.782   9.764   8.833
 8224SOL    HW224699   1.737   9.620   8.770
 8225SOL     OW24700   0.255  10.658   7.738
 8225SOL    HW124701   0.159  10.659   7.711
 8225SOL    HW224702   0.267  10.711   7.822
 8226SOL     OW24703   0.105  10.323   9.174
 8226SOL    HW124704   0.028  10.290   9.228
 8226SOL    HW224705   0.190  10.293   9.216
 8227SOL     OW24706   0.672   9.513   8.937
 8227SOL    HW124707   0.762   9.497   8.897
 8227SOL    HW224708   0.680   9.518   9.036
 8228SOL     OW24709   0.075   9.655   7.481
 8228SOL    HW124710  -0.017   9.627   7.452
 8228SOL    HW224711   0.106   9.732   7.425
 8229SOL     OW24712   1.440  10.166   8.846
 8229SOL    HW124713   1.383  10.218   8.783
 8229SOL    HW224714   1.536  10.178   8.822
 8230SOL     OW24715   0.072   9.476   7.766
 8230SOL    HW124716   0.055   9.559   7.712
 8230SOL    HW224717   0.162   9.439   7.744
 8231SOL     OW24718   1.183  10.645   7.567
 8231SOL    HW124719   1.084  10.634   7.569
 8231SOL    HW224720   1.217  10.660   7.660
 8232SOL     OW24721   0.613  10.152   8.879
 8232SOL    HW124722   0.669  10.233   8.862
 8232SOL    HW224723   0.672  10.072   8.882
 8233SOL     OW24724   1.493  11.077   8.407
 8233SOL    HW124725   1.526  11.141   8.338
 8233SOL    HW224726   1.559  11.071   8.482
 8234SOL     OW24727   0.716   9.875   9.156
 8234SOL    HW124728   0.735   9.940   9.230
 8234SOL    HW224729   0.776   9.795   9.165
 8235SOL     OW24730   1.450  10.530   9.081
 8235SOL    HW124731   1.441  10.520   9.180
 8235SOL    HW224732   1.546  10.523   9.055
 8236SOL     OW24733   0.390  11.051   9.008
 8236SOL    HW124734   0.299  11.092   9.006
 8236SOL    HW224735   0.383  10.957   9.040
 8237SOL     OW24736   1.674  10.193   8.702
 8237SOL    HW124737   1.647  10.104   8.665
 8237SOL    HW224738   1.675  10.261   8.629
 8238SOL     OW24739   1.225   9.635   7.897
 8238SOL    HW124740   1.290   9.561   7.886
 8238SOL    HW224741   1.245   9.685   7.981
 8239SOL     OW24742   0.594  10.055   8.100
 8239SOL    HW124743   0.644  10.140   8.081
 8239SOL    HW224744   0.506  10.057   8.052
 8240SOL     OW24745   1.777   9.652   9.090
 8240SOL    HW124746   1.760   9.683   8.996
 8240SOL    HW224747   1.693   9.615   9.128
 8241SOL     OW24748   1.730  10.244   8.965
 8241SOL    HW124749   1.768  10.335   8.980
 8241SOL    HW224750   1.722  10.227   8.866
 8242SOL     OW24751   0.859  10.684   7.464
 8242SOL    HW124752   0.813  10.699   7.552
 8242SOL    HW224753   0.903  10.769   7.434
 8243SOL     OW24754   0.661  11.100   8.401
 8243SOL    HW124755   0.615  11.188   8.388
 8243SOL    HW224756   0.760  11.112   8.394
 8244SOL     OW24757   0.859  10.266   8.309
 8244SOL    HW124758   0.913  10.197   8.357
 8244SOL    HW224759   0.827  10.335   8.375
 8245SOL     OW24760   1.083  10.294   7.535
 8245SOL    HW124761   1.060  10.347   7.453
 8245SOL    HW224762   1.164  10.238   7.516
 8246SOL     OW24763   1.861  10.879   8.299
 8246SOL    HW124764   1.790  10.867   8.229
 8246SOL    HW224765   1.862  10.800   8.359
 8247SOL     OW24766   0.221  10.624   9.292
 8247SOL    HW124767   0.156  10.551   9.271
 8247SOL    HW224768   0.225  10.638   9.390
 8248SOL     OW24769   0.079  10.550   8.101
 8248SOL    HW124770   0.078  10.503   8.189
 8248SOL    HW224771   0.161  10.522   8.050
 8249SOL     OW24772   0.672  10.701   9.072
 8249SOL    HW124773   0.594  10.651   9.110
 8249SOL    HW224774   0.669  10.796   9.103
 8250SOL     OW24775   1.824   9.502   8.675
 8250SOL    HW124776   1.820   9.412   8.719
 8250SOL    HW224777   1.827   9.491   8.576
 8251SOL     OW24778   0.428   9.734   7.968
 8251SOL    HW124779   0.458   9.662   7.906
 8251SOL    HW224780   0.389   9.694   8.051
 8252SOL     OW24781   1.705  10.797   8.552
 8252SOL    HW124782   1.612  10.772   8.525
 8252SOL    HW224783   1.731  10.747   8.634
 8253SOL     OW24784   0.317   9.857   8.728
 8253SOL    HW124785   0.355   9.798   8.800
 8253SOL    HW224786   0.357   9.831   8.640
 8254SOL     OW24787   0.812  10.896   8.135
 8254SOL    HW124788   0.844  10.906   8.041
 8254SOL    HW224789   0.733  10.834   8.137
 8255SOL     OW24790   1.424   9.524   8.560
 8255SOL    HW124791   1.476   9.459   8.615
 8255SOL    HW224792   1.375   9.587   8.621
 8256SOL     OW24793   1.001   9.344   8.602
 8256SOL    HW124794   0.938   9.272   8.571
 8256SOL    HW224795   1.094   9.308   8.602
 8257SOL     OW24796   0.770  10.640   7.749
 8257SOL    HW124797   0.724  10.553   7.766
 8257SOL    HW224798   0.861  10.637   7.790
 8258SOL     OW24799   0.618  10.877   8.732
 8258SOL    HW124800   0.613  10.959   8.789
 8258SOL    HW224801   0.707  10.874   8.687
 8259SOL     OW24802   1.352   9.362   7.616
 8259SOL    HW124803   1.387   9.321   7.532
 8259SOL    HW224804   1.262   9.324   7.636
 8260SOL     OW24805   1.300   9.763   8.139
 8260SOL    HW124806   1.241   9.843   8.143
 8260SOL    HW224807   1.315   9.728   8.232
 8261SOL     OW24808   1.593   9.531   8.330
 8261SOL    HW124809   1.509   9.530   8.384
 8261SOL    HW224810   1.595   9.614   8.274
 8262SOL     OW24811   0.039  10.387   7.748
 8262SOL    HW124812   0.138  10.376   7.739
 8262SOL    HW224813  -0.001  10.301   7.780
 8263SOL     OW24814   0.875  10.956   7.785
 8263SOL    HW124815   0.798  10.921   7.731
 8263SOL    HW224816   0.843  11.027   7.847
 8264SOL     OW24817   0.230   9.938   9.423
 8264SOL    HW124818   0.137   9.936   9.460
 8264SOL    HW224819   0.231   9.899   9.331
 8265SOL     OW24820   0.225   9.585  10.306
 8265SOL    HW124821   0.260   9.568  10.398
 8265SOL    HW224822   0.137   9.540  10.294
 8266SOL     OW24823   0.019   9.678   9.957
 8266SOL    HW124824  -0.063   9.721   9.996
 8266SOL    HW224825  -0.009   9.605   9.894
 8267SOL     OW24826   0.569  10.585  10.475
 8267SOL    HW124827   0.476  10.578  10.438
 8267SOL    HW224828   0.580  10.674  10.519
 8268SOL     OW24829   1.555  10.821  10.013
 8268SOL    HW124830   1.498  10.805  10.094
 8268SOL    HW224831   1.496  10.831   9.933
 8269SOL     OW24832   1.135  10.013  10.027
 8269SOL    HW124833   1.192  10.091  10.002
 8269SOL    HW224834   1.075  10.039  10.103
 8270SOL     OW24835   1.755   9.917   9.541
 8270SOL    HW124836   1.743   9.904   9.442
 8270SOL    HW224837   1.725   9.836   9.590
 8271SOL     OW24838   0.768  10.454  10.333
 8271SOL    HW124839   0.690  10.471  10.393
 8271SOL    HW224840   0.802  10.541  10.297
 8272SOL     OW24841   0.850  10.108  11.133
 8272SOL    HW124842   0.846  10.184  11.198
 8272SOL    HW224843   0.872  10.144  11.042
 8273SOL     OW24844   0.685  10.322   9.975
 8273SOL    HW124845   0.754  10.306  10.045
 8273SOL    HW224846   0.612  10.379  10.013
 8274SOL     OW24847   0.686  10.471  11.113
 8274SOL    HW124848   0.746  10.550  11.127
 8274SOL    HW224849   0.600  10.502  11.072
 8275SOL     OW24850   0.335  10.745  10.371
 8275SOL    HW124851   0.257  10.714  10.318
 8275SOL    HW224852   0.393  10.803  10.314
 8276SOL     OW24853   1.460  10.815  10.649
 8276SOL    HW124854   1.484  10.909  10.675
 8276SOL    HW224855   1.444  10.761  10.731
 8277SOL     OW24856   0.438   9.702  10.809
 8277SOL    HW124857   0.520   9.646  10.818
 8277SOL    HW224858   0.357   9.644  10.813
 8278SOL     OW24859   1.603   9.757  10.047
 8278SOL    HW124860   1.529   9.803   9.997
 8278SOL    HW224861   1.654   9.825  10.100
 8279SOL     OW24862   0.231  11.023   9.793
 8279SOL    HW124863   0.265  11.100   9.847
 8279SOL    HW224864   0.275  11.023   9.703
 8280SOL     OW24865   1.127  10.651  11.000
 8280SOL    HW124866   1.174  10.651  11.088
 8280SOL    HW224867   1.079  10.564  10.989
 8281SOL     OW24868   0.230  10.744   9.848
 8281SOL    HW124869   0.204  10.840   9.848
 8281SOL    HW224870   0.159  10.690   9.893
 8282SOL     OW24871   0.240  10.401  10.196
 8282SOL    HW124872   0.254  10.317  10.248
 8282SOL    HW224873   0.185  10.465  10.251
 8283SOL     OW24874   0.620  11.096  10.749
 8283SOL    HW124875   0.528  11.079  10.784
 8283SOL    HW224876   0.648  11.188  10.775
 8284SOL     OW24877   0.606  10.274   9.433
 8284SOL    HW124878   0.613  10.358   9.379
 8284SOL    HW224879   0.652  10.287   9.521
 8285SOL     OW24880   1.594   9.424  10.790
 8285SOL    HW124881   1.576   9.491  10.718
 8285SOL    HW224882   1.591   9.470  10.879
 8286SOL     OW24883   0.122   9.953   9.873
 8286SOL    HW124884   0.077   9.865   9.890
 8286SOL    HW224885   0.121  10.007   9.957
 8287SOL     OW24886   1.842  11.077   9.669
 8287SOL    HW124887   1.896  11.048   9.749
 8287SOL    HW224888   1.872  11.167   9.640
 8288SOL     OW24889   0.027  10.906   9.427
 8288SOL    HW124890   0.008  10.810   9.448
 8288SOL    HW224891  -0.006  10.964   9.502
 8289SOL     OW24892   1.689  10.232   9.922
 8289SOL    HW124893   1.784  10.203   9.930
 8289SOL    HW224894   1.681  10.297   9.847
 8290SOL     OW24895   1.641  10.418   9.742
 8290SOL    HW124896   1.727  10.420   9.690
 8290SOL    HW224897   1.655  10.465   9.830
 8291SOL     OW24898   0.113  10.047  10.907
 8291SOL    HW124899   0.201  10.034  10.952
 8291SOL    HW224900   0.100  10.144  10.885
 8292SOL     OW24901   0.613  10.675  10.036
 8292SOL    HW124902   0.564  10.588  10.045
 8292SOL    HW224903   0.590  10.718   9.949
 8293SOL     OW24904   1.293  10.538  10.733
 8293SOL    HW124905   1.330  10.465  10.675
 8293SOL    HW224906   1.345  10.543  10.818
 8294SOL     OW24907   0.809   9.314   9.812
 8294SOL    HW124908   0.849   9.405   9.803
 8294SOL    HW224909   0.709   9.322   9.818
 8295SOL     OW24910   0.197  10.286  10.574
 8295SOL    HW124911   0.286  10.241  10.560
 8295SOL    HW224912   0.124  10.221  10.555
 8296SOL     OW24913   1.525  10.309   9.500
 8296SOL    HW124914   1.462  10.233   9.513
 8296SOL    HW224915   1.573  10.327   9.586
 8297SOL     OW24916   1.187  11.102  10.926
 8297SOL    HW124917   1.211  11.162  10.850
 8297SOL    HW224918   1.194  11.007  10.896
 8298SOL     OW24919   0.317   9.561  11.111
 8298SOL    HW124920   0.388   9.632  11.117
 8298SOL    HW224921   0.229   9.600  11.139
 8299SOL     OW24922   1.466  10.727  10.263
 8299SOL    HW124923   1.407  10.733  10.343
 8299SOL    HW224924   1.451  10.639  10.217
 8300SOL     OW24925   1.667  11.024   9.882
 8300SOL    HW124926   1.626  11.001   9.794
 8300SOL    HW224927   1.649  10.950   9.947
 8301SOL     OW24928   0.598  10.039   9.580
 8301SOL    HW124929   0.622  10.108   9.512
 8301SOL    HW224930   0.520  10.072   9.634
 8302SOL     OW24931   1.281   9.655  10.254
 8302SOL    HW124932   1.195   9.605  10.241
 8302SOL    HW224933   1.343   9.601  10.310
 8303SOL     OW24934   1.576  10.972   9.617
 8303SOL    HW124935   1.665  11.018   9.620
 8303SOL    HW224936   1.555  10.948   9.522
 8304SOL     OW24937   0.807   9.915  10.775
 8304SOL    HW124938   0.760   9.912  10.864
 8304SOL    HW224939   0.756   9.860  10.709
 8305SOL     OW24940   1.394   9.779  10.984
 8305SOL    HW124941   1.374   9.822  11.072
 8305SOL    HW224942   1.472   9.717  10.993
 8306SOL     OW24943   0.973  10.200  10.882
 8306SOL    HW124944   1.019  10.116  10.853
 8306SOL    HW224945   0.917  10.234  10.807
 8307SOL     OW24946   0.991   9.720  10.552
 8307SOL    HW124947   0.914   9.754  10.606
 8307SOL    HW224948   0.957   9.669  10.473
 8308SOL     OW24949   1.041  10.011   9.739
 8308SOL    HW124950   1.067  10.007   9.835
 8308SOL    HW224951   0.956   9.960   9.725
 8309SOL     OW24952   0.076  10.121  10.099
 8309SOL    HW124953   0.175  10.109  10.108
 8309SOL    HW224954   0.052  10.216  10.120
 8310SOL     OW24955   0.130  11.131  10.881
 8310SOL    HW124956   0.120  11.116  10.980
 8310SOL    HW224957   0.044  11.167  10.845
 8311SOL     OW24958   0.865   9.658   9.505
 8311SOL    HW124959   0.924   9.721   9.456
 8311SOL    HW224960   0.884   9.564   9.476
 8312SOL     OW24961   1.719   9.895  11.141
 8312SOL    HW124962   1.693   9.984  11.105
 8312SOL    HW224963   1.717   9.827  11.068
 8313SOL     OW24964   1.362  10.454   9.855
 8313SOL    HW124965   1.445  10.425   9.807
 8313SOL    HW224966   1.313  10.521   9.799
 8314SOL     OW24967   0.550   9.506  10.195
 8314SOL    HW124968   0.545   9.501  10.295
 8314SOL    HW224969   0.552   9.602  10.166
 8315SOL     OW24970   1.008  10.766   9.787
 8315SOL    HW124971   0.962  10.838   9.735
 8315SOL    HW224972   1.004  10.786   9.885
 8316SOL     OW24973   0.351  11.111  10.163
 8316SOL    HW124974   0.401  11.025  10.169
 8316SOL    HW224975   0.416  11.188  10.160
 8317SOL     OW24976   1.795  10.376  10.183
 8317SOL    HW124977   1.733  10.361  10.107
 8317SOL    HW224978   1.743  10.387  10.268
 8318SOL     OW24979   1.227  10.860  10.816
 8318SOL    HW124980   1.233  10.783  10.880
 8318SOL    HW224981   1.175  10.834  10.736
 8319SOL     OW24982   0.321  10.253   9.552
 8319SOL    HW124983   0.403  10.292   9.510
 8319SOL    HW224984   0.294  10.171   9.503
 8320SOL     OW24985   1.458  10.045  10.038
 8320SOL    HW124986   1.453   9.980  10.113
 8320SOL    HW224987   1.538  10.104  10.051
 8321SOL     OW24988   0.461  10.576  11.037
 8321SOL    HW124989   0.411  10.577  10.951
 8321SOL    HW224990   0.398  10.558  11.113
 8322SOL     OW24991   1.111  11.086   9.547
 8322SOL    HW124992   1.051  11.024   9.597
 8322SOL    HW224993   1.142  11.042   9.462
 8323SOL     OW24994   0.202   9.595  10.808
 8323SOL    HW124995   0.122   9.655  10.795
 8323SOL    HW224996   0.192   9.546  10.894
 8324SOL     OW24997   1.632  10.687   9.391
 8324SOL    HW124998   1.600  10.781   9.381
 8324SOL    HW224999   1.556  10.624   9.379
 8325SOL     OW25000   0.464  11.053   9.633
 8325SOL    HW125001   0.497  11.092   9.719
 8325SOL    HW225002   0.540  11.046   9.568
 8326SOL     OW25003   1.400   9.417   9.736
 8326SOL    HW125004   1.376   9.380   9.646
 8326SOL    HW225005   1.499   9.433   9.740
 8327SOL     OW25006   0.249  11.095  10.551
 8327SOL    HW125007   0.306  11.030  10.601
 8327SOL    HW225008   0.233  11.062  10.458
 8328SOL     OW25009   0.940  11.008  10.214
 8328SOL    HW125010   1.020  10.951  10.235
 8328SOL    HW225011   0.891  10.968  10.137
 8329SOL     OW25012   0.382  10.010   9.790
 8329SOL    HW125013   0.427   9.920   9.787
 8329SOL    HW225014   0.288   9.999   9.823
 8330SOL     OW25015   1.547   9.532  11.039
 8330SOL    HW125016   1.542   9.569  11.131
 8330SOL    HW225017   1.475   9.463  11.027
 8331SOL     OW25018   0.614   9.432   9.427
 8331SOL    HW125019   0.712   9.410   9.434
 8331SOL    HW225020   0.583   9.415   9.334
 8332SOL     OW25021   0.781   9.574  11.059
 8332SOL    HW125022   0.848   9.513  11.102
 8332SOL    HW225023   0.708   9.593  11.124
 8333SOL     OW25024   0.888  10.824  10.505
 8333SOL    HW125025   0.865  10.799  10.411
 8333SOL    HW225026   0.949  10.755  10.544
 8334SOL     OW25027   1.351   9.900  10.743
 8334SOL    HW125028   1.379   9.857  10.828
 8334SOL    HW225029   1.376   9.996  10.744
 8335SOL     OW25030   0.803  10.712  10.234
 8335SOL    HW125031   0.893  10.726  10.192
 8335SOL    HW225032   0.732  10.714  10.163
 8336SOL     OW25033   0.922   9.813  10.209
 8336SOL    HW125034   0.897   9.804  10.113
 8336SOL    HW225035   0.970   9.731  10.240
 8337SOL     OW25036   0.539   9.374   9.822
 8337SOL    HW125037   0.458   9.375   9.880
 8337SOL    HW225038   0.542   9.457   9.767
 8338SOL     OW25039   1.434  10.498   9.351
 8338SOL    HW125040   1.466  10.422   9.408
 8338SOL    HW225041   1.342  10.525   9.381
 8339SOL     OW25042   0.297   9.345   9.481
 8339SOL    HW125043   0.346   9.429   9.460
 8339SOL    HW225044   0.359   9.280   9.526
 8340SOL     OW25045   0.935   9.546   9.790
 8340SOL    HW125046   0.887   9.587   9.712
 8340SOL    HW225047   1.034   9.544   9.771
 8341SOL     OW25048   1.076   9.993  10.774
 8341SOL    HW125049   0.996   9.932  10.777
 8341SOL    HW225050   1.157   9.940  10.750
 8342SOL     OW25051   1.227  10.880  10.103
 8342SOL    HW125052   1.248  10.954  10.038
 8342SOL    HW225053   1.295  10.880  10.176
 8343SOL     OW25054   0.459  10.462  10.051
 8343SOL    HW125055   0.388  10.435  10.116
 8343SOL    HW225056   0.433  10.434   9.958
 8344SOL     OW25057   1.271  11.107   9.901
 8344SOL    HW125058   1.315  11.171   9.837
 8344SOL    HW225059   1.221  11.159   9.971
 8345SOL     OW25060   1.032   9.859   9.326
 8345SOL    HW125061   0.991   9.941   9.287
 8345SOL    HW225062   1.096   9.885   9.399
 8346SOL     OW25063   0.078   9.866  10.696
 8346SOL    HW125064   0.170   9.865  10.655
 8346SOL    HW225065   0.072   9.940  10.763
 8347SOL     OW25066   0.561   9.532  10.457
 8347SOL    HW125067   0.599   9.448  10.494
 8347SOL    HW225068   0.473   9.551  10.501
 8348SOL     OW25069   0.866   9.764   9.952
 8348SOL    HW125070   0.834   9.836   9.890
 8348SOL    HW225071   0.890   9.683   9.899
 8349SOL     OW25072   1.017   9.349  10.063
 8349SOL    HW125073   0.945   9.354   9.994
 8349SOL    HW225074   0.993   9.280  10.132
 8350SOL     OW25075   1.429  10.483  10.177
 8350SOL    HW125076   1.374  10.399  10.170
 8350SOL    HW225077   1.455  10.512  10.085
 8351SOL     OW25078   1.466   9.900  10.302
 8351SOL    HW125079   1.436   9.805  10.309
 8351SOL    HW225080   1.539   9.916  10.368
 8352SOL     OW25081   1.857  10.143   9.687
 8352SOL    HW125082   1.899  10.079   9.751
 8352SOL    HW225083   1.819  10.092   9.609
 8353SOL     OW25084   0.488  10.695   9.484
 8353SOL    HW125085   0.401  10.680   9.531
 8353SOL    HW225086   0.471  10.721   9.389
 8354SOL     OW25087   1.664  10.590   9.967
 8354SOL    HW125088   1.763  10.598   9.981
 8354SOL    HW225089   1.619  10.674   9.998
 8355SOL     OW25090   1.390   9.885   9.388
 8355SOL    HW125091   1.336   9.864   9.469
 8355SOL    HW225092   1.481   9.844   9.397
 8356SOL     OW25093   0.527   9.566   9.638
 8356SOL    HW125094   0.554   9.507   9.563
 8356SOL    HW225095   0.527   9.661   9.607
 8357SOL     OW25096   1.754  10.533  10.898
 8357SOL    HW125097   1.845  10.494  10.885
 8357SOL    HW225098   1.762  10.629  10.922
 8358SOL     OW25099   1.064  10.657  10.650
 8358SOL    HW125100   0.984  10.634  10.705
 8358SOL    HW225101   1.147  10.631  10.699
 8359SOL     OW25102   1.592  10.939  10.935
 8359SOL    HW125103   1.619  10.973  10.845
 8359SOL    HW225104   1.671  10.901  10.981
 8360SOL     OW25105   1.111  10.505  10.410
 8360SOL    HW125106   1.071  10.549  10.491
 8360SOL    HW225107   1.070  10.542  10.327
 8361SOL     OW25108   1.638  10.409  10.389
 8361SOL    HW125109   1.643  10.490  10.448
 8361SOL    HW225110   1.552  10.411  10.338
 8362SOL     OW25111   0.915   9.399  10.712
 8362SOL    HW125112   0.940   9.379  10.617
 8362SOL    HW225113   0.987   9.455  10.754
 8363SOL     OW25114   0.980  10.426  11.029
 8363SOL    HW125115   0.881  10.432  11.039
 8363SOL    HW225116   1.003  10.346  10.973
 8364SOL     OW25117   0.705  10.360   9.678
 8364SOL    HW125118   0.691  10.367   9.777
 8364SOL    HW225119   0.789  10.309   9.660
 8365SOL     OW25120   0.410  10.123  10.561
 8365SOL    HW125121   0.496  10.135  10.611
 8365SOL    HW225122   0.368  10.036  10.588
 8366SOL     OW25123   1.274   9.696  10.572
 8366SOL    HW125124   1.295   9.770  10.636
 8366SOL    HW225125   1.185   9.713  10.529
 8367SOL     OW25126   0.064  10.874  10.641
 8367SOL    HW125127   0.018  10.956  10.607
 8367SOL    HW225128   0.162  10.893  10.650
 8368SOL     OW25129   0.367  10.410   9.811
 8368SOL    HW125130   0.360  10.493   9.755
 8368SOL    HW225131   0.371  10.330   9.751
 8369SOL     OW25132   0.566   9.847  10.175
 8369SOL    HW125133   0.578   9.913  10.101
 8369SOL    HW225134   0.612   9.881  10.258
 8370SOL     OW25135   1.252  10.658   9.698
 8370SOL    HW125136   1.302  10.735   9.738
 8370SOL    HW225137   1.157  10.660   9.730
 8371SOL     OW25138   1.272  10.755  10.452
 8371SOL    HW125139   1.319  10.768  10.539
 8371SOL    HW225140   1.206  10.681  10.461
 8372SOL     OW25141   1.582   9.949   9.782
 8372SOL    HW125142   1.551  10.010   9.855
 8372SOL    HW225143   1.632  10.001   9.713
 8373SOL     OW25144   0.354  10.820  10.639
 8373SOL    HW125145   0.333  10.776  10.552
 8373SOL    HW225146   0.451  10.846  10.642
 8374SOL     OW25147   0.402  10.061  10.908
 8374SOL    HW125148   0.470  10.116  10.861
 8374SOL    HW225149   0.442   9.973  10.935
 8375SOL     OW25150   1.587  10.089  10.980
 8375SOL    HW125151   1.495  10.127  10.975
 8375SOL    HW225152   1.647  10.136  10.915
 8376SOL     OW25153   1.013   9.415  11.080
 8376SOL    HW125154   1.019   9.500  11.028
 8376SOL    HW225155   1.045   9.339  11.023
 8377SOL     OW25156   0.504   9.360  11.050
 8377SOL    HW125157   0.462   9.303  10.980
 8377SOL    HW225158   0.438   9.429  11.082
 8378SOL     OW25159   0.573  10.180  10.339
 8378SOL    HW125160   0.617  10.269  10.330
 8378SOL    HW225161   0.510  10.180  10.416
 8379SOL     OW25162   1.360  10.172  10.355
 8379SOL    HW125163   1.285  10.172  10.289
 8379SOL    HW225164   1.397  10.080  10.364
 8380SOL     OW25165   1.209   9.835   9.585
 8380SOL    HW125166   1.222   9.751   9.639
 8380SOL    HW225167   1.180   9.909   9.645
 8381SOL     OW25168   0.307   9.523  10.541
 8381SOL    HW125169   0.284   9.560  10.631
 8381SOL    HW225170   0.277   9.428  10.535
 8382SOL     OW25171   0.037  10.620  10.592
 8382SOL    HW125172   0.090  10.571  10.660
 8382SOL    HW225173   0.059  10.718  10.597
 8383SOL     OW25174   0.732   9.944  10.374
 8383SOL    HW125175   0.791   9.918  10.298
 8383SOL    HW225176   0.704  10.040  10.363
 8384SOL     OW25177   1.728  10.245  11.164
 8384SOL    HW125178   1.682  10.238  11.075
 8384SOL    HW225179   1.666  10.289  11.230
 8385SOL     OW25180   0.307   9.373   9.928
 8385SOL    HW125181   0.296   9.467   9.961
 8385SOL    HW225182   0.302   9.310  10.005
 8386SOL     OW25183   1.622   9.677   9.684
 8386SOL    HW125184   1.624   9.601   9.748
 8386SOL    HW225185   1.574   9.754   9.724
 8387SOL     OW25186   1.023  10.076  10.276
 8387SOL    HW125187   1.038  10.097  10.372
 8387SOL    HW225188   0.993   9.981  10.267
 8388SOL     OW25189   0.980  10.883  11.010
 8388SOL    HW125190   0.960  10.927  10.922
 8388SOL    HW225191   1.019  10.792  10.994
 8389SOL     OW25192   1.859  10.828  10.915
 8389SOL    HW125193   1.873  10.855  10.820
 8389SOL    HW225194   1.942  10.850  10.968
 8390SOL     OW25195   0.350  10.208  11.114
 8390SOL    HW125196   0.426  10.252  11.162
 8390SOL    HW225197   0.385  10.161  11.032
 8391SOL     OW25198   1.540   9.584   9.435
 8391SOL    HW125199   1.479   9.509   9.458
 8391SOL    HW225200   1.562   9.636   9.518
 8392SOL     OW25201   1.303  10.148   9.352
 8392SOL    HW125202   1.337  10.055   9.367
 8392SOL    HW225203   1.321  10.175   9.257
 8393SOL     OW25204   1.068  10.643  10.159
 8393SOL    HW125205   1.075  10.559  10.104
 8393SOL    HW225206   1.130  10.712  10.123
 8394SOL     OW25207   0.319  10.120  10.259
 8394SOL    HW125208   0.412  10.156  10.264
 8394SOL    HW225209   0.313  10.035  10.311
 8395SOL     OW25210   0.339   9.819  10.316
 8395SOL    HW125211   0.287   9.736  10.299
 8395SOL    HW225212   0.416   9.824  10.252
 8396SOL     OW25213   1.138   9.690  10.988
 8396SOL    HW125214   1.093   9.753  11.052
 8396SOL    HW225215   1.231   9.721  10.971
 8397SOL     OW25216   1.160   9.517  10.787
 8397SOL    HW125217   1.160   9.581  10.864
 8397SOL    HW225218   1.188   9.565  10.704
 8398SOL     OW25219   0.008  10.636   9.510
 8398SOL    HW125220  -0.085  10.657   9.479
 8398SOL    HW225221   0.018  10.537   9.523
 8399SOL     OW25222   0.088  11.111  10.237
 8399SOL    HW125223   0.046  11.025  10.210
 8399SOL    HW225224   0.182  11.114  10.203
 8400SOL     OW25225   0.504  10.878  10.220
 8400SOL    HW125226   0.570  10.952  10.229
 8400SOL    HW225227   0.548  10.799  10.178
 8401SOL     OW25228   1.002  10.106  10.548
 8401SOL    HW125229   1.043  10.074  10.634
 8401SOL    HW225230   0.906  10.079  10.545
 8402SOL     OW25231   0.040   9.854  10.424
 8402SOL    HW125232   0.125   9.821  10.383
 8402SOL    HW225233   0.053   9.869  10.522
 8403SOL     OW25234   0.189   9.830  11.032
 8403SOL    HW125235   0.248   9.790  10.962
 8403SOL    HW225236   0.131   9.901  10.991
 8404SOL     OW25237   1.369  10.260  10.970
 8404SOL    HW125238   1.408  10.349  10.990
 8404SOL    HW225239   1.379  10.240  10.873
 8405SOL     OW25240   0.815   9.882   9.635
 8405SOL    HW125241   0.822   9.793   9.589
 8405SOL    HW225242   0.721   9.916   9.627
 8406SOL     OW25243   1.657   9.914  10.516
 8406SOL    HW125244   1.619   9.845  10.578
 8406SOL    HW225245   1.739   9.878  10.472
 8407SOL     OW25246   0.252  10.874  11.054
 8407SOL    HW125247   0.222  10.931  11.130
 8407SOL    HW225248   0.245  10.777  11.080
 8408SOL     OW25249   0.671   9.774  10.579
 8408SOL    HW125250   0.637   9.685  10.549
 8408SOL    HW225251   0.697   9.828  10.499
 8409SOL     OW25252   0.930  10.988  10.775
 8409SOL    HW125253   0.906  10.970  10.680
 8409SOL    HW225254   0.960  11.082  10.785
 8410SOL     OW25255   0.473   9.810   9.501
 8410SOL    HW125256   0.534   9.890   9.505
 8410SOL    HW225257   0.378   9.841   9.508
 8411SOL     OW25258   0.159  10.447  10.776
 8411SOL    HW125259   0.181  10.386  10.852
 8411SOL    HW225260   0.169  10.398  10.690
 8412SOL     OW25261   1.347  10.369  10.544
 8412SOL    HW125262   1.371  10.306  10.470
 8412SOL    HW225263   1.257  10.409  10.526
 8413SOL     OW25264   1.302  10.165   9.619
 8413SOL    HW125265   1.216  10.134   9.661
 8413SOL    HW225266   1.298  10.151   9.520
 8414SOL     OW25267   1.759  11.057  10.464
 8414SOL    HW125268   1.820  11.087  10.391
 8414SOL    HW225269   1.721  10.968  10.442
 8415SOL     OW25270   1.252  11.041  10.438
 8415SOL    HW125271   1.336  11.046  10.384
 8415SOL    HW225272   1.229  10.945  10.456
 8416SOL     OW25273   0.083  10.568  10.332
 8416SOL    HW125274   0.078  10.567  10.432
 8416SOL    HW225275   0.000  10.527  10.294
 8417SOL     OW25276   0.688  10.972  11.026
 8417SOL    HW125277   0.632  11.053  11.035
 8417SOL    HW225278   0.740  10.976  10.940
 8418SOL     OW25279   1.726   9.445   9.833
 8418SOL    HW125280   1.799   9.428   9.766
 8418SOL    HW225281   1.695   9.358   9.871
 8419SOL     OW25282   1.388  10.883   9.787
 8419SOL    HW125283   1.455  10.895   9.713
 8419SOL    HW225284   1.348  10.972   9.810
 8420SOL     OW25285   0.130  11.104  11.161
 8420SOL    HW125286   0.089  11.030  11.214
 8420SOL    HW225287   0.194  11.155  11.219
 8421SOL     OW25288   1.280  10.237   9.982
 8421SOL    HW125289   1.340  10.156   9.984
 8421SOL    HW225290   1.320  10.306   9.922
 8422SOL     OW25291   0.830  10.583  10.732
 8422SOL    HW125292   0.825  10.616  10.827
 8422SOL    HW225293   0.744  10.602  10.686
 8423SOL     OW25294   0.672  10.926   9.464
 8423SOL    HW125295   0.681  10.936   9.365
 8423SOL    HW225296   0.632  10.837   9.485
 8424SOL     OW25297   1.650  11.030  10.704
 8424SOL    HW125298   1.703  11.040  10.620
 8424SOL    HW225299   1.623  11.120  10.738
 8425SOL     OW25300   1.841   9.485  10.273
 8425SOL    HW125301   1.880   9.400  10.237
 8425SOL    HW225302   1.743   9.487  10.254
 8426SOL     OW25303   0.263   9.636  10.030
 8426SOL    HW125304   0.184   9.687   9.996
 8426SOL    HW225305   0.254   9.621  10.128
 8427SOL     OW25306   1.194  10.922   9.341
 8427SOL    HW125307   1.200  10.829   9.378
 8427SOL    HW225308   1.135  10.922   9.261
 8428SOL     OW25309   0.822  10.312  10.682
 8428SOL    HW125310   0.862  10.311  10.590
 8428SOL    HW225311   0.832  10.404  10.722
 8429SOL     OW25312   0.916  10.220   9.601
 8429SOL    HW125313   0.979  10.258   9.533
 8429SOL    HW225314   0.956  10.137   9.640
 8430SOL     OW25315   1.504  10.917   9.354
 8430SOL    HW125316   1.412  10.954   9.361
 8430SOL    HW225317   1.542  10.937   9.264
 8431SOL     OW25318   0.372  10.598  10.800
 8431SOL    HW125319   0.359  10.691  10.766
 8431SOL    HW225320   0.288  10.546  10.787
 8432SOL     OW25321   1.614  10.602  10.599
 8432SOL    HW125322   1.674  10.605  10.679
 8432SOL    HW225323   1.539  10.666  10.612
 8433SOL     OW25324   1.039  10.408  10.006
 8433SOL    HW125325   0.969  10.361  10.060
 8433SOL    HW225326   1.098  10.340   9.963
 8434SOL     OW25327   1.014   9.546  10.281
 8434SOL    HW125328   1.006   9.510  10.188
 8434SOL    HW225329   1.012   9.470  10.346
 8435SOL     OW25330   0.590  10.797   9.801
 8435SOL    HW125331   0.632  10.739   9.731
 8435SOL    HW225332   0.546  10.876   9.757
 8436SOL     OW25333   1.709   9.695  10.691
 8436SOL    HW125334   1.782   9.764  10.695
 8436SOL    HW225335   1.737   9.620  10.632
 8437SOL     OW25336   0.255  10.658   9.600
 8437SOL    HW125337   0.159  10.659   9.573
 8437SOL    HW225338   0.267  10.711   9.684
 8438SOL     OW25339   0.105  10.323  11.036
 8438SOL    HW125340   0.028  10.290  11.090
 8438SOL    HW225341   0.190  10.293  11.078
 8439SOL     OW25342   0.672   9.513  10.799
 8439SOL    HW125343   0.762   9.497  10.759
 8439SOL    HW225344   0.680   9.518  10.898
 8440SOL     OW25345   0.075   9.655   9.343
 8440SOL    HW125346  -0.017   9.627   9.314
 8440SOL    HW225347   0.106   9.732   9.287
 8441SOL     OW25348   1.440  10.166  10.708
 8441SOL    HW125349   1.383  10.218  10.645
 8441SOL    HW225350   1.536  10.178  10.684
 8442SOL     OW25351   0.072   9.476   9.628
 8442SOL    HW125352   0.055   9.559   9.574
 8442SOL    HW225353   0.162   9.439   9.606
 8443SOL     OW25354   1.183  10.645   9.429
 8443SOL    HW125355   1.084  10.634   9.431
 8443SOL    HW225356   1.217  10.660   9.522
 8444SOL     OW25357   0.613  10.152  10.741
 8444SOL    HW125358   0.669  10.233  10.724
 8444SOL    HW225359   0.672  10.072  10.744
 8445SOL     OW25360   1.493  11.077  10.269
 8445SOL    HW125361   1.526  11.141  10.200
 8445SOL    HW225362   1.559  11.071  10.344
 8446SOL     OW25363   0.716   9.875  11.018
 8446SOL    HW125364   0.735   9.940  11.092
 8446SOL    HW225365   0.776   9.795  11.027
 8447SOL     OW25366   1.450  10.530  10.943
 8447SOL    HW125367   1.441  10.520  11.042
 8447SOL    HW225368   1.546  10.523  10.917
 8448SOL     OW25369   0.390  11.051  10.870
 8448SOL    HW125370   0.299  11.092  10.868
 8448SOL    HW225371   0.383  10.957  10.902
 8449SOL     OW25372   1.674  10.193  10.564
 8449SOL    HW125373   1.647  10.104  10.527
 8449SOL    HW225374   1.675  10.261  10.491
 8450SOL     OW25375   1.225   9.635   9.759
 8450SOL    HW125376   1.290   9.561   9.748
 8450SOL    HW225377   1.245   9.685   9.843
 8451SOL     OW25378   0.594  10.055   9.962
 8451SOL    HW125379   0.644  10.140   9.943
 8451SOL    HW225380   0.506  10.057   9.914
 8452SOL     OW25381   1.777   9.652  10.952
 8452SOL    HW125382   1.760   9.683  10.858
 8452SOL    HW225383   1.693   9.615  10.990
 8453SOL     OW25384   1.730  10.244  10.827
 8453SOL    HW125385   1.768  10.335  10.842
 8453SOL    HW225386   1.722  10.227  10.728
 8454SOL     OW25387   0.859  10.684   9.326
 8454SOL    HW125388   0.813  10.699   9.414
 8454SOL    HW225389   0.903  10.769   9.296
 8455SOL     OW25390   0.661  11.100  10.263
 8455SOL    HW125391   0.615  11.188  10.250
 8455SOL    HW225392   0.760  11.112  10.256
 8456SOL     OW25393   0.859  10.266  10.171
 8456SOL    HW125394   0.913  10.197  10.219
 8456SOL    HW225395   0.827  10.335  10.237
 8457SOL     OW25396   1.083  10.294   9.397
 8457SOL    HW125397   1.060  10.347   9.315
 8457SOL    HW225398   1.164  10.238   9.378
 8458SOL     OW25399   1.861  10.879  10.161
 8458SOL    HW125400   1.790  10.867  10.091
 8458SOL    HW225401   1.862  10.800  10.221
 8459SOL     OW25402   0.221  10.624  11.154
 8459SOL    HW125403   0.156  10.551  11.133
 8459SOL    HW225404   0.225  10.638  11.252
 8460SOL     OW25405   0.079  10.550   9.963
 8460SOL    HW125406   0.078  10.503  10.051
 8460SOL    HW225407   0.161  10.522   9.912
 8461SOL     OW25408   0.672  10.701  10.934
 8461SOL    HW125409   0.594  10.651  10.972
 8461SOL    HW225410   0.669  10.796  10.965
 8462SOL     OW25411   1.824   9.502  10.537
 8462SOL    HW125412   1.820   9.412  10.581
 8462SOL    HW225413   1.827   9.491  10.438
 8463SOL     OW25414   0.428   9.734   9.830
 8463SOL    HW125415   0.458   9.662   9.768
 8463SOL    HW225416   0.389   9.694   9.913
 8464SOL     OW25417   1.705  10.797  10.414
 8464SOL    HW125418   1.612  10.772  10.387
 8464SOL    HW225419   1.731  10.747  10.496
 8465SOL     OW25420   0.317   9.857  10.590
 8465SOL    HW125421   0.355   9.798  10.662
 8465SOL    HW225422   0.357   9.831  10.502
 8466SOL     OW25423   0.812  10.896   9.997
 8466SOL    HW125424   0.844  10.906   9.903
 8466SOL    HW225425   0.733  10.834   9.999
 8467SOL     OW25426   1.424   9.524  10.422
 8467SOL    HW125427   1.476   9.459  10.477
 8467SOL    HW225428   1.375   9.587  10.483
 8468SOL     OW25429   1.001   9.344  10.464
 8468SOL    HW125430   0.938   9.272  10.433
 8468SOL    HW225431   1.094   9.308  10.464
 8469SOL     OW25432   0.770  10.640   9.611
 8469SOL    HW125433   0.724  10.553   9.628
 8469SOL    HW225434   0.861  10.637   9.652
 8470SOL     OW25435   0.618  10.877  10.594
 8470SOL    HW125436   0.613  10.959  10.651
 8470SOL    HW225437   0.707  10.874  10.549
 8471SOL     OW25438   1.352   9.362   9.478
 8471SOL    HW125439   1.387   9.321   9.394
 8471SOL    HW225440   1.262   9.324   9.498
 8472SOL     OW25441   1.300   9.763  10.001
 8472SOL    HW125442   1.241   9.843  10.005
 8472SOL    HW225443   1.315   9.728  10.094
 8473SOL     OW25444   1.593   9.531  10.192
 8473SOL    HW125445   1.509   9.530  10.246
 8473SOL    HW225446   1.595   9.614  10.136
 8474SOL     OW25447   0.039  10.387   9.610
 8474SOL    HW125448   0.138  10.376   9.601
 8474SOL    HW225449  -0.001  10.301   9.642
 8475SOL     OW25450   0.875  10.956   9.647
 8475SOL    HW125451   0.798  10.921   9.593
 8475SOL    HW225452   0.843  11.027   9.709
 8476SOL     OW25453   0.230   9.938  11.285
 8476SOL    HW125454   0.137   9.936  11.322
 8476SOL    HW225455   0.231   9.899  11.193
 8477SOL     OW25456   0.225   9.585  12.168
 8477SOL    HW125457   0.260   9.568  12.260
 8477SOL    HW225458   0.137   9.540  12.156
 8478SOL     OW25459   0.019   9.678  11.819
 8478SOL    HW125460  -0.063   9.721  11.858
 8478SOL    HW225461  -0.009   9.605  11.756
 8479SOL     OW25462   0.569  10.585  12.337
 8479SOL    HW125463   0.476  10.578  12.300
 8479SOL    HW225464   0.580  10.674  12.381
 8480SOL     OW25465   1.555  10.821  11.875
 8480SOL    HW125466   1.498  10.805  11.956
 8480SOL    HW225467   1.496  10.831  11.795
 8481SOL     OW25468   1.135  10.013  11.889
 8481SOL    HW125469   1.192  10.091  11.864
 8481SOL    HW225470   1.075  10.039  11.965
 8482SOL     OW25471   1.755   9.917  11.403
 8482SOL    HW125472   1.743   9.904  11.304
 8482SOL    HW225473   1.725   9.836  11.452
 8483SOL     OW25474   0.768  10.454  12.195
 8483SOL    HW125475   0.690  10.471  12.255
 8483SOL    HW225476   0.802  10.541  12.159
 8484SOL     OW25477   0.685  10.322  11.837
 8484SOL    HW125478   0.754  10.306  11.907
 8484SOL    HW225479   0.612  10.379  11.875
 8485SOL     OW25480   0.335  10.745  12.233
 8485SOL    HW125481   0.257  10.714  12.180
 8485SOL    HW225482   0.393  10.803  12.176
 8486SOL     OW25483   1.460  10.815  12.511
 8486SOL    HW125484   1.484  10.909  12.537
 8486SOL    HW225485   1.444  10.761  12.593
 8487SOL     OW25486   0.438   9.702  12.671
 8487SOL    HW125487   0.520   9.646  12.680
 8487SOL    HW225488   0.357   9.644  12.675
 8488SOL     OW25489   1.603   9.757  11.909
 8488SOL    HW125490   1.529   9.803  11.859
 8488SOL    HW225491   1.654   9.825  11.962
 8489SOL     OW25492   0.231  11.023  11.655
 8489SOL    HW125493   0.265  11.100  11.709
 8489SOL    HW225494   0.275  11.023  11.565
 8490SOL     OW25495   0.230  10.744  11.710
 8490SOL    HW125496   0.204  10.840  11.710
 8490SOL    HW225497   0.159  10.690  11.755
 8491SOL     OW25498   0.240  10.401  12.058
 8491SOL    HW125499   0.254  10.317  12.110
 8491SOL    HW225500   0.185  10.465  12.113
 8492SOL     OW25501   0.620  11.096  12.611
 8492SOL    HW125502   0.528  11.079  12.646
 8492SOL    HW225503   0.648  11.188  12.637
 8493SOL     OW25504   0.606  10.274  11.295
 8493SOL    HW125505   0.613  10.358  11.241
 8493SOL    HW225506   0.652  10.287  11.383
 8494SOL     OW25507   1.594   9.424  12.652
 8494SOL    HW125508   1.576   9.491  12.580
 8494SOL    HW225509   1.591   9.470  12.741
 8495SOL     OW25510   0.122   9.953  11.735
 8495SOL    HW125511   0.077   9.865  11.752
 8495SOL    HW225512   0.121  10.007  11.819
 8496SOL     OW25513   0.027  10.906  11.289
 8496SOL    HW125514   0.008  10.810  11.310
 8496SOL    HW225515  -0.006  10.964  11.364
 8497SOL     OW25516   1.689  10.232  11.784
 8497SOL    HW125517   1.784  10.203  11.792
 8497SOL    HW225518   1.681  10.297  11.709
 8498SOL     OW25519   1.641  10.418  11.604
 8498SOL    HW125520   1.727  10.420  11.552
 8498SOL    HW225521   1.655  10.465  11.692
 8499SOL     OW25522   0.613  10.675  11.898
 8499SOL    HW125523   0.564  10.588  11.907
 8499SOL    HW225524   0.590  10.718  11.811
 8500SOL     OW25525   0.809   9.314  11.674
 8500SOL    HW125526   0.849   9.405  11.665
 8500SOL    HW225527   0.709   9.322  11.680
 8501SOL     OW25528   0.197  10.286  12.436
 8501SOL    HW125529   0.286  10.241  12.422
 8501SOL    HW225530   0.124  10.221  12.417
 8502SOL     OW25531   1.525  10.309  11.362
 8502SOL    HW125532   1.462  10.233  11.375
 8502SOL    HW225533   1.573  10.327  11.448
 8503SOL     OW25534   0.317   9.561  12.973
 8503SOL    HW125535   0.388   9.632  12.979
 8503SOL    HW225536   0.229   9.600  13.001
 8504SOL     OW25537   1.466  10.727  12.125
 8504SOL    HW125538   1.407  10.733  12.205
 8504SOL    HW225539   1.451  10.639  12.079
 8505SOL     OW25540   1.667  11.024  11.744
 8505SOL    HW125541   1.626  11.001  11.656
 8505SOL    HW225542   1.649  10.950  11.809
 8506SOL     OW25543   0.598  10.039  11.442
 8506SOL    HW125544   0.622  10.108  11.374
 8506SOL    HW225545   0.520  10.072  11.496
 8507SOL     OW25546   1.281   9.655  12.116
 8507SOL    HW125547   1.195   9.605  12.103
 8507SOL    HW225548   1.343   9.601  12.172
 8508SOL     OW25549   1.576  10.972  11.479
 8508SOL    HW125550   1.665  11.018  11.482
 8508SOL    HW225551   1.555  10.948  11.384
 8509SOL     OW25552   0.807   9.915  12.637
 8509SOL    HW125553   0.760   9.912  12.726
 8509SOL    HW225554   0.756   9.860  12.571
 8510SOL     OW25555   0.991   9.720  12.414
 8510SOL    HW125556   0.914   9.754  12.468
 8510SOL    HW225557   0.957   9.669  12.335
 8511SOL     OW25558   1.041  10.011  11.601
 8511SOL    HW125559   1.067  10.007  11.697
 8511SOL    HW225560   0.956   9.960  11.587
 8512SOL     OW25561   0.076  10.121  11.961
 8512SOL    HW125562   0.175  10.109  11.970
 8512SOL    HW225563   0.052  10.216  11.982
 8513SOL     OW25564   0.130  11.131  12.743
 8513SOL    HW125565   0.120  11.116  12.842
 8513SOL    HW225566   0.044  11.167  12.707
 8514SOL     OW25567   0.865   9.658  11.367
 8514SOL    HW125568   0.924   9.721  11.318
 8514SOL    HW225569   0.884   9.564  11.338
 8515SOL     OW25570   1.362  10.454  11.717
 8515SOL    HW125571   1.445  10.425  11.669
 8515SOL    HW225572   1.313  10.521  11.661
 8516SOL     OW25573   0.550   9.506  12.057
 8516SOL    HW125574   0.545   9.501  12.157
 8516SOL    HW225575   0.552   9.602  12.028
 8517SOL     OW25576   1.008  10.766  11.649
 8517SOL    HW125577   0.962  10.838  11.597
 8517SOL    HW225578   1.004  10.786  11.747
 8518SOL     OW25579   0.351  11.111  12.025
 8518SOL    HW125580   0.401  11.025  12.031
 8518SOL    HW225581   0.416  11.188  12.022
 8519SOL     OW25582   1.795  10.376  12.045
 8519SOL    HW125583   1.733  10.361  11.969
 8519SOL    HW225584   1.743  10.387  12.130
 8520SOL     OW25585   0.321  10.253  11.414
 8520SOL    HW125586   0.403  10.292  11.372
 8520SOL    HW225587   0.294  10.171  11.365
 8521SOL     OW25588   1.458  10.045  11.900
 8521SOL    HW125589   1.453   9.980  11.975
 8521SOL    HW225590   1.538  10.104  11.913
 8522SOL     OW25591   1.111  11.086  11.409
 8522SOL    HW125592   1.051  11.024  11.459
 8522SOL    HW225593   1.142  11.042  11.324
 8523SOL     OW25594   1.632  10.687  11.253
 8523SOL    HW125595   1.600  10.781  11.243
 8523SOL    HW225596   1.556  10.624  11.241
 8524SOL     OW25597   0.464  11.053  11.495
 8524SOL    HW125598   0.497  11.092  11.581
 8524SOL    HW225599   0.540  11.046  11.430
 8525SOL     OW25600   1.400   9.417  11.598
 8525SOL    HW125601   1.376   9.380  11.508
 8525SOL    HW225602   1.499   9.433  11.602
 8526SOL     OW25603   0.249  11.095  12.413
 8526SOL    HW125604   0.306  11.030  12.463
 8526SOL    HW225605   0.233  11.062  12.320
 8527SOL     OW25606   0.940  11.008  12.076
 8527SOL    HW125607   1.020  10.951  12.097
 8527SOL    HW225608   0.891  10.968  11.999
 8528SOL     OW25609   0.382  10.010  11.652
 8528SOL    HW125610   0.427   9.920  11.649
 8528SOL    HW225611   0.288   9.999  11.685
 8529SOL     OW25612   0.614   9.432  11.289
 8529SOL    HW125613   0.712   9.410  11.296
 8529SOL    HW225614   0.583   9.415  11.196
 8530SOL     OW25615   0.888  10.824  12.367
 8530SOL    HW125616   0.865  10.799  12.273
 8530SOL    HW225617   0.949  10.755  12.406
 8531SOL     OW25618   0.803  10.712  12.096
 8531SOL    HW125619   0.893  10.726  12.054
 8531SOL    HW225620   0.732  10.714  12.025
 8532SOL     OW25621   0.922   9.813  12.071
 8532SOL    HW125622   0.897   9.804  11.975
 8532SOL    HW225623   0.970   9.731  12.102
 8533SOL     OW25624   0.539   9.374  11.684
 8533SOL    HW125625   0.458   9.375  11.742
 8533SOL    HW225626   0.542   9.457  11.629
 8534SOL     OW25627   1.434  10.498  11.213
 8534SOL    HW125628   1.466  10.422  11.270
 8534SOL    HW225629   1.342  10.525  11.243
 8535SOL     OW25630   0.297   9.345  11.343
 8535SOL    HW125631   0.346   9.429  11.322
 8535SOL    HW225632   0.359   9.280  11.388
 8536SOL     OW25633   0.935   9.546  11.652
 8536SOL    HW125634   0.887   9.587  11.574
 8536SOL    HW225635   1.034   9.544  11.633
 8537SOL     OW25636   1.227  10.880  11.965
 8537SOL    HW125637   1.248  10.954  11.900
 8537SOL    HW225638   1.295  10.880  12.038
 8538SOL     OW25639   0.459  10.462  11.913
 8538SOL    HW125640   0.388  10.435  11.978
 8538SOL    HW225641   0.433  10.434  11.820
 8539SOL     OW25642   1.271  11.107  11.763
 8539SOL    HW125643   1.315  11.171  11.699
 8539SOL    HW225644   1.221  11.159  11.833
 8540SOL     OW25645   1.032   9.859  11.188
 8540SOL    HW125646   0.991   9.941  11.149
 8540SOL    HW225647   1.096   9.885  11.261
 8541SOL     OW25648   0.078   9.866  12.558
 8541SOL    HW125649   0.170   9.865  12.517
 8541SOL    HW225650   0.072   9.940  12.625
 8542SOL     OW25651   0.561   9.532  12.319
 8542SOL    HW125652   0.599   9.448  12.356
 8542SOL    HW225653   0.473   9.551  12.363
 8543SOL     OW25654   0.866   9.764  11.814
 8543SOL    HW125655   0.834   9.836  11.752
 8543SOL    HW225656   0.890   9.683  11.761
 8544SOL     OW25657   1.017   9.349  11.925
 8544SOL    HW125658   0.945   9.354  11.856
 8544SOL    HW225659   0.993   9.280  11.994
 8545SOL     OW25660   1.429  10.483  12.039
 8545SOL    HW125661   1.374  10.399  12.032
 8545SOL    HW225662   1.455  10.512  11.947
 8546SOL     OW25663   1.466   9.900  12.164
 8546SOL    HW125664   1.436   9.805  12.171
 8546SOL    HW225665   1.539   9.916  12.230
 8547SOL     OW25666   1.857  10.143  11.549
 8547SOL    HW125667   1.899  10.079  11.613
 8547SOL    HW225668   1.819  10.092  11.471
 8548SOL     OW25669   0.488  10.695  11.346
 8548SOL    HW125670   0.401  10.680  11.393
 8548SOL    HW225671   0.471  10.721  11.251
 8549SOL     OW25672   1.664  10.590  11.829
 8549SOL    HW125673   1.763  10.598  11.843
 8549SOL    HW225674   1.619  10.674  11.860
 8550SOL     OW25675   1.390   9.885  11.250
 8550SOL    HW125676   1.336   9.864  11.331
 8550SOL    HW225677   1.481   9.844  11.259
 8551SOL     OW25678   0.527   9.566  11.500
 8551SOL    HW125679   0.554   9.507  11.425
 8551SOL    HW225680   0.527   9.661  11.469
 8552SOL     OW25681   1.064  10.657  12.512
 8552SOL    HW125682   0.984  10.634  12.567
 8552SOL    HW225683   1.147  10.631  12.561
 8553SOL     OW25684   1.111  10.505  12.272
 8553SOL    HW125685   1.071  10.549  12.353
 8553SOL    HW225686   1.070  10.542  12.189
 8554SOL     OW25687   1.638  10.409  12.251
 8554SOL    HW125688   1.643  10.490  12.310
 8554SOL    HW225689   1.552  10.411  12.200
 8555SOL     OW25690   0.915   9.399  12.574
 8555SOL    HW125691   0.940   9.379  12.479
 8555SOL    HW225692   0.987   9.455  12.616
 8556SOL     OW25693   0.705  10.360  11.540
 8556SOL    HW125694   0.691  10.367  11.639
 8556SOL    HW225695   0.789  10.309  11.522
 8557SOL     OW25696   0.410  10.123  12.423
 8557SOL    HW125697   0.496  10.135  12.473
 8557SOL    HW225698   0.368  10.036  12.450
 8558SOL     OW25699   1.274   9.696  12.434
 8558SOL    HW125700   1.295   9.770  12.498
 8558SOL    HW225701   1.185   9.713  12.391
 8559SOL     OW25702   0.064  10.874  12.503
 8559SOL    HW125703   0.018  10.956  12.469
 8559SOL    HW225704   0.162  10.893  12.512
 8560SOL     OW25705   0.367  10.410  11.673
 8560SOL    HW125706   0.360  10.493  11.617
 8560SOL    HW225707   0.371  10.330  11.613
 8561SOL     OW25708   0.566   9.847  12.037
 8561SOL    HW125709   0.578   9.913  11.963
 8561SOL    HW225710   0.612   9.881  12.120
 8562SOL     OW25711   1.252  10.658  11.560
 8562SOL    HW125712   1.302  10.735  11.600
 8562SOL    HW225713   1.157  10.660  11.592
 8563SOL     OW25714   1.272  10.755  12.314
 8563SOL    HW125715   1.319  10.768  12.401
 8563SOL    HW225716   1.206  10.681  12.323
 8564SOL     OW25717   1.582   9.949  11.644
 8564SOL    HW125718   1.551  10.010  11.717
 8564SOL    HW225719   1.632  10.001  11.575
 8565SOL     OW25720   0.354  10.820  12.501
 8565SOL    HW125721   0.333  10.776  12.414
 8565SOL    HW225722   0.451  10.846  12.504
 8566SOL     OW25723   0.402  10.061  12.770
 8566SOL    HW125724   0.470  10.116  12.723
 8566SOL    HW225725   0.442   9.973  12.797
 8567SOL     OW25726   1.587  10.089  12.842
 8567SOL    HW125727   1.495  10.127  12.837
 8567SOL    HW225728   1.647  10.136  12.777
 8568SOL     OW25729   0.573  10.180  12.201
 8568SOL    HW125730   0.617  10.269  12.192
 8568SOL    HW225731   0.510  10.180  12.278
 8569SOL     OW25732   1.360  10.172  12.217
 8569SOL    HW125733   1.285  10.172  12.151
 8569SOL    HW225734   1.397  10.080  12.226
 8570SOL     OW25735   1.209   9.835  11.447
 8570SOL    HW125736   1.222   9.751  11.501
 8570SOL    HW225737   1.180   9.909  11.507
 8571SOL     OW25738   0.307   9.523  12.403
 8571SOL    HW125739   0.284   9.560  12.493
 8571SOL    HW225740   0.277   9.428  12.397
 8572SOL     OW25741   0.037  10.620  12.454
 8572SOL    HW125742   0.090  10.571  12.522
 8572SOL    HW225743   0.059  10.718  12.459
 8573SOL     OW25744   0.732   9.944  12.236
 8573SOL    HW125745   0.791   9.918  12.160
 8573SOL    HW225746   0.704  10.040  12.225
 8574SOL     OW25747   0.307   9.373  11.790
 8574SOL    HW125748   0.296   9.467  11.823
 8574SOL    HW225749   0.302   9.310  11.867
 8575SOL     OW25750   1.622   9.677  11.546
 8575SOL    HW125751   1.624   9.601  11.610
 8575SOL    HW225752   1.574   9.754  11.586
 8576SOL     OW25753   1.023  10.076  12.138
 8576SOL    HW125754   1.038  10.097  12.234
 8576SOL    HW225755   0.993   9.981  12.129
 8577SOL     OW25756   0.980  10.883  12.872
 8577SOL    HW125757   0.960  10.927  12.784
 8577SOL    HW225758   1.019  10.792  12.856
 8578SOL     OW25759   1.540   9.584  11.297
 8578SOL    HW125760   1.479   9.509  11.320
 8578SOL    HW225761   1.562   9.636  11.380
 8579SOL     OW25762   1.303  10.148  11.214
 8579SOL    HW125763   1.337  10.055  11.229
 8579SOL    HW225764   1.321  10.175  11.119
 8580SOL     OW25765   1.068  10.643  12.021
 8580SOL    HW125766   1.075  10.559  11.966
 8580SOL    HW225767   1.130  10.712  11.985
 8581SOL     OW25768   0.319  10.120  12.121
 8581SOL    HW125769   0.412  10.156  12.126
 8581SOL    HW225770   0.313  10.035  12.173
 8582SOL     OW25771   0.339   9.819  12.178
 8582SOL    HW125772   0.287   9.736  12.161
 8582SOL    HW225773   0.416   9.824  12.114
 8583SOL     OW25774   1.138   9.690  12.850
 8583SOL    HW125775   1.093   9.753  12.914
 8583SOL    HW225776   1.231   9.721  12.833
 8584SOL     OW25777   1.160   9.517  12.649
 8584SOL    HW125778   1.160   9.581  12.726
 8584SOL    HW225779   1.188   9.565  12.566
 8585SOL     OW25780   0.008  10.636  11.372
 8585SOL    HW125781  -0.085  10.657  11.341
 8585SOL    HW225782   0.018  10.537  11.385
 8586SOL     OW25783   0.088  11.111  12.099
 8586SOL    HW125784   0.046  11.025  12.072
 8586SOL    HW225785   0.182  11.114  12.065
 8587SOL     OW25786   0.504  10.878  12.082
 8587SOL    HW125787   0.570  10.952  12.091
 8587SOL    HW225788   0.548  10.799  12.040
 8588SOL     OW25789   1.002  10.106  12.410
 8588SOL    HW125790   1.043  10.074  12.496
 8588SOL    HW225791   0.906  10.079  12.407
 8589SOL     OW25792   0.040   9.854  12.286
 8589SOL    HW125793   0.125   9.821  12.245
 8589SOL    HW225794   0.053   9.869  12.384
 8590SOL     OW25795   0.815   9.882  11.497
 8590SOL    HW125796   0.822   9.793  11.451
 8590SOL    HW225797   0.721   9.916  11.489
 8591SOL     OW25798   1.657   9.914  12.378
 8591SOL    HW125799   1.619   9.845  12.440
 8591SOL    HW225800   1.739   9.878  12.334
 8592SOL     OW25801   0.671   9.774  12.441
 8592SOL    HW125802   0.637   9.685  12.411
 8592SOL    HW225803   0.697   9.828  12.361
 8593SOL     OW25804   0.930  10.988  12.637
 8593SOL    HW125805   0.906  10.970  12.542
 8593SOL    HW225806   0.960  11.082  12.647
 8594SOL     OW25807   0.473   9.810  11.363
 8594SOL    HW125808   0.534   9.890  11.367
 8594SOL    HW225809   0.378   9.841  11.370
 8595SOL     OW25810   0.159  10.447  12.638
 8595SOL    HW125811   0.181  10.386  12.714
 8595SOL    HW225812   0.169  10.398  12.552
 8596SOL     OW25813   1.347  10.369  12.406
 8596SOL    HW125814   1.371  10.306  12.332
 8596SOL    HW225815   1.257  10.409  12.388
 8597SOL     OW25816   1.302  10.165  11.481
 8597SOL    HW125817   1.216  10.134  11.523
 8597SOL    HW225818   1.298  10.151  11.382
 8598SOL     OW25819   1.759  11.057  12.326
 8598SOL    HW125820   1.820  11.087  12.253
 8598SOL    HW225821   1.721  10.968  12.304
 8599SOL     OW25822   1.252  11.041  12.300
 8599SOL    HW125823   1.336  11.046  12.246
 8599SOL    HW225824   1.229  10.945  12.318
 8600SOL     OW25825   0.083  10.568  12.194
 8600SOL    HW125826   0.078  10.567  12.294
 8600SOL    HW225827   0.000  10.527  12.156
 8601SOL     OW25828   1.726   9.445  11.695
 8601SOL    HW125829   1.799   9.428  11.628
 8601SOL    HW225830   1.695   9.358  11.733
 8602SOL     OW25831   1.388  10.883  11.649
 8602SOL    HW125832   1.455  10.895  11.575
 8602SOL    HW225833   1.348  10.972  11.672
 8603SOL     OW25834   1.280  10.237  11.844
 8603SOL    HW125835   1.340  10.156  11.846
 8603SOL    HW225836   1.320  10.306  11.784
 8604SOL     OW25837   0.672  10.926  11.326
 8604SOL    HW125838   0.681  10.936  11.227
 8604SOL    HW225839   0.632  10.837  11.347
 8605SOL     OW25840   1.650  11.030  12.566
 8605SOL    HW125841   1.703  11.040  12.482
 8605SOL    HW225842   1.623  11.120  12.600
 8606SOL     OW25843   1.841   9.485  12.135
 8606SOL    HW125844   1.880   9.400  12.099
 8606SOL    HW225845   1.743   9.487  12.116
 8607SOL     OW25846   0.263   9.636  11.892
 8607SOL    HW125847   0.184   9.687  11.858
 8607SOL    HW225848   0.254   9.621  11.990
 8608SOL     OW25849   1.194  10.922  11.203
 8608SOL    HW125850   1.200  10.829  11.240
 8608SOL    HW225851   1.135  10.922  11.123
 8609SOL     OW25852   0.822  10.312  12.544
 8609SOL    HW125853   0.862  10.311  12.452
 8609SOL    HW225854   0.832  10.404  12.584
 8610SOL     OW25855   0.916  10.220  11.463
 8610SOL    HW125856   0.979  10.258  11.395
 8610SOL    HW225857   0.956  10.137  11.502
 8611SOL     OW25858   1.504  10.917  11.216
 8611SOL    HW125859   1.412  10.954  11.223
 8611SOL    HW225860   1.542  10.937  11.126
 8612SOL     OW25861   0.372  10.598  12.662
 8612SOL    HW125862   0.359  10.691  12.628
 8612SOL    HW225863   0.288  10.546  12.649
 8613SOL     OW25864   1.614  10.602  12.461
 8613SOL    HW125865   1.674  10.605  12.541
 8613SOL    HW225866   1.539  10.666  12.474
 8614SOL     OW25867   1.039  10.408  11.868
 8614SOL    HW125868   0.969  10.361  11.922
 8614SOL    HW225869   1.098  10.340  11.825
 8615SOL     OW25870   1.014   9.546  12.143
 8615SOL    HW125871   1.006   9.510  12.050
 8615SOL    HW225872   1.012   9.470  12.208
 8616SOL     OW25873   0.590  10.797  11.663
 8616SOL    HW125874   0.632  10.739  11.593
 8616SOL    HW225875   0.546  10.876  11.619
 8617SOL     OW25876   1.709   9.695  12.553
 8617SOL    HW125877   1.782   9.764  12.557
 8617SOL    HW225878   1.737   9.620  12.494
 8618SOL     OW25879   0.255  10.658  11.462
 8618SOL    HW125880   0.159  10.659  11.435
 8618SOL    HW225881   0.267  10.711  11.546
 8619SOL     OW25882   0.075   9.655  11.205
 8619SOL    HW125883  -0.017   9.627  11.176
 8619SOL    HW225884   0.106   9.732  11.149
 8620SOL     OW25885   1.440  10.166  12.570
 8620SOL    HW125886   1.383  10.218  12.507
 8620SOL    HW225887   1.536  10.178  12.546
 8621SOL     OW25888   0.072   9.476  11.490
 8621SOL    HW125889   0.055   9.559  11.436
 8621SOL    HW225890   0.162   9.439  11.468
 8622SOL     OW25891   1.183  10.645  11.291
 8622SOL    HW125892   1.084  10.634  11.293
 8622SOL    HW225893   1.217  10.660  11.384
 8623SOL     OW25894   0.613  10.152  12.603
 8623SOL    HW125895   0.669  10.233  12.586
 8623SOL    HW225896   0.672  10.072  12.606
 8624SOL     OW25897   1.493  11.077  12.131
 8624SOL    HW125898   1.526  11.141  12.062
 8624SOL    HW225899   1.559  11.071  12.206
 8625SOL     OW25900   0.390  11.051  12.732
 8625SOL    HW125901   0.299  11.092  12.730
 8625SOL    HW225902   0.383  10.957  12.764
 8626SOL     OW25903   1.674  10.193  12.426
 8626SOL    HW125904   1.647  10.104  12.389
 8626SOL    HW225905   1.675  10.261  12.353
 8627SOL     OW25906   1.225   9.635  11.621
 8627SOL    HW125907   1.290   9.561  11.610
 8627SOL    HW225908   1.245   9.685  11.705
 8628SOL     OW25909   0.594  10.055  11.824
 8628SOL    HW125910   0.644  10.140  11.805
 8628SOL    HW225911   0.506  10.057  11.776
 8629SOL     OW25912   1.777   9.652  12.814
 8629SOL    HW125913   1.760   9.683  12.720
 8629SOL    HW225914   1.693   9.615  12.852
 8630SOL     OW25915   1.730  10.244  12.689
 8630SOL    HW125916   1.768  10.335  12.704
 8630SOL    HW225917   1.722  10.227  12.590
 8631SOL     OW25918   0.661  11.100  12.125
 8631SOL    HW125919   0.615  11.188  12.112
 8631SOL    HW225920   0.760  11.112  12.118
 8632SOL     OW25921   0.859  10.266  12.033
 8632SOL    HW125922   0.913  10.197  12.081
 8632SOL    HW225923   0.827  10.335  12.099
 8633SOL     OW25924   1.083  10.294  11.259
 8633SOL    HW125925   1.060  10.347  11.177
 8633SOL    HW225926   1.164  10.238  11.240
 8634SOL     OW25927   1.861  10.879  12.023
 8634SOL    HW125928   1.790  10.867  11.953
 8634SOL    HW225929   1.862  10.800  12.083
 8635SOL     OW25930   0.079  10.550  11.825
 8635SOL    HW125931   0.078  10.503  11.913
 8635SOL    HW225932   0.161  10.522  11.774
 8636SOL     OW25933   1.824   9.502  12.399
 8636SOL    HW125934   1.820   9.412  12.443
 8636SOL    HW225935   1.827   9.491  12.300
 8637SOL     OW25936   0.428   9.734  11.692
 8637SOL    HW125937   0.458   9.662  11.630
 8637SOL    HW225938   0.389   9.694  11.775
 8638SOL     OW25939   1.705  10.797  12.276
 8638SOL    HW125940   1.612  10.772  12.249
 8638SOL    HW225941   1.731  10.747  12.358
 8639SOL     OW25942   0.317   9.857  12.452
 8639SOL    HW125943   0.355   9.798  12.524
 8639SOL    HW225944   0.357   9.831  12.364
 8640SOL     OW25945   0.812  10.896  11.859
 8640SOL    HW125946   0.844  10.906  11.765
 8640SOL    HW225947   0.733  10.834  11.861
 8641SOL     OW25948   1.424   9.524  12.284
 8641SOL    HW125949   1.476   9.459  12.339
 8641SOL    HW225950   1.375   9.587  12.345
 8642SOL     OW25951   1.001   9.344  12.326
 8642SOL    HW125952   0.938   9.272  12.295
 8642SOL    HW225953   1.094   9.308  12.326
 8643SOL     OW25954   0.770  10.640  11.473
 8643SOL    HW125955   0.724  10.553  11.490
 8643SOL    HW225956   0.861  10.637  11.514
 8644SOL     OW25957   0.618  10.877  12.456
 8644SOL    HW125958   0.613  10.959  12.513
 8644SOL    HW225959   0.707  10.874  12.411
 8645SOL     OW25960   1.352   9.362  11.340
 8645SOL    HW125961   1.387   9.321  11.256
 8645SOL    HW225962   1.262   9.324  11.360
 8646SOL     OW25963   1.300   9.763  11.863
 8646SOL    HW125964   1.241   9.843  11.867
 8646SOL    HW225965   1.315   9.728  11.956
 8647SOL     OW25966   1.593   9.531  12.054
 8647SOL    HW125967   1.509   9.530  12.108
 8647SOL    HW225968   1.595   9.614  11.998
 8648SOL     OW25969   0.039  10.387  11.472
 8648SOL    HW125970   0.138  10.376  11.463
 8648SOL    HW225971  -0.001  10.301  11.504
 8649SOL     OW25972   0.875  10.956  11.509
 8649SOL    HW125973   0.798  10.921  11.455
 8649SOL    HW225974   0.843  11.027  11.571
 8650SOL     OW25975   0.230  11.800   0.113
 8650SOL    HW125976   0.137  11.798   0.150
 8650SOL    HW225977   0.231  11.761   0.021
 8651SOL     OW25978   0.225  11.447   0.996
 8651SOL    HW125979   0.260  11.430   1.088
 8651SOL    HW225980   0.137  11.402   0.984
 8652SOL     OW25981   0.019  11.540   0.647
 8652SOL    HW125982  -0.063  11.583   0.686
 8652SOL    HW225983  -0.009  11.467   0.584
 8653SOL     OW25984   0.569  12.447   1.165
 8653SOL    HW125985   0.476  12.440   1.128
 8653SOL    HW225986   0.580  12.536   1.209
 8654SOL     OW25987   1.555  12.683   0.703
 8654SOL    HW125988   1.498  12.667   0.784
 8654SOL    HW225989   1.496  12.693   0.623
 8655SOL     OW25990   1.135  11.875   0.717
 8655SOL    HW125991   1.192  11.953   0.692
 8655SOL    HW225992   1.075  11.901   0.793
 8656SOL     OW25993   1.755  11.779   0.231
 8656SOL    HW125994   1.743  11.766   0.132
 8656SOL    HW225995   1.725  11.698   0.280
 8657SOL     OW25996   0.768  12.316   1.023
 8657SOL    HW125997   0.690  12.333   1.083
 8657SOL    HW225998   0.802  12.403   0.987
 8658SOL     OW25999   0.850  11.970   1.823
 8658SOL    HW126000   0.846  12.046   1.888
 8658SOL    HW226001   0.872  12.006   1.732
 8659SOL     OW26002   0.685  12.184   0.665
 8659SOL    HW126003   0.754  12.168   0.735
 8659SOL    HW226004   0.612  12.241   0.703
 8660SOL     OW26005   0.686  12.333   1.803
 8660SOL    HW126006   0.746  12.412   1.817
 8660SOL    HW226007   0.600  12.364   1.762
 8661SOL     OW26008   0.335  12.607   1.061
 8661SOL    HW126009   0.257  12.576   1.008
 8661SOL    HW226010   0.393  12.665   1.004
 8662SOL     OW26011   1.460  12.677   1.339
 8662SOL    HW126012   1.484  12.771   1.365
 8662SOL    HW226013   1.444  12.623   1.421
 8663SOL     OW26014   0.438  11.564   1.499
 8663SOL    HW126015   0.520  11.508   1.508
 8663SOL    HW226016   0.357  11.506   1.503
 8664SOL     OW26017   1.603  11.619   0.737
 8664SOL    HW126018   1.529  11.665   0.687
 8664SOL    HW226019   1.654  11.687   0.790
 8665SOL     OW26020   0.231  12.885   0.483
 8665SOL    HW126021   0.265  12.962   0.537
 8665SOL    HW226022   0.275  12.885   0.393
 8666SOL     OW26023   1.127  12.513   1.690
 8666SOL    HW126024   1.174  12.513   1.778
 8666SOL    HW226025   1.079  12.426   1.679
 8667SOL     OW26026   0.230  12.606   0.538
 8667SOL    HW126027   0.204  12.702   0.538
 8667SOL    HW226028   0.159  12.552   0.583
 8668SOL     OW26029   0.240  12.263   0.886
 8668SOL    HW126030   0.254  12.179   0.938
 8668SOL    HW226031   0.185  12.327   0.941
 8669SOL     OW26032   0.606  12.136   0.123
 8669SOL    HW126033   0.613  12.220   0.069
 8669SOL    HW226034   0.652  12.149   0.211
 8670SOL     OW26035   1.594  11.286   1.480
 8670SOL    HW126036   1.576  11.353   1.408
 8670SOL    HW226037   1.591  11.332   1.569
 8671SOL     OW26038   0.122  11.815   0.563
 8671SOL    HW126039   0.077  11.727   0.580
 8671SOL    HW226040   0.121  11.869   0.647
 8672SOL     OW26041   0.027  12.768   0.117
 8672SOL    HW126042   0.008  12.672   0.138
 8672SOL    HW226043  -0.006  12.826   0.192
 8673SOL     OW26044   1.689  12.094   0.612
 8673SOL    HW126045   1.784  12.065   0.620
 8673SOL    HW226046   1.681  12.159   0.537
 8674SOL     OW26047   1.641  12.280   0.432
 8674SOL    HW126048   1.727  12.282   0.380
 8674SOL    HW226049   1.655  12.327   0.520
 8675SOL     OW26050   0.113  11.909   1.597
 8675SOL    HW126051   0.201  11.896   1.642
 8675SOL    HW226052   0.100  12.006   1.575
 8676SOL     OW26053   0.613  12.537   0.726
 8676SOL    HW126054   0.564  12.450   0.735
 8676SOL    HW226055   0.590  12.580   0.639
 8677SOL     OW26056   1.293  12.400   1.423
 8677SOL    HW126057   1.330  12.327   1.365
 8677SOL    HW226058   1.345  12.405   1.508
 8678SOL     OW26059   0.809  11.176   0.502
 8678SOL    HW126060   0.849  11.267   0.493
 8678SOL    HW226061   0.709  11.184   0.508
 8679SOL     OW26062   0.197  12.148   1.264
 8679SOL    HW126063   0.286  12.103   1.250
 8679SOL    HW226064   0.124  12.083   1.245
 8680SOL     OW26065   1.525  12.171   0.190
 8680SOL    HW126066   1.462  12.095   0.203
 8680SOL    HW226067   1.573  12.189   0.276
 8681SOL     OW26068   0.317  11.423   1.801
 8681SOL    HW126069   0.388  11.494   1.807
 8681SOL    HW226070   0.229  11.462   1.829
 8682SOL     OW26071   1.466  12.589   0.953
 8682SOL    HW126072   1.407  12.595   1.033
 8682SOL    HW226073   1.451  12.501   0.907
 8683SOL     OW26074   0.598  11.901   0.270
 8683SOL    HW126075   0.622  11.970   0.202
 8683SOL    HW226076   0.520  11.934   0.324
 8684SOL     OW26077   1.281  11.517   0.944
 8684SOL    HW126078   1.195  11.467   0.931
 8684SOL    HW226079   1.343  11.463   1.000
 8685SOL     OW26080   0.807  11.777   1.465
 8685SOL    HW126081   0.760  11.774   1.554
 8685SOL    HW226082   0.756  11.722   1.399
 8686SOL     OW26083   1.394  11.641   1.674
 8686SOL    HW126084   1.374  11.684   1.762
 8686SOL    HW226085   1.472  11.579   1.683
 8687SOL     OW26086   0.973  12.062   1.572
 8687SOL    HW126087   1.019  11.978   1.543
 8687SOL    HW226088   0.917  12.096   1.497
 8688SOL     OW26089   0.991  11.582   1.242
 8688SOL    HW126090   0.914  11.616   1.296
 8688SOL    HW226091   0.957  11.531   1.163
 8689SOL     OW26092   1.041  11.873   0.429
 8689SOL    HW126093   1.067  11.869   0.525
 8689SOL    HW226094   0.956  11.822   0.415
 8690SOL     OW26095   0.076  11.983   0.789
 8690SOL    HW126096   0.175  11.971   0.798
 8690SOL    HW226097   0.052  12.078   0.810
 8691SOL     OW26098   0.865  11.520   0.195
 8691SOL    HW126099   0.924  11.583   0.146
 8691SOL    HW226100   0.884  11.426   0.166
 8692SOL     OW26101   1.719  11.757   1.831
 8692SOL    HW126102   1.693  11.846   1.795
 8692SOL    HW226103   1.717  11.689   1.758
 8693SOL     OW26104   1.362  12.316   0.545
 8693SOL    HW126105   1.445  12.287   0.497
 8693SOL    HW226106   1.313  12.383   0.489
 8694SOL     OW26107   0.550  11.368   0.885
 8694SOL    HW126108   0.545  11.363   0.985
 8694SOL    HW226109   0.552  11.464   0.856
 8695SOL     OW26110   1.008  12.628   0.477
 8695SOL    HW126111   0.962  12.700   0.425
 8695SOL    HW226112   1.004  12.648   0.575
 8696SOL     OW26113   1.795  12.238   0.873
 8696SOL    HW126114   1.733  12.223   0.797
 8696SOL    HW226115   1.743  12.249   0.958
 8697SOL     OW26116   1.227  12.722   1.506
 8697SOL    HW126117   1.233  12.645   1.570
 8697SOL    HW226118   1.175  12.696   1.426
 8698SOL     OW26119   0.321  12.115   0.242
 8698SOL    HW126120   0.403  12.154   0.200
 8698SOL    HW226121   0.294  12.033   0.193
 8699SOL     OW26122   1.458  11.907   0.728
 8699SOL    HW126123   1.453  11.842   0.803
 8699SOL    HW226124   1.538  11.966   0.741
 8700SOL     OW26125   0.461  12.438   1.727
 8700SOL    HW126126   0.411  12.439   1.641
 8700SOL    HW226127   0.398  12.420   1.803
 8701SOL     OW26128   1.111  12.948   0.237
 8701SOL    HW126129   1.051  12.886   0.287
 8701SOL    HW226130   1.142  12.904   0.152
 8702SOL     OW26131   0.202  11.457   1.498
 8702SOL    HW126132   0.122  11.517   1.485
 8702SOL    HW226133   0.192  11.408   1.584
 8703SOL     OW26134   1.632  12.549   0.081
 8703SOL    HW126135   1.600  12.643   0.071
 8703SOL    HW226136   1.556  12.486   0.069
 8704SOL     OW26137   1.400  11.279   0.426
 8704SOL    HW126138   1.376  11.242   0.336
 8704SOL    HW226139   1.499  11.295   0.430
 8705SOL     OW26140   0.382  11.872   0.480
 8705SOL    HW126141   0.427  11.782   0.477
 8705SOL    HW226142   0.288  11.861   0.513
 8706SOL     OW26143   1.547  11.394   1.729
 8706SOL    HW126144   1.542  11.431   1.821
 8706SOL    HW226145   1.475  11.325   1.717
 8707SOL     OW26146   0.614  11.294   0.117
 8707SOL    HW126147   0.712  11.272   0.124
 8707SOL    HW226148   0.583  11.277   0.024
 8708SOL     OW26149   0.781  11.436   1.749
 8708SOL    HW126150   0.848  11.375   1.792
 8708SOL    HW226151   0.708  11.455   1.814
 8709SOL     OW26152   1.351  11.762   1.433
 8709SOL    HW126153   1.379  11.719   1.518
 8709SOL    HW226154   1.376  11.858   1.434
 8710SOL     OW26155   0.803  12.574   0.924
 8710SOL    HW126156   0.893  12.588   0.882
 8710SOL    HW226157   0.732  12.576   0.853
 8711SOL     OW26158   0.922  11.675   0.899
 8711SOL    HW126159   0.897  11.666   0.803
 8711SOL    HW226160   0.970  11.593   0.930
 8712SOL     OW26161   0.539  11.236   0.512
 8712SOL    HW126162   0.458  11.237   0.570
 8712SOL    HW226163   0.542  11.319   0.457
 8713SOL     OW26164   1.434  12.360   0.041
 8713SOL    HW126165   1.466  12.284   0.098
 8713SOL    HW226166   1.342  12.387   0.071
 8714SOL     OW26167   0.297  11.207   0.171
 8714SOL    HW126168   0.346  11.291   0.150
 8714SOL    HW226169   0.359  11.142   0.216
 8715SOL     OW26170   0.935  11.408   0.480
 8715SOL    HW126171   0.887  11.449   0.402
 8715SOL    HW226172   1.034  11.406   0.461
 8716SOL     OW26173   1.076  11.855   1.464
 8716SOL    HW126174   0.996  11.794   1.467
 8716SOL    HW226175   1.157  11.802   1.440
 8717SOL     OW26176   1.227  12.742   0.793
 8717SOL    HW126177   1.248  12.816   0.728
 8717SOL    HW226178   1.295  12.742   0.866
 8718SOL     OW26179   0.459  12.324   0.741
 8718SOL    HW126180   0.388  12.297   0.806
 8718SOL    HW226181   0.433  12.296   0.648
 8719SOL     OW26182   1.032  11.721   0.016
 8719SOL    HW126183   0.991  11.803  -0.023
 8719SOL    HW226184   1.096  11.747   0.089
 8720SOL     OW26185   0.078  11.728   1.386
 8720SOL    HW126186   0.170  11.727   1.345
 8720SOL    HW226187   0.072  11.802   1.453
 8721SOL     OW26188   0.561  11.394   1.147
 8721SOL    HW126189   0.599  11.310   1.184
 8721SOL    HW226190   0.473  11.413   1.191
 8722SOL     OW26191   0.866  11.626   0.642
 8722SOL    HW126192   0.834  11.698   0.580
 8722SOL    HW226193   0.890  11.545   0.589
 8723SOL     OW26194   1.017  11.211   0.753
 8723SOL    HW126195   0.945  11.216   0.684
 8723SOL    HW226196   0.993  11.142   0.822
 8724SOL     OW26197   1.429  12.345   0.867
 8724SOL    HW126198   1.374  12.261   0.860
 8724SOL    HW226199   1.455  12.374   0.775
 8725SOL     OW26200   1.466  11.762   0.992
 8725SOL    HW126201   1.436  11.667   0.999
 8725SOL    HW226202   1.539  11.778   1.058
 8726SOL     OW26203   1.857  12.005   0.377
 8726SOL    HW126204   1.899  11.941   0.441
 8726SOL    HW226205   1.819  11.954   0.299
 8727SOL     OW26206   0.488  12.557   0.174
 8727SOL    HW126207   0.401  12.542   0.221
 8727SOL    HW226208   0.471  12.583   0.079
 8728SOL     OW26209   1.664  12.452   0.657
 8728SOL    HW126210   1.763  12.460   0.671
 8728SOL    HW226211   1.619  12.536   0.688
 8729SOL     OW26212   1.390  11.747   0.078
 8729SOL    HW126213   1.336  11.726   0.159
 8729SOL    HW226214   1.481  11.706   0.087
 8730SOL     OW26215   0.527  11.428   0.328
 8730SOL    HW126216   0.554  11.369   0.253
 8730SOL    HW226217   0.527  11.523   0.297
 8731SOL     OW26218   1.754  12.395   1.588
 8731SOL    HW126219   1.845  12.356   1.575
 8731SOL    HW226220   1.762  12.491   1.612
 8732SOL     OW26221   1.064  12.519   1.340
 8732SOL    HW126222   0.984  12.496   1.395
 8732SOL    HW226223   1.147  12.493   1.389
 8733SOL     OW26224   1.111  12.367   1.100
 8733SOL    HW126225   1.071  12.411   1.181
 8733SOL    HW226226   1.070  12.404   1.017
 8734SOL     OW26227   1.638  12.271   1.079
 8734SOL    HW126228   1.643  12.352   1.138
 8734SOL    HW226229   1.552  12.273   1.028
 8735SOL     OW26230   0.915  11.261   1.402
 8735SOL    HW126231   0.940  11.241   1.307
 8735SOL    HW226232   0.987  11.317   1.444
 8736SOL     OW26233   0.980  12.288   1.719
 8736SOL    HW126234   0.881  12.294   1.729
 8736SOL    HW226235   1.003  12.208   1.663
 8737SOL     OW26236   0.705  12.222   0.368
 8737SOL    HW126237   0.691  12.229   0.467
 8737SOL    HW226238   0.789  12.171   0.350
 8738SOL     OW26239   0.410  11.985   1.251
 8738SOL    HW126240   0.496  11.997   1.301
 8738SOL    HW226241   0.368  11.898   1.278
 8739SOL     OW26242   1.274  11.558   1.262
 8739SOL    HW126243   1.295  11.632   1.326
 8739SOL    HW226244   1.185  11.575   1.219
 8740SOL     OW26245   0.064  12.736   1.331
 8740SOL    HW126246   0.018  12.818   1.297
 8740SOL    HW226247   0.162  12.755   1.340
 8741SOL     OW26248   0.367  12.272   0.501
 8741SOL    HW126249   0.360  12.355   0.445
 8741SOL    HW226250   0.371  12.192   0.441
 8742SOL     OW26251   0.566  11.709   0.865
 8742SOL    HW126252   0.578  11.775   0.791
 8742SOL    HW226253   0.612  11.743   0.948
 8743SOL     OW26254   1.252  12.520   0.388
 8743SOL    HW126255   1.302  12.597   0.428
 8743SOL    HW226256   1.157  12.522   0.420
 8744SOL     OW26257   1.272  12.617   1.142
 8744SOL    HW126258   1.319  12.630   1.229
 8744SOL    HW226259   1.206  12.543   1.151
 8745SOL     OW26260   1.582  11.811   0.472
 8745SOL    HW126261   1.551  11.872   0.545
 8745SOL    HW226262   1.632  11.863   0.403
 8746SOL     OW26263   0.354  12.682   1.329
 8746SOL    HW126264   0.333  12.638   1.242
 8746SOL    HW226265   0.451  12.708   1.332
 8747SOL     OW26266   0.402  11.923   1.598
 8747SOL    HW126267   0.470  11.978   1.551
 8747SOL    HW226268   0.442  11.835   1.625
 8748SOL     OW26269   1.587  11.951   1.670
 8748SOL    HW126270   1.495  11.989   1.665
 8748SOL    HW226271   1.647  11.998   1.605
 8749SOL     OW26272   1.013  11.277   1.770
 8749SOL    HW126273   1.019  11.362   1.718
 8749SOL    HW226274   1.045  11.201   1.713
 8750SOL     OW26275   0.504  11.222   1.740
 8750SOL    HW126276   0.462  11.165   1.670
 8750SOL    HW226277   0.438  11.291   1.772
 8751SOL     OW26278   0.573  12.042   1.029
 8751SOL    HW126279   0.617  12.131   1.020
 8751SOL    HW226280   0.510  12.042   1.106
 8752SOL     OW26281   1.360  12.034   1.045
 8752SOL    HW126282   1.285  12.034   0.979
 8752SOL    HW226283   1.397  11.942   1.054
 8753SOL     OW26284   1.209  11.697   0.275
 8753SOL    HW126285   1.222  11.613   0.329
 8753SOL    HW226286   1.180  11.771   0.335
 8754SOL     OW26287   0.307  11.385   1.231
 8754SOL    HW126288   0.284  11.422   1.321
 8754SOL    HW226289   0.277  11.290   1.225
 8755SOL     OW26290   0.037  12.482   1.282
 8755SOL    HW126291   0.090  12.433   1.350
 8755SOL    HW226292   0.059  12.580   1.287
 8756SOL     OW26293   0.732  11.806   1.064
 8756SOL    HW126294   0.791  11.780   0.988
 8756SOL    HW226295   0.704  11.902   1.053
 8757SOL     OW26296   1.728  12.107   1.854
 8757SOL    HW126297   1.682  12.100   1.765
 8757SOL    HW226298   1.666  12.151   1.920
 8758SOL     OW26299   0.307  11.235   0.618
 8758SOL    HW126300   0.296  11.329   0.651
 8758SOL    HW226301   0.302  11.172   0.695
 8759SOL     OW26302   1.622  11.539   0.374
 8759SOL    HW126303   1.624  11.463   0.438
 8759SOL    HW226304   1.574  11.616   0.414
 8760SOL     OW26305   1.023  11.938   0.966
 8760SOL    HW126306   1.038  11.959   1.062
 8760SOL    HW226307   0.993  11.843   0.957
 8761SOL     OW26308   1.859  12.690   1.605
 8761SOL    HW126309   1.873  12.717   1.510
 8761SOL    HW226310   1.942  12.712   1.658
 8762SOL     OW26311   0.350  12.070   1.804
 8762SOL    HW126312   0.426  12.114   1.852
 8762SOL    HW226313   0.385  12.023   1.722
 8763SOL     OW26314   1.540  11.446   0.125
 8763SOL    HW126315   1.479  11.371   0.148
 8763SOL    HW226316   1.562  11.498   0.208
 8764SOL     OW26317   1.303  12.010   0.042
 8764SOL    HW126318   1.337  11.917   0.057
 8764SOL    HW226319   1.321  12.037  -0.053
 8765SOL     OW26320   1.068  12.505   0.849
 8765SOL    HW126321   1.075  12.421   0.794
 8765SOL    HW226322   1.130  12.574   0.813
 8766SOL     OW26323   0.319  11.982   0.949
 8766SOL    HW126324   0.412  12.018   0.954
 8766SOL    HW226325   0.313  11.897   1.001
 8767SOL     OW26326   0.339  11.681   1.006
 8767SOL    HW126327   0.287  11.598   0.989
 8767SOL    HW226328   0.416  11.686   0.942
 8768SOL     OW26329   1.138  11.552   1.678
 8768SOL    HW126330   1.093  11.615   1.742
 8768SOL    HW226331   1.231  11.583   1.661
 8769SOL     OW26332   1.160  11.379   1.477
 8769SOL    HW126333   1.160  11.443   1.554
 8769SOL    HW226334   1.188  11.427   1.394
 8770SOL     OW26335   0.008  12.498   0.200
 8770SOL    HW126336  -0.085  12.519   0.169
 8770SOL    HW226337   0.018  12.399   0.213
 8771SOL     OW26338   1.002  11.968   1.238
 8771SOL    HW126339   1.043  11.936   1.324
 8771SOL    HW226340   0.906  11.941   1.235
 8772SOL     OW26341   0.040  11.716   1.114
 8772SOL    HW126342   0.125  11.683   1.073
 8772SOL    HW226343   0.053  11.731   1.212
 8773SOL     OW26344   0.189  11.692   1.722
 8773SOL    HW126345   0.248  11.652   1.652
 8773SOL    HW226346   0.131  11.763   1.681
 8774SOL     OW26347   1.369  12.122   1.660
 8774SOL    HW126348   1.408  12.211   1.680
 8774SOL    HW226349   1.379  12.102   1.563
 8775SOL     OW26350   0.815  11.744   0.325
 8775SOL    HW126351   0.822  11.655   0.279
 8775SOL    HW226352   0.721  11.778   0.317
 8776SOL     OW26353   1.657  11.776   1.206
 8776SOL    HW126354   1.619  11.707   1.268
 8776SOL    HW226355   1.739  11.740   1.162
 8777SOL     OW26356   0.252  12.736   1.744
 8777SOL    HW126357   0.222  12.793   1.820
 8777SOL    HW226358   0.245  12.639   1.770
 8778SOL     OW26359   0.671  11.636   1.269
 8778SOL    HW126360   0.637  11.547   1.239
 8778SOL    HW226361   0.697  11.690   1.189
 8779SOL     OW26362   0.473  11.672   0.191
 8779SOL    HW126363   0.534  11.752   0.195
 8779SOL    HW226364   0.378  11.703   0.198
 8780SOL     OW26365   0.159  12.309   1.466
 8780SOL    HW126366   0.181  12.248   1.542
 8780SOL    HW226367   0.169  12.260   1.380
 8781SOL     OW26368   1.347  12.231   1.234
 8781SOL    HW126369   1.371  12.168   1.160
 8781SOL    HW226370   1.257  12.271   1.216
 8782SOL     OW26371   1.302  12.027   0.309
 8782SOL    HW126372   1.216  11.996   0.351
 8782SOL    HW226373   1.298  12.013   0.210
 8783SOL     OW26374   0.083  12.430   1.022
 8783SOL    HW126375   0.078  12.429   1.122
 8783SOL    HW226376   0.000  12.389   0.984
 8784SOL     OW26377   0.903  11.258   0.133
 8784SOL    HW126378   0.954  11.259   0.047
 8784SOL    HW226379   0.959  11.216   0.204
 8785SOL     OW26380   1.726  11.307   0.523
 8785SOL    HW126381   1.799  11.290   0.456
 8785SOL    HW226382   1.695  11.220   0.561
 8786SOL     OW26383   1.280  12.099   0.672
 8786SOL    HW126384   1.340  12.018   0.674
 8786SOL    HW226385   1.320  12.168   0.612
 8787SOL     OW26386   0.830  12.445   1.422
 8787SOL    HW126387   0.825  12.478   1.517
 8787SOL    HW226388   0.744  12.464   1.376
 8788SOL     OW26389   1.841  11.347   0.963
 8788SOL    HW126390   1.880  11.262   0.927
 8788SOL    HW226391   1.743  11.349   0.944
 8789SOL     OW26392   0.263  11.498   0.720
 8789SOL    HW126393   0.184  11.549   0.686
 8789SOL    HW226394   0.254  11.483   0.818
 8790SOL     OW26395   1.194  12.784   0.031
 8790SOL    HW126396   1.200  12.691   0.068
 8790SOL    HW226397   1.135  12.784  -0.049
 8791SOL     OW26398   0.822  12.174   1.372
 8791SOL    HW126399   0.862  12.173   1.280
 8791SOL    HW226400   0.832  12.266   1.412
 8792SOL     OW26401   0.916  12.082   0.291
 8792SOL    HW126402   0.979  12.120   0.223
 8792SOL    HW226403   0.956  11.999   0.330
 8793SOL     OW26404   0.372  12.460   1.490
 8793SOL    HW126405   0.359  12.553   1.456
 8793SOL    HW226406   0.288  12.408   1.477
 8794SOL     OW26407   1.614  12.464   1.289
 8794SOL    HW126408   1.674  12.467   1.369
 8794SOL    HW226409   1.539  12.528   1.302
 8795SOL     OW26410   1.039  12.270   0.696
 8795SOL    HW126411   0.969  12.223   0.750
 8795SOL    HW226412   1.098  12.202   0.653
 8796SOL     OW26413   1.014  11.408   0.971
 8796SOL    HW126414   1.006  11.372   0.878
 8796SOL    HW226415   1.012  11.332   1.036
 8797SOL     OW26416   1.709  11.557   1.381
 8797SOL    HW126417   1.782  11.626   1.385
 8797SOL    HW226418   1.737  11.482   1.322
 8798SOL     OW26419   0.255  12.520   0.290
 8798SOL    HW126420   0.159  12.521   0.263
 8798SOL    HW226421   0.267  12.573   0.374
 8799SOL     OW26422   0.105  12.185   1.726
 8799SOL    HW126423   0.028  12.152   1.780
 8799SOL    HW226424   0.190  12.155   1.768
 8800SOL     OW26425   0.672  11.375   1.489
 8800SOL    HW126426   0.762  11.359   1.449
 8800SOL    HW226427   0.680  11.380   1.588
 8801SOL     OW26428   0.075  11.517   0.033
 8801SOL    HW126429  -0.017  11.489   0.004
 8801SOL    HW226430   0.106  11.594  -0.023
 8802SOL     OW26431   1.440  12.028   1.398
 8802SOL    HW126432   1.383  12.080   1.335
 8802SOL    HW226433   1.536  12.040   1.374
 8803SOL     OW26434   0.072  11.338   0.318
 8803SOL    HW126435   0.055  11.421   0.264
 8803SOL    HW226436   0.162  11.301   0.296
 8804SOL     OW26437   1.183  12.507   0.119
 8804SOL    HW126438   1.084  12.496   0.121
 8804SOL    HW226439   1.217  12.522   0.212
 8805SOL     OW26440   0.613  12.014   1.431
 8805SOL    HW126441   0.669  12.095   1.414
 8805SOL    HW226442   0.672  11.934   1.434
 8806SOL     OW26443   0.716  11.737   1.708
 8806SOL    HW126444   0.735  11.802   1.782
 8806SOL    HW226445   0.776  11.657   1.717
 8807SOL     OW26446   1.450  12.392   1.633
 8807SOL    HW126447   1.441  12.382   1.732
 8807SOL    HW226448   1.546  12.385   1.607
 8808SOL     OW26449   1.674  12.055   1.254
 8808SOL    HW126450   1.647  11.966   1.217
 8808SOL    HW226451   1.675  12.123   1.181
 8809SOL     OW26452   1.225  11.497   0.449
 8809SOL    HW126453   1.290  11.423   0.438
 8809SOL    HW226454   1.245  11.547   0.533
 8810SOL     OW26455   0.594  11.917   0.652
 8810SOL    HW126456   0.644  12.002   0.633
 8810SOL    HW226457   0.506  11.919   0.604
 8811SOL     OW26458   1.777  11.514   1.642
 8811SOL    HW126459   1.760  11.545   1.548
 8811SOL    HW226460   1.693  11.477   1.680
 8812SOL     OW26461   1.730  12.106   1.517
 8812SOL    HW126462   1.768  12.197   1.532
 8812SOL    HW226463   1.722  12.089   1.418
 8813SOL     OW26464   0.859  12.546   0.016
 8813SOL    HW126465   0.813  12.561   0.104
 8813SOL    HW226466   0.903  12.631  -0.014
 8814SOL     OW26467   0.859  12.128   0.861
 8814SOL    HW126468   0.913  12.059   0.909
 8814SOL    HW226469   0.827  12.197   0.927
 8815SOL     OW26470   1.083  12.156   0.087
 8815SOL    HW126471   1.060  12.209   0.005
 8815SOL    HW226472   1.164  12.100   0.068
 8816SOL     OW26473   0.221  12.486   1.844
 8816SOL    HW126474   0.156  12.413   1.823
 8816SOL    HW226475   0.225  12.500   1.942
 8817SOL     OW26476   0.079  12.412   0.653
 8817SOL    HW126477   0.078  12.365   0.741
 8817SOL    HW226478   0.161  12.384   0.602
 8818SOL     OW26479   0.672  12.563   1.624
 8818SOL    HW126480   0.594  12.513   1.662
 8818SOL    HW226481   0.669  12.658   1.655
 8819SOL     OW26482   1.824  11.364   1.227
 8819SOL    HW126483   1.820  11.274   1.271
 8819SOL    HW226484   1.827  11.353   1.128
 8820SOL     OW26485   0.428  11.596   0.520
 8820SOL    HW126486   0.458  11.524   0.458
 8820SOL    HW226487   0.389  11.556   0.603
 8821SOL     OW26488   1.705  12.659   1.104
 8821SOL    HW126489   1.612  12.634   1.077
 8821SOL    HW226490   1.731  12.609   1.186
 8822SOL     OW26491   0.317  11.719   1.280
 8822SOL    HW126492   0.355  11.660   1.352
 8822SOL    HW226493   0.357  11.693   1.192
 8823SOL     OW26494   1.424  11.386   1.112
 8823SOL    HW126495   1.476  11.321   1.167
 8823SOL    HW226496   1.375  11.449   1.173
 8824SOL     OW26497   1.001  11.206   1.154
 8824SOL    HW126498   0.938  11.134   1.123
 8824SOL    HW226499   1.094  11.170   1.154
 8825SOL     OW26500   0.770  12.502   0.301
 8825SOL    HW126501   0.724  12.415   0.318
 8825SOL    HW226502   0.861  12.499   0.342
 8826SOL     OW26503   0.618  12.739   1.284
 8826SOL    HW126504   0.613  12.821   1.341
 8826SOL    HW226505   0.707  12.736   1.239
 8827SOL     OW26506   1.352  11.224   0.168
 8827SOL    HW126507   1.387  11.183   0.084
 8827SOL    HW226508   1.262  11.186   0.188
 8828SOL     OW26509   1.300  11.625   0.691
 8828SOL    HW126510   1.241  11.705   0.695
 8828SOL    HW226511   1.315  11.590   0.784
 8829SOL     OW26512   1.593  11.393   0.882
 8829SOL    HW126513   1.509  11.392   0.936
 8829SOL    HW226514   1.595  11.476   0.826
 8830SOL     OW26515   0.039  12.249   0.300
 8830SOL    HW126516   0.138  12.238   0.291
 8830SOL    HW226517  -0.001  12.163   0.332
 8831SOL     OW26518   0.230  11.800   1.975
 8831SOL    HW126519   0.137  11.798   2.012
 8831SOL    HW226520   0.231  11.761   1.883
 8832SOL     OW26521   0.225  11.447   2.858
 8832SOL    HW126522   0.260  11.430   2.950
 8832SOL    HW226523   0.137  11.402   2.846
 8833SOL     OW26524   0.019  11.540   2.509
 8833SOL    HW126525  -0.063  11.583   2.548
 8833SOL    HW226526  -0.009  11.467   2.446
 8834SOL     OW26527   0.569  12.447   3.027
 8834SOL    HW126528   0.476  12.440   2.990
 8834SOL    HW226529   0.580  12.536   3.071
 8835SOL     OW26530   1.555  12.683   2.565
 8835SOL    HW126531   1.498  12.667   2.646
 8835SOL    HW226532   1.496  12.693   2.485
 8836SOL     OW26533   1.135  11.875   2.579
 8836SOL    HW126534   1.192  11.953   2.554
 8836SOL    HW226535   1.075  11.901   2.655
 8837SOL     OW26536   1.755  11.779   2.093
 8837SOL    HW126537   1.743  11.766   1.994
 8837SOL    HW226538   1.725  11.698   2.142
 8838SOL     OW26539   0.768  12.316   2.885
 8838SOL    HW126540   0.690  12.333   2.945
 8838SOL    HW226541   0.802  12.403   2.849
 8839SOL     OW26542   0.850  11.970   3.685
 8839SOL    HW126543   0.846  12.046   3.750
 8839SOL    HW226544   0.872  12.006   3.594
 8840SOL     OW26545   0.685  12.184   2.527
 8840SOL    HW126546   0.754  12.168   2.597
 8840SOL    HW226547   0.612  12.241   2.565
 8841SOL     OW26548   0.686  12.333   3.665
 8841SOL    HW126549   0.746  12.412   3.679
 8841SOL    HW226550   0.600  12.364   3.624
 8842SOL     OW26551   0.335  12.607   2.923
 8842SOL    HW126552   0.257  12.576   2.870
 8842SOL    HW226553   0.393  12.665   2.866
 8843SOL     OW26554   1.460  12.677   3.201
 8843SOL    HW126555   1.484  12.771   3.227
 8843SOL    HW226556   1.444  12.623   3.283
 8844SOL     OW26557   0.438  11.564   3.361
 8844SOL    HW126558   0.520  11.508   3.370
 8844SOL    HW226559   0.357  11.506   3.365
 8845SOL     OW26560   1.603  11.619   2.599
 8845SOL    HW126561   1.529  11.665   2.549
 8845SOL    HW226562   1.654  11.687   2.652
 8846SOL     OW26563   0.231  12.885   2.345
 8846SOL    HW126564   0.265  12.962   2.399
 8846SOL    HW226565   0.275  12.885   2.255
 8847SOL     OW26566   1.127  12.513   3.552
 8847SOL    HW126567   1.174  12.513   3.640
 8847SOL    HW226568   1.079  12.426   3.541
 8848SOL     OW26569   0.230  12.606   2.400
 8848SOL    HW126570   0.204  12.702   2.400
 8848SOL    HW226571   0.159  12.552   2.445
 8849SOL     OW26572   0.240  12.263   2.748
 8849SOL    HW126573   0.254  12.179   2.800
 8849SOL    HW226574   0.185  12.327   2.803
 8850SOL     OW26575   0.606  12.136   1.985
 8850SOL    HW126576   0.613  12.220   1.931
 8850SOL    HW226577   0.652  12.149   2.073
 8851SOL     OW26578   1.594  11.286   3.342
 8851SOL    HW126579   1.576  11.353   3.270
 8851SOL    HW226580   1.591  11.332   3.431
 8852SOL     OW26581   0.122  11.815   2.425
 8852SOL    HW126582   0.077  11.727   2.442
 8852SOL    HW226583   0.121  11.869   2.509
 8853SOL     OW26584   0.027  12.768   1.979
 8853SOL    HW126585   0.008  12.672   2.000
 8853SOL    HW226586  -0.006  12.826   2.054
 8854SOL     OW26587   1.689  12.094   2.474
 8854SOL    HW126588   1.784  12.065   2.482
 8854SOL    HW226589   1.681  12.159   2.399
 8855SOL     OW26590   1.641  12.280   2.294
 8855SOL    HW126591   1.727  12.282   2.242
 8855SOL    HW226592   1.655  12.327   2.382
 8856SOL     OW26593   0.113  11.909   3.459
 8856SOL    HW126594   0.201  11.896   3.504
 8856SOL    HW226595   0.100  12.006   3.437
 8857SOL     OW26596   0.613  12.537   2.588
 8857SOL    HW126597   0.564  12.450   2.597
 8857SOL    HW226598   0.590  12.580   2.501
 8858SOL     OW26599   1.293  12.400   3.285
 8858SOL    HW126600   1.330  12.327   3.227
 8858SOL    HW226601   1.345  12.405   3.370
 8859SOL     OW26602   0.809  11.176   2.364
 8859SOL    HW126603   0.849  11.267   2.355
 8859SOL    HW226604   0.709  11.184   2.370
 8860SOL     OW26605   0.197  12.148   3.126
 8860SOL    HW126606   0.286  12.103   3.112
 8860SOL    HW226607   0.124  12.083   3.107
 8861SOL     OW26608   1.525  12.171   2.052
 8861SOL    HW126609   1.462  12.095   2.065
 8861SOL    HW226610   1.573  12.189   2.138
 8862SOL     OW26611   0.317  11.423   3.663
 8862SOL    HW126612   0.388  11.494   3.669
 8862SOL    HW226613   0.229  11.462   3.691
 8863SOL     OW26614   1.466  12.589   2.815
 8863SOL    HW126615   1.407  12.595   2.895
 8863SOL    HW226616   1.451  12.501   2.769
 8864SOL     OW26617   0.598  11.901   2.132
 8864SOL    HW126618   0.622  11.970   2.064
 8864SOL    HW226619   0.520  11.934   2.186
 8865SOL     OW26620   1.281  11.517   2.806
 8865SOL    HW126621   1.195  11.467   2.793
 8865SOL    HW226622   1.343  11.463   2.862
 8866SOL     OW26623   0.807  11.777   3.327
 8866SOL    HW126624   0.760  11.774   3.416
 8866SOL    HW226625   0.756  11.722   3.261
 8867SOL     OW26626   1.394  11.641   3.536
 8867SOL    HW126627   1.374  11.684   3.624
 8867SOL    HW226628   1.472  11.579   3.545
 8868SOL     OW26629   0.973  12.062   3.434
 8868SOL    HW126630   1.019  11.978   3.405
 8868SOL    HW226631   0.917  12.096   3.359
 8869SOL     OW26632   0.991  11.582   3.104
 8869SOL    HW126633   0.914  11.616   3.158
 8869SOL    HW226634   0.957  11.531   3.025
 8870SOL     OW26635   1.041  11.873   2.291
 8870SOL    HW126636   1.067  11.869   2.387
 8870SOL    HW226637   0.956  11.822   2.277
 8871SOL     OW26638   0.076  11.983   2.651
 8871SOL    HW126639   0.175  11.971   2.660
 8871SOL    HW226640   0.052  12.078   2.672
 8872SOL     OW26641   0.865  11.520   2.057
 8872SOL    HW126642   0.924  11.583   2.008
 8872SOL    HW226643   0.884  11.426   2.028
 8873SOL     OW26644   1.719  11.757   3.693
 8873SOL    HW126645   1.693  11.846   3.657
 8873SOL    HW226646   1.717  11.689   3.620
 8874SOL     OW26647   1.362  12.316   2.407
 8874SOL    HW126648   1.445  12.287   2.359
 8874SOL    HW226649   1.313  12.383   2.351
 8875SOL     OW26650   0.550  11.368   2.747
 8875SOL    HW126651   0.545  11.363   2.847
 8875SOL    HW226652   0.552  11.464   2.718
 8876SOL     OW26653   1.008  12.628   2.339
 8876SOL    HW126654   0.962  12.700   2.287
 8876SOL    HW226655   1.004  12.648   2.437
 8877SOL     OW26656   1.795  12.238   2.735
 8877SOL    HW126657   1.733  12.223   2.659
 8877SOL    HW226658   1.743  12.249   2.820
 8878SOL     OW26659   1.227  12.722   3.368
 8878SOL    HW126660   1.233  12.645   3.432
 8878SOL    HW226661   1.175  12.696   3.288
 8879SOL     OW26662   0.321  12.115   2.104
 8879SOL    HW126663   0.403  12.154   2.062
 8879SOL    HW226664   0.294  12.033   2.055
 8880SOL     OW26665   1.458  11.907   2.590
 8880SOL    HW126666   1.453  11.842   2.665
 8880SOL    HW226667   1.538  11.966   2.603
 8881SOL     OW26668   0.461  12.438   3.589
 8881SOL    HW126669   0.411  12.439   3.503
 8881SOL    HW226670   0.398  12.420   3.665
 8882SOL     OW26671   1.111  12.948   2.099
 8882SOL    HW126672   1.051  12.886   2.149
 8882SOL    HW226673   1.142  12.904   2.014
 8883SOL     OW26674   0.202  11.457   3.360
 8883SOL    HW126675   0.122  11.517   3.347
 8883SOL    HW226676   0.192  11.408   3.446
 8884SOL     OW26677   1.632  12.549   1.943
 8884SOL    HW126678   1.600  12.643   1.933
 8884SOL    HW226679   1.556  12.486   1.931
 8885SOL     OW26680   1.400  11.279   2.288
 8885SOL    HW126681   1.376  11.242   2.198
 8885SOL    HW226682   1.499  11.295   2.292
 8886SOL     OW26683   0.382  11.872   2.342
 8886SOL    HW126684   0.427  11.782   2.339
 8886SOL    HW226685   0.288  11.861   2.375
 8887SOL     OW26686   1.547  11.394   3.591
 8887SOL    HW126687   1.542  11.431   3.683
 8887SOL    HW226688   1.475  11.325   3.579
 8888SOL     OW26689   0.614  11.294   1.979
 8888SOL    HW126690   0.712  11.272   1.986
 8888SOL    HW226691   0.583  11.277   1.886
 8889SOL     OW26692   0.781  11.436   3.611
 8889SOL    HW126693   0.848  11.375   3.654
 8889SOL    HW226694   0.708  11.455   3.676
 8890SOL     OW26695   1.351  11.762   3.295
 8890SOL    HW126696   1.379  11.719   3.380
 8890SOL    HW226697   1.376  11.858   3.296
 8891SOL     OW26698   0.803  12.574   2.786
 8891SOL    HW126699   0.893  12.588   2.744
 8891SOL    HW226700   0.732  12.576   2.715
 8892SOL     OW26701   0.922  11.675   2.761
 8892SOL    HW126702   0.897  11.666   2.665
 8892SOL    HW226703   0.970  11.593   2.792
 8893SOL     OW26704   0.539  11.236   2.374
 8893SOL    HW126705   0.458  11.237   2.432
 8893SOL    HW226706   0.542  11.319   2.319
 8894SOL     OW26707   1.434  12.360   1.903
 8894SOL    HW126708   1.466  12.284   1.960
 8894SOL    HW226709   1.342  12.387   1.933
 8895SOL     OW26710   0.935  11.408   2.342
 8895SOL    HW126711   0.887  11.449   2.264
 8895SOL    HW226712   1.034  11.406   2.323
 8896SOL     OW26713   1.076  11.855   3.326
 8896SOL    HW126714   0.996  11.794   3.329
 8896SOL    HW226715   1.157  11.802   3.302
 8897SOL     OW26716   1.227  12.742   2.655
 8897SOL    HW126717   1.248  12.816   2.590
 8897SOL    HW226718   1.295  12.742   2.728
 8898SOL     OW26719   0.459  12.324   2.603
 8898SOL    HW126720   0.388  12.297   2.668
 8898SOL    HW226721   0.433  12.296   2.510
 8899SOL     OW26722   1.032  11.721   1.878
 8899SOL    HW126723   0.991  11.803   1.839
 8899SOL    HW226724   1.096  11.747   1.951
 8900SOL     OW26725   0.078  11.728   3.248
 8900SOL    HW126726   0.170  11.727   3.207
 8900SOL    HW226727   0.072  11.802   3.315
 8901SOL     OW26728   0.561  11.394   3.009
 8901SOL    HW126729   0.599  11.310   3.046
 8901SOL    HW226730   0.473  11.413   3.053
 8902SOL     OW26731   0.866  11.626   2.504
 8902SOL    HW126732   0.834  11.698   2.442
 8902SOL    HW226733   0.890  11.545   2.451
 8903SOL     OW26734   1.017  11.211   2.615
 8903SOL    HW126735   0.945  11.216   2.546
 8903SOL    HW226736   0.993  11.142   2.684
 8904SOL     OW26737   1.429  12.345   2.729
 8904SOL    HW126738   1.374  12.261   2.722
 8904SOL    HW226739   1.455  12.374   2.637
 8905SOL     OW26740   1.466  11.762   2.854
 8905SOL    HW126741   1.436  11.667   2.861
 8905SOL    HW226742   1.539  11.778   2.920
 8906SOL     OW26743   1.857  12.005   2.239
 8906SOL    HW126744   1.899  11.941   2.303
 8906SOL    HW226745   1.819  11.954   2.161
 8907SOL     OW26746   0.488  12.557   2.036
 8907SOL    HW126747   0.401  12.542   2.083
 8907SOL    HW226748   0.471  12.583   1.941
 8908SOL     OW26749   1.664  12.452   2.519
 8908SOL    HW126750   1.763  12.460   2.533
 8908SOL    HW226751   1.619  12.536   2.550
 8909SOL     OW26752   1.390  11.747   1.940
 8909SOL    HW126753   1.336  11.726   2.021
 8909SOL    HW226754   1.481  11.706   1.949
 8910SOL     OW26755   0.527  11.428   2.190
 8910SOL    HW126756   0.554  11.369   2.115
 8910SOL    HW226757   0.527  11.523   2.159
 8911SOL     OW26758   1.754  12.395   3.450
 8911SOL    HW126759   1.845  12.356   3.437
 8911SOL    HW226760   1.762  12.491   3.474
 8912SOL     OW26761   1.064  12.519   3.202
 8912SOL    HW126762   0.984  12.496   3.257
 8912SOL    HW226763   1.147  12.493   3.251
 8913SOL     OW26764   1.111  12.367   2.962
 8913SOL    HW126765   1.071  12.411   3.043
 8913SOL    HW226766   1.070  12.404   2.879
 8914SOL     OW26767   1.638  12.271   2.941
 8914SOL    HW126768   1.643  12.352   3.000
 8914SOL    HW226769   1.552  12.273   2.890
 8915SOL     OW26770   0.915  11.261   3.264
 8915SOL    HW126771   0.940  11.241   3.169
 8915SOL    HW226772   0.987  11.317   3.306
 8916SOL     OW26773   0.980  12.288   3.581
 8916SOL    HW126774   0.881  12.294   3.591
 8916SOL    HW226775   1.003  12.208   3.525
 8917SOL     OW26776   0.705  12.222   2.230
 8917SOL    HW126777   0.691  12.229   2.329
 8917SOL    HW226778   0.789  12.171   2.212
 8918SOL     OW26779   0.410  11.985   3.113
 8918SOL    HW126780   0.496  11.997   3.163
 8918SOL    HW226781   0.368  11.898   3.140
 8919SOL     OW26782   1.274  11.558   3.124
 8919SOL    HW126783   1.295  11.632   3.188
 8919SOL    HW226784   1.185  11.575   3.081
 8920SOL     OW26785   0.064  12.736   3.193
 8920SOL    HW126786   0.018  12.818   3.159
 8920SOL    HW226787   0.162  12.755   3.202
 8921SOL     OW26788   0.367  12.272   2.363
 8921SOL    HW126789   0.360  12.355   2.307
 8921SOL    HW226790   0.371  12.192   2.303
 8922SOL     OW26791   0.566  11.709   2.727
 8922SOL    HW126792   0.578  11.775   2.653
 8922SOL    HW226793   0.612  11.743   2.810
 8923SOL     OW26794   1.252  12.520   2.250
 8923SOL    HW126795   1.302  12.597   2.290
 8923SOL    HW226796   1.157  12.522   2.282
 8924SOL     OW26797   1.272  12.617   3.004
 8924SOL    HW126798   1.319  12.630   3.091
 8924SOL    HW226799   1.206  12.543   3.013
 8925SOL     OW26800   1.582  11.811   2.334
 8925SOL    HW126801   1.551  11.872   2.407
 8925SOL    HW226802   1.632  11.863   2.265
 8926SOL     OW26803   0.354  12.682   3.191
 8926SOL    HW126804   0.333  12.638   3.104
 8926SOL    HW226805   0.451  12.708   3.194
 8927SOL     OW26806   0.402  11.923   3.460
 8927SOL    HW126807   0.470  11.978   3.413
 8927SOL    HW226808   0.442  11.835   3.487
 8928SOL     OW26809   1.587  11.951   3.532
 8928SOL    HW126810   1.495  11.989   3.527
 8928SOL    HW226811   1.647  11.998   3.467
 8929SOL     OW26812   1.013  11.277   3.632
 8929SOL    HW126813   1.019  11.362   3.580
 8929SOL    HW226814   1.045  11.201   3.575
 8930SOL     OW26815   0.504  11.222   3.602
 8930SOL    HW126816   0.462  11.165   3.532
 8930SOL    HW226817   0.438  11.291   3.634
 8931SOL     OW26818   0.573  12.042   2.891
 8931SOL    HW126819   0.617  12.131   2.882
 8931SOL    HW226820   0.510  12.042   2.968
 8932SOL     OW26821   1.360  12.034   2.907
 8932SOL    HW126822   1.285  12.034   2.841
 8932SOL    HW226823   1.397  11.942   2.916
 8933SOL     OW26824   1.209  11.697   2.137
 8933SOL    HW126825   1.222  11.613   2.191
 8933SOL    HW226826   1.180  11.771   2.197
 8934SOL     OW26827   0.307  11.385   3.093
 8934SOL    HW126828   0.284  11.422   3.183
 8934SOL    HW226829   0.277  11.290   3.087
 8935SOL     OW26830   0.037  12.482   3.144
 8935SOL    HW126831   0.090  12.433   3.212
 8935SOL    HW226832   0.059  12.580   3.149
 8936SOL     OW26833   0.732  11.806   2.926
 8936SOL    HW126834   0.791  11.780   2.850
 8936SOL    HW226835   0.704  11.902   2.915
 8937SOL     OW26836   1.728  12.107   3.716
 8937SOL    HW126837   1.682  12.100   3.627
 8937SOL    HW226838   1.666  12.151   3.782
 8938SOL     OW26839   0.307  11.235   2.480
 8938SOL    HW126840   0.296  11.329   2.513
 8938SOL    HW226841   0.302  11.172   2.557
 8939SOL     OW26842   1.622  11.539   2.236
 8939SOL    HW126843   1.624  11.463   2.300
 8939SOL    HW226844   1.574  11.616   2.276
 8940SOL     OW26845   1.023  11.938   2.828
 8940SOL    HW126846   1.038  11.959   2.924
 8940SOL    HW226847   0.993  11.843   2.819
 8941SOL     OW26848   1.859  12.690   3.467
 8941SOL    HW126849   1.873  12.717   3.372
 8941SOL    HW226850   1.942  12.712   3.520
 8942SOL     OW26851   0.350  12.070   3.666
 8942SOL    HW126852   0.426  12.114   3.714
 8942SOL    HW226853   0.385  12.023   3.584
 8943SOL     OW26854   1.540  11.446   1.987
 8943SOL    HW126855   1.479  11.371   2.010
 8943SOL    HW226856   1.562  11.498   2.070
 8944SOL     OW26857   1.303  12.010   1.904
 8944SOL    HW126858   1.337  11.917   1.919
 8944SOL    HW226859   1.321  12.037   1.809
 8945SOL     OW26860   1.068  12.505   2.711
 8945SOL    HW126861   1.075  12.421   2.656
 8945SOL    HW226862   1.130  12.574   2.675
 8946SOL     OW26863   0.319  11.982   2.811
 8946SOL    HW126864   0.412  12.018   2.816
 8946SOL    HW226865   0.313  11.897   2.863
 8947SOL     OW26866   0.339  11.681   2.868
 8947SOL    HW126867   0.287  11.598   2.851
 8947SOL    HW226868   0.416  11.686   2.804
 8948SOL     OW26869   1.138  11.552   3.540
 8948SOL    HW126870   1.093  11.615   3.604
 8948SOL    HW226871   1.231  11.583   3.523
 8949SOL     OW26872   1.160  11.379   3.339
 8949SOL    HW126873   1.160  11.443   3.416
 8949SOL    HW226874   1.188  11.427   3.256
 8950SOL     OW26875   0.008  12.498   2.062
 8950SOL    HW126876  -0.085  12.519   2.031
 8950SOL    HW226877   0.018  12.399   2.075
 8951SOL     OW26878   1.002  11.968   3.100
 8951SOL    HW126879   1.043  11.936   3.186
 8951SOL    HW226880   0.906  11.941   3.097
 8952SOL     OW26881   0.040  11.716   2.976
 8952SOL    HW126882   0.125  11.683   2.935
 8952SOL    HW226883   0.053  11.731   3.074
 8953SOL     OW26884   1.369  12.122   3.522
 8953SOL    HW126885   1.408  12.211   3.542
 8953SOL    HW226886   1.379  12.102   3.425
 8954SOL     OW26887   0.815  11.744   2.187
 8954SOL    HW126888   0.822  11.655   2.141
 8954SOL    HW226889   0.721  11.778   2.179
 8955SOL     OW26890   1.657  11.776   3.068
 8955SOL    HW126891   1.619  11.707   3.130
 8955SOL    HW226892   1.739  11.740   3.024
 8956SOL     OW26893   0.252  12.736   3.606
 8956SOL    HW126894   0.222  12.793   3.682
 8956SOL    HW226895   0.245  12.639   3.632
 8957SOL     OW26896   0.671  11.636   3.131
 8957SOL    HW126897   0.637  11.547   3.101
 8957SOL    HW226898   0.697  11.690   3.051
 8958SOL     OW26899   0.473  11.672   2.053
 8958SOL    HW126900   0.534  11.752   2.057
 8958SOL    HW226901   0.378  11.703   2.060
 8959SOL     OW26902   0.159  12.309   3.328
 8959SOL    HW126903   0.181  12.248   3.404
 8959SOL    HW226904   0.169  12.260   3.242
 8960SOL     OW26905   1.347  12.231   3.096
 8960SOL    HW126906   1.371  12.168   3.022
 8960SOL    HW226907   1.257  12.271   3.078
 8961SOL     OW26908   1.302  12.027   2.171
 8961SOL    HW126909   1.216  11.996   2.213
 8961SOL    HW226910   1.298  12.013   2.072
 8962SOL     OW26911   0.083  12.430   2.884
 8962SOL    HW126912   0.078  12.429   2.984
 8962SOL    HW226913   0.000  12.389   2.846
 8963SOL     OW26914   1.726  11.307   2.385
 8963SOL    HW126915   1.799  11.290   2.318
 8963SOL    HW226916   1.695  11.220   2.423
 8964SOL     OW26917   1.280  12.099   2.534
 8964SOL    HW126918   1.340  12.018   2.536
 8964SOL    HW226919   1.320  12.168   2.474
 8965SOL     OW26920   0.830  12.445   3.284
 8965SOL    HW126921   0.825  12.478   3.379
 8965SOL    HW226922   0.744  12.464   3.238
 8966SOL     OW26923   1.841  11.347   2.825
 8966SOL    HW126924   1.880  11.262   2.789
 8966SOL    HW226925   1.743  11.349   2.806
 8967SOL     OW26926   0.263  11.498   2.582
 8967SOL    HW126927   0.184  11.549   2.548
 8967SOL    HW226928   0.254  11.483   2.680
 8968SOL     OW26929   0.822  12.174   3.234
 8968SOL    HW126930   0.862  12.173   3.142
 8968SOL    HW226931   0.832  12.266   3.274
 8969SOL     OW26932   0.916  12.082   2.153
 8969SOL    HW126933   0.979  12.120   2.085
 8969SOL    HW226934   0.956  11.999   2.192
 8970SOL     OW26935   0.372  12.460   3.352
 8970SOL    HW126936   0.359  12.553   3.318
 8970SOL    HW226937   0.288  12.408   3.339
 8971SOL     OW26938   1.039  12.270   2.558
 8971SOL    HW126939   0.969  12.223   2.612
 8971SOL    HW226940   1.098  12.202   2.515
 8972SOL     OW26941   1.014  11.408   2.833
 8972SOL    HW126942   1.006  11.372   2.740
 8972SOL    HW226943   1.012  11.332   2.898
 8973SOL     OW26944   1.709  11.557   3.243
 8973SOL    HW126945   1.782  11.626   3.247
 8973SOL    HW226946   1.737  11.482   3.184
 8974SOL     OW26947   0.255  12.520   2.152
 8974SOL    HW126948   0.159  12.521   2.125
 8974SOL    HW226949   0.267  12.573   2.236
 8975SOL     OW26950   0.105  12.185   3.588
 8975SOL    HW126951   0.028  12.152   3.642
 8975SOL    HW226952   0.190  12.155   3.630
 8976SOL     OW26953   0.672  11.375   3.351
 8976SOL    HW126954   0.762  11.359   3.311
 8976SOL    HW226955   0.680  11.380   3.450
 8977SOL     OW26956   0.075  11.517   1.895
 8977SOL    HW126957  -0.017  11.489   1.866
 8977SOL    HW226958   0.106  11.594   1.839
 8978SOL     OW26959   1.440  12.028   3.260
 8978SOL    HW126960   1.383  12.080   3.197
 8978SOL    HW226961   1.536  12.040   3.236
 8979SOL     OW26962   0.072  11.338   2.180
 8979SOL    HW126963   0.055  11.421   2.126
 8979SOL    HW226964   0.162  11.301   2.158
 8980SOL     OW26965   1.183  12.507   1.981
 8980SOL    HW126966   1.084  12.496   1.983
 8980SOL    HW226967   1.217  12.522   2.074
 8981SOL     OW26968   0.613  12.014   3.293
 8981SOL    HW126969   0.669  12.095   3.276
 8981SOL    HW226970   0.672  11.934   3.296
 8982SOL     OW26971   0.716  11.737   3.570
 8982SOL    HW126972   0.735  11.802   3.644
 8982SOL    HW226973   0.776  11.657   3.579
 8983SOL     OW26974   1.450  12.392   3.495
 8983SOL    HW126975   1.441  12.382   3.594
 8983SOL    HW226976   1.546  12.385   3.469
 8984SOL     OW26977   1.674  12.055   3.116
 8984SOL    HW126978   1.647  11.966   3.079
 8984SOL    HW226979   1.675  12.123   3.043
 8985SOL     OW26980   1.225  11.497   2.311
 8985SOL    HW126981   1.290  11.423   2.300
 8985SOL    HW226982   1.245  11.547   2.395
 8986SOL     OW26983   0.594  11.917   2.514
 8986SOL    HW126984   0.644  12.002   2.495
 8986SOL    HW226985   0.506  11.919   2.466
 8987SOL     OW26986   1.777  11.514   3.504
 8987SOL    HW126987   1.760  11.545   3.410
 8987SOL    HW226988   1.693  11.477   3.542
 8988SOL     OW26989   1.730  12.106   3.379
 8988SOL    HW126990   1.768  12.197   3.394
 8988SOL    HW226991   1.722  12.089   3.280
 8989SOL     OW26992   0.859  12.546   1.878
 8989SOL    HW126993   0.813  12.561   1.966
 8989SOL    HW226994   0.903  12.631   1.848
 8990SOL     OW26995   0.859  12.128   2.723
 8990SOL    HW126996   0.913  12.059   2.771
 8990SOL    HW226997   0.827  12.197   2.789
 8991SOL     OW26998   1.083  12.156   1.949
 8991SOL    HW126999   1.060  12.209   1.867
 8991SOL    HW227000   1.164  12.100   1.930
 8992SOL     OW27001   0.221  12.486   3.706
 8992SOL    HW127002   0.156  12.413   3.685
 8992SOL    HW227003   0.225  12.500   3.804
 8993SOL     OW27004   0.079  12.412   2.515
 8993SOL    HW127005   0.078  12.365   2.603
 8993SOL    HW227006   0.161  12.384   2.464
 8994SOL     OW27007   0.672  12.563   3.486
 8994SOL    HW127008   0.594  12.513   3.524
 8994SOL    HW227009   0.669  12.658   3.517
 8995SOL     OW27010   1.824  11.364   3.089
 8995SOL    HW127011   1.820  11.274   3.133
 8995SOL    HW227012   1.827  11.353   2.990
 8996SOL     OW27013   0.428  11.596   2.382
 8996SOL    HW127014   0.458  11.524   2.320
 8996SOL    HW227015   0.389  11.556   2.465
 8997SOL     OW27016   1.705  12.659   2.966
 8997SOL    HW127017   1.612  12.634   2.939
 8997SOL    HW227018   1.731  12.609   3.048
 8998SOL     OW27019   0.317  11.719   3.142
 8998SOL    HW127020   0.355  11.660   3.214
 8998SOL    HW227021   0.357  11.693   3.054
 8999SOL     OW27022   1.424  11.386   2.974
 8999SOL    HW127023   1.476  11.321   3.029
 8999SOL    HW227024   1.375  11.449   3.035
 9000SOL     OW27025   1.001  11.206   3.016
 9000SOL    HW127026   0.938  11.134   2.985
 9000SOL    HW227027   1.094  11.170   3.016
 9001SOL     OW27028   0.770  12.502   2.163
 9001SOL    HW127029   0.724  12.415   2.180
 9001SOL    HW227030   0.861  12.499   2.204
 9002SOL     OW27031   0.618  12.739   3.146
 9002SOL    HW127032   0.613  12.821   3.203
 9002SOL    HW227033   0.707  12.736   3.101
 9003SOL     OW27034   1.352  11.224   2.030
 9003SOL    HW127035   1.387  11.183   1.946
 9003SOL    HW227036   1.262  11.186   2.050
 9004SOL     OW27037   1.300  11.625   2.553
 9004SOL    HW127038   1.241  11.705   2.557
 9004SOL    HW227039   1.315  11.590   2.646
 9005SOL     OW27040   1.593  11.393   2.744
 9005SOL    HW127041   1.509  11.392   2.798
 9005SOL    HW227042   1.595  11.476   2.688
 9006SOL     OW27043   0.039  12.249   2.162
 9006SOL    HW127044   0.138  12.238   2.153
 9006SOL    HW227045  -0.001  12.163   2.194
 9007SOL     OW27046   0.230  11.800   3.837
 9007SOL    HW127047   0.137  11.798   3.874
 9007SOL    HW227048   0.231  11.761   3.745
 9008SOL     OW27049   0.225  11.447   4.720
 9008SOL    HW127050   0.260  11.430   4.812
 9008SOL    HW227051   0.137  11.402   4.708
 9009SOL     OW27052   0.019  11.540   4.371
 9009SOL    HW127053  -0.063  11.583   4.410
 9009SOL    HW227054  -0.009  11.467   4.308
 9010SOL     OW27055   0.569  12.447   4.889
 9010SOL    HW127056   0.476  12.440   4.852
 9010SOL    HW227057   0.580  12.536   4.933
 9011SOL     OW27058   1.555  12.683   4.427
 9011SOL    HW127059   1.498  12.667   4.508
 9011SOL    HW227060   1.496  12.693   4.347
 9012SOL     OW27061   1.135  11.875   4.441
 9012SOL    HW127062   1.192  11.953   4.416
 9012SOL    HW227063   1.075  11.901   4.517
 9013SOL     OW27064   1.755  11.779   3.955
 9013SOL    HW127065   1.743  11.766   3.856
 9013SOL    HW227066   1.725  11.698   4.004
 9014SOL     OW27067   0.768  12.316   4.747
 9014SOL    HW127068   0.690  12.333   4.807
 9014SOL    HW227069   0.802  12.403   4.711
 9015SOL     OW27070   0.850  11.970   5.547
 9015SOL    HW127071   0.846  12.046   5.612
 9015SOL    HW227072   0.872  12.006   5.456
 9016SOL     OW27073   0.685  12.184   4.389
 9016SOL    HW127074   0.754  12.168   4.459
 9016SOL    HW227075   0.612  12.241   4.427
 9017SOL     OW27076   0.686  12.333   5.527
 9017SOL    HW127077   0.746  12.412   5.541
 9017SOL    HW227078   0.600  12.364   5.486
 9018SOL     OW27079   0.335  12.607   4.785
 9018SOL    HW127080   0.257  12.576   4.732
 9018SOL    HW227081   0.393  12.665   4.728
 9019SOL     OW27082   1.460  12.677   5.063
 9019SOL    HW127083   1.484  12.771   5.089
 9019SOL    HW227084   1.444  12.623   5.145
 9020SOL     OW27085   0.438  11.564   5.223
 9020SOL    HW127086   0.520  11.508   5.232
 9020SOL    HW227087   0.357  11.506   5.227
 9021SOL     OW27088   1.603  11.619   4.461
 9021SOL    HW127089   1.529  11.665   4.411
 9021SOL    HW227090   1.654  11.687   4.514
 9022SOL     OW27091   0.231  12.885   4.207
 9022SOL    HW127092   0.265  12.962   4.261
 9022SOL    HW227093   0.275  12.885   4.117
 9023SOL     OW27094   1.127  12.513   5.414
 9023SOL    HW127095   1.174  12.513   5.502
 9023SOL    HW227096   1.079  12.426   5.403
 9024SOL     OW27097   0.230  12.606   4.262
 9024SOL    HW127098   0.204  12.702   4.262
 9024SOL    HW227099   0.159  12.552   4.307
 9025SOL     OW27100   0.240  12.263   4.610
 9025SOL    HW127101   0.254  12.179   4.662
 9025SOL    HW227102   0.185  12.327   4.665
 9026SOL     OW27103   0.606  12.136   3.847
 9026SOL    HW127104   0.613  12.220   3.793
 9026SOL    HW227105   0.652  12.149   3.935
 9027SOL     OW27106   1.594  11.286   5.204
 9027SOL    HW127107   1.576  11.353   5.132
 9027SOL    HW227108   1.591  11.332   5.293
 9028SOL     OW27109   0.122  11.815   4.287
 9028SOL    HW127110   0.077  11.727   4.304
 9028SOL    HW227111   0.121  11.869   4.371
 9029SOL     OW27112   0.027  12.768   3.841
 9029SOL    HW127113   0.008  12.672   3.862
 9029SOL    HW227114  -0.006  12.826   3.916
 9030SOL     OW27115   1.689  12.094   4.336
 9030SOL    HW127116   1.784  12.065   4.344
 9030SOL    HW227117   1.681  12.159   4.261
 9031SOL     OW27118   1.641  12.280   4.156
 9031SOL    HW127119   1.727  12.282   4.104
 9031SOL    HW227120   1.655  12.327   4.244
 9032SOL     OW27121   0.613  12.537   4.450
 9032SOL    HW127122   0.564  12.450   4.459
 9032SOL    HW227123   0.590  12.580   4.363
 9033SOL     OW27124   1.293  12.400   5.147
 9033SOL    HW127125   1.330  12.327   5.089
 9033SOL    HW227126   1.345  12.405   5.232
 9034SOL     OW27127   0.809  11.176   4.226
 9034SOL    HW127128   0.849  11.267   4.217
 9034SOL    HW227129   0.709  11.184   4.232
 9035SOL     OW27130   0.197  12.148   4.988
 9035SOL    HW127131   0.286  12.103   4.974
 9035SOL    HW227132   0.124  12.083   4.969
 9036SOL     OW27133   1.525  12.171   3.914
 9036SOL    HW127134   1.462  12.095   3.927
 9036SOL    HW227135   1.573  12.189   4.000
 9037SOL     OW27136   0.317  11.423   5.525
 9037SOL    HW127137   0.388  11.494   5.531
 9037SOL    HW227138   0.229  11.462   5.553
 9038SOL     OW27139   1.466  12.589   4.677
 9038SOL    HW127140   1.407  12.595   4.757
 9038SOL    HW227141   1.451  12.501   4.631
 9039SOL     OW27142   0.598  11.901   3.994
 9039SOL    HW127143   0.622  11.970   3.926
 9039SOL    HW227144   0.520  11.934   4.048
 9040SOL     OW27145   1.281  11.517   4.668
 9040SOL    HW127146   1.195  11.467   4.655
 9040SOL    HW227147   1.343  11.463   4.724
 9041SOL     OW27148   0.807  11.777   5.189
 9041SOL    HW127149   0.760  11.774   5.278
 9041SOL    HW227150   0.756  11.722   5.123
 9042SOL     OW27151   1.394  11.641   5.398
 9042SOL    HW127152   1.374  11.684   5.486
 9042SOL    HW227153   1.472  11.579   5.407
 9043SOL     OW27154   0.973  12.062   5.296
 9043SOL    HW127155   1.019  11.978   5.267
 9043SOL    HW227156   0.917  12.096   5.221
 9044SOL     OW27157   0.991  11.582   4.966
 9044SOL    HW127158   0.914  11.616   5.020
 9044SOL    HW227159   0.957  11.531   4.887
 9045SOL     OW27160   1.041  11.873   4.153
 9045SOL    HW127161   1.067  11.869   4.249
 9045SOL    HW227162   0.956  11.822   4.139
 9046SOL     OW27163   0.076  11.983   4.513
 9046SOL    HW127164   0.175  11.971   4.522
 9046SOL    HW227165   0.052  12.078   4.534
 9047SOL     OW27166   0.865  11.520   3.919
 9047SOL    HW127167   0.924  11.583   3.870
 9047SOL    HW227168   0.884  11.426   3.890
 9048SOL     OW27169   1.719  11.757   5.555
 9048SOL    HW127170   1.693  11.846   5.519
 9048SOL    HW227171   1.717  11.689   5.482
 9049SOL     OW27172   1.362  12.316   4.269
 9049SOL    HW127173   1.445  12.287   4.221
 9049SOL    HW227174   1.313  12.383   4.213
 9050SOL     OW27175   0.550  11.368   4.609
 9050SOL    HW127176   0.545  11.363   4.709
 9050SOL    HW227177   0.552  11.464   4.580
 9051SOL     OW27178   1.008  12.628   4.201
 9051SOL    HW127179   0.962  12.700   4.149
 9051SOL    HW227180   1.004  12.648   4.299
 9052SOL     OW27181   1.795  12.238   4.597
 9052SOL    HW127182   1.733  12.223   4.521
 9052SOL    HW227183   1.743  12.249   4.682
 9053SOL     OW27184   1.227  12.722   5.230
 9053SOL    HW127185   1.233  12.645   5.294
 9053SOL    HW227186   1.175  12.696   5.150
 9054SOL     OW27187   0.321  12.115   3.966
 9054SOL    HW127188   0.403  12.154   3.924
 9054SOL    HW227189   0.294  12.033   3.917
 9055SOL     OW27190   1.458  11.907   4.452
 9055SOL    HW127191   1.453  11.842   4.527
 9055SOL    HW227192   1.538  11.966   4.465
 9056SOL     OW27193   0.461  12.438   5.451
 9056SOL    HW127194   0.411  12.439   5.365
 9056SOL    HW227195   0.398  12.420   5.527
 9057SOL     OW27196   1.111  12.948   3.961
 9057SOL    HW127197   1.051  12.886   4.011
 9057SOL    HW227198   1.142  12.904   3.876
 9058SOL     OW27199   0.202  11.457   5.222
 9058SOL    HW127200   0.122  11.517   5.209
 9058SOL    HW227201   0.192  11.408   5.308
 9059SOL     OW27202   1.632  12.549   3.805
 9059SOL    HW127203   1.600  12.643   3.795
 9059SOL    HW227204   1.556  12.486   3.793
 9060SOL     OW27205   1.400  11.279   4.150
 9060SOL    HW127206   1.376  11.242   4.060
 9060SOL    HW227207   1.499  11.295   4.154
 9061SOL     OW27208   0.382  11.872   4.204
 9061SOL    HW127209   0.427  11.782   4.201
 9061SOL    HW227210   0.288  11.861   4.237
 9062SOL     OW27211   1.547  11.394   5.453
 9062SOL    HW127212   1.542  11.431   5.545
 9062SOL    HW227213   1.475  11.325   5.441
 9063SOL     OW27214   0.614  11.294   3.841
 9063SOL    HW127215   0.712  11.272   3.848
 9063SOL    HW227216   0.583  11.277   3.748
 9064SOL     OW27217   0.781  11.436   5.473
 9064SOL    HW127218   0.848  11.375   5.516
 9064SOL    HW227219   0.708  11.455   5.538
 9065SOL     OW27220   1.351  11.762   5.157
 9065SOL    HW127221   1.379  11.719   5.242
 9065SOL    HW227222   1.376  11.858   5.158
 9066SOL     OW27223   0.803  12.574   4.648
 9066SOL    HW127224   0.893  12.588   4.606
 9066SOL    HW227225   0.732  12.576   4.577
 9067SOL     OW27226   0.922  11.675   4.623
 9067SOL    HW127227   0.897  11.666   4.527
 9067SOL    HW227228   0.970  11.593   4.654
 9068SOL     OW27229   0.539  11.236   4.236
 9068SOL    HW127230   0.458  11.237   4.294
 9068SOL    HW227231   0.542  11.319   4.181
 9069SOL     OW27232   1.434  12.360   3.765
 9069SOL    HW127233   1.466  12.284   3.822
 9069SOL    HW227234   1.342  12.387   3.795
 9070SOL     OW27235   0.297  11.207   3.895
 9070SOL    HW127236   0.346  11.291   3.874
 9070SOL    HW227237   0.359  11.142   3.940
 9071SOL     OW27238   0.935  11.408   4.204
 9071SOL    HW127239   0.887  11.449   4.126
 9071SOL    HW227240   1.034  11.406   4.185
 9072SOL     OW27241   1.076  11.855   5.188
 9072SOL    HW127242   0.996  11.794   5.191
 9072SOL    HW227243   1.157  11.802   5.164
 9073SOL     OW27244   1.227  12.742   4.517
 9073SOL    HW127245   1.248  12.816   4.452
 9073SOL    HW227246   1.295  12.742   4.590
 9074SOL     OW27247   0.459  12.324   4.465
 9074SOL    HW127248   0.388  12.297   4.530
 9074SOL    HW227249   0.433  12.296   4.372
 9075SOL     OW27250   1.032  11.721   3.740
 9075SOL    HW127251   0.991  11.803   3.701
 9075SOL    HW227252   1.096  11.747   3.813
 9076SOL     OW27253   0.078  11.728   5.110
 9076SOL    HW127254   0.170  11.727   5.069
 9076SOL    HW227255   0.072  11.802   5.177
 9077SOL     OW27256   0.561  11.394   4.871
 9077SOL    HW127257   0.599  11.310   4.908
 9077SOL    HW227258   0.473  11.413   4.915
 9078SOL     OW27259   0.866  11.626   4.366
 9078SOL    HW127260   0.834  11.698   4.304
 9078SOL    HW227261   0.890  11.545   4.313
 9079SOL     OW27262   1.017  11.211   4.477
 9079SOL    HW127263   0.945  11.216   4.408
 9079SOL    HW227264   0.993  11.142   4.546
 9080SOL     OW27265   1.429  12.345   4.591
 9080SOL    HW127266   1.374  12.261   4.584
 9080SOL    HW227267   1.455  12.374   4.499
 9081SOL     OW27268   1.466  11.762   4.716
 9081SOL    HW127269   1.436  11.667   4.723
 9081SOL    HW227270   1.539  11.778   4.782
 9082SOL     OW27271   1.857  12.005   4.101
 9082SOL    HW127272   1.899  11.941   4.165
 9082SOL    HW227273   1.819  11.954   4.023
 9083SOL     OW27274   0.488  12.557   3.898
 9083SOL    HW127275   0.401  12.542   3.945
 9083SOL    HW227276   0.471  12.583   3.803
 9084SOL     OW27277   1.664  12.452   4.381
 9084SOL    HW127278   1.763  12.460   4.395
 9084SOL    HW227279   1.619  12.536   4.412
 9085SOL     OW27280   1.390  11.747   3.802
 9085SOL    HW127281   1.336  11.726   3.883
 9085SOL    HW227282   1.481  11.706   3.811
 9086SOL     OW27283   0.527  11.428   4.052
 9086SOL    HW127284   0.554  11.369   3.977
 9086SOL    HW227285   0.527  11.523   4.021
 9087SOL     OW27286   1.754  12.395   5.312
 9087SOL    HW127287   1.845  12.356   5.299
 9087SOL    HW227288   1.762  12.491   5.336
 9088SOL     OW27289   1.064  12.519   5.064
 9088SOL    HW127290   0.984  12.496   5.119
 9088SOL    HW227291   1.147  12.493   5.113
 9089SOL     OW27292   1.111  12.367   4.824
 9089SOL    HW127293   1.071  12.411   4.905
 9089SOL    HW227294   1.070  12.404   4.741
 9090SOL     OW27295   1.638  12.271   4.803
 9090SOL    HW127296   1.643  12.352   4.862
 9090SOL    HW227297   1.552  12.273   4.752
 9091SOL     OW27298   0.915  11.261   5.126
 9091SOL    HW127299   0.940  11.241   5.031
 9091SOL    HW227300   0.987  11.317   5.168
 9092SOL     OW27301   0.980  12.288   5.443
 9092SOL    HW127302   0.881  12.294   5.453
 9092SOL    HW227303   1.003  12.208   5.387
 9093SOL     OW27304   0.705  12.222   4.092
 9093SOL    HW127305   0.691  12.229   4.191
 9093SOL    HW227306   0.789  12.171   4.074
 9094SOL     OW27307   0.410  11.985   4.975
 9094SOL    HW127308   0.496  11.997   5.025
 9094SOL    HW227309   0.368  11.898   5.002
 9095SOL     OW27310   1.274  11.558   4.986
 9095SOL    HW127311   1.295  11.632   5.050
 9095SOL    HW227312   1.185  11.575   4.943
 9096SOL     OW27313   0.064  12.736   5.055
 9096SOL    HW127314   0.018  12.818   5.021
 9096SOL    HW227315   0.162  12.755   5.064
 9097SOL     OW27316   0.367  12.272   4.225
 9097SOL    HW127317   0.360  12.355   4.169
 9097SOL    HW227318   0.371  12.192   4.165
 9098SOL     OW27319   0.566  11.709   4.589
 9098SOL    HW127320   0.578  11.775   4.515
 9098SOL    HW227321   0.612  11.743   4.672
 9099SOL     OW27322   1.252  12.520   4.112
 9099SOL    HW127323   1.302  12.597   4.152
 9099SOL    HW227324   1.157  12.522   4.144
 9100SOL     OW27325   1.272  12.617   4.866
 9100SOL    HW127326   1.319  12.630   4.953
 9100SOL    HW227327   1.206  12.543   4.875
 9101SOL     OW27328   1.582  11.811   4.196
 9101SOL    HW127329   1.551  11.872   4.269
 9101SOL    HW227330   1.632  11.863   4.127
 9102SOL     OW27331   0.354  12.682   5.053
 9102SOL    HW127332   0.333  12.638   4.966
 9102SOL    HW227333   0.451  12.708   5.056
 9103SOL     OW27334   0.402  11.923   5.322
 9103SOL    HW127335   0.470  11.978   5.275
 9103SOL    HW227336   0.442  11.835   5.349
 9104SOL     OW27337   1.587  11.951   5.394
 9104SOL    HW127338   1.495  11.989   5.389
 9104SOL    HW227339   1.647  11.998   5.329
 9105SOL     OW27340   1.013  11.277   5.494
 9105SOL    HW127341   1.019  11.362   5.442
 9105SOL    HW227342   1.045  11.201   5.437
 9106SOL     OW27343   0.504  11.222   5.464
 9106SOL    HW127344   0.462  11.165   5.394
 9106SOL    HW227345   0.438  11.291   5.496
 9107SOL     OW27346   0.573  12.042   4.753
 9107SOL    HW127347   0.617  12.131   4.744
 9107SOL    HW227348   0.510  12.042   4.830
 9108SOL     OW27349   1.360  12.034   4.769
 9108SOL    HW127350   1.285  12.034   4.703
 9108SOL    HW227351   1.397  11.942   4.778
 9109SOL     OW27352   1.209  11.697   3.999
 9109SOL    HW127353   1.222  11.613   4.053
 9109SOL    HW227354   1.180  11.771   4.059
 9110SOL     OW27355   0.307  11.385   4.955
 9110SOL    HW127356   0.284  11.422   5.045
 9110SOL    HW227357   0.277  11.290   4.949
 9111SOL     OW27358   0.037  12.482   5.006
 9111SOL    HW127359   0.090  12.433   5.074
 9111SOL    HW227360   0.059  12.580   5.011
 9112SOL     OW27361   0.732  11.806   4.788
 9112SOL    HW127362   0.791  11.780   4.712
 9112SOL    HW227363   0.704  11.902   4.777
 9113SOL     OW27364   1.728  12.107   5.578
 9113SOL    HW127365   1.682  12.100   5.489
 9113SOL    HW227366   1.666  12.151   5.644
 9114SOL     OW27367   0.307  11.235   4.342
 9114SOL    HW127368   0.296  11.329   4.375
 9114SOL    HW227369   0.302  11.172   4.419
 9115SOL     OW27370   1.622  11.539   4.098
 9115SOL    HW127371   1.624  11.463   4.162
 9115SOL    HW227372   1.574  11.616   4.138
 9116SOL     OW27373   1.023  11.938   4.690
 9116SOL    HW127374   1.038  11.959   4.786
 9116SOL    HW227375   0.993  11.843   4.681
 9117SOL     OW27376   1.859  12.690   5.329
 9117SOL    HW127377   1.873  12.717   5.234
 9117SOL    HW227378   1.942  12.712   5.382
 9118SOL     OW27379   0.350  12.070   5.528
 9118SOL    HW127380   0.426  12.114   5.576
 9118SOL    HW227381   0.385  12.023   5.446
 9119SOL     OW27382   1.540  11.446   3.849
 9119SOL    HW127383   1.479  11.371   3.872
 9119SOL    HW227384   1.562  11.498   3.932
 9120SOL     OW27385   1.303  12.010   3.766
 9120SOL    HW127386   1.337  11.917   3.781
 9120SOL    HW227387   1.321  12.037   3.671
 9121SOL     OW27388   1.068  12.505   4.573
 9121SOL    HW127389   1.075  12.421   4.518
 9121SOL    HW227390   1.130  12.574   4.537
 9122SOL     OW27391   0.319  11.982   4.673
 9122SOL    HW127392   0.412  12.018   4.678
 9122SOL    HW227393   0.313  11.897   4.725
 9123SOL     OW27394   0.339  11.681   4.730
 9123SOL    HW127395   0.287  11.598   4.713
 9123SOL    HW227396   0.416  11.686   4.666
 9124SOL     OW27397   1.138  11.552   5.402
 9124SOL    HW127398   1.093  11.615   5.466
 9124SOL    HW227399   1.231  11.583   5.385
 9125SOL     OW27400   1.160  11.379   5.201
 9125SOL    HW127401   1.160  11.443   5.278
 9125SOL    HW227402   1.188  11.427   5.118
 9126SOL     OW27403   0.008  12.498   3.924
 9126SOL    HW127404  -0.085  12.519   3.893
 9126SOL    HW227405   0.018  12.399   3.937
 9127SOL     OW27406   1.002  11.968   4.962
 9127SOL    HW127407   1.043  11.936   5.048
 9127SOL    HW227408   0.906  11.941   4.959
 9128SOL     OW27409   0.040  11.716   4.838
 9128SOL    HW127410   0.125  11.683   4.797
 9128SOL    HW227411   0.053  11.731   4.936
 9129SOL     OW27412   0.189  11.692   5.446
 9129SOL    HW127413   0.248  11.652   5.376
 9129SOL    HW227414   0.131  11.763   5.405
 9130SOL     OW27415   1.369  12.122   5.384
 9130SOL    HW127416   1.408  12.211   5.404
 9130SOL    HW227417   1.379  12.102   5.287
 9131SOL     OW27418   0.815  11.744   4.049
 9131SOL    HW127419   0.822  11.655   4.003
 9131SOL    HW227420   0.721  11.778   4.041
 9132SOL     OW27421   1.657  11.776   4.930
 9132SOL    HW127422   1.619  11.707   4.992
 9132SOL    HW227423   1.739  11.740   4.886
 9133SOL     OW27424   0.252  12.736   5.468
 9133SOL    HW127425   0.222  12.793   5.544
 9133SOL    HW227426   0.245  12.639   5.494
 9134SOL     OW27427   0.671  11.636   4.993
 9134SOL    HW127428   0.637  11.547   4.963
 9134SOL    HW227429   0.697  11.690   4.913
 9135SOL     OW27430   0.473  11.672   3.915
 9135SOL    HW127431   0.534  11.752   3.919
 9135SOL    HW227432   0.378  11.703   3.922
 9136SOL     OW27433   0.159  12.309   5.190
 9136SOL    HW127434   0.181  12.248   5.266
 9136SOL    HW227435   0.169  12.260   5.104
 9137SOL     OW27436   1.347  12.231   4.958
 9137SOL    HW127437   1.371  12.168   4.884
 9137SOL    HW227438   1.257  12.271   4.940
 9138SOL     OW27439   1.302  12.027   4.033
 9138SOL    HW127440   1.216  11.996   4.075
 9138SOL    HW227441   1.298  12.013   3.934
 9139SOL     OW27442   0.083  12.430   4.746
 9139SOL    HW127443   0.078  12.429   4.846
 9139SOL    HW227444   0.000  12.389   4.708
 9140SOL     OW27445   1.726  11.307   4.247
 9140SOL    HW127446   1.799  11.290   4.180
 9140SOL    HW227447   1.695  11.220   4.285
 9141SOL     OW27448   1.280  12.099   4.396
 9141SOL    HW127449   1.340  12.018   4.398
 9141SOL    HW227450   1.320  12.168   4.336
 9142SOL     OW27451   0.830  12.445   5.146
 9142SOL    HW127452   0.825  12.478   5.241
 9142SOL    HW227453   0.744  12.464   5.100
 9143SOL     OW27454   1.841  11.347   4.687
 9143SOL    HW127455   1.880  11.262   4.651
 9143SOL    HW227456   1.743  11.349   4.668
 9144SOL     OW27457   0.263  11.498   4.444
 9144SOL    HW127458   0.184  11.549   4.410
 9144SOL    HW227459   0.254  11.483   4.542
 9145SOL     OW27460   0.822  12.174   5.096
 9145SOL    HW127461   0.862  12.173   5.004
 9145SOL    HW227462   0.832  12.266   5.136
 9146SOL     OW27463   0.916  12.082   4.015
 9146SOL    HW127464   0.979  12.120   3.947
 9146SOL    HW227465   0.956  11.999   4.054
 9147SOL     OW27466   0.372  12.460   5.214
 9147SOL    HW127467   0.359  12.553   5.180
 9147SOL    HW227468   0.288  12.408   5.201
 9148SOL     OW27469   1.614  12.464   5.013
 9148SOL    HW127470   1.674  12.467   5.093
 9148SOL    HW227471   1.539  12.528   5.026
 9149SOL     OW27472   1.039  12.270   4.420
 9149SOL    HW127473   0.969  12.223   4.474
 9149SOL    HW227474   1.098  12.202   4.377
 9150SOL     OW27475   1.014  11.408   4.695
 9150SOL    HW127476   1.006  11.372   4.602
 9150SOL    HW227477   1.012  11.332   4.760
 9151SOL     OW27478   1.709  11.557   5.105
 9151SOL    HW127479   1.782  11.626   5.109
 9151SOL    HW227480   1.737  11.482   5.046
 9152SOL     OW27481   0.255  12.520   4.014
 9152SOL    HW127482   0.159  12.521   3.987
 9152SOL    HW227483   0.267  12.573   4.098
 9153SOL     OW27484   0.105  12.185   5.450
 9153SOL    HW127485   0.028  12.152   5.504
 9153SOL    HW227486   0.190  12.155   5.492
 9154SOL     OW27487   0.672  11.375   5.213
 9154SOL    HW127488   0.762  11.359   5.173
 9154SOL    HW227489   0.680  11.380   5.312
 9155SOL     OW27490   0.075  11.517   3.757
 9155SOL    HW127491  -0.017  11.489   3.728
 9155SOL    HW227492   0.106  11.594   3.701
 9156SOL     OW27493   1.440  12.028   5.122
 9156SOL    HW127494   1.383  12.080   5.059
 9156SOL    HW227495   1.536  12.040   5.098
 9157SOL     OW27496   0.072  11.338   4.042
 9157SOL    HW127497   0.055  11.421   3.988
 9157SOL    HW227498   0.162  11.301   4.020
 9158SOL     OW27499   1.183  12.507   3.843
 9158SOL    HW127500   1.084  12.496   3.845
 9158SOL    HW227501   1.217  12.522   3.936
 9159SOL     OW27502   0.613  12.014   5.155
 9159SOL    HW127503   0.669  12.095   5.138
 9159SOL    HW227504   0.672  11.934   5.158
 9160SOL     OW27505   0.716  11.737   5.432
 9160SOL    HW127506   0.735  11.802   5.506
 9160SOL    HW227507   0.776  11.657   5.441
 9161SOL     OW27508   1.450  12.392   5.357
 9161SOL    HW127509   1.441  12.382   5.456
 9161SOL    HW227510   1.546  12.385   5.331
 9162SOL     OW27511   1.674  12.055   4.978
 9162SOL    HW127512   1.647  11.966   4.941
 9162SOL    HW227513   1.675  12.123   4.905
 9163SOL     OW27514   1.225  11.497   4.173
 9163SOL    HW127515   1.290  11.423   4.162
 9163SOL    HW227516   1.245  11.547   4.257
 9164SOL     OW27517   0.594  11.917   4.376
 9164SOL    HW127518   0.644  12.002   4.357
 9164SOL    HW227519   0.506  11.919   4.328
 9165SOL     OW27520   1.777  11.514   5.366
 9165SOL    HW127521   1.760  11.545   5.272
 9165SOL    HW227522   1.693  11.477   5.404
 9166SOL     OW27523   1.730  12.106   5.241
 9166SOL    HW127524   1.768  12.197   5.256
 9166SOL    HW227525   1.722  12.089   5.142
 9167SOL     OW27526   0.859  12.546   3.740
 9167SOL    HW127527   0.813  12.561   3.828
 9167SOL    HW227528   0.903  12.631   3.710
 9168SOL     OW27529   0.859  12.128   4.585
 9168SOL    HW127530   0.913  12.059   4.633
 9168SOL    HW227531   0.827  12.197   4.651
 9169SOL     OW27532   1.083  12.156   3.811
 9169SOL    HW127533   1.060  12.209   3.729
 9169SOL    HW227534   1.164  12.100   3.792
 9170SOL     OW27535   0.221  12.486   5.568
 9170SOL    HW127536   0.156  12.413   5.547
 9170SOL    HW227537   0.225  12.500   5.666
 9171SOL     OW27538   0.079  12.412   4.377
 9171SOL    HW127539   0.078  12.365   4.465
 9171SOL    HW227540   0.161  12.384   4.326
 9172SOL     OW27541   0.672  12.563   5.348
 9172SOL    HW127542   0.594  12.513   5.386
 9172SOL    HW227543   0.669  12.658   5.379
 9173SOL     OW27544   1.824  11.364   4.951
 9173SOL    HW127545   1.820  11.274   4.995
 9173SOL    HW227546   1.827  11.353   4.852
 9174SOL     OW27547   0.428  11.596   4.244
 9174SOL    HW127548   0.458  11.524   4.182
 9174SOL    HW227549   0.389  11.556   4.327
 9175SOL     OW27550   1.705  12.659   4.828
 9175SOL    HW127551   1.612  12.634   4.801
 9175SOL    HW227552   1.731  12.609   4.910
 9176SOL     OW27553   0.317  11.719   5.004
 9176SOL    HW127554   0.355  11.660   5.076
 9176SOL    HW227555   0.357  11.693   4.916
 9177SOL     OW27556   1.424  11.386   4.836
 9177SOL    HW127557   1.476  11.321   4.891
 9177SOL    HW227558   1.375  11.449   4.897
 9178SOL     OW27559   1.001  11.206   4.878
 9178SOL    HW127560   0.938  11.134   4.847
 9178SOL    HW227561   1.094  11.170   4.878
 9179SOL     OW27562   0.770  12.502   4.025
 9179SOL    HW127563   0.724  12.415   4.042
 9179SOL    HW227564   0.861  12.499   4.066
 9180SOL     OW27565   0.618  12.739   5.008
 9180SOL    HW127566   0.613  12.821   5.065
 9180SOL    HW227567   0.707  12.736   4.963
 9181SOL     OW27568   1.352  11.224   3.892
 9181SOL    HW127569   1.387  11.183   3.808
 9181SOL    HW227570   1.262  11.186   3.912
 9182SOL     OW27571   1.300  11.625   4.415
 9182SOL    HW127572   1.241  11.705   4.419
 9182SOL    HW227573   1.315  11.590   4.508
 9183SOL     OW27574   1.593  11.393   4.606
 9183SOL    HW127575   1.509  11.392   4.660
 9183SOL    HW227576   1.595  11.476   4.550
 9184SOL     OW27577   0.039  12.249   4.024
 9184SOL    HW127578   0.138  12.238   4.015
 9184SOL    HW227579  -0.001  12.163   4.056
 9185SOL     OW27580   0.230  11.800   5.699
 9185SOL    HW127581   0.137  11.798   5.736
 9185SOL    HW227582   0.231  11.761   5.607
 9186SOL     OW27583   0.225  11.447   6.582
 9186SOL    HW127584   0.260  11.430   6.674
 9186SOL    HW227585   0.137  11.402   6.570
 9187SOL     OW27586   0.019  11.540   6.233
 9187SOL    HW127587  -0.063  11.583   6.272
 9187SOL    HW227588  -0.009  11.467   6.170
 9188SOL     OW27589   0.569  12.447   6.751
 9188SOL    HW127590   0.476  12.440   6.714
 9188SOL    HW227591   0.580  12.536   6.795
 9189SOL     OW27592   1.555  12.683   6.289
 9189SOL    HW127593   1.498  12.667   6.370
 9189SOL    HW227594   1.496  12.693   6.209
 9190SOL     OW27595   1.135  11.875   6.303
 9190SOL    HW127596   1.192  11.953   6.278
 9190SOL    HW227597   1.075  11.901   6.379
 9191SOL     OW27598   1.755  11.779   5.817
 9191SOL    HW127599   1.743  11.766   5.718
 9191SOL    HW227600   1.725  11.698   5.866
 9192SOL     OW27601   0.768  12.316   6.609
 9192SOL    HW127602   0.690  12.333   6.669
 9192SOL    HW227603   0.802  12.403   6.573
 9193SOL     OW27604   0.850  11.970   7.409
 9193SOL    HW127605   0.846  12.046   7.474
 9193SOL    HW227606   0.872  12.006   7.318
 9194SOL     OW27607   0.685  12.184   6.251
 9194SOL    HW127608   0.754  12.168   6.321
 9194SOL    HW227609   0.612  12.241   6.289
 9195SOL     OW27610   0.686  12.333   7.389
 9195SOL    HW127611   0.746  12.412   7.403
 9195SOL    HW227612   0.600  12.364   7.348
 9196SOL     OW27613   0.335  12.607   6.647
 9196SOL    HW127614   0.257  12.576   6.594
 9196SOL    HW227615   0.393  12.665   6.590
 9197SOL     OW27616   1.460  12.677   6.925
 9197SOL    HW127617   1.484  12.771   6.951
 9197SOL    HW227618   1.444  12.623   7.007
 9198SOL     OW27619   0.438  11.564   7.085
 9198SOL    HW127620   0.520  11.508   7.094
 9198SOL    HW227621   0.357  11.506   7.089
 9199SOL     OW27622   1.603  11.619   6.323
 9199SOL    HW127623   1.529  11.665   6.273
 9199SOL    HW227624   1.654  11.687   6.376
 9200SOL     OW27625   0.231  12.885   6.069
 9200SOL    HW127626   0.265  12.962   6.123
 9200SOL    HW227627   0.275  12.885   5.979
 9201SOL     OW27628   1.127  12.513   7.276
 9201SOL    HW127629   1.174  12.513   7.364
 9201SOL    HW227630   1.079  12.426   7.265
 9202SOL     OW27631   0.230  12.606   6.124
 9202SOL    HW127632   0.204  12.702   6.124
 9202SOL    HW227633   0.159  12.552   6.169
 9203SOL     OW27634   0.240  12.263   6.472
 9203SOL    HW127635   0.254  12.179   6.524
 9203SOL    HW227636   0.185  12.327   6.527
 9204SOL     OW27637   0.606  12.136   5.709
 9204SOL    HW127638   0.613  12.220   5.655
 9204SOL    HW227639   0.652  12.149   5.797
 9205SOL     OW27640   1.594  11.286   7.066
 9205SOL    HW127641   1.576  11.353   6.994
 9205SOL    HW227642   1.591  11.332   7.155
 9206SOL     OW27643   0.122  11.815   6.149
 9206SOL    HW127644   0.077  11.727   6.166
 9206SOL    HW227645   0.121  11.869   6.233
 9207SOL     OW27646   0.027  12.768   5.703
 9207SOL    HW127647   0.008  12.672   5.724
 9207SOL    HW227648  -0.006  12.826   5.778
 9208SOL     OW27649   1.689  12.094   6.198
 9208SOL    HW127650   1.784  12.065   6.206
 9208SOL    HW227651   1.681  12.159   6.123
 9209SOL     OW27652   1.641  12.280   6.018
 9209SOL    HW127653   1.727  12.282   5.966
 9209SOL    HW227654   1.655  12.327   6.106
 9210SOL     OW27655   0.113  11.909   7.183
 9210SOL    HW127656   0.201  11.896   7.228
 9210SOL    HW227657   0.100  12.006   7.161
 9211SOL     OW27658   0.613  12.537   6.312
 9211SOL    HW127659   0.564  12.450   6.321
 9211SOL    HW227660   0.590  12.580   6.225
 9212SOL     OW27661   1.293  12.400   7.009
 9212SOL    HW127662   1.330  12.327   6.951
 9212SOL    HW227663   1.345  12.405   7.094
 9213SOL     OW27664   0.809  11.176   6.088
 9213SOL    HW127665   0.849  11.267   6.079
 9213SOL    HW227666   0.709  11.184   6.094
 9214SOL     OW27667   0.197  12.148   6.850
 9214SOL    HW127668   0.286  12.103   6.836
 9214SOL    HW227669   0.124  12.083   6.831
 9215SOL     OW27670   1.525  12.171   5.776
 9215SOL    HW127671   1.462  12.095   5.789
 9215SOL    HW227672   1.573  12.189   5.862
 9216SOL     OW27673   0.317  11.423   7.387
 9216SOL    HW127674   0.388  11.494   7.393
 9216SOL    HW227675   0.229  11.462   7.415
 9217SOL     OW27676   1.466  12.589   6.539
 9217SOL    HW127677   1.407  12.595   6.619
 9217SOL    HW227678   1.451  12.501   6.493
 9218SOL     OW27679   0.598  11.901   5.856
 9218SOL    HW127680   0.622  11.970   5.788
 9218SOL    HW227681   0.520  11.934   5.910
 9219SOL     OW27682   1.281  11.517   6.530
 9219SOL    HW127683   1.195  11.467   6.517
 9219SOL    HW227684   1.343  11.463   6.586
 9220SOL     OW27685   0.807  11.777   7.051
 9220SOL    HW127686   0.760  11.774   7.140
 9220SOL    HW227687   0.756  11.722   6.985
 9221SOL     OW27688   1.394  11.641   7.260
 9221SOL    HW127689   1.374  11.684   7.348
 9221SOL    HW227690   1.472  11.579   7.269
 9222SOL     OW27691   0.973  12.062   7.158
 9222SOL    HW127692   1.019  11.978   7.129
 9222SOL    HW227693   0.917  12.096   7.083
 9223SOL     OW27694   0.991  11.582   6.828
 9223SOL    HW127695   0.914  11.616   6.882
 9223SOL    HW227696   0.957  11.531   6.749
 9224SOL     OW27697   1.041  11.873   6.015
 9224SOL    HW127698   1.067  11.869   6.111
 9224SOL    HW227699   0.956  11.822   6.001
 9225SOL     OW27700   0.076  11.983   6.375
 9225SOL    HW127701   0.175  11.971   6.384
 9225SOL    HW227702   0.052  12.078   6.396
 9226SOL     OW27703   0.865  11.520   5.781
 9226SOL    HW127704   0.924  11.583   5.732
 9226SOL    HW227705   0.884  11.426   5.752
 9227SOL     OW27706   1.719  11.757   7.417
 9227SOL    HW127707   1.693  11.846   7.381
 9227SOL    HW227708   1.717  11.689   7.344
 9228SOL     OW27709   1.362  12.316   6.131
 9228SOL    HW127710   1.445  12.287   6.083
 9228SOL    HW227711   1.313  12.383   6.075
 9229SOL     OW27712   0.550  11.368   6.471
 9229SOL    HW127713   0.545  11.363   6.571
 9229SOL    HW227714   0.552  11.464   6.442
 9230SOL     OW27715   1.008  12.628   6.063
 9230SOL    HW127716   0.962  12.700   6.011
 9230SOL    HW227717   1.004  12.648   6.161
 9231SOL     OW27718   1.795  12.238   6.459
 9231SOL    HW127719   1.733  12.223   6.383
 9231SOL    HW227720   1.743  12.249   6.544
 9232SOL     OW27721   1.227  12.722   7.092
 9232SOL    HW127722   1.233  12.645   7.156
 9232SOL    HW227723   1.175  12.696   7.012
 9233SOL     OW27724   0.321  12.115   5.828
 9233SOL    HW127725   0.403  12.154   5.786
 9233SOL    HW227726   0.294  12.033   5.779
 9234SOL     OW27727   1.458  11.907   6.314
 9234SOL    HW127728   1.453  11.842   6.389
 9234SOL    HW227729   1.538  11.966   6.327
 9235SOL     OW27730   0.461  12.438   7.313
 9235SOL    HW127731   0.411  12.439   7.227
 9235SOL    HW227732   0.398  12.420   7.389
 9236SOL     OW27733   1.111  12.948   5.823
 9236SOL    HW127734   1.051  12.886   5.873
 9236SOL    HW227735   1.142  12.904   5.738
 9237SOL     OW27736   0.202  11.457   7.084
 9237SOL    HW127737   0.122  11.517   7.071
 9237SOL    HW227738   0.192  11.408   7.170
 9238SOL     OW27739   1.632  12.549   5.667
 9238SOL    HW127740   1.600  12.643   5.657
 9238SOL    HW227741   1.556  12.486   5.655
 9239SOL     OW27742   1.400  11.279   6.012
 9239SOL    HW127743   1.376  11.242   5.922
 9239SOL    HW227744   1.499  11.295   6.016
 9240SOL     OW27745   0.382  11.872   6.066
 9240SOL    HW127746   0.427  11.782   6.063
 9240SOL    HW227747   0.288  11.861   6.099
 9241SOL     OW27748   1.547  11.394   7.315
 9241SOL    HW127749   1.542  11.431   7.407
 9241SOL    HW227750   1.475  11.325   7.303
 9242SOL     OW27751   0.614  11.294   5.703
 9242SOL    HW127752   0.712  11.272   5.710
 9242SOL    HW227753   0.583  11.277   5.610
 9243SOL     OW27754   0.781  11.436   7.335
 9243SOL    HW127755   0.848  11.375   7.378
 9243SOL    HW227756   0.708  11.455   7.400
 9244SOL     OW27757   1.351  11.762   7.019
 9244SOL    HW127758   1.379  11.719   7.104
 9244SOL    HW227759   1.376  11.858   7.020
 9245SOL     OW27760   0.803  12.574   6.510
 9245SOL    HW127761   0.893  12.588   6.468
 9245SOL    HW227762   0.732  12.576   6.439
 9246SOL     OW27763   0.922  11.675   6.485
 9246SOL    HW127764   0.897  11.666   6.389
 9246SOL    HW227765   0.970  11.593   6.516
 9247SOL     OW27766   0.539  11.236   6.098
 9247SOL    HW127767   0.458  11.237   6.156
 9247SOL    HW227768   0.542  11.319   6.043
 9248SOL     OW27769   1.434  12.360   5.627
 9248SOL    HW127770   1.466  12.284   5.684
 9248SOL    HW227771   1.342  12.387   5.657
 9249SOL     OW27772   0.297  11.207   5.757
 9249SOL    HW127773   0.346  11.291   5.736
 9249SOL    HW227774   0.359  11.142   5.802
 9250SOL     OW27775   0.935  11.408   6.066
 9250SOL    HW127776   0.887  11.449   5.988
 9250SOL    HW227777   1.034  11.406   6.047
 9251SOL     OW27778   1.076  11.855   7.050
 9251SOL    HW127779   0.996  11.794   7.053
 9251SOL    HW227780   1.157  11.802   7.026
 9252SOL     OW27781   1.227  12.742   6.379
 9252SOL    HW127782   1.248  12.816   6.314
 9252SOL    HW227783   1.295  12.742   6.452
 9253SOL     OW27784   0.459  12.324   6.327
 9253SOL    HW127785   0.388  12.297   6.392
 9253SOL    HW227786   0.433  12.296   6.234
 9254SOL     OW27787   1.032  11.721   5.602
 9254SOL    HW127788   0.991  11.803   5.563
 9254SOL    HW227789   1.096  11.747   5.675
 9255SOL     OW27790   0.078  11.728   6.972
 9255SOL    HW127791   0.170  11.727   6.931
 9255SOL    HW227792   0.072  11.802   7.039
 9256SOL     OW27793   0.561  11.394   6.733
 9256SOL    HW127794   0.599  11.310   6.770
 9256SOL    HW227795   0.473  11.413   6.777
 9257SOL     OW27796   0.866  11.626   6.228
 9257SOL    HW127797   0.834  11.698   6.166
 9257SOL    HW227798   0.890  11.545   6.175
 9258SOL     OW27799   1.017  11.211   6.339
 9258SOL    HW127800   0.945  11.216   6.270
 9258SOL    HW227801   0.993  11.142   6.408
 9259SOL     OW27802   1.429  12.345   6.453
 9259SOL    HW127803   1.374  12.261   6.446
 9259SOL    HW227804   1.455  12.374   6.361
 9260SOL     OW27805   1.466  11.762   6.578
 9260SOL    HW127806   1.436  11.667   6.585
 9260SOL    HW227807   1.539  11.778   6.644
 9261SOL     OW27808   1.857  12.005   5.963
 9261SOL    HW127809   1.899  11.941   6.027
 9261SOL    HW227810   1.819  11.954   5.885
 9262SOL     OW27811   0.488  12.557   5.760
 9262SOL    HW127812   0.401  12.542   5.807
 9262SOL    HW227813   0.471  12.583   5.665
 9263SOL     OW27814   1.664  12.452   6.243
 9263SOL    HW127815   1.763  12.460   6.257
 9263SOL    HW227816   1.619  12.536   6.274
 9264SOL     OW27817   1.390  11.747   5.664
 9264SOL    HW127818   1.336  11.726   5.745
 9264SOL    HW227819   1.481  11.706   5.673
 9265SOL     OW27820   0.527  11.428   5.914
 9265SOL    HW127821   0.554  11.369   5.839
 9265SOL    HW227822   0.527  11.523   5.883
 9266SOL     OW27823   1.754  12.395   7.174
 9266SOL    HW127824   1.845  12.356   7.161
 9266SOL    HW227825   1.762  12.491   7.198
 9267SOL     OW27826   1.064  12.519   6.926
 9267SOL    HW127827   0.984  12.496   6.981
 9267SOL    HW227828   1.147  12.493   6.975
 9268SOL     OW27829   1.111  12.367   6.686
 9268SOL    HW127830   1.071  12.411   6.767
 9268SOL    HW227831   1.070  12.404   6.603
 9269SOL     OW27832   1.638  12.271   6.665
 9269SOL    HW127833   1.643  12.352   6.724
 9269SOL    HW227834   1.552  12.273   6.614
 9270SOL     OW27835   0.915  11.261   6.988
 9270SOL    HW127836   0.940  11.241   6.893
 9270SOL    HW227837   0.987  11.317   7.030
 9271SOL     OW27838   0.980  12.288   7.305
 9271SOL    HW127839   0.881  12.294   7.315
 9271SOL    HW227840   1.003  12.208   7.249
 9272SOL     OW27841   0.705  12.222   5.954
 9272SOL    HW127842   0.691  12.229   6.053
 9272SOL    HW227843   0.789  12.171   5.936
 9273SOL     OW27844   0.410  11.985   6.837
 9273SOL    HW127845   0.496  11.997   6.887
 9273SOL    HW227846   0.368  11.898   6.864
 9274SOL     OW27847   1.274  11.558   6.848
 9274SOL    HW127848   1.295  11.632   6.912
 9274SOL    HW227849   1.185  11.575   6.805
 9275SOL     OW27850   0.064  12.736   6.917
 9275SOL    HW127851   0.018  12.818   6.883
 9275SOL    HW227852   0.162  12.755   6.926
 9276SOL     OW27853   0.367  12.272   6.087
 9276SOL    HW127854   0.360  12.355   6.031
 9276SOL    HW227855   0.371  12.192   6.027
 9277SOL     OW27856   0.566  11.709   6.451
 9277SOL    HW127857   0.578  11.775   6.377
 9277SOL    HW227858   0.612  11.743   6.534
 9278SOL     OW27859   1.252  12.520   5.974
 9278SOL    HW127860   1.302  12.597   6.014
 9278SOL    HW227861   1.157  12.522   6.006
 9279SOL     OW27862   1.272  12.617   6.728
 9279SOL    HW127863   1.319  12.630   6.815
 9279SOL    HW227864   1.206  12.543   6.737
 9280SOL     OW27865   1.582  11.811   6.058
 9280SOL    HW127866   1.551  11.872   6.131
 9280SOL    HW227867   1.632  11.863   5.989
 9281SOL     OW27868   0.354  12.682   6.915
 9281SOL    HW127869   0.333  12.638   6.828
 9281SOL    HW227870   0.451  12.708   6.918
 9282SOL     OW27871   0.402  11.923   7.184
 9282SOL    HW127872   0.470  11.978   7.137
 9282SOL    HW227873   0.442  11.835   7.211
 9283SOL     OW27874   1.587  11.951   7.256
 9283SOL    HW127875   1.495  11.989   7.251
 9283SOL    HW227876   1.647  11.998   7.191
 9284SOL     OW27877   1.013  11.277   7.356
 9284SOL    HW127878   1.019  11.362   7.304
 9284SOL    HW227879   1.045  11.201   7.299
 9285SOL     OW27880   0.504  11.222   7.326
 9285SOL    HW127881   0.462  11.165   7.256
 9285SOL    HW227882   0.438  11.291   7.358
 9286SOL     OW27883   0.573  12.042   6.615
 9286SOL    HW127884   0.617  12.131   6.606
 9286SOL    HW227885   0.510  12.042   6.692
 9287SOL     OW27886   1.360  12.034   6.631
 9287SOL    HW127887   1.285  12.034   6.565
 9287SOL    HW227888   1.397  11.942   6.640
 9288SOL     OW27889   1.209  11.697   5.861
 9288SOL    HW127890   1.222  11.613   5.915
 9288SOL    HW227891   1.180  11.771   5.921
 9289SOL     OW27892   0.307  11.385   6.817
 9289SOL    HW127893   0.284  11.422   6.907
 9289SOL    HW227894   0.277  11.290   6.811
 9290SOL     OW27895   0.037  12.482   6.868
 9290SOL    HW127896   0.090  12.433   6.936
 9290SOL    HW227897   0.059  12.580   6.873
 9291SOL     OW27898   0.732  11.806   6.650
 9291SOL    HW127899   0.791  11.780   6.574
 9291SOL    HW227900   0.704  11.902   6.639
 9292SOL     OW27901   1.728  12.107   7.440
 9292SOL    HW127902   1.682  12.100   7.351
 9292SOL    HW227903   1.666  12.151   7.506
 9293SOL     OW27904   0.307  11.235   6.204
 9293SOL    HW127905   0.296  11.329   6.237
 9293SOL    HW227906   0.302  11.172   6.281
 9294SOL     OW27907   1.622  11.539   5.960
 9294SOL    HW127908   1.624  11.463   6.024
 9294SOL    HW227909   1.574  11.616   6.000
 9295SOL     OW27910   1.023  11.938   6.552
 9295SOL    HW127911   1.038  11.959   6.648
 9295SOL    HW227912   0.993  11.843   6.543
 9296SOL     OW27913   1.859  12.690   7.191
 9296SOL    HW127914   1.873  12.717   7.096
 9296SOL    HW227915   1.942  12.712   7.244
 9297SOL     OW27916   0.350  12.070   7.390
 9297SOL    HW127917   0.426  12.114   7.438
 9297SOL    HW227918   0.385  12.023   7.308
 9298SOL     OW27919   1.540  11.446   5.711
 9298SOL    HW127920   1.479  11.371   5.734
 9298SOL    HW227921   1.562  11.498   5.794
 9299SOL     OW27922   1.303  12.010   5.628
 9299SOL    HW127923   1.337  11.917   5.643
 9299SOL    HW227924   1.321  12.037   5.533
 9300SOL     OW27925   1.068  12.505   6.435
 9300SOL    HW127926   1.075  12.421   6.380
 9300SOL    HW227927   1.130  12.574   6.399
 9301SOL     OW27928   0.319  11.982   6.535
 9301SOL    HW127929   0.412  12.018   6.540
 9301SOL    HW227930   0.313  11.897   6.587
 9302SOL     OW27931   0.339  11.681   6.592
 9302SOL    HW127932   0.287  11.598   6.575
 9302SOL    HW227933   0.416  11.686   6.528
 9303SOL     OW27934   1.138  11.552   7.264
 9303SOL    HW127935   1.093  11.615   7.328
 9303SOL    HW227936   1.231  11.583   7.247
 9304SOL     OW27937   1.160  11.379   7.063
 9304SOL    HW127938   1.160  11.443   7.140
 9304SOL    HW227939   1.188  11.427   6.980
 9305SOL     OW27940   0.008  12.498   5.786
 9305SOL    HW127941  -0.085  12.519   5.755
 9305SOL    HW227942   0.018  12.399   5.799
 9306SOL     OW27943   1.002  11.968   6.824
 9306SOL    HW127944   1.043  11.936   6.910
 9306SOL    HW227945   0.906  11.941   6.821
 9307SOL     OW27946   0.040  11.716   6.700
 9307SOL    HW127947   0.125  11.683   6.659
 9307SOL    HW227948   0.053  11.731   6.798
 9308SOL     OW27949   0.189  11.692   7.308
 9308SOL    HW127950   0.248  11.652   7.238
 9308SOL    HW227951   0.131  11.763   7.267
 9309SOL     OW27952   1.369  12.122   7.246
 9309SOL    HW127953   1.408  12.211   7.266
 9309SOL    HW227954   1.379  12.102   7.149
 9310SOL     OW27955   0.815  11.744   5.911
 9310SOL    HW127956   0.822  11.655   5.865
 9310SOL    HW227957   0.721  11.778   5.903
 9311SOL     OW27958   1.657  11.776   6.792
 9311SOL    HW127959   1.619  11.707   6.854
 9311SOL    HW227960   1.739  11.740   6.748
 9312SOL     OW27961   0.252  12.736   7.330
 9312SOL    HW127962   0.222  12.793   7.406
 9312SOL    HW227963   0.245  12.639   7.356
 9313SOL     OW27964   0.671  11.636   6.855
 9313SOL    HW127965   0.637  11.547   6.825
 9313SOL    HW227966   0.697  11.690   6.775
 9314SOL     OW27967   0.473  11.672   5.777
 9314SOL    HW127968   0.534  11.752   5.781
 9314SOL    HW227969   0.378  11.703   5.784
 9315SOL     OW27970   0.159  12.309   7.052
 9315SOL    HW127971   0.181  12.248   7.128
 9315SOL    HW227972   0.169  12.260   6.966
 9316SOL     OW27973   1.347  12.231   6.820
 9316SOL    HW127974   1.371  12.168   6.746
 9316SOL    HW227975   1.257  12.271   6.802
 9317SOL     OW27976   1.302  12.027   5.895
 9317SOL    HW127977   1.216  11.996   5.937
 9317SOL    HW227978   1.298  12.013   5.796
 9318SOL     OW27979   0.083  12.430   6.608
 9318SOL    HW127980   0.078  12.429   6.708
 9318SOL    HW227981   0.000  12.389   6.570
 9319SOL     OW27982   1.726  11.307   6.109
 9319SOL    HW127983   1.799  11.290   6.042
 9319SOL    HW227984   1.695  11.220   6.147
 9320SOL     OW27985   1.280  12.099   6.258
 9320SOL    HW127986   1.340  12.018   6.260
 9320SOL    HW227987   1.320  12.168   6.198
 9321SOL     OW27988   0.830  12.445   7.008
 9321SOL    HW127989   0.825  12.478   7.103
 9321SOL    HW227990   0.744  12.464   6.962
 9322SOL     OW27991   1.841  11.347   6.549
 9322SOL    HW127992   1.880  11.262   6.513
 9322SOL    HW227993   1.743  11.349   6.530
 9323SOL     OW27994   0.263  11.498   6.306
 9323SOL    HW127995   0.184  11.549   6.272
 9323SOL    HW227996   0.254  11.483   6.404
 9324SOL     OW27997   0.822  12.174   6.958
 9324SOL    HW127998   0.862  12.173   6.866
 9324SOL    HW227999   0.832  12.266   6.998
 9325SOL     OW28000   0.916  12.082   5.877
 9325SOL    HW128001   0.979  12.120   5.809
 9325SOL    HW228002   0.956  11.999   5.916
 9326SOL     OW28003   0.372  12.460   7.076
 9326SOL    HW128004   0.359  12.553   7.042
 9326SOL    HW228005   0.288  12.408   7.063
 9327SOL     OW28006   1.614  12.464   6.875
 9327SOL    HW128007   1.674  12.467   6.955
 9327SOL    HW228008   1.539  12.528   6.888
 9328SOL     OW28009   1.039  12.270   6.282
 9328SOL    HW128010   0.969  12.223   6.336
 9328SOL    HW228011   1.098  12.202   6.239
 9329SOL     OW28012   1.014  11.408   6.557
 9329SOL    HW128013   1.006  11.372   6.464
 9329SOL    HW228014   1.012  11.332   6.622
 9330SOL     OW28015   1.709  11.557   6.967
 9330SOL    HW128016   1.782  11.626   6.971
 9330SOL    HW228017   1.737  11.482   6.908
 9331SOL     OW28018   0.255  12.520   5.876
 9331SOL    HW128019   0.159  12.521   5.849
 9331SOL    HW228020   0.267  12.573   5.960
 9332SOL     OW28021   0.105  12.185   7.312
 9332SOL    HW128022   0.028  12.152   7.366
 9332SOL    HW228023   0.190  12.155   7.354
 9333SOL     OW28024   0.672  11.375   7.075
 9333SOL    HW128025   0.762  11.359   7.035
 9333SOL    HW228026   0.680  11.380   7.174
 9334SOL     OW28027   0.075  11.517   5.619
 9334SOL    HW128028  -0.017  11.489   5.590
 9334SOL    HW228029   0.106  11.594   5.563
 9335SOL     OW28030   1.440  12.028   6.984
 9335SOL    HW128031   1.383  12.080   6.921
 9335SOL    HW228032   1.536  12.040   6.960
 9336SOL     OW28033   0.072  11.338   5.904
 9336SOL    HW128034   0.055  11.421   5.850
 9336SOL    HW228035   0.162  11.301   5.882
 9337SOL     OW28036   1.183  12.507   5.705
 9337SOL    HW128037   1.084  12.496   5.707
 9337SOL    HW228038   1.217  12.522   5.798
 9338SOL     OW28039   0.613  12.014   7.017
 9338SOL    HW128040   0.669  12.095   7.000
 9338SOL    HW228041   0.672  11.934   7.020
 9339SOL     OW28042   0.716  11.737   7.294
 9339SOL    HW128043   0.735  11.802   7.368
 9339SOL    HW228044   0.776  11.657   7.303
 9340SOL     OW28045   1.450  12.392   7.219
 9340SOL    HW128046   1.441  12.382   7.318
 9340SOL    HW228047   1.546  12.385   7.193
 9341SOL     OW28048   1.674  12.055   6.840
 9341SOL    HW128049   1.647  11.966   6.803
 9341SOL    HW228050   1.675  12.123   6.767
 9342SOL     OW28051   1.225  11.497   6.035
 9342SOL    HW128052   1.290  11.423   6.024
 9342SOL    HW228053   1.245  11.547   6.119
 9343SOL     OW28054   0.594  11.917   6.238
 9343SOL    HW128055   0.644  12.002   6.219
 9343SOL    HW228056   0.506  11.919   6.190
 9344SOL     OW28057   1.730  12.106   7.103
 9344SOL    HW128058   1.768  12.197   7.118
 9344SOL    HW228059   1.722  12.089   7.004
 9345SOL     OW28060   0.859  12.546   5.602
 9345SOL    HW128061   0.813  12.561   5.690
 9345SOL    HW228062   0.903  12.631   5.572
 9346SOL     OW28063   0.859  12.128   6.447
 9346SOL    HW128064   0.913  12.059   6.495
 9346SOL    HW228065   0.827  12.197   6.513
 9347SOL     OW28066   1.083  12.156   5.673
 9347SOL    HW128067   1.060  12.209   5.591
 9347SOL    HW228068   1.164  12.100   5.654
 9348SOL     OW28069   0.221  12.486   7.430
 9348SOL    HW128070   0.156  12.413   7.409
 9348SOL    HW228071   0.225  12.500   7.528
 9349SOL     OW28072   0.079  12.412   6.239
 9349SOL    HW128073   0.078  12.365   6.327
 9349SOL    HW228074   0.161  12.384   6.188
 9350SOL     OW28075   0.672  12.563   7.210
 9350SOL    HW128076   0.594  12.513   7.248
 9350SOL    HW228077   0.669  12.658   7.241
 9351SOL     OW28078   1.824  11.364   6.813
 9351SOL    HW128079   1.820  11.274   6.857
 9351SOL    HW228080   1.827  11.353   6.714
 9352SOL     OW28081   0.428  11.596   6.106
 9352SOL    HW128082   0.458  11.524   6.044
 9352SOL    HW228083   0.389  11.556   6.189
 9353SOL     OW28084   1.705  12.659   6.690
 9353SOL    HW128085   1.612  12.634   6.663
 9353SOL    HW228086   1.731  12.609   6.772
 9354SOL     OW28087   0.317  11.719   6.866
 9354SOL    HW128088   0.355  11.660   6.938
 9354SOL    HW228089   0.357  11.693   6.778
 9355SOL     OW28090   1.424  11.386   6.698
 9355SOL    HW128091   1.476  11.321   6.753
 9355SOL    HW228092   1.375  11.449   6.759
 9356SOL     OW28093   1.001  11.206   6.740
 9356SOL    HW128094   0.938  11.134   6.709
 9356SOL    HW228095   1.094  11.170   6.740
 9357SOL     OW28096   0.770  12.502   5.887
 9357SOL    HW128097   0.724  12.415   5.904
 9357SOL    HW228098   0.861  12.499   5.928
 9358SOL     OW28099   0.618  12.739   6.870
 9358SOL    HW128100   0.613  12.821   6.927
 9358SOL    HW228101   0.707  12.736   6.825
 9359SOL     OW28102   1.352  11.224   5.754
 9359SOL    HW128103   1.387  11.183   5.670
 9359SOL    HW228104   1.262  11.186   5.774
 9360SOL     OW28105   1.300  11.625   6.277
 9360SOL    HW128106   1.241  11.705   6.281
 9360SOL    HW228107   1.315  11.590   6.370
 9361SOL     OW28108   1.593  11.393   6.468
 9361SOL    HW128109   1.509  11.392   6.522
 9361SOL    HW228110   1.595  11.476   6.412
 9362SOL     OW28111   0.039  12.249   5.886
 9362SOL    HW128112   0.138  12.238   5.877
 9362SOL    HW228113  -0.001  12.163   5.918
 9363SOL     OW28114   0.230  11.800   7.561
 9363SOL    HW128115   0.137  11.798   7.598
 9363SOL    HW228116   0.231  11.761   7.469
 9364SOL     OW28117   0.225  11.447   8.444
 9364SOL    HW128118   0.260  11.430   8.536
 9364SOL    HW228119   0.137  11.402   8.432
 9365SOL     OW28120   0.019  11.540   8.095
 9365SOL    HW128121  -0.063  11.583   8.134
 9365SOL    HW228122  -0.009  11.467   8.032
 9366SOL     OW28123   0.569  12.447   8.613
 9366SOL    HW128124   0.476  12.440   8.576
 9366SOL    HW228125   0.580  12.536   8.657
 9367SOL     OW28126   1.555  12.683   8.151
 9367SOL    HW128127   1.498  12.667   8.232
 9367SOL    HW228128   1.496  12.693   8.071
 9368SOL     OW28129   1.135  11.875   8.165
 9368SOL    HW128130   1.192  11.953   8.140
 9368SOL    HW228131   1.075  11.901   8.241
 9369SOL     OW28132   1.755  11.779   7.679
 9369SOL    HW128133   1.743  11.766   7.580
 9369SOL    HW228134   1.725  11.698   7.728
 9370SOL     OW28135   0.768  12.316   8.471
 9370SOL    HW128136   0.690  12.333   8.531
 9370SOL    HW228137   0.802  12.403   8.435
 9371SOL     OW28138   0.850  11.970   9.271
 9371SOL    HW128139   0.846  12.046   9.336
 9371SOL    HW228140   0.872  12.006   9.180
 9372SOL     OW28141   0.685  12.184   8.113
 9372SOL    HW128142   0.754  12.168   8.183
 9372SOL    HW228143   0.612  12.241   8.151
 9373SOL     OW28144   0.686  12.333   9.251
 9373SOL    HW128145   0.746  12.412   9.265
 9373SOL    HW228146   0.600  12.364   9.210
 9374SOL     OW28147   0.335  12.607   8.509
 9374SOL    HW128148   0.257  12.576   8.456
 9374SOL    HW228149   0.393  12.665   8.452
 9375SOL     OW28150   1.460  12.677   8.787
 9375SOL    HW128151   1.484  12.771   8.813
 9375SOL    HW228152   1.444  12.623   8.869
 9376SOL     OW28153   0.438  11.564   8.947
 9376SOL    HW128154   0.520  11.508   8.956
 9376SOL    HW228155   0.357  11.506   8.951
 9377SOL     OW28156   1.603  11.619   8.185
 9377SOL    HW128157   1.529  11.665   8.135
 9377SOL    HW228158   1.654  11.687   8.238
 9378SOL     OW28159   0.231  12.885   7.931
 9378SOL    HW128160   0.265  12.962   7.985
 9378SOL    HW228161   0.275  12.885   7.841
 9379SOL     OW28162   1.127  12.513   9.138
 9379SOL    HW128163   1.174  12.513   9.226
 9379SOL    HW228164   1.079  12.426   9.127
 9380SOL     OW28165   0.230  12.606   7.986
 9380SOL    HW128166   0.204  12.702   7.986
 9380SOL    HW228167   0.159  12.552   8.031
 9381SOL     OW28168   0.240  12.263   8.334
 9381SOL    HW128169   0.254  12.179   8.386
 9381SOL    HW228170   0.185  12.327   8.389
 9382SOL     OW28171   0.606  12.136   7.571
 9382SOL    HW128172   0.613  12.220   7.517
 9382SOL    HW228173   0.652  12.149   7.659
 9383SOL     OW28174   1.594  11.286   8.928
 9383SOL    HW128175   1.576  11.353   8.856
 9383SOL    HW228176   1.591  11.332   9.017
 9384SOL     OW28177   0.122  11.815   8.011
 9384SOL    HW128178   0.077  11.727   8.028
 9384SOL    HW228179   0.121  11.869   8.095
 9385SOL     OW28180   0.027  12.768   7.565
 9385SOL    HW128181   0.008  12.672   7.586
 9385SOL    HW228182  -0.006  12.826   7.640
 9386SOL     OW28183   1.689  12.094   8.060
 9386SOL    HW128184   1.784  12.065   8.068
 9386SOL    HW228185   1.681  12.159   7.985
 9387SOL     OW28186   1.641  12.280   7.880
 9387SOL    HW128187   1.727  12.282   7.828
 9387SOL    HW228188   1.655  12.327   7.968
 9388SOL     OW28189   0.113  11.909   9.045
 9388SOL    HW128190   0.201  11.896   9.090
 9388SOL    HW228191   0.100  12.006   9.023
 9389SOL     OW28192   0.613  12.537   8.174
 9389SOL    HW128193   0.564  12.450   8.183
 9389SOL    HW228194   0.590  12.580   8.087
 9390SOL     OW28195   1.293  12.400   8.871
 9390SOL    HW128196   1.330  12.327   8.813
 9390SOL    HW228197   1.345  12.405   8.956
 9391SOL     OW28198   0.809  11.176   7.950
 9391SOL    HW128199   0.849  11.267   7.941
 9391SOL    HW228200   0.709  11.184   7.956
 9392SOL     OW28201   0.197  12.148   8.712
 9392SOL    HW128202   0.286  12.103   8.698
 9392SOL    HW228203   0.124  12.083   8.693
 9393SOL     OW28204   1.525  12.171   7.638
 9393SOL    HW128205   1.462  12.095   7.651
 9393SOL    HW228206   1.573  12.189   7.724
 9394SOL     OW28207   0.317  11.423   9.249
 9394SOL    HW128208   0.388  11.494   9.255
 9394SOL    HW228209   0.229  11.462   9.277
 9395SOL     OW28210   1.466  12.589   8.401
 9395SOL    HW128211   1.407  12.595   8.481
 9395SOL    HW228212   1.451  12.501   8.355
 9396SOL     OW28213   0.598  11.901   7.718
 9396SOL    HW128214   0.622  11.970   7.650
 9396SOL    HW228215   0.520  11.934   7.772
 9397SOL     OW28216   1.281  11.517   8.392
 9397SOL    HW128217   1.195  11.467   8.379
 9397SOL    HW228218   1.343  11.463   8.448
 9398SOL     OW28219   0.807  11.777   8.913
 9398SOL    HW128220   0.760  11.774   9.002
 9398SOL    HW228221   0.756  11.722   8.847
 9399SOL     OW28222   1.394  11.641   9.122
 9399SOL    HW128223   1.374  11.684   9.210
 9399SOL    HW228224   1.472  11.579   9.131
 9400SOL     OW28225   0.973  12.062   9.020
 9400SOL    HW128226   1.019  11.978   8.991
 9400SOL    HW228227   0.917  12.096   8.945
 9401SOL     OW28228   0.991  11.582   8.690
 9401SOL    HW128229   0.914  11.616   8.744
 9401SOL    HW228230   0.957  11.531   8.611
 9402SOL     OW28231   1.041  11.873   7.877
 9402SOL    HW128232   1.067  11.869   7.973
 9402SOL    HW228233   0.956  11.822   7.863
 9403SOL     OW28234   0.076  11.983   8.237
 9403SOL    HW128235   0.175  11.971   8.246
 9403SOL    HW228236   0.052  12.078   8.258
 9404SOL     OW28237   0.865  11.520   7.643
 9404SOL    HW128238   0.924  11.583   7.594
 9404SOL    HW228239   0.884  11.426   7.614
 9405SOL     OW28240   1.719  11.757   9.279
 9405SOL    HW128241   1.693  11.846   9.243
 9405SOL    HW228242   1.717  11.689   9.206
 9406SOL     OW28243   1.362  12.316   7.993
 9406SOL    HW128244   1.445  12.287   7.945
 9406SOL    HW228245   1.313  12.383   7.937
 9407SOL     OW28246   0.550  11.368   8.333
 9407SOL    HW128247   0.545  11.363   8.433
 9407SOL    HW228248   0.552  11.464   8.304
 9408SOL     OW28249   1.008  12.628   7.925
 9408SOL    HW128250   0.962  12.700   7.873
 9408SOL    HW228251   1.004  12.648   8.023
 9409SOL     OW28252   1.795  12.238   8.321
 9409SOL    HW128253   1.733  12.223   8.245
 9409SOL    HW228254   1.743  12.249   8.406
 9410SOL     OW28255   1.227  12.722   8.954
 9410SOL    HW128256   1.233  12.645   9.018
 9410SOL    HW228257   1.175  12.696   8.874
 9411SOL     OW28258   0.321  12.115   7.690
 9411SOL    HW128259   0.403  12.154   7.648
 9411SOL    HW228260   0.294  12.033   7.641
 9412SOL     OW28261   1.458  11.907   8.176
 9412SOL    HW128262   1.453  11.842   8.251
 9412SOL    HW228263   1.538  11.966   8.189
 9413SOL     OW28264   0.461  12.438   9.175
 9413SOL    HW128265   0.411  12.439   9.089
 9413SOL    HW228266   0.398  12.420   9.251
 9414SOL     OW28267   1.111  12.948   7.685
 9414SOL    HW128268   1.051  12.886   7.735
 9414SOL    HW228269   1.142  12.904   7.600
 9415SOL     OW28270   0.202  11.457   8.946
 9415SOL    HW128271   0.122  11.517   8.933
 9415SOL    HW228272   0.192  11.408   9.032
 9416SOL     OW28273   1.632  12.549   7.529
 9416SOL    HW128274   1.600  12.643   7.519
 9416SOL    HW228275   1.556  12.486   7.517
 9417SOL     OW28276   1.400  11.279   7.874
 9417SOL    HW128277   1.376  11.242   7.784
 9417SOL    HW228278   1.499  11.295   7.878
 9418SOL     OW28279   0.382  11.872   7.928
 9418SOL    HW128280   0.427  11.782   7.925
 9418SOL    HW228281   0.288  11.861   7.961
 9419SOL     OW28282   1.547  11.394   9.177
 9419SOL    HW128283   1.542  11.431   9.269
 9419SOL    HW228284   1.475  11.325   9.165
 9420SOL     OW28285   0.614  11.294   7.565
 9420SOL    HW128286   0.712  11.272   7.572
 9420SOL    HW228287   0.583  11.277   7.472
 9421SOL     OW28288   0.781  11.436   9.197
 9421SOL    HW128289   0.848  11.375   9.240
 9421SOL    HW228290   0.708  11.455   9.262
 9422SOL     OW28291   1.351  11.762   8.881
 9422SOL    HW128292   1.379  11.719   8.966
 9422SOL    HW228293   1.376  11.858   8.882
 9423SOL     OW28294   0.803  12.574   8.372
 9423SOL    HW128295   0.893  12.588   8.330
 9423SOL    HW228296   0.732  12.576   8.301
 9424SOL     OW28297   0.922  11.675   8.347
 9424SOL    HW128298   0.897  11.666   8.251
 9424SOL    HW228299   0.970  11.593   8.378
 9425SOL     OW28300   0.539  11.236   7.960
 9425SOL    HW128301   0.458  11.237   8.018
 9425SOL    HW228302   0.542  11.319   7.905
 9426SOL     OW28303   1.434  12.360   7.489
 9426SOL    HW128304   1.466  12.284   7.546
 9426SOL    HW228305   1.342  12.387   7.519
 9427SOL     OW28306   0.297  11.207   7.619
 9427SOL    HW128307   0.346  11.291   7.598
 9427SOL    HW228308   0.359  11.142   7.664
 9428SOL     OW28309   0.935  11.408   7.928
 9428SOL    HW128310   0.887  11.449   7.850
 9428SOL    HW228311   1.034  11.406   7.909
 9429SOL     OW28312   1.076  11.855   8.912
 9429SOL    HW128313   0.996  11.794   8.915
 9429SOL    HW228314   1.157  11.802   8.888
 9430SOL     OW28315   1.227  12.742   8.241
 9430SOL    HW128316   1.248  12.816   8.176
 9430SOL    HW228317   1.295  12.742   8.314
 9431SOL     OW28318   0.459  12.324   8.189
 9431SOL    HW128319   0.388  12.297   8.254
 9431SOL    HW228320   0.433  12.296   8.096
 9432SOL     OW28321   1.032  11.721   7.464
 9432SOL    HW128322   0.991  11.803   7.425
 9432SOL    HW228323   1.096  11.747   7.537
 9433SOL     OW28324   0.078  11.728   8.834
 9433SOL    HW128325   0.170  11.727   8.793
 9433SOL    HW228326   0.072  11.802   8.901
 9434SOL     OW28327   0.561  11.394   8.595
 9434SOL    HW128328   0.599  11.310   8.632
 9434SOL    HW228329   0.473  11.413   8.639
 9435SOL     OW28330   0.866  11.626   8.090
 9435SOL    HW128331   0.834  11.698   8.028
 9435SOL    HW228332   0.890  11.545   8.037
 9436SOL     OW28333   1.017  11.211   8.201
 9436SOL    HW128334   0.945  11.216   8.132
 9436SOL    HW228335   0.993  11.142   8.270
 9437SOL     OW28336   1.429  12.345   8.315
 9437SOL    HW128337   1.374  12.261   8.308
 9437SOL    HW228338   1.455  12.374   8.223
 9438SOL     OW28339   1.466  11.762   8.440
 9438SOL    HW128340   1.436  11.667   8.447
 9438SOL    HW228341   1.539  11.778   8.506
 9439SOL     OW28342   1.857  12.005   7.825
 9439SOL    HW128343   1.899  11.941   7.889
 9439SOL    HW228344   1.819  11.954   7.747
 9440SOL     OW28345   0.488  12.557   7.622
 9440SOL    HW128346   0.401  12.542   7.669
 9440SOL    HW228347   0.471  12.583   7.527
 9441SOL     OW28348   1.664  12.452   8.105
 9441SOL    HW128349   1.763  12.460   8.119
 9441SOL    HW228350   1.619  12.536   8.136
 9442SOL     OW28351   1.390  11.747   7.526
 9442SOL    HW128352   1.336  11.726   7.607
 9442SOL    HW228353   1.481  11.706   7.535
 9443SOL     OW28354   0.527  11.428   7.776
 9443SOL    HW128355   0.554  11.369   7.701
 9443SOL    HW228356   0.527  11.523   7.745
 9444SOL     OW28357   1.754  12.395   9.036
 9444SOL    HW128358   1.845  12.356   9.023
 9444SOL    HW228359   1.762  12.491   9.060
 9445SOL     OW28360   1.064  12.519   8.788
 9445SOL    HW128361   0.984  12.496   8.843
 9445SOL    HW228362   1.147  12.493   8.837
 9446SOL     OW28363   1.111  12.367   8.548
 9446SOL    HW128364   1.071  12.411   8.629
 9446SOL    HW228365   1.070  12.404   8.465
 9447SOL     OW28366   1.638  12.271   8.527
 9447SOL    HW128367   1.643  12.352   8.586
 9447SOL    HW228368   1.552  12.273   8.476
 9448SOL     OW28369   0.915  11.261   8.850
 9448SOL    HW128370   0.940  11.241   8.755
 9448SOL    HW228371   0.987  11.317   8.892
 9449SOL     OW28372   0.980  12.288   9.167
 9449SOL    HW128373   0.881  12.294   9.177
 9449SOL    HW228374   1.003  12.208   9.111
 9450SOL     OW28375   0.705  12.222   7.816
 9450SOL    HW128376   0.691  12.229   7.915
 9450SOL    HW228377   0.789  12.171   7.798
 9451SOL     OW28378   0.410  11.985   8.699
 9451SOL    HW128379   0.496  11.997   8.749
 9451SOL    HW228380   0.368  11.898   8.726
 9452SOL     OW28381   1.274  11.558   8.710
 9452SOL    HW128382   1.295  11.632   8.774
 9452SOL    HW228383   1.185  11.575   8.667
 9453SOL     OW28384   0.064  12.736   8.779
 9453SOL    HW128385   0.018  12.818   8.745
 9453SOL    HW228386   0.162  12.755   8.788
 9454SOL     OW28387   0.367  12.272   7.949
 9454SOL    HW128388   0.360  12.355   7.893
 9454SOL    HW228389   0.371  12.192   7.889
 9455SOL     OW28390   0.566  11.709   8.313
 9455SOL    HW128391   0.578  11.775   8.239
 9455SOL    HW228392   0.612  11.743   8.396
 9456SOL     OW28393   1.252  12.520   7.836
 9456SOL    HW128394   1.302  12.597   7.876
 9456SOL    HW228395   1.157  12.522   7.868
 9457SOL     OW28396   1.272  12.617   8.590
 9457SOL    HW128397   1.319  12.630   8.677
 9457SOL    HW228398   1.206  12.543   8.599
 9458SOL     OW28399   1.582  11.811   7.920
 9458SOL    HW128400   1.551  11.872   7.993
 9458SOL    HW228401   1.632  11.863   7.851
 9459SOL     OW28402   0.354  12.682   8.777
 9459SOL    HW128403   0.333  12.638   8.690
 9459SOL    HW228404   0.451  12.708   8.780
 9460SOL     OW28405   0.402  11.923   9.046
 9460SOL    HW128406   0.470  11.978   8.999
 9460SOL    HW228407   0.442  11.835   9.073
 9461SOL     OW28408   1.587  11.951   9.118
 9461SOL    HW128409   1.495  11.989   9.113
 9461SOL    HW228410   1.647  11.998   9.053
 9462SOL     OW28411   1.013  11.277   9.218
 9462SOL    HW128412   1.019  11.362   9.166
 9462SOL    HW228413   1.045  11.201   9.161
 9463SOL     OW28414   0.504  11.222   9.188
 9463SOL    HW128415   0.462  11.165   9.118
 9463SOL    HW228416   0.438  11.291   9.220
 9464SOL     OW28417   0.573  12.042   8.477
 9464SOL    HW128418   0.617  12.131   8.468
 9464SOL    HW228419   0.510  12.042   8.554
 9465SOL     OW28420   1.360  12.034   8.493
 9465SOL    HW128421   1.285  12.034   8.427
 9465SOL    HW228422   1.397  11.942   8.502
 9466SOL     OW28423   1.209  11.697   7.723
 9466SOL    HW128424   1.222  11.613   7.777
 9466SOL    HW228425   1.180  11.771   7.783
 9467SOL     OW28426   0.307  11.385   8.679
 9467SOL    HW128427   0.284  11.422   8.769
 9467SOL    HW228428   0.277  11.290   8.673
 9468SOL     OW28429   0.037  12.482   8.730
 9468SOL    HW128430   0.090  12.433   8.798
 9468SOL    HW228431   0.059  12.580   8.735
 9469SOL     OW28432   0.732  11.806   8.512
 9469SOL    HW128433   0.791  11.780   8.436
 9469SOL    HW228434   0.704  11.902   8.501
 9470SOL     OW28435   1.728  12.107   9.302
 9470SOL    HW128436   1.682  12.100   9.213
 9470SOL    HW228437   1.666  12.151   9.368
 9471SOL     OW28438   0.307  11.235   8.066
 9471SOL    HW128439   0.296  11.329   8.099
 9471SOL    HW228440   0.302  11.172   8.143
 9472SOL     OW28441   1.622  11.539   7.822
 9472SOL    HW128442   1.624  11.463   7.886
 9472SOL    HW228443   1.574  11.616   7.862
 9473SOL     OW28444   1.023  11.938   8.414
 9473SOL    HW128445   1.038  11.959   8.510
 9473SOL    HW228446   0.993  11.843   8.405
 9474SOL     OW28447   1.859  12.690   9.053
 9474SOL    HW128448   1.873  12.717   8.958
 9474SOL    HW228449   1.942  12.712   9.106
 9475SOL     OW28450   0.350  12.070   9.252
 9475SOL    HW128451   0.426  12.114   9.300
 9475SOL    HW228452   0.385  12.023   9.170
 9476SOL     OW28453   1.540  11.446   7.573
 9476SOL    HW128454   1.479  11.371   7.596
 9476SOL    HW228455   1.562  11.498   7.656
 9477SOL     OW28456   1.303  12.010   7.490
 9477SOL    HW128457   1.337  11.917   7.505
 9477SOL    HW228458   1.321  12.037   7.395
 9478SOL     OW28459   1.068  12.505   8.297
 9478SOL    HW128460   1.075  12.421   8.242
 9478SOL    HW228461   1.130  12.574   8.261
 9479SOL     OW28462   0.319  11.982   8.397
 9479SOL    HW128463   0.412  12.018   8.402
 9479SOL    HW228464   0.313  11.897   8.449
 9480SOL     OW28465   0.339  11.681   8.454
 9480SOL    HW128466   0.287  11.598   8.437
 9480SOL    HW228467   0.416  11.686   8.390
 9481SOL     OW28468   1.138  11.552   9.126
 9481SOL    HW128469   1.093  11.615   9.190
 9481SOL    HW228470   1.231  11.583   9.109
 9482SOL     OW28471   1.160  11.379   8.925
 9482SOL    HW128472   1.160  11.443   9.002
 9482SOL    HW228473   1.188  11.427   8.842
 9483SOL     OW28474   0.008  12.498   7.648
 9483SOL    HW128475  -0.085  12.519   7.617
 9483SOL    HW228476   0.018  12.399   7.661
 9484SOL     OW28477   1.002  11.968   8.686
 9484SOL    HW128478   1.043  11.936   8.772
 9484SOL    HW228479   0.906  11.941   8.683
 9485SOL     OW28480   0.040  11.716   8.562
 9485SOL    HW128481   0.125  11.683   8.521
 9485SOL    HW228482   0.053  11.731   8.660
 9486SOL     OW28483   0.189  11.692   9.170
 9486SOL    HW128484   0.248  11.652   9.100
 9486SOL    HW228485   0.131  11.763   9.129
 9487SOL     OW28486   1.369  12.122   9.108
 9487SOL    HW128487   1.408  12.211   9.128
 9487SOL    HW228488   1.379  12.102   9.011
 9488SOL     OW28489   0.815  11.744   7.773
 9488SOL    HW128490   0.822  11.655   7.727
 9488SOL    HW228491   0.721  11.778   7.765
 9489SOL     OW28492   1.657  11.776   8.654
 9489SOL    HW128493   1.619  11.707   8.716
 9489SOL    HW228494   1.739  11.740   8.610
 9490SOL     OW28495   0.252  12.736   9.192
 9490SOL    HW128496   0.222  12.793   9.268
 9490SOL    HW228497   0.245  12.639   9.218
 9491SOL     OW28498   0.671  11.636   8.717
 9491SOL    HW128499   0.637  11.547   8.687
 9491SOL    HW228500   0.697  11.690   8.637
 9492SOL     OW28501   0.473  11.672   7.639
 9492SOL    HW128502   0.534  11.752   7.643
 9492SOL    HW228503   0.378  11.703   7.646
 9493SOL     OW28504   0.159  12.309   8.914
 9493SOL    HW128505   0.181  12.248   8.990
 9493SOL    HW228506   0.169  12.260   8.828
 9494SOL     OW28507   1.347  12.231   8.682
 9494SOL    HW128508   1.371  12.168   8.608
 9494SOL    HW228509   1.257  12.271   8.664
 9495SOL     OW28510   1.302  12.027   7.757
 9495SOL    HW128511   1.216  11.996   7.799
 9495SOL    HW228512   1.298  12.013   7.658
 9496SOL     OW28513   0.083  12.430   8.470
 9496SOL    HW128514   0.078  12.429   8.570
 9496SOL    HW228515   0.000  12.389   8.432
 9497SOL     OW28516   1.726  11.307   7.971
 9497SOL    HW128517   1.799  11.290   7.904
 9497SOL    HW228518   1.695  11.220   8.009
 9498SOL     OW28519   1.280  12.099   8.120
 9498SOL    HW128520   1.340  12.018   8.122
 9498SOL    HW228521   1.320  12.168   8.060
 9499SOL     OW28522   0.830  12.445   8.870
 9499SOL    HW128523   0.825  12.478   8.965
 9499SOL    HW228524   0.744  12.464   8.824
 9500SOL     OW28525   1.841  11.347   8.411
 9500SOL    HW128526   1.880  11.262   8.375
 9500SOL    HW228527   1.743  11.349   8.392
 9501SOL     OW28528   0.263  11.498   8.168
 9501SOL    HW128529   0.184  11.549   8.134
 9501SOL    HW228530   0.254  11.483   8.266
 9502SOL     OW28531   0.822  12.174   8.820
 9502SOL    HW128532   0.862  12.173   8.728
 9502SOL    HW228533   0.832  12.266   8.860
 9503SOL     OW28534   0.916  12.082   7.739
 9503SOL    HW128535   0.979  12.120   7.671
 9503SOL    HW228536   0.956  11.999   7.778
 9504SOL     OW28537   0.372  12.460   8.938
 9504SOL    HW128538   0.359  12.553   8.904
 9504SOL    HW228539   0.288  12.408   8.925
 9505SOL     OW28540   1.614  12.464   8.737
 9505SOL    HW128541   1.674  12.467   8.817
 9505SOL    HW228542   1.539  12.528   8.750
 9506SOL     OW28543   1.039  12.270   8.144
 9506SOL    HW128544   0.969  12.223   8.198
 9506SOL    HW228545   1.098  12.202   8.101
 9507SOL     OW28546   1.014  11.408   8.419
 9507SOL    HW128547   1.006  11.372   8.326
 9507SOL    HW228548   1.012  11.332   8.484
 9508SOL     OW28549   1.709  11.557   8.829
 9508SOL    HW128550   1.782  11.626   8.833
 9508SOL    HW228551   1.737  11.482   8.770
 9509SOL     OW28552   0.255  12.520   7.738
 9509SOL    HW128553   0.159  12.521   7.711
 9509SOL    HW228554   0.267  12.573   7.822
 9510SOL     OW28555   0.105  12.185   9.174
 9510SOL    HW128556   0.028  12.152   9.228
 9510SOL    HW228557   0.190  12.155   9.216
 9511SOL     OW28558   0.672  11.375   8.937
 9511SOL    HW128559   0.762  11.359   8.897
 9511SOL    HW228560   0.680  11.380   9.036
 9512SOL     OW28561   0.075  11.517   7.481
 9512SOL    HW128562  -0.017  11.489   7.452
 9512SOL    HW228563   0.106  11.594   7.425
 9513SOL     OW28564   1.440  12.028   8.846
 9513SOL    HW128565   1.383  12.080   8.783
 9513SOL    HW228566   1.536  12.040   8.822
 9514SOL     OW28567   0.072  11.338   7.766
 9514SOL    HW128568   0.055  11.421   7.712
 9514SOL    HW228569   0.162  11.301   7.744
 9515SOL     OW28570   1.183  12.507   7.567
 9515SOL    HW128571   1.084  12.496   7.569
 9515SOL    HW228572   1.217  12.522   7.660
 9516SOL     OW28573   0.613  12.014   8.879
 9516SOL    HW128574   0.669  12.095   8.862
 9516SOL    HW228575   0.672  11.934   8.882
 9517SOL     OW28576   0.716  11.737   9.156
 9517SOL    HW128577   0.735  11.802   9.230
 9517SOL    HW228578   0.776  11.657   9.165
 9518SOL     OW28579   1.450  12.392   9.081
 9518SOL    HW128580   1.441  12.382   9.180
 9518SOL    HW228581   1.546  12.385   9.055
 9519SOL     OW28582   1.674  12.055   8.702
 9519SOL    HW128583   1.647  11.966   8.665
 9519SOL    HW228584   1.675  12.123   8.629
 9520SOL     OW28585   1.225  11.497   7.897
 9520SOL    HW128586   1.290  11.423   7.886
 9520SOL    HW228587   1.245  11.547   7.981
 9521SOL     OW28588   0.594  11.917   8.100
 9521SOL    HW128589   0.644  12.002   8.081
 9521SOL    HW228590   0.506  11.919   8.052
 9522SOL     OW28591   1.777  11.514   9.090
 9522SOL    HW128592   1.760  11.545   8.996
 9522SOL    HW228593   1.693  11.477   9.128
 9523SOL     OW28594   1.730  12.106   8.965
 9523SOL    HW128595   1.768  12.197   8.980
 9523SOL    HW228596   1.722  12.089   8.866
 9524SOL     OW28597   0.859  12.546   7.464
 9524SOL    HW128598   0.813  12.561   7.552
 9524SOL    HW228599   0.903  12.631   7.434
 9525SOL     OW28600   0.859  12.128   8.309
 9525SOL    HW128601   0.913  12.059   8.357
 9525SOL    HW228602   0.827  12.197   8.375
 9526SOL     OW28603   1.083  12.156   7.535
 9526SOL    HW128604   1.060  12.209   7.453
 9526SOL    HW228605   1.164  12.100   7.516
 9527SOL     OW28606   0.221  12.486   9.292
 9527SOL    HW128607   0.156  12.413   9.271
 9527SOL    HW228608   0.225  12.500   9.390
 9528SOL     OW28609   0.079  12.412   8.101
 9528SOL    HW128610   0.078  12.365   8.189
 9528SOL    HW228611   0.161  12.384   8.050
 9529SOL     OW28612   0.672  12.563   9.072
 9529SOL    HW128613   0.594  12.513   9.110
 9529SOL    HW228614   0.669  12.658   9.103
 9530SOL     OW28615   1.824  11.364   8.675
 9530SOL    HW128616   1.820  11.274   8.719
 9530SOL    HW228617   1.827  11.353   8.576
 9531SOL     OW28618   0.428  11.596   7.968
 9531SOL    HW128619   0.458  11.524   7.906
 9531SOL    HW228620   0.389  11.556   8.051
 9532SOL     OW28621   1.705  12.659   8.552
 9532SOL    HW128622   1.612  12.634   8.525
 9532SOL    HW228623   1.731  12.609   8.634
 9533SOL     OW28624   0.317  11.719   8.728
 9533SOL    HW128625   0.355  11.660   8.800
 9533SOL    HW228626   0.357  11.693   8.640
 9534SOL     OW28627   1.424  11.386   8.560
 9534SOL    HW128628   1.476  11.321   8.615
 9534SOL    HW228629   1.375  11.449   8.621
 9535SOL     OW28630   1.001  11.206   8.602
 9535SOL    HW128631   0.938  11.134   8.571
 9535SOL    HW228632   1.094  11.170   8.602
 9536SOL     OW28633   0.770  12.502   7.749
 9536SOL    HW128634   0.724  12.415   7.766
 9536SOL    HW228635   0.861  12.499   7.790
 9537SOL     OW28636   0.618  12.739   8.732
 9537SOL    HW128637   0.613  12.821   8.789
 9537SOL    HW228638   0.707  12.736   8.687
 9538SOL     OW28639   1.352  11.224   7.616
 9538SOL    HW128640   1.387  11.183   7.532
 9538SOL    HW228641   1.262  11.186   7.636
 9539SOL     OW28642   1.300  11.625   8.139
 9539SOL    HW128643   1.241  11.705   8.143
 9539SOL    HW228644   1.315  11.590   8.232
 9540SOL     OW28645   1.593  11.393   8.330
 9540SOL    HW128646   1.509  11.392   8.384
 9540SOL    HW228647   1.595  11.476   8.274
 9541SOL     OW28648   0.039  12.249   7.748
 9541SOL    HW128649   0.138  12.238   7.739
 9541SOL    HW228650  -0.001  12.163   7.780
 9542SOL     OW28651   0.230  11.800   9.423
 9542SOL    HW128652   0.137  11.798   9.460
 9542SOL    HW228653   0.231  11.761   9.331
 9543SOL     OW28654   0.225  11.447  10.306
 9543SOL    HW128655   0.260  11.430  10.398
 9543SOL    HW228656   0.137  11.402  10.294
 9544SOL     OW28657   0.019  11.540   9.957
 9544SOL    HW128658  -0.063  11.583   9.996
 9544SOL    HW228659  -0.009  11.467   9.894
 9545SOL     OW28660   0.569  12.447  10.475
 9545SOL    HW128661   0.476  12.440  10.438
 9545SOL    HW228662   0.580  12.536  10.519
 9546SOL     OW28663   1.555  12.683  10.013
 9546SOL    HW128664   1.498  12.667  10.094
 9546SOL    HW228665   1.496  12.693   9.933
 9547SOL     OW28666   1.135  11.875  10.027
 9547SOL    HW128667   1.192  11.953  10.002
 9547SOL    HW228668   1.075  11.901  10.103
 9548SOL     OW28669   1.755  11.779   9.541
 9548SOL    HW128670   1.743  11.766   9.442
 9548SOL    HW228671   1.725  11.698   9.590
 9549SOL     OW28672   0.768  12.316  10.333
 9549SOL    HW128673   0.690  12.333  10.393
 9549SOL    HW228674   0.802  12.403  10.297
 9550SOL     OW28675   0.850  11.970  11.133
 9550SOL    HW128676   0.846  12.046  11.198
 9550SOL    HW228677   0.872  12.006  11.042
 9551SOL     OW28678   0.685  12.184   9.975
 9551SOL    HW128679   0.754  12.168  10.045
 9551SOL    HW228680   0.612  12.241  10.013
 9552SOL     OW28681   0.686  12.333  11.113
 9552SOL    HW128682   0.746  12.412  11.127
 9552SOL    HW228683   0.600  12.364  11.072
 9553SOL     OW28684   0.335  12.607  10.371
 9553SOL    HW128685   0.257  12.576  10.318
 9553SOL    HW228686   0.393  12.665  10.314
 9554SOL     OW28687   1.460  12.677  10.649
 9554SOL    HW128688   1.484  12.771  10.675
 9554SOL    HW228689   1.444  12.623  10.731
 9555SOL     OW28690   0.438  11.564  10.809
 9555SOL    HW128691   0.520  11.508  10.818
 9555SOL    HW228692   0.357  11.506  10.813
 9556SOL     OW28693   1.603  11.619  10.047
 9556SOL    HW128694   1.529  11.665   9.997
 9556SOL    HW228695   1.654  11.687  10.100
 9557SOL     OW28696   0.231  12.885   9.793
 9557SOL    HW128697   0.265  12.962   9.847
 9557SOL    HW228698   0.275  12.885   9.703
 9558SOL     OW28699   1.127  12.513  11.000
 9558SOL    HW128700   1.174  12.513  11.088
 9558SOL    HW228701   1.079  12.426  10.989
 9559SOL     OW28702   0.230  12.606   9.848
 9559SOL    HW128703   0.204  12.702   9.848
 9559SOL    HW228704   0.159  12.552   9.893
 9560SOL     OW28705   0.240  12.263  10.196
 9560SOL    HW128706   0.254  12.179  10.248
 9560SOL    HW228707   0.185  12.327  10.251
 9561SOL     OW28708   0.606  12.136   9.433
 9561SOL    HW128709   0.613  12.220   9.379
 9561SOL    HW228710   0.652  12.149   9.521
 9562SOL     OW28711   1.594  11.286  10.790
 9562SOL    HW128712   1.576  11.353  10.718
 9562SOL    HW228713   1.591  11.332  10.879
 9563SOL     OW28714   0.122  11.815   9.873
 9563SOL    HW128715   0.077  11.727   9.890
 9563SOL    HW228716   0.121  11.869   9.957
 9564SOL     OW28717   0.027  12.768   9.427
 9564SOL    HW128718   0.008  12.672   9.448
 9564SOL    HW228719  -0.006  12.826   9.502
 9565SOL     OW28720   1.689  12.094   9.922
 9565SOL    HW128721   1.784  12.065   9.930
 9565SOL    HW228722   1.681  12.159   9.847
 9566SOL     OW28723   1.641  12.280   9.742
 9566SOL    HW128724   1.727  12.282   9.690
 9566SOL    HW228725   1.655  12.327   9.830
 9567SOL     OW28726   0.113  11.909  10.907
 9567SOL    HW128727   0.201  11.896  10.952
 9567SOL    HW228728   0.100  12.006  10.885
 9568SOL     OW28729   1.293  12.400  10.733
 9568SOL    HW128730   1.330  12.327  10.675
 9568SOL    HW228731   1.345  12.405  10.818
 9569SOL     OW28732   0.809  11.176   9.812
 9569SOL    HW128733   0.849  11.267   9.803
 9569SOL    HW228734   0.709  11.184   9.818
 9570SOL     OW28735   0.197  12.148  10.574
 9570SOL    HW128736   0.286  12.103  10.560
 9570SOL    HW228737   0.124  12.083  10.555
 9571SOL     OW28738   1.525  12.171   9.500
 9571SOL    HW128739   1.462  12.095   9.513
 9571SOL    HW228740   1.573  12.189   9.586
 9572SOL     OW28741   0.317  11.423  11.111
 9572SOL    HW128742   0.388  11.494  11.117
 9572SOL    HW228743   0.229  11.462  11.139
 9573SOL     OW28744   1.466  12.589  10.263
 9573SOL    HW128745   1.407  12.595  10.343
 9573SOL    HW228746   1.451  12.501  10.217
 9574SOL     OW28747   0.598  11.901   9.580
 9574SOL    HW128748   0.622  11.970   9.512
 9574SOL    HW228749   0.520  11.934   9.634
 9575SOL     OW28750   1.281  11.517  10.254
 9575SOL    HW128751   1.195  11.467  10.241
 9575SOL    HW228752   1.343  11.463  10.310
 9576SOL     OW28753   0.807  11.777  10.775
 9576SOL    HW128754   0.760  11.774  10.864
 9576SOL    HW228755   0.756  11.722  10.709
 9577SOL     OW28756   1.394  11.641  10.984
 9577SOL    HW128757   1.374  11.684  11.072
 9577SOL    HW228758   1.472  11.579  10.993
 9578SOL     OW28759   0.973  12.062  10.882
 9578SOL    HW128760   1.019  11.978  10.853
 9578SOL    HW228761   0.917  12.096  10.807
 9579SOL     OW28762   0.991  11.582  10.552
 9579SOL    HW128763   0.914  11.616  10.606
 9579SOL    HW228764   0.957  11.531  10.473
 9580SOL     OW28765   1.041  11.873   9.739
 9580SOL    HW128766   1.067  11.869   9.835
 9580SOL    HW228767   0.956  11.822   9.725
 9581SOL     OW28768   0.076  11.983  10.099
 9581SOL    HW128769   0.175  11.971  10.108
 9581SOL    HW228770   0.052  12.078  10.120
 9582SOL     OW28771   0.865  11.520   9.505
 9582SOL    HW128772   0.924  11.583   9.456
 9582SOL    HW228773   0.884  11.426   9.476
 9583SOL     OW28774   1.719  11.757  11.141
 9583SOL    HW128775   1.693  11.846  11.105
 9583SOL    HW228776   1.717  11.689  11.068
 9584SOL     OW28777   1.362  12.316   9.855
 9584SOL    HW128778   1.445  12.287   9.807
 9584SOL    HW228779   1.313  12.383   9.799
 9585SOL     OW28780   0.550  11.368  10.195
 9585SOL    HW128781   0.545  11.363  10.295
 9585SOL    HW228782   0.552  11.464  10.166
 9586SOL     OW28783   1.008  12.628   9.787
 9586SOL    HW128784   0.962  12.700   9.735
 9586SOL    HW228785   1.004  12.648   9.885
 9587SOL     OW28786   1.795  12.238  10.183
 9587SOL    HW128787   1.733  12.223  10.107
 9587SOL    HW228788   1.743  12.249  10.268
 9588SOL     OW28789   1.227  12.722  10.816
 9588SOL    HW128790   1.233  12.645  10.880
 9588SOL    HW228791   1.175  12.696  10.736
 9589SOL     OW28792   0.321  12.115   9.552
 9589SOL    HW128793   0.403  12.154   9.510
 9589SOL    HW228794   0.294  12.033   9.503
 9590SOL     OW28795   1.458  11.907  10.038
 9590SOL    HW128796   1.453  11.842  10.113
 9590SOL    HW228797   1.538  11.966  10.051
 9591SOL     OW28798   0.461  12.438  11.037
 9591SOL    HW128799   0.411  12.439  10.951
 9591SOL    HW228800   0.398  12.420  11.113
 9592SOL     OW28801   1.111  12.948   9.547
 9592SOL    HW128802   1.051  12.886   9.597
 9592SOL    HW228803   1.142  12.904   9.462
 9593SOL     OW28804   0.202  11.457  10.808
 9593SOL    HW128805   0.122  11.517  10.795
 9593SOL    HW228806   0.192  11.408  10.894
 9594SOL     OW28807   1.632  12.549   9.391
 9594SOL    HW128808   1.600  12.643   9.381
 9594SOL    HW228809   1.556  12.486   9.379
 9595SOL     OW28810   1.400  11.279   9.736
 9595SOL    HW128811   1.376  11.242   9.646
 9595SOL    HW228812   1.499  11.295   9.740
 9596SOL     OW28813   0.382  11.872   9.790
 9596SOL    HW128814   0.427  11.782   9.787
 9596SOL    HW228815   0.288  11.861   9.823
 9597SOL     OW28816   1.547  11.394  11.039
 9597SOL    HW128817   1.542  11.431  11.131
 9597SOL    HW228818   1.475  11.325  11.027
 9598SOL     OW28819   0.614  11.294   9.427
 9598SOL    HW128820   0.712  11.272   9.434
 9598SOL    HW228821   0.583  11.277   9.334
 9599SOL     OW28822   0.781  11.436  11.059
 9599SOL    HW128823   0.848  11.375  11.102
 9599SOL    HW228824   0.708  11.455  11.124
 9600SOL     OW28825   1.351  11.762  10.743
 9600SOL    HW128826   1.379  11.719  10.828
 9600SOL    HW228827   1.376  11.858  10.744
 9601SOL     OW28828   0.803  12.574  10.234
 9601SOL    HW128829   0.893  12.588  10.192
 9601SOL    HW228830   0.732  12.576  10.163
 9602SOL     OW28831   0.922  11.675  10.209
 9602SOL    HW128832   0.897  11.666  10.113
 9602SOL    HW228833   0.970  11.593  10.240
 9603SOL     OW28834   0.539  11.236   9.822
 9603SOL    HW128835   0.458  11.237   9.880
 9603SOL    HW228836   0.542  11.319   9.767
 9604SOL     OW28837   1.434  12.360   9.351
 9604SOL    HW128838   1.466  12.284   9.408
 9604SOL    HW228839   1.342  12.387   9.381
 9605SOL     OW28840   0.935  11.408   9.790
 9605SOL    HW128841   0.887  11.449   9.712
 9605SOL    HW228842   1.034  11.406   9.771
 9606SOL     OW28843   1.076  11.855  10.774
 9606SOL    HW128844   0.996  11.794  10.777
 9606SOL    HW228845   1.157  11.802  10.750
 9607SOL     OW28846   1.227  12.742  10.103
 9607SOL    HW128847   1.248  12.816  10.038
 9607SOL    HW228848   1.295  12.742  10.176
 9608SOL     OW28849   0.459  12.324  10.051
 9608SOL    HW128850   0.388  12.297  10.116
 9608SOL    HW228851   0.433  12.296   9.958
 9609SOL     OW28852   1.032  11.721   9.326
 9609SOL    HW128853   0.991  11.803   9.287
 9609SOL    HW228854   1.096  11.747   9.399
 9610SOL     OW28855   0.078  11.728  10.696
 9610SOL    HW128856   0.170  11.727  10.655
 9610SOL    HW228857   0.072  11.802  10.763
 9611SOL     OW28858   0.561  11.394  10.457
 9611SOL    HW128859   0.599  11.310  10.494
 9611SOL    HW228860   0.473  11.413  10.501
 9612SOL     OW28861   0.866  11.626   9.952
 9612SOL    HW128862   0.834  11.698   9.890
 9612SOL    HW228863   0.890  11.545   9.899
 9613SOL     OW28864   1.017  11.211  10.063
 9613SOL    HW128865   0.945  11.216   9.994
 9613SOL    HW228866   0.993  11.142  10.132
 9614SOL     OW28867   1.429  12.345  10.177
 9614SOL    HW128868   1.374  12.261  10.170
 9614SOL    HW228869   1.455  12.374  10.085
 9615SOL     OW28870   1.466  11.762  10.302
 9615SOL    HW128871   1.436  11.667  10.309
 9615SOL    HW228872   1.539  11.778  10.368
 9616SOL     OW28873   1.857  12.005   9.687
 9616SOL    HW128874   1.899  11.941   9.751
 9616SOL    HW228875   1.819  11.954   9.609
 9617SOL     OW28876   0.488  12.557   9.484
 9617SOL    HW128877   0.401  12.542   9.531
 9617SOL    HW228878   0.471  12.583   9.389
 9618SOL     OW28879   1.664  12.452   9.967
 9618SOL    HW128880   1.763  12.460   9.981
 9618SOL    HW228881   1.619  12.536   9.998
 9619SOL     OW28882   1.390  11.747   9.388
 9619SOL    HW128883   1.336  11.726   9.469
 9619SOL    HW228884   1.481  11.706   9.397
 9620SOL     OW28885   0.527  11.428   9.638
 9620SOL    HW128886   0.554  11.369   9.563
 9620SOL    HW228887   0.527  11.523   9.607
 9621SOL     OW28888   1.754  12.395  10.898
 9621SOL    HW128889   1.845  12.356  10.885
 9621SOL    HW228890   1.762  12.491  10.922
 9622SOL     OW28891   1.064  12.519  10.650
 9622SOL    HW128892   0.984  12.496  10.705
 9622SOL    HW228893   1.147  12.493  10.699
 9623SOL     OW28894   1.111  12.367  10.410
 9623SOL    HW128895   1.071  12.411  10.491
 9623SOL    HW228896   1.070  12.404  10.327
 9624SOL     OW28897   1.638  12.271  10.389
 9624SOL    HW128898   1.643  12.352  10.448
 9624SOL    HW228899   1.552  12.273  10.338
 9625SOL     OW28900   0.915  11.261  10.712
 9625SOL    HW128901   0.940  11.241  10.617
 9625SOL    HW228902   0.987  11.317  10.754
 9626SOL     OW28903   0.980  12.288  11.029
 9626SOL    HW128904   0.881  12.294  11.039
 9626SOL    HW228905   1.003  12.208  10.973
 9627SOL     OW28906   0.705  12.222   9.678
 9627SOL    HW128907   0.691  12.229   9.777
 9627SOL    HW228908   0.789  12.171   9.660
 9628SOL     OW28909   0.410  11.985  10.561
 9628SOL    HW128910   0.496  11.997  10.611
 9628SOL    HW228911   0.368  11.898  10.588
 9629SOL     OW28912   1.274  11.558  10.572
 9629SOL    HW128913   1.295  11.632  10.636
 9629SOL    HW228914   1.185  11.575  10.529
 9630SOL     OW28915   0.064  12.736  10.641
 9630SOL    HW128916   0.018  12.818  10.607
 9630SOL    HW228917   0.162  12.755  10.650
 9631SOL     OW28918   0.367  12.272   9.811
 9631SOL    HW128919   0.360  12.355   9.755
 9631SOL    HW228920   0.371  12.192   9.751
 9632SOL     OW28921   0.566  11.709  10.175
 9632SOL    HW128922   0.578  11.775  10.101
 9632SOL    HW228923   0.612  11.743  10.258
 9633SOL     OW28924   1.252  12.520   9.698
 9633SOL    HW128925   1.302  12.597   9.738
 9633SOL    HW228926   1.157  12.522   9.730
 9634SOL     OW28927   1.272  12.617  10.452
 9634SOL    HW128928   1.319  12.630  10.539
 9634SOL    HW228929   1.206  12.543  10.461
 9635SOL     OW28930   1.582  11.811   9.782
 9635SOL    HW128931   1.551  11.872   9.855
 9635SOL    HW228932   1.632  11.863   9.713
 9636SOL     OW28933   0.354  12.682  10.639
 9636SOL    HW128934   0.333  12.638  10.552
 9636SOL    HW228935   0.451  12.708  10.642
 9637SOL     OW28936   0.402  11.923  10.908
 9637SOL    HW128937   0.470  11.978  10.861
 9637SOL    HW228938   0.442  11.835  10.935
 9638SOL     OW28939   1.587  11.951  10.980
 9638SOL    HW128940   1.495  11.989  10.975
 9638SOL    HW228941   1.647  11.998  10.915
 9639SOL     OW28942   1.013  11.277  11.080
 9639SOL    HW128943   1.019  11.362  11.028
 9639SOL    HW228944   1.045  11.201  11.023
 9640SOL     OW28945   0.504  11.222  11.050
 9640SOL    HW128946   0.462  11.165  10.980
 9640SOL    HW228947   0.438  11.291  11.082
 9641SOL     OW28948   0.573  12.042  10.339
 9641SOL    HW128949   0.617  12.131  10.330
 9641SOL    HW228950   0.510  12.042  10.416
 9642SOL     OW28951   1.360  12.034  10.355
 9642SOL    HW128952   1.285  12.034  10.289
 9642SOL    HW228953   1.397  11.942  10.364
 9643SOL     OW28954   1.209  11.697   9.585
 9643SOL    HW128955   1.222  11.613   9.639
 9643SOL    HW228956   1.180  11.771   9.645
 9644SOL     OW28957   0.307  11.385  10.541
 9644SOL    HW128958   0.284  11.422  10.631
 9644SOL    HW228959   0.277  11.290  10.535
 9645SOL     OW28960   0.037  12.482  10.592
 9645SOL    HW128961   0.090  12.433  10.660
 9645SOL    HW228962   0.059  12.580  10.597
 9646SOL     OW28963   0.732  11.806  10.374
 9646SOL    HW128964   0.791  11.780  10.298
 9646SOL    HW228965   0.704  11.902  10.363
 9647SOL     OW28966   1.728  12.107  11.164
 9647SOL    HW128967   1.682  12.100  11.075
 9647SOL    HW228968   1.666  12.151  11.230
 9648SOL     OW28969   0.307  11.235   9.928
 9648SOL    HW128970   0.296  11.329   9.961
 9648SOL    HW228971   0.302  11.172  10.005
 9649SOL     OW28972   1.622  11.539   9.684
 9649SOL    HW128973   1.624  11.463   9.748
 9649SOL    HW228974   1.574  11.616   9.724
 9650SOL     OW28975   1.023  11.938  10.276
 9650SOL    HW128976   1.038  11.959  10.372
 9650SOL    HW228977   0.993  11.843  10.267
 9651SOL     OW28978   1.859  12.690  10.915
 9651SOL    HW128979   1.873  12.717  10.820
 9651SOL    HW228980   1.942  12.712  10.968
 9652SOL     OW28981   0.350  12.070  11.114
 9652SOL    HW128982   0.426  12.114  11.162
 9652SOL    HW228983   0.385  12.023  11.032
 9653SOL     OW28984   1.540  11.446   9.435
 9653SOL    HW128985   1.479  11.371   9.458
 9653SOL    HW228986   1.562  11.498   9.518
 9654SOL     OW28987   1.303  12.010   9.352
 9654SOL    HW128988   1.337  11.917   9.367
 9654SOL    HW228989   1.321  12.037   9.257
 9655SOL     OW28990   1.068  12.505  10.159
 9655SOL    HW128991   1.075  12.421  10.104
 9655SOL    HW228992   1.130  12.574  10.123
 9656SOL     OW28993   0.319  11.982  10.259
 9656SOL    HW128994   0.412  12.018  10.264
 9656SOL    HW228995   0.313  11.897  10.311
 9657SOL     OW28996   0.339  11.681  10.316
 9657SOL    HW128997   0.287  11.598  10.299
 9657SOL    HW228998   0.416  11.686  10.252
 9658SOL     OW28999   1.138  11.552  10.988
 9658SOL    HW129000   1.093  11.615  11.052
 9658SOL    HW229001   1.231  11.583  10.971
 9659SOL     OW29002   1.160  11.379  10.787
 9659SOL    HW129003   1.160  11.443  10.864
 9659SOL    HW229004   1.188  11.427  10.704
 9660SOL     OW29005   0.008  12.498   9.510
 9660SOL    HW129006  -0.085  12.519   9.479
 9660SOL    HW229007   0.018  12.399   9.523
 9661SOL     OW29008   1.002  11.968  10.548
 9661SOL    HW129009   1.043  11.936  10.634
 9661SOL    HW229010   0.906  11.941  10.545
 9662SOL     OW29011   0.040  11.716  10.424
 9662SOL    HW129012   0.125  11.683  10.383
 9662SOL    HW229013   0.053  11.731  10.522
 9663SOL     OW29014   0.189  11.692  11.032
 9663SOL    HW129015   0.248  11.652  10.962
 9663SOL    HW229016   0.131  11.763  10.991
 9664SOL     OW29017   1.369  12.122  10.970
 9664SOL    HW129018   1.408  12.211  10.990
 9664SOL    HW229019   1.379  12.102  10.873
 9665SOL     OW29020   0.815  11.744   9.635
 9665SOL    HW129021   0.822  11.655   9.589
 9665SOL    HW229022   0.721  11.778   9.627
 9666SOL     OW29023   1.657  11.776  10.516
 9666SOL    HW129024   1.619  11.707  10.578
 9666SOL    HW229025   1.739  11.740  10.472
 9667SOL     OW29026   0.252  12.736  11.054
 9667SOL    HW129027   0.222  12.793  11.130
 9667SOL    HW229028   0.245  12.639  11.080
 9668SOL     OW29029   0.671  11.636  10.579
 9668SOL    HW129030   0.637  11.547  10.549
 9668SOL    HW229031   0.697  11.690  10.499
 9669SOL     OW29032   0.473  11.672   9.501
 9669SOL    HW129033   0.534  11.752   9.505
 9669SOL    HW229034   0.378  11.703   9.508
 9670SOL     OW29035   0.159  12.309  10.776
 9670SOL    HW129036   0.181  12.248  10.852
 9670SOL    HW229037   0.169  12.260  10.690
 9671SOL     OW29038   1.347  12.231  10.544
 9671SOL    HW129039   1.371  12.168  10.470
 9671SOL    HW229040   1.257  12.271  10.526
 9672SOL     OW29041   1.302  12.027   9.619
 9672SOL    HW129042   1.216  11.996   9.661
 9672SOL    HW229043   1.298  12.013   9.520
 9673SOL     OW29044   0.083  12.430  10.332
 9673SOL    HW129045   0.078  12.429  10.432
 9673SOL    HW229046   0.000  12.389  10.294
 9674SOL     OW29047   1.726  11.307   9.833
 9674SOL    HW129048   1.799  11.290   9.766
 9674SOL    HW229049   1.695  11.220   9.871
 9675SOL     OW29050   1.280  12.099   9.982
 9675SOL    HW129051   1.340  12.018   9.984
 9675SOL    HW229052   1.320  12.168   9.922
 9676SOL     OW29053   0.830  12.445  10.732
 9676SOL    HW129054   0.825  12.478  10.827
 9676SOL    HW229055   0.744  12.464  10.686
 9677SOL     OW29056   1.841  11.347  10.273
 9677SOL    HW129057   1.880  11.262  10.237
 9677SOL    HW229058   1.743  11.349  10.254
 9678SOL     OW29059   0.263  11.498  10.030
 9678SOL    HW129060   0.184  11.549   9.996
 9678SOL    HW229061   0.254  11.483  10.128
 9679SOL     OW29062   0.822  12.174  10.682
 9679SOL    HW129063   0.862  12.173  10.590
 9679SOL    HW229064   0.832  12.266  10.722
 9680SOL     OW29065   0.916  12.082   9.601
 9680SOL    HW129066   0.979  12.120   9.533
 9680SOL    HW229067   0.956  11.999   9.640
 9681SOL     OW29068   0.372  12.460  10.800
 9681SOL    HW129069   0.359  12.553  10.766
 9681SOL    HW229070   0.288  12.408  10.787
 9682SOL     OW29071   1.614  12.464  10.599
 9682SOL    HW129072   1.674  12.467  10.679
 9682SOL    HW229073   1.539  12.528  10.612
 9683SOL     OW29074   1.039  12.270  10.006
 9683SOL    HW129075   0.969  12.223  10.060
 9683SOL    HW229076   1.098  12.202   9.963
 9684SOL     OW29077   1.014  11.408  10.281
 9684SOL    HW129078   1.006  11.372  10.188
 9684SOL    HW229079   1.012  11.332  10.346
 9685SOL     OW29080   1.709  11.557  10.691
 9685SOL    HW129081   1.782  11.626  10.695
 9685SOL    HW229082   1.737  11.482  10.632
 9686SOL     OW29083   0.255  12.520   9.600
 9686SOL    HW129084   0.159  12.521   9.573
 9686SOL    HW229085   0.267  12.573   9.684
 9687SOL     OW29086   0.105  12.185  11.036
 9687SOL    HW129087   0.028  12.152  11.090
 9687SOL    HW229088   0.190  12.155  11.078
 9688SOL     OW29089   0.672  11.375  10.799
 9688SOL    HW129090   0.762  11.359  10.759
 9688SOL    HW229091   0.680  11.380  10.898
 9689SOL     OW29092   0.075  11.517   9.343
 9689SOL    HW129093  -0.017  11.489   9.314
 9689SOL    HW229094   0.106  11.594   9.287
 9690SOL     OW29095   1.440  12.028  10.708
 9690SOL    HW129096   1.383  12.080  10.645
 9690SOL    HW229097   1.536  12.040  10.684
 9691SOL     OW29098   0.072  11.338   9.628
 9691SOL    HW129099   0.055  11.421   9.574
 9691SOL    HW229100   0.162  11.301   9.606
 9692SOL     OW29101   1.183  12.507   9.429
 9692SOL    HW129102   1.084  12.496   9.431
 9692SOL    HW229103   1.217  12.522   9.522
 9693SOL     OW29104   0.613  12.014  10.741
 9693SOL    HW129105   0.669  12.095  10.724
 9693SOL    HW229106   0.672  11.934  10.744
 9694SOL     OW29107   0.716  11.737  11.018
 9694SOL    HW129108   0.735  11.802  11.092
 9694SOL    HW229109   0.776  11.657  11.027
 9695SOL     OW29110   1.450  12.392  10.943
 9695SOL    HW129111   1.441  12.382  11.042
 9695SOL    HW229112   1.546  12.385  10.917
 9696SOL     OW29113   1.674  12.055  10.564
 9696SOL    HW129114   1.647  11.966  10.527
 9696SOL    HW229115   1.675  12.123  10.491
 9697SOL     OW29116   1.225  11.497   9.759
 9697SOL    HW129117   1.290  11.423   9.748
 9697SOL    HW229118   1.245  11.547   9.843
 9698SOL     OW29119   0.594  11.917   9.962
 9698SOL    HW129120   0.644  12.002   9.943
 9698SOL    HW229121   0.506  11.919   9.914
 9699SOL     OW29122   1.777  11.514  10.952
 9699SOL    HW129123   1.760  11.545  10.858
 9699SOL    HW229124   1.693  11.477  10.990
 9700SOL     OW29125   1.730  12.106  10.827
 9700SOL    HW129126   1.768  12.197  10.842
 9700SOL    HW229127   1.722  12.089  10.728
 9701SOL     OW29128   0.859  12.546   9.326
 9701SOL    HW129129   0.813  12.561   9.414
 9701SOL    HW229130   0.903  12.631   9.296
 9702SOL     OW29131   0.859  12.128  10.171
 9702SOL    HW129132   0.913  12.059  10.219
 9702SOL    HW229133   0.827  12.197  10.237
 9703SOL     OW29134   1.083  12.156   9.397
 9703SOL    HW129135   1.060  12.209   9.315
 9703SOL    HW229136   1.164  12.100   9.378
 9704SOL     OW29137   0.221  12.486  11.154
 9704SOL    HW129138   0.156  12.413  11.133
 9704SOL    HW229139   0.225  12.500  11.252
 9705SOL     OW29140   0.079  12.412   9.963
 9705SOL    HW129141   0.078  12.365  10.051
 9705SOL    HW229142   0.161  12.384   9.912
 9706SOL     OW29143   0.672  12.563  10.934
 9706SOL    HW129144   0.594  12.513  10.972
 9706SOL    HW229145   0.669  12.658  10.965
 9707SOL     OW29146   1.824  11.364  10.537
 9707SOL    HW129147   1.820  11.274  10.581
 9707SOL    HW229148   1.827  11.353  10.438
 9708SOL     OW29149   0.428  11.596   9.830
 9708SOL    HW129150   0.458  11.524   9.768
 9708SOL    HW229151   0.389  11.556   9.913
 9709SOL     OW29152   1.705  12.659  10.414
 9709SOL    HW129153   1.612  12.634  10.387
 9709SOL    HW229154   1.731  12.609  10.496
 9710SOL     OW29155   0.317  11.719  10.590
 9710SOL    HW129156   0.355  11.660  10.662
 9710SOL    HW229157   0.357  11.693  10.502
 9711SOL     OW29158   1.424  11.386  10.422
 9711SOL    HW129159   1.476  11.321  10.477
 9711SOL    HW229160   1.375  11.449  10.483
 9712SOL     OW29161   1.001  11.206  10.464
 9712SOL    HW129162   0.938  11.134  10.433
 9712SOL    HW229163   1.094  11.170  10.464
 9713SOL     OW29164   0.770  12.502   9.611
 9713SOL    HW129165   0.724  12.415   9.628
 9713SOL    HW229166   0.861  12.499   9.652
 9714SOL     OW29167   0.618  12.739  10.594
 9714SOL    HW129168   0.613  12.821  10.651
 9714SOL    HW229169   0.707  12.736  10.549
 9715SOL     OW29170   1.352  11.224   9.478
 9715SOL    HW129171   1.387  11.183   9.394
 9715SOL    HW229172   1.262  11.186   9.498
 9716SOL     OW29173   1.300  11.625  10.001
 9716SOL    HW129174   1.241  11.705  10.005
 9716SOL    HW229175   1.315  11.590  10.094
 9717SOL     OW29176   1.593  11.393  10.192
 9717SOL    HW129177   1.509  11.392  10.246
 9717SOL    HW229178   1.595  11.476  10.136
 9718SOL     OW29179   0.039  12.249   9.610
 9718SOL    HW129180   0.138  12.238   9.601
 9718SOL    HW229181  -0.001  12.163   9.642
 9719SOL     OW29182   0.230  11.800  11.285
 9719SOL    HW129183   0.137  11.798  11.322
 9719SOL    HW229184   0.231  11.761  11.193
 9720SOL     OW29185   0.225  11.447  12.168
 9720SOL    HW129186   0.260  11.430  12.260
 9720SOL    HW229187   0.137  11.402  12.156
 9721SOL     OW29188   0.019  11.540  11.819
 9721SOL    HW129189  -0.063  11.583  11.858
 9721SOL    HW229190  -0.009  11.467  11.756
 9722SOL     OW29191   0.569  12.447  12.337
 9722SOL    HW129192   0.476  12.440  12.300
 9722SOL    HW229193   0.580  12.536  12.381
 9723SOL     OW29194   1.555  12.683  11.875
 9723SOL    HW129195   1.498  12.667  11.956
 9723SOL    HW229196   1.496  12.693  11.795
 9724SOL     OW29197   1.135  11.875  11.889
 9724SOL    HW129198   1.192  11.953  11.864
 9724SOL    HW229199   1.075  11.901  11.965
 9725SOL     OW29200   1.755  11.779  11.403
 9725SOL    HW129201   1.743  11.766  11.304
 9725SOL    HW229202   1.725  11.698  11.452
 9726SOL     OW29203   0.768  12.316  12.195
 9726SOL    HW129204   0.690  12.333  12.255
 9726SOL    HW229205   0.802  12.403  12.159
 9727SOL     OW29206   0.685  12.184  11.837
 9727SOL    HW129207   0.754  12.168  11.907
 9727SOL    HW229208   0.612  12.241  11.875
 9728SOL     OW29209   0.335  12.607  12.233
 9728SOL    HW129210   0.257  12.576  12.180
 9728SOL    HW229211   0.393  12.665  12.176
 9729SOL     OW29212   1.460  12.677  12.511
 9729SOL    HW129213   1.484  12.771  12.537
 9729SOL    HW229214   1.444  12.623  12.593
 9730SOL     OW29215   0.438  11.564  12.671
 9730SOL    HW129216   0.520  11.508  12.680
 9730SOL    HW229217   0.357  11.506  12.675
 9731SOL     OW29218   1.603  11.619  11.909
 9731SOL    HW129219   1.529  11.665  11.859
 9731SOL    HW229220   1.654  11.687  11.962
 9732SOL     OW29221   0.231  12.885  11.655
 9732SOL    HW129222   0.265  12.962  11.709
 9732SOL    HW229223   0.275  12.885  11.565
 9733SOL     OW29224   0.230  12.606  11.710
 9733SOL    HW129225   0.204  12.702  11.710
 9733SOL    HW229226   0.159  12.552  11.755
 9734SOL     OW29227   0.240  12.263  12.058
 9734SOL    HW129228   0.254  12.179  12.110
 9734SOL    HW229229   0.185  12.327  12.113
 9735SOL     OW29230   0.606  12.136  11.295
 9735SOL    HW129231   0.613  12.220  11.241
 9735SOL    HW229232   0.652  12.149  11.383
 9736SOL     OW29233   1.594  11.286  12.652
 9736SOL    HW129234   1.576  11.353  12.580
 9736SOL    HW229235   1.591  11.332  12.741
 9737SOL     OW29236   0.122  11.815  11.735
 9737SOL    HW129237   0.077  11.727  11.752
 9737SOL    HW229238   0.121  11.869  11.819
 9738SOL     OW29239   0.027  12.768  11.289
 9738SOL    HW129240   0.008  12.672  11.310
 9738SOL    HW229241  -0.006  12.826  11.364
 9739SOL     OW29242   1.689  12.094  11.784
 9739SOL    HW129243   1.784  12.065  11.792
 9739SOL    HW229244   1.681  12.159  11.709
 9740SOL     OW29245   1.641  12.280  11.604
 9740SOL    HW129246   1.727  12.282  11.552
 9740SOL    HW229247   1.655  12.327  11.692
 9741SOL     OW29248   0.613  12.537  11.898
 9741SOL    HW129249   0.564  12.450  11.907
 9741SOL    HW229250   0.590  12.580  11.811
 9742SOL     OW29251   0.809  11.176  11.674
 9742SOL    HW129252   0.849  11.267  11.665
 9742SOL    HW229253   0.709  11.184  11.680
 9743SOL     OW29254   0.197  12.148  12.436
 9743SOL    HW129255   0.286  12.103  12.422
 9743SOL    HW229256   0.124  12.083  12.417
 9744SOL     OW29257   1.525  12.171  11.362
 9744SOL    HW129258   1.462  12.095  11.375
 9744SOL    HW229259   1.573  12.189  11.448
 9745SOL     OW29260   0.317  11.423  12.973
 9745SOL    HW129261   0.388  11.494  12.979
 9745SOL    HW229262   0.229  11.462  13.001
 9746SOL     OW29263   1.466  12.589  12.125
 9746SOL    HW129264   1.407  12.595  12.205
 9746SOL    HW229265   1.451  12.501  12.079
 9747SOL     OW29266   0.598  11.901  11.442
 9747SOL    HW129267   0.622  11.970  11.374
 9747SOL    HW229268   0.520  11.934  11.496
 9748SOL     OW29269   1.281  11.517  12.116
 9748SOL    HW129270   1.195  11.467  12.103
 9748SOL    HW229271   1.343  11.463  12.172
 9749SOL     OW29272   0.807  11.777  12.637
 9749SOL    HW129273   0.760  11.774  12.726
 9749SOL    HW229274   0.756  11.722  12.571
 9750SOL     OW29275   0.991  11.582  12.414
 9750SOL    HW129276   0.914  11.616  12.468
 9750SOL    HW229277   0.957  11.531  12.335
 9751SOL     OW29278   1.041  11.873  11.601
 9751SOL    HW129279   1.067  11.869  11.697
 9751SOL    HW229280   0.956  11.822  11.587
 9752SOL     OW29281   0.076  11.983  11.961
 9752SOL    HW129282   0.175  11.971  11.970
 9752SOL    HW229283   0.052  12.078  11.982
 9753SOL     OW29284   0.865  11.520  11.367
 9753SOL    HW129285   0.924  11.583  11.318
 9753SOL    HW229286   0.884  11.426  11.338
 9754SOL     OW29287   1.362  12.316  11.717
 9754SOL    HW129288   1.445  12.287  11.669
 9754SOL    HW229289   1.313  12.383  11.661
 9755SOL     OW29290   0.550  11.368  12.057
 9755SOL    HW129291   0.545  11.363  12.157
 9755SOL    HW229292   0.552  11.464  12.028
 9756SOL     OW29293   1.008  12.628  11.649
 9756SOL    HW129294   0.962  12.700  11.597
 9756SOL    HW229295   1.004  12.648  11.747
 9757SOL     OW29296   1.795  12.238  12.045
 9757SOL    HW129297   1.733  12.223  11.969
 9757SOL    HW229298   1.743  12.249  12.130
 9758SOL     OW29299   0.321  12.115  11.414
 9758SOL    HW129300   0.403  12.154  11.372
 9758SOL    HW229301   0.294  12.033  11.365
 9759SOL     OW29302   1.458  11.907  11.900
 9759SOL    HW129303   1.453  11.842  11.975
 9759SOL    HW229304   1.538  11.966  11.913
 9760SOL     OW29305   1.111  12.948  11.409
 9760SOL    HW129306   1.051  12.886  11.459
 9760SOL    HW229307   1.142  12.904  11.324
 9761SOL     OW29308   1.632  12.549  11.253
 9761SOL    HW129309   1.600  12.643  11.243
 9761SOL    HW229310   1.556  12.486  11.241
 9762SOL     OW29311   1.400  11.279  11.598
 9762SOL    HW129312   1.376  11.242  11.508
 9762SOL    HW229313   1.499  11.295  11.602
 9763SOL     OW29314   0.382  11.872  11.652
 9763SOL    HW129315   0.427  11.782  11.649
 9763SOL    HW229316   0.288  11.861  11.685
 9764SOL     OW29317   0.614  11.294  11.289
 9764SOL    HW129318   0.712  11.272  11.296
 9764SOL    HW229319   0.583  11.277  11.196
 9765SOL     OW29320   0.803  12.574  12.096
 9765SOL    HW129321   0.893  12.588  12.054
 9765SOL    HW229322   0.732  12.576  12.025
 9766SOL     OW29323   0.922  11.675  12.071
 9766SOL    HW129324   0.897  11.666  11.975
 9766SOL    HW229325   0.970  11.593  12.102
 9767SOL     OW29326   0.539  11.236  11.684
 9767SOL    HW129327   0.458  11.237  11.742
 9767SOL    HW229328   0.542  11.319  11.629
 9768SOL     OW29329   1.434  12.360  11.213
 9768SOL    HW129330   1.466  12.284  11.270
 9768SOL    HW229331   1.342  12.387  11.243
 9769SOL     OW29332   0.297  11.207  11.343
 9769SOL    HW129333   0.346  11.291  11.322
 9769SOL    HW229334   0.359  11.142  11.388
 9770SOL     OW29335   0.935  11.408  11.652
 9770SOL    HW129336   0.887  11.449  11.574
 9770SOL    HW229337   1.034  11.406  11.633
 9771SOL     OW29338   1.227  12.742  11.965
 9771SOL    HW129339   1.248  12.816  11.900
 9771SOL    HW229340   1.295  12.742  12.038
 9772SOL     OW29341   0.459  12.324  11.913
 9772SOL    HW129342   0.388  12.297  11.978
 9772SOL    HW229343   0.433  12.296  11.820
 9773SOL     OW29344   1.032  11.721  11.188
 9773SOL    HW129345   0.991  11.803  11.149
 9773SOL    HW229346   1.096  11.747  11.261
 9774SOL     OW29347   0.078  11.728  12.558
 9774SOL    HW129348   0.170  11.727  12.517
 9774SOL    HW229349   0.072  11.802  12.625
 9775SOL     OW29350   0.561  11.394  12.319
 9775SOL    HW129351   0.599  11.310  12.356
 9775SOL    HW229352   0.473  11.413  12.363
 9776SOL     OW29353   0.866  11.626  11.814
 9776SOL    HW129354   0.834  11.698  11.752
 9776SOL    HW229355   0.890  11.545  11.761
 9777SOL     OW29356   1.017  11.211  11.925
 9777SOL    HW129357   0.945  11.216  11.856
 9777SOL    HW229358   0.993  11.142  11.994
 9778SOL     OW29359   1.429  12.345  12.039
 9778SOL    HW129360   1.374  12.261  12.032
 9778SOL    HW229361   1.455  12.374  11.947
 9779SOL     OW29362   1.466  11.762  12.164
 9779SOL    HW129363   1.436  11.667  12.171
 9779SOL    HW229364   1.539  11.778  12.230
 9780SOL     OW29365   1.857  12.005  11.549
 9780SOL    HW129366   1.899  11.941  11.613
 9780SOL    HW229367   1.819  11.954  11.471
 9781SOL     OW29368   0.488  12.557  11.346
 9781SOL    HW129369   0.401  12.542  11.393
 9781SOL    HW229370   0.471  12.583  11.251
 9782SOL     OW29371   1.664  12.452  11.829
 9782SOL    HW129372   1.763  12.460  11.843
 9782SOL    HW229373   1.619  12.536  11.860
 9783SOL     OW29374   1.390  11.747  11.250
 9783SOL    HW129375   1.336  11.726  11.331
 9783SOL    HW229376   1.481  11.706  11.259
 9784SOL     OW29377   0.527  11.428  11.500
 9784SOL    HW129378   0.554  11.369  11.425
 9784SOL    HW229379   0.527  11.523  11.469
 9785SOL     OW29380   1.064  12.519  12.512
 9785SOL    HW129381   0.984  12.496  12.567
 9785SOL    HW229382   1.147  12.493  12.561
 9786SOL     OW29383   1.111  12.367  12.272
 9786SOL    HW129384   1.071  12.411  12.353
 9786SOL    HW229385   1.070  12.404  12.189
 9787SOL     OW29386   1.638  12.271  12.251
 9787SOL    HW129387   1.643  12.352  12.310
 9787SOL    HW229388   1.552  12.273  12.200
 9788SOL     OW29389   0.915  11.261  12.574
 9788SOL    HW129390   0.940  11.241  12.479
 9788SOL    HW229391   0.987  11.317  12.616
 9789SOL     OW29392   0.705  12.222  11.540
 9789SOL    HW129393   0.691  12.229  11.639
 9789SOL    HW229394   0.789  12.171  11.522
 9790SOL     OW29395   0.410  11.985  12.423
 9790SOL    HW129396   0.496  11.997  12.473
 9790SOL    HW229397   0.368  11.898  12.450
 9791SOL     OW29398   1.274  11.558  12.434
 9791SOL    HW129399   1.295  11.632  12.498
 9791SOL    HW229400   1.185  11.575  12.391
 9792SOL     OW29401   0.064  12.736  12.503
 9792SOL    HW129402   0.018  12.818  12.469
 9792SOL    HW229403   0.162  12.755  12.512
 9793SOL     OW29404   0.367  12.272  11.673
 9793SOL    HW129405   0.360  12.355  11.617
 9793SOL    HW229406   0.371  12.192  11.613
 9794SOL     OW29407   0.566  11.709  12.037
 9794SOL    HW129408   0.578  11.775  11.963
 9794SOL    HW229409   0.612  11.743  12.120
 9795SOL     OW29410   1.252  12.520  11.560
 9795SOL    HW129411   1.302  12.597  11.600
 9795SOL    HW229412   1.157  12.522  11.592
 9796SOL     OW29413   1.272  12.617  12.314
 9796SOL    HW129414   1.319  12.630  12.401
 9796SOL    HW229415   1.206  12.543  12.323
 9797SOL     OW29416   1.582  11.811  11.644
 9797SOL    HW129417   1.551  11.872  11.717
 9797SOL    HW229418   1.632  11.863  11.575
 9798SOL     OW29419   0.354  12.682  12.501
 9798SOL    HW129420   0.333  12.638  12.414
 9798SOL    HW229421   0.451  12.708  12.504
 9799SOL     OW29422   0.402  11.923  12.770
 9799SOL    HW129423   0.470  11.978  12.723
 9799SOL    HW229424   0.442  11.835  12.797
 9800SOL     OW29425   1.587  11.951  12.842
 9800SOL    HW129426   1.495  11.989  12.837
 9800SOL    HW229427   1.647  11.998  12.777
 9801SOL     OW29428   0.573  12.042  12.201
 9801SOL    HW129429   0.617  12.131  12.192
 9801SOL    HW229430   0.510  12.042  12.278
 9802SOL     OW29431   1.360  12.034  12.217
 9802SOL    HW129432   1.285  12.034  12.151
 9802SOL    HW229433   1.397  11.942  12.226
 9803SOL     OW29434   1.209  11.697  11.447
 9803SOL    HW129435   1.222  11.613  11.501
 9803SOL    HW229436   1.180  11.771  11.507
 9804SOL     OW29437   0.307  11.385  12.403
 9804SOL    HW129438   0.284  11.422  12.493
 9804SOL    HW229439   0.277  11.290  12.397
 9805SOL     OW29440   0.037  12.482  12.454
 9805SOL    HW129441   0.090  12.433  12.522
 9805SOL    HW229442   0.059  12.580  12.459
 9806SOL     OW29443   0.732  11.806  12.236
 9806SOL    HW129444   0.791  11.780  12.160
 9806SOL    HW229445   0.704  11.902  12.225
 9807SOL     OW29446   0.307  11.235  11.790
 9807SOL    HW129447   0.296  11.329  11.823
 9807SOL    HW229448   0.302  11.172  11.867
 9808SOL     OW29449   1.622  11.539  11.546
 9808SOL    HW129450   1.624  11.463  11.610
 9808SOL    HW229451   1.574  11.616  11.586
 9809SOL     OW29452   1.023  11.938  12.138
 9809SOL    HW129453   1.038  11.959  12.234
 9809SOL    HW229454   0.993  11.843  12.129
 9810SOL     OW29455   1.540  11.446  11.297
 9810SOL    HW129456   1.479  11.371  11.320
 9810SOL    HW229457   1.562  11.498  11.380
 9811SOL     OW29458   1.303  12.010  11.214
 9811SOL    HW129459   1.337  11.917  11.229
 9811SOL    HW229460   1.321  12.037  11.119
 9812SOL     OW29461   1.068  12.505  12.021
 9812SOL    HW129462   1.075  12.421  11.966
 9812SOL    HW229463   1.130  12.574  11.985
 9813SOL     OW29464   0.319  11.982  12.121
 9813SOL    HW129465   0.412  12.018  12.126
 9813SOL    HW229466   0.313  11.897  12.173
 9814SOL     OW29467   0.339  11.681  12.178
 9814SOL    HW129468   0.287  11.598  12.161
 9814SOL    HW229469   0.416  11.686  12.114
 9815SOL     OW29470   1.138  11.552  12.850
 9815SOL    HW129471   1.093  11.615  12.914
 9815SOL    HW229472   1.231  11.583  12.833
 9816SOL     OW29473   1.160  11.379  12.649
 9816SOL    HW129474   1.160  11.443  12.726
 9816SOL    HW229475   1.188  11.427  12.566
 9817SOL     OW29476   0.008  12.498  11.372
 9817SOL    HW129477  -0.085  12.519  11.341
 9817SOL    HW229478   0.018  12.399  11.385
 9818SOL     OW29479   1.002  11.968  12.410
 9818SOL    HW129480   1.043  11.936  12.496
 9818SOL    HW229481   0.906  11.941  12.407
 9819SOL     OW29482   0.040  11.716  12.286
 9819SOL    HW129483   0.125  11.683  12.245
 9819SOL    HW229484   0.053  11.731  12.384
 9820SOL     OW29485   0.815  11.744  11.497
 9820SOL    HW129486   0.822  11.655  11.451
 9820SOL    HW229487   0.721  11.778  11.489
 9821SOL     OW29488   1.657  11.776  12.378
 9821SOL    HW129489   1.619  11.707  12.440
 9821SOL    HW229490   1.739  11.740  12.334
 9822SOL     OW29491   0.671  11.636  12.441
 9822SOL    HW129492   0.637  11.547  12.411
 9822SOL    HW229493   0.697  11.690  12.361
 9823SOL     OW29494   0.473  11.672  11.363
 9823SOL    HW129495   0.534  11.752  11.367
 9823SOL    HW229496   0.378  11.703  11.370
 9824SOL     OW29497   0.159  12.309  12.638
 9824SOL    HW129498   0.181  12.248  12.714
 9824SOL    HW229499   0.169  12.260  12.552
 9825SOL     OW29500   1.347  12.231  12.406
 9825SOL    HW129501   1.371  12.168  12.332
 9825SOL    HW229502   1.257  12.271  12.388
 9826SOL     OW29503   1.302  12.027  11.481
 9826SOL    HW129504   1.216  11.996  11.523
 9826SOL    HW229505   1.298  12.013  11.382
 9827SOL     OW29506   0.083  12.430  12.194
 9827SOL    HW129507   0.078  12.429  12.294
 9827SOL    HW229508   0.000  12.389  12.156
 9828SOL     OW29509   1.726  11.307  11.695
 9828SOL    HW129510   1.799  11.290  11.628
 9828SOL    HW229511   1.695  11.220  11.733
 9829SOL     OW29512   1.280  12.099  11.844
 9829SOL    HW129513   1.340  12.018  11.846
 9829SOL    HW229514   1.320  12.168  11.784
 9830SOL     OW29515   1.841  11.347  12.135
 9830SOL    HW129516   1.880  11.262  12.099
 9830SOL    HW229517   1.743  11.349  12.116
 9831SOL     OW29518   0.263  11.498  11.892
 9831SOL    HW129519   0.184  11.549  11.858
 9831SOL    HW229520   0.254  11.483  11.990
 9832SOL     OW29521   0.822  12.174  12.544
 9832SOL    HW129522   0.862  12.173  12.452
 9832SOL    HW229523   0.832  12.266  12.584
 9833SOL     OW29524   0.916  12.082  11.463
 9833SOL    HW129525   0.979  12.120  11.395
 9833SOL    HW229526   0.956  11.999  11.502
 9834SOL     OW29527   0.372  12.460  12.662
 9834SOL    HW129528   0.359  12.553  12.628
 9834SOL    HW229529   0.288  12.408  12.649
 9835SOL     OW29530   1.614  12.464  12.461
 9835SOL    HW129531   1.674  12.467  12.541
 9835SOL    HW229532   1.539  12.528  12.474
 9836SOL     OW29533   1.039  12.270  11.868
 9836SOL    HW129534   0.969  12.223  11.922
 9836SOL    HW229535   1.098  12.202  11.825
 9837SOL     OW29536   1.014  11.408  12.143
 9837SOL    HW129537   1.006  11.372  12.050
 9837SOL    HW229538   1.012  11.332  12.208
 9838SOL     OW29539   1.709  11.557  12.553
 9838SOL    HW129540   1.782  11.626  12.557
 9838SOL    HW229541   1.737  11.482  12.494
 9839SOL     OW29542   0.255  12.520  11.462
 9839SOL    HW129543   0.159  12.521  11.435
 9839SOL    HW229544   0.267  12.573  11.546
 9840SOL     OW29545   0.075  11.517  11.205
 9840SOL    HW129546  -0.017  11.489  11.176
 9840SOL    HW229547   0.106  11.594  11.149
 9841SOL     OW29548   1.440  12.028  12.570
 9841SOL    HW129549   1.383  12.080  12.507
 9841SOL    HW229550   1.536  12.040  12.546
 9842SOL     OW29551   0.072  11.338  11.490
 9842SOL    HW129552   0.055  11.421  11.436
 9842SOL    HW229553   0.162  11.301  11.468
 9843SOL     OW29554   1.183  12.507  11.291
 9843SOL    HW129555   1.084  12.496  11.293
 9843SOL    HW229556   1.217  12.522  11.384
 9844SOL     OW29557   0.613  12.014  12.603
 9844SOL    HW129558   0.669  12.095  12.586
 9844SOL    HW229559   0.672  11.934  12.606
 9845SOL     OW29560   1.674  12.055  12.426
 9845SOL    HW129561   1.647  11.966  12.389
 9845SOL    HW229562   1.675  12.123  12.353
 9846SOL     OW29563   1.225  11.497  11.621
 9846SOL    HW129564   1.290  11.423  11.610
 9846SOL    HW229565   1.245  11.547  11.705
 9847SOL     OW29566   0.594  11.917  11.824
 9847SOL    HW129567   0.644  12.002  11.805
 9847SOL    HW229568   0.506  11.919  11.776
 9848SOL     OW29569   1.777  11.514  12.814
 9848SOL    HW129570   1.760  11.545  12.720
 9848SOL    HW229571   1.693  11.477  12.852
 9849SOL     OW29572   1.730  12.106  12.689
 9849SOL    HW129573   1.768  12.197  12.704
 9849SOL    HW229574   1.722  12.089  12.590
 9850SOL     OW29575   0.859  12.546  11.188
 9850SOL    HW129576   0.813  12.561  11.276
 9850SOL    HW229577   0.903  12.631  11.158
 9851SOL     OW29578   0.859  12.128  12.033
 9851SOL    HW129579   0.913  12.059  12.081
 9851SOL    HW229580   0.827  12.197  12.099
 9852SOL     OW29581   1.083  12.156  11.259
 9852SOL    HW129582   1.060  12.209  11.177
 9852SOL    HW229583   1.164  12.100  11.240
 9853SOL     OW29584   0.079  12.412  11.825
 9853SOL    HW129585   0.078  12.365  11.913
 9853SOL    HW229586   0.161  12.384  11.774
 9854SOL     OW29587   1.824  11.364  12.399
 9854SOL    HW129588   1.820  11.274  12.443
 9854SOL    HW229589   1.827  11.353  12.300
 9855SOL     OW29590   0.428  11.596  11.692
 9855SOL    HW129591   0.458  11.524  11.630
 9855SOL    HW229592   0.389  11.556  11.775
 9856SOL     OW29593   1.705  12.659  12.276
 9856SOL    HW129594   1.612  12.634  12.249
 9856SOL    HW229595   1.731  12.609  12.358
 9857SOL     OW29596   0.317  11.719  12.452
 9857SOL    HW129597   0.355  11.660  12.524
 9857SOL    HW229598   0.357  11.693  12.364
 9858SOL     OW29599   1.424  11.386  12.284
 9858SOL    HW129600   1.476  11.321  12.339
 9858SOL    HW229601   1.375  11.449  12.345
 9859SOL     OW29602   1.001  11.206  12.326
 9859SOL    HW129603   0.938  11.134  12.295
 9859SOL    HW229604   1.094  11.170  12.326
 9860SOL     OW29605   0.770  12.502  11.473
 9860SOL    HW129606   0.724  12.415  11.490
 9860SOL    HW229607   0.861  12.499  11.514
 9861SOL     OW29608   1.352  11.224  11.340
 9861SOL    HW129609   1.387  11.183  11.256
 9861SOL    HW229610   1.262  11.186  11.360
 9862SOL     OW29611   1.300  11.625  11.863
 9862SOL    HW129612   1.241  11.705  11.867
 9862SOL    HW229613   1.315  11.590  11.956
 9863SOL     OW29614   1.593  11.393  12.054
 9863SOL    HW129615   1.509  11.392  12.108
 9863SOL    HW229616   1.595  11.476  11.998
 9864SOL     OW29617   0.039  12.249  11.472
 9864SOL    HW129618   0.138  12.238  11.463
 9864SOL    HW229619  -0.001  12.163  11.504
 9865SOL     OW29620   2.092   0.628   0.113
 9865SOL    HW129621   1.999   0.626   0.150
 9865SOL    HW229622   2.093   0.589   0.021
 9866SOL     OW29623   2.087   0.275   0.996
 9866SOL    HW129624   2.122   0.258   1.088
 9866SOL    HW229625   1.999   0.230   0.984
 9867SOL     OW29626   1.881   0.368   0.647
 9867SOL    HW129627   1.799   0.411   0.686
 9867SOL    HW229628   1.853   0.295   0.584
 9868SOL     OW29629   2.431   1.275   1.165
 9868SOL    HW129630   2.338   1.268   1.128
 9868SOL    HW229631   2.442   1.364   1.209
 9869SOL     OW29632   3.417   1.511   0.703
 9869SOL    HW129633   3.360   1.495   0.784
 9869SOL    HW229634   3.358   1.521   0.623
 9870SOL     OW29635   2.997   0.703   0.717
 9870SOL    HW129636   3.054   0.781   0.692
 9870SOL    HW229637   2.937   0.729   0.793
 9871SOL     OW29638   3.617   0.607   0.231
 9871SOL    HW129639   3.605   0.594   0.132
 9871SOL    HW229640   3.587   0.526   0.280
 9872SOL     OW29641   2.630   1.144   1.023
 9872SOL    HW129642   2.552   1.161   1.083
 9872SOL    HW229643   2.664   1.231   0.987
 9873SOL     OW29644   2.712   0.798   1.823
 9873SOL    HW129645   2.708   0.874   1.888
 9873SOL    HW229646   2.734   0.834   1.732
 9874SOL     OW29647   2.547   1.012   0.665
 9874SOL    HW129648   2.616   0.996   0.735
 9874SOL    HW229649   2.474   1.069   0.703
 9875SOL     OW29650   2.548   1.161   1.803
 9875SOL    HW129651   2.608   1.240   1.817
 9875SOL    HW229652   2.462   1.192   1.762
 9876SOL     OW29653   2.197   1.435   1.061
 9876SOL    HW129654   2.119   1.404   1.008
 9876SOL    HW229655   2.255   1.493   1.004
 9877SOL     OW29656   3.322   1.505   1.339
 9877SOL    HW129657   3.346   1.599   1.365
 9877SOL    HW229658   3.306   1.451   1.421
 9878SOL     OW29659   2.300   0.392   1.499
 9878SOL    HW129660   2.382   0.336   1.508
 9878SOL    HW229661   2.219   0.334   1.503
 9879SOL     OW29662   3.465   0.447   0.737
 9879SOL    HW129663   3.391   0.493   0.687
 9879SOL    HW229664   3.516   0.515   0.790
 9880SOL     OW29665   2.093   1.713   0.483
 9880SOL    HW129666   2.127   1.790   0.537
 9880SOL    HW229667   2.137   1.713   0.393
 9881SOL     OW29668   2.989   1.341   1.690
 9881SOL    HW129669   3.036   1.341   1.778
 9881SOL    HW229670   2.941   1.254   1.679
 9882SOL     OW29671   2.092   1.434   0.538
 9882SOL    HW129672   2.066   1.530   0.538
 9882SOL    HW229673   2.021   1.380   0.583
 9883SOL     OW29674   2.102   1.091   0.886
 9883SOL    HW129675   2.116   1.007   0.938
 9883SOL    HW229676   2.047   1.155   0.941
 9884SOL     OW29677   2.482   1.786   1.439
 9884SOL    HW129678   2.390   1.769   1.474
 9884SOL    HW229679   2.510   1.878   1.465
 9885SOL     OW29680   2.468   0.964   0.123
 9885SOL    HW129681   2.475   1.048   0.069
 9885SOL    HW229682   2.514   0.977   0.211
 9886SOL     OW29683   3.456   0.114   1.480
 9886SOL    HW129684   3.438   0.181   1.408
 9886SOL    HW229685   3.453   0.160   1.569
 9887SOL     OW29686   1.984   0.643   0.563
 9887SOL    HW129687   1.939   0.555   0.580
 9887SOL    HW229688   1.983   0.697   0.647
 9888SOL     OW29689   3.704   1.767   0.359
 9888SOL    HW129690   3.758   1.738   0.439
 9888SOL    HW229691   3.734   1.857   0.330
 9889SOL     OW29692   1.889   1.596   0.117
 9889SOL    HW129693   1.870   1.500   0.138
 9889SOL    HW229694   1.856   1.654   0.192
 9890SOL     OW29695   3.551   0.922   0.612
 9890SOL    HW129696   3.646   0.893   0.620
 9890SOL    HW229697   3.543   0.987   0.537
 9891SOL     OW29698   3.503   1.108   0.432
 9891SOL    HW129699   3.589   1.110   0.380
 9891SOL    HW229700   3.517   1.155   0.520
 9892SOL     OW29701   1.975   0.737   1.597
 9892SOL    HW129702   2.063   0.724   1.642
 9892SOL    HW229703   1.962   0.834   1.575
 9893SOL     OW29704   2.475   1.365   0.726
 9893SOL    HW129705   2.426   1.278   0.735
 9893SOL    HW229706   2.452   1.408   0.639
 9894SOL     OW29707   3.155   1.228   1.423
 9894SOL    HW129708   3.192   1.155   1.365
 9894SOL    HW229709   3.207   1.233   1.508
 9895SOL     OW29710   2.671   0.004   0.502
 9895SOL    HW129711   2.711   0.095   0.493
 9895SOL    HW229712   2.571   0.012   0.508
 9896SOL     OW29713   2.059   0.976   1.264
 9896SOL    HW129714   2.148   0.931   1.250
 9896SOL    HW229715   1.986   0.911   1.245
 9897SOL     OW29716   3.387   0.999   0.190
 9897SOL    HW129717   3.324   0.923   0.203
 9897SOL    HW229718   3.435   1.017   0.276
 9898SOL     OW29719   3.049   1.792   1.616
 9898SOL    HW129720   3.073   1.852   1.540
 9898SOL    HW229721   3.056   1.697   1.586
 9899SOL     OW29722   2.179   0.251   1.801
 9899SOL    HW129723   2.250   0.322   1.807
 9899SOL    HW229724   2.091   0.290   1.829
 9900SOL     OW29725   3.328   1.417   0.953
 9900SOL    HW129726   3.269   1.423   1.033
 9900SOL    HW229727   3.313   1.329   0.907
 9901SOL     OW29728   3.529   1.714   0.572
 9901SOL    HW129729   3.488   1.691   0.484
 9901SOL    HW229730   3.511   1.640   0.637
 9902SOL     OW29731   2.460   0.729   0.270
 9902SOL    HW129732   2.484   0.798   0.202
 9902SOL    HW229733   2.382   0.762   0.324
 9903SOL     OW29734   3.143   0.345   0.944
 9903SOL    HW129735   3.057   0.295   0.931
 9903SOL    HW229736   3.205   0.291   1.000
 9904SOL     OW29737   3.438   1.662   0.307
 9904SOL    HW129738   3.527   1.708   0.310
 9904SOL    HW229739   3.417   1.638   0.212
 9905SOL     OW29740   2.669   0.605   1.465
 9905SOL    HW129741   2.622   0.602   1.554
 9905SOL    HW229742   2.618   0.550   1.399
 9906SOL     OW29743   3.256   0.469   1.674
 9906SOL    HW129744   3.236   0.512   1.762
 9906SOL    HW229745   3.334   0.407   1.683
 9907SOL     OW29746   2.835   0.890   1.572
 9907SOL    HW129747   2.881   0.806   1.543
 9907SOL    HW229748   2.779   0.924   1.497
 9908SOL     OW29749   2.853   0.410   1.242
 9908SOL    HW129750   2.776   0.444   1.296
 9908SOL    HW229751   2.819   0.359   1.163
 9909SOL     OW29752   2.903   0.701   0.429
 9909SOL    HW129753   2.929   0.697   0.525
 9909SOL    HW229754   2.818   0.650   0.415
 9910SOL     OW29755   1.938   0.811   0.789
 9910SOL    HW129756   2.037   0.799   0.798
 9910SOL    HW229757   1.914   0.906   0.810
 9911SOL     OW29758   1.992   1.821   1.571
 9911SOL    HW129759   1.982   1.806   1.670
 9911SOL    HW229760   1.906   1.857   1.535
 9912SOL     OW29761   2.727   0.348   0.195
 9912SOL    HW129762   2.786   0.411   0.146
 9912SOL    HW229763   2.746   0.254   0.166
 9913SOL     OW29764   3.581   0.585   1.831
 9913SOL    HW129765   3.555   0.674   1.795
 9913SOL    HW229766   3.579   0.517   1.758
 9914SOL     OW29767   3.224   1.144   0.545
 9914SOL    HW129768   3.307   1.115   0.497
 9914SOL    HW229769   3.175   1.211   0.489
 9915SOL     OW29770   2.412   0.196   0.885
 9915SOL    HW129771   2.407   0.191   0.985
 9915SOL    HW229772   2.414   0.292   0.856
 9916SOL     OW29773   2.213   1.801   0.853
 9916SOL    HW129774   2.263   1.715   0.859
 9916SOL    HW229775   2.278   1.878   0.850
 9917SOL     OW29776   3.657   1.066   0.873
 9917SOL    HW129777   3.595   1.051   0.797
 9917SOL    HW229778   3.605   1.077   0.958
 9918SOL     OW29779   3.089   1.550   1.506
 9918SOL    HW129780   3.095   1.473   1.570
 9918SOL    HW229781   3.037   1.524   1.426
 9919SOL     OW29782   2.183   0.943   0.242
 9919SOL    HW129783   2.265   0.982   0.200
 9919SOL    HW229784   2.156   0.861   0.193
 9920SOL     OW29785   3.320   0.735   0.728
 9920SOL    HW129786   3.315   0.670   0.803
 9920SOL    HW229787   3.400   0.794   0.741
 9921SOL     OW29788   2.323   1.266   1.727
 9921SOL    HW129789   2.273   1.267   1.641
 9921SOL    HW229790   2.260   1.248   1.803
 9922SOL     OW29791   2.973   1.776   0.237
 9922SOL    HW129792   2.913   1.714   0.287
 9922SOL    HW229793   3.004   1.732   0.152
 9923SOL     OW29794   2.064   0.285   1.498
 9923SOL    HW129795   1.984   0.345   1.485
 9923SOL    HW229796   2.054   0.236   1.584
 9924SOL     OW29797   3.494   1.377   0.081
 9924SOL    HW129798   3.462   1.471   0.071
 9924SOL    HW229799   3.418   1.314   0.069
 9925SOL     OW29800   2.326   1.743   0.323
 9925SOL    HW129801   2.359   1.782   0.409
 9925SOL    HW229802   2.402   1.736   0.258
 9926SOL     OW29803   3.262   0.107   0.426
 9926SOL    HW129804   3.238   0.070   0.336
 9926SOL    HW229805   3.361   0.123   0.430
 9927SOL     OW29806   2.111   1.785   1.241
 9927SOL    HW129807   2.168   1.720   1.291
 9927SOL    HW229808   2.095   1.752   1.148
 9928SOL     OW29809   2.802   1.698   0.904
 9928SOL    HW129810   2.882   1.641   0.925
 9928SOL    HW229811   2.753   1.658   0.827
 9929SOL     OW29812   2.244   0.700   0.480
 9929SOL    HW129813   2.289   0.610   0.477
 9929SOL    HW229814   2.150   0.689   0.513
 9930SOL     OW29815   3.409   0.222   1.729
 9930SOL    HW129816   3.404   0.259   1.821
 9930SOL    HW229817   3.337   0.153   1.717
 9931SOL     OW29818   2.476   0.122   0.117
 9931SOL    HW129819   2.574   0.100   0.124
 9931SOL    HW229820   2.445   0.105   0.024
 9932SOL     OW29821   2.643   0.264   1.749
 9932SOL    HW129822   2.710   0.203   1.792
 9932SOL    HW229823   2.570   0.283   1.814
 9933SOL     OW29824   2.750   1.514   1.195
 9933SOL    HW129825   2.727   1.489   1.101
 9933SOL    HW229826   2.811   1.445   1.234
 9934SOL     OW29827   3.213   0.590   1.433
 9934SOL    HW129828   3.241   0.547   1.518
 9934SOL    HW229829   3.238   0.686   1.434
 9935SOL     OW29830   2.665   1.402   0.924
 9935SOL    HW129831   2.755   1.416   0.882
 9935SOL    HW229832   2.594   1.404   0.853
 9936SOL     OW29833   2.784   0.503   0.899
 9936SOL    HW129834   2.759   0.494   0.803
 9936SOL    HW229835   2.832   0.421   0.930
 9937SOL     OW29836   2.401   0.064   0.512
 9937SOL    HW129837   2.320   0.065   0.570
 9937SOL    HW229838   2.404   0.147   0.457
 9938SOL     OW29839   3.296   1.188   0.041
 9938SOL    HW129840   3.328   1.112   0.098
 9938SOL    HW229841   3.204   1.215   0.071
 9939SOL     OW29842   2.159   0.035   0.171
 9939SOL    HW129843   2.208   0.119   0.150
 9939SOL    HW229844   2.221  -0.030   0.216
 9940SOL     OW29845   2.797   0.236   0.480
 9940SOL    HW129846   2.749   0.277   0.402
 9940SOL    HW229847   2.896   0.234   0.461
 9941SOL     OW29848   2.938   0.683   1.464
 9941SOL    HW129849   2.858   0.622   1.467
 9941SOL    HW229850   3.019   0.630   1.440
 9942SOL     OW29851   3.089   1.570   0.793
 9942SOL    HW129852   3.110   1.644   0.728
 9942SOL    HW229853   3.157   1.570   0.866
 9943SOL     OW29854   2.321   1.152   0.741
 9943SOL    HW129855   2.250   1.125   0.806
 9943SOL    HW229856   2.295   1.124   0.648
 9944SOL     OW29857   3.133   1.797   0.591
 9944SOL    HW129858   3.177   1.861   0.527
 9944SOL    HW229859   3.083   1.849   0.661
 9945SOL     OW29860   2.894   0.549   0.016
 9945SOL    HW129861   2.853   0.631  -0.023
 9945SOL    HW229862   2.958   0.575   0.089
 9946SOL     OW29863   1.940   0.556   1.386
 9946SOL    HW129864   2.032   0.555   1.345
 9946SOL    HW229865   1.934   0.630   1.453
 9947SOL     OW29866   2.423   0.222   1.147
 9947SOL    HW129867   2.461   0.138   1.184
 9947SOL    HW229868   2.335   0.241   1.191
 9948SOL     OW29869   2.728   0.454   0.642
 9948SOL    HW129870   2.696   0.526   0.580
 9948SOL    HW229871   2.752   0.373   0.589
 9949SOL     OW29872   2.879   0.039   0.753
 9949SOL    HW129873   2.807   0.044   0.684
 9949SOL    HW229874   2.855  -0.030   0.822
 9950SOL     OW29875   3.291   1.173   0.867
 9950SOL    HW129876   3.236   1.089   0.860
 9950SOL    HW229877   3.317   1.202   0.775
 9951SOL     OW29878   3.328   0.590   0.992
 9951SOL    HW129879   3.298   0.495   0.999
 9951SOL    HW229880   3.401   0.606   1.058
 9952SOL     OW29881   3.719   0.833   0.377
 9952SOL    HW129882   3.761   0.769   0.441
 9952SOL    HW229883   3.681   0.782   0.299
 9953SOL     OW29884   2.350   1.385   0.174
 9953SOL    HW129885   2.263   1.370   0.221
 9953SOL    HW229886   2.333   1.411   0.079
 9954SOL     OW29887   3.526   1.280   0.657
 9954SOL    HW129888   3.625   1.288   0.671
 9954SOL    HW229889   3.481   1.364   0.688
 9955SOL     OW29890   3.252   0.575   0.078
 9955SOL    HW129891   3.198   0.554   0.159
 9955SOL    HW229892   3.343   0.534   0.087
 9956SOL     OW29893   2.389   0.256   0.328
 9956SOL    HW129894   2.416   0.197   0.253
 9956SOL    HW229895   2.389   0.351   0.297
 9957SOL     OW29896   3.616   1.223   1.588
 9957SOL    HW129897   3.707   1.184   1.575
 9957SOL    HW229898   3.624   1.319   1.612
 9958SOL     OW29899   2.926   1.347   1.340
 9958SOL    HW129900   2.846   1.324   1.395
 9958SOL    HW229901   3.009   1.321   1.389
 9959SOL     OW29902   3.454   1.629   1.625
 9959SOL    HW129903   3.481   1.663   1.535
 9959SOL    HW229904   3.533   1.591   1.671
 9960SOL     OW29905   2.973   1.195   1.100
 9960SOL    HW129906   2.933   1.239   1.181
 9960SOL    HW229907   2.932   1.232   1.017
 9961SOL     OW29908   3.500   1.099   1.079
 9961SOL    HW129909   3.505   1.180   1.138
 9961SOL    HW229910   3.414   1.101   1.028
 9962SOL     OW29911   2.777   0.089   1.402
 9962SOL    HW129912   2.802   0.069   1.307
 9962SOL    HW229913   2.849   0.145   1.444
 9963SOL     OW29914   2.842   1.116   1.719
 9963SOL    HW129915   2.743   1.122   1.729
 9963SOL    HW229916   2.865   1.036   1.663
 9964SOL     OW29917   2.567   1.050   0.368
 9964SOL    HW129918   2.553   1.057   0.467
 9964SOL    HW229919   2.651   0.999   0.350
 9965SOL     OW29920   2.272   0.813   1.251
 9965SOL    HW129921   2.358   0.825   1.301
 9965SOL    HW229922   2.230   0.726   1.278
 9966SOL     OW29923   3.136   0.386   1.262
 9966SOL    HW129924   3.157   0.460   1.326
 9966SOL    HW229925   3.047   0.403   1.219
 9967SOL     OW29926   1.926   1.564   1.331
 9967SOL    HW129927   1.880   1.646   1.297
 9967SOL    HW229928   2.024   1.583   1.340
 9968SOL     OW29929   2.229   1.100   0.501
 9968SOL    HW129930   2.222   1.183   0.445
 9968SOL    HW229931   2.233   1.020   0.441
 9969SOL     OW29932   2.428   0.537   0.865
 9969SOL    HW129933   2.440   0.603   0.791
 9969SOL    HW229934   2.474   0.571   0.948
 9970SOL     OW29935   3.114   1.348   0.388
 9970SOL    HW129936   3.164   1.425   0.428
 9970SOL    HW229937   3.019   1.350   0.420
 9971SOL     OW29938   3.134   1.445   1.142
 9971SOL    HW129939   3.181   1.458   1.229
 9971SOL    HW229940   3.068   1.371   1.151
 9972SOL     OW29941   3.444   0.639   0.472
 9972SOL    HW129942   3.413   0.700   0.545
 9972SOL    HW229943   3.494   0.691   0.403
 9973SOL     OW29944   2.216   1.510   1.329
 9973SOL    HW129945   2.195   1.466   1.242
 9973SOL    HW229946   2.313   1.536   1.332
 9974SOL     OW29947   2.264   0.751   1.598
 9974SOL    HW129948   2.332   0.806   1.551
 9974SOL    HW229949   2.304   0.663   1.625
 9975SOL     OW29950   3.449   0.779   1.670
 9975SOL    HW129951   3.357   0.817   1.665
 9975SOL    HW229952   3.509   0.826   1.605
 9976SOL     OW29953   2.875   0.105   1.770
 9976SOL    HW129954   2.881   0.190   1.718
 9976SOL    HW229955   2.907   0.029   1.713
 9977SOL     OW29956   2.366   0.050   1.740
 9977SOL    HW129957   2.324  -0.007   1.670
 9977SOL    HW229958   2.300   0.119   1.772
 9978SOL     OW29959   2.435   0.870   1.029
 9978SOL    HW129960   2.479   0.959   1.020
 9978SOL    HW229961   2.372   0.870   1.106
 9979SOL     OW29962   3.222   0.862   1.045
 9979SOL    HW129963   3.147   0.862   0.979
 9979SOL    HW229964   3.259   0.770   1.054
 9980SOL     OW29965   3.071   0.525   0.275
 9980SOL    HW129966   3.084   0.441   0.329
 9980SOL    HW229967   3.042   0.599   0.335
 9981SOL     OW29968   2.169   0.213   1.231
 9981SOL    HW129969   2.146   0.250   1.321
 9981SOL    HW229970   2.139   0.118   1.225
 9982SOL     OW29971   1.899   1.310   1.282
 9982SOL    HW129972   1.952   1.261   1.350
 9982SOL    HW229973   1.921   1.408   1.287
 9983SOL     OW29974   2.594   0.634   1.064
 9983SOL    HW129975   2.653   0.608   0.988
 9983SOL    HW229976   2.566   0.730   1.053
 9984SOL     OW29977   3.590   0.935   1.854
 9984SOL    HW129978   3.544   0.928   1.765
 9984SOL    HW229979   3.528   0.979   1.920
 9985SOL     OW29980   2.169   0.063   0.618
 9985SOL    HW129981   2.158   0.157   0.651
 9985SOL    HW229982   2.164   0.000   0.695
 9986SOL     OW29983   3.484   0.367   0.374
 9986SOL    HW129984   3.486   0.291   0.438
 9986SOL    HW229985   3.436   0.444   0.414
 9987SOL     OW29986   2.885   0.766   0.966
 9987SOL    HW129987   2.900   0.787   1.062
 9987SOL    HW229988   2.855   0.671   0.957
 9988SOL     OW29989   2.842   1.573   1.700
 9988SOL    HW129990   2.822   1.617   1.612
 9988SOL    HW229991   2.881   1.482   1.684
 9989SOL     OW29992   3.721   1.518   1.605
 9989SOL    HW129993   3.735   1.545   1.510
 9989SOL    HW229994   3.804   1.540   1.658
 9990SOL     OW29995   2.212   0.898   1.804
 9990SOL    HW129996   2.288   0.942   1.852
 9990SOL    HW229997   2.247   0.851   1.722
 9991SOL     OW29998   3.402   0.274   0.125
 9991SOL    HW129999   3.341   0.199   0.148
 9991SOL    HW230000   3.424   0.326   0.208
 9992SOL     OW30001   3.165   0.838   0.042
 9992SOL    HW130002   3.199   0.745   0.057
 9992SOL    HW230003   3.183   0.865  -0.053
 9993SOL     OW30004   2.930   1.333   0.849
 9993SOL    HW130005   2.937   1.249   0.794
 9993SOL    HW230006   2.992   1.402   0.813
 9994SOL     OW30007   2.181   0.810   0.949
 9994SOL    HW130008   2.274   0.846   0.954
 9994SOL    HW230009   2.175   0.725   1.001
 9995SOL     OW30010   2.201   0.509   1.006
 9995SOL    HW130011   2.149   0.426   0.989
 9995SOL    HW230012   2.278   0.514   0.942
 9996SOL     OW30013   3.000   0.380   1.678
 9996SOL    HW130014   2.955   0.443   1.742
 9996SOL    HW230015   3.093   0.411   1.661
 9997SOL     OW30016   3.022   0.207   1.477
 9997SOL    HW130017   3.022   0.271   1.554
 9997SOL    HW230018   3.050   0.255   1.394
 9998SOL     OW30019   1.870   1.326   0.200
 9998SOL    HW130020   1.777   1.347   0.169
 9998SOL    HW230021   1.880   1.227   0.213
 9999SOL     OW30022   1.950   1.801   0.927
 9999SOL    HW130023   1.908   1.715   0.900
 9999SOL    HW230024   2.044   1.804   0.893
10000SOL     OW30025   2.366   1.568   0.910
10000SOL    HW130026   2.432   1.642   0.919
10000SOL    HW230027   2.410   1.489   0.868
10001SOL     OW30028   2.864   0.796   1.238
10001SOL    HW130029   2.905   0.764   1.324
10001SOL    HW230030   2.768   0.769   1.235
10002SOL     OW30031   1.902   0.544   1.114
10002SOL    HW130032   1.987   0.511   1.073
10002SOL    HW230033   1.915   0.559   1.212
10003SOL     OW30034   2.051   0.520   1.722
10003SOL    HW130035   2.110   0.480   1.652
10003SOL    HW230036   1.993   0.591   1.681
10004SOL     OW30037   3.231   0.950   1.660
10004SOL    HW130038   3.270   1.039   1.680
10004SOL    HW230039   3.241   0.930   1.563
10005SOL     OW30040   2.677   0.572   0.325
10005SOL    HW130041   2.684   0.483   0.279
10005SOL    HW230042   2.583   0.606   0.317
10006SOL     OW30043   3.519   0.604   1.206
10006SOL    HW130044   3.481   0.535   1.268
10006SOL    HW230045   3.601   0.568   1.162
10007SOL     OW30046   2.114   1.564   1.744
10007SOL    HW130047   2.084   1.621   1.820
10007SOL    HW230048   2.107   1.467   1.770
10008SOL     OW30049   2.533   0.464   1.269
10008SOL    HW130050   2.499   0.375   1.239
10008SOL    HW230051   2.559   0.518   1.189
10009SOL     OW30052   2.792   1.678   1.465
10009SOL    HW130053   2.768   1.660   1.370
10009SOL    HW230054   2.822   1.772   1.475
10010SOL     OW30055   2.335   0.500   0.191
10010SOL    HW130056   2.396   0.580   0.195
10010SOL    HW230057   2.240   0.531   0.198
10011SOL     OW30058   2.021   1.137   1.466
10011SOL    HW130059   2.043   1.076   1.542
10011SOL    HW230060   2.031   1.088   1.380
10012SOL     OW30061   3.209   1.059   1.234
10012SOL    HW130062   3.233   0.996   1.160
10012SOL    HW230063   3.119   1.099   1.216
10013SOL     OW30064   3.164   0.855   0.309
10013SOL    HW130065   3.078   0.824   0.351
10013SOL    HW230066   3.160   0.841   0.210
10014SOL     OW30067   3.621   1.747   1.154
10014SOL    HW130068   3.682   1.777   1.081
10014SOL    HW230069   3.583   1.658   1.132
10015SOL     OW30070   3.114   1.731   1.128
10015SOL    HW130071   3.198   1.736   1.074
10015SOL    HW230072   3.091   1.635   1.146
10016SOL     OW30073   1.945   1.258   1.022
10016SOL    HW130074   1.940   1.257   1.122
10016SOL    HW230075   1.862   1.217   0.984
10017SOL     OW30076   2.550   1.662   1.716
10017SOL    HW130077   2.494   1.743   1.725
10017SOL    HW230078   2.602   1.666   1.630
10018SOL     OW30079   2.765   0.086   0.133
10018SOL    HW130080   2.816   0.087   0.047
10018SOL    HW230081   2.821   0.044   0.204
10019SOL     OW30082   3.588   0.135   0.523
10019SOL    HW130083   3.661   0.118   0.456
10019SOL    HW230084   3.557   0.048   0.561
10020SOL     OW30085   3.250   1.573   0.477
10020SOL    HW130086   3.317   1.585   0.403
10020SOL    HW230087   3.210   1.662   0.500
10021SOL     OW30088   1.992   1.794   1.851
10021SOL    HW130089   1.951   1.720   1.904
10021SOL    HW230090   2.056   1.845   1.909
10022SOL     OW30091   2.692   1.273   1.422
10022SOL    HW130092   2.687   1.306   1.517
10022SOL    HW230093   2.606   1.292   1.376
10023SOL     OW30094   2.534   1.616   0.154
10023SOL    HW130095   2.543   1.626   0.055
10023SOL    HW230096   2.494   1.527   0.175
10024SOL     OW30097   3.512   1.720   1.394
10024SOL    HW130098   3.565   1.730   1.310
10024SOL    HW230099   3.485   1.810   1.428
10025SOL     OW30100   3.703   0.175   0.963
10025SOL    HW130101   3.742   0.090   0.927
10025SOL    HW230102   3.605   0.177   0.944
10026SOL     OW30103   2.125   0.326   0.720
10026SOL    HW130104   2.046   0.377   0.686
10026SOL    HW230105   2.116   0.311   0.818
10027SOL     OW30106   3.056   1.612   0.031
10027SOL    HW130107   3.062   1.519   0.068
10027SOL    HW230108   2.997   1.612  -0.049
10028SOL     OW30109   2.684   1.002   1.372
10028SOL    HW130110   2.724   1.001   1.280
10028SOL    HW230111   2.694   1.094   1.412
10029SOL     OW30112   2.778   0.910   0.291
10029SOL    HW130113   2.841   0.948   0.223
10029SOL    HW230114   2.818   0.827   0.330
10030SOL     OW30115   3.366   1.607   0.044
10030SOL    HW130116   3.274   1.644   0.051
10030SOL    HW230117   3.404   1.627  -0.046
10031SOL     OW30118   2.234   1.288   1.490
10031SOL    HW130119   2.221   1.381   1.456
10031SOL    HW230120   2.150   1.236   1.477
10032SOL     OW30121   3.476   1.292   1.289
10032SOL    HW130122   3.536   1.295   1.369
10032SOL    HW230123   3.401   1.356   1.302
10033SOL     OW30124   2.901   1.098   0.696
10033SOL    HW130125   2.831   1.051   0.750
10033SOL    HW230126   2.960   1.030   0.653
10034SOL     OW30127   2.876   0.236   0.971
10034SOL    HW130128   2.868   0.200   0.878
10034SOL    HW230129   2.874   0.160   1.036
10035SOL     OW30130   2.452   1.487   0.491
10035SOL    HW130131   2.494   1.429   0.421
10035SOL    HW230132   2.408   1.566   0.447
10036SOL     OW30133   3.571   0.385   1.381
10036SOL    HW130134   3.644   0.454   1.385
10036SOL    HW230135   3.599   0.310   1.322
10037SOL     OW30136   2.117   1.348   0.290
10037SOL    HW130137   2.021   1.349   0.263
10037SOL    HW230138   2.129   1.401   0.374
10038SOL     OW30139   1.967   1.013   1.726
10038SOL    HW130140   1.890   0.980   1.780
10038SOL    HW230141   2.052   0.983   1.768
10039SOL     OW30142   2.534   0.203   1.489
10039SOL    HW130143   2.624   0.187   1.449
10039SOL    HW230144   2.542   0.208   1.588
10040SOL     OW30145   3.302   0.856   1.398
10040SOL    HW130146   3.245   0.908   1.335
10040SOL    HW230147   3.398   0.868   1.374
10041SOL     OW30148   1.934   0.166   0.318
10041SOL    HW130149   1.917   0.249   0.264
10041SOL    HW230150   2.024   0.129   0.296
10042SOL     OW30151   3.045   1.335   0.119
10042SOL    HW130152   2.946   1.324   0.121
10042SOL    HW230153   3.079   1.350   0.212
10043SOL     OW30154   2.475   0.842   1.431
10043SOL    HW130155   2.531   0.923   1.414
10043SOL    HW230156   2.534   0.762   1.434
10044SOL     OW30157   3.355   1.767   0.959
10044SOL    HW130158   3.388   1.831   0.890
10044SOL    HW230159   3.421   1.761   1.034
10045SOL     OW30160   2.578   0.565   1.708
10045SOL    HW130161   2.597   0.630   1.782
10045SOL    HW230162   2.638   0.485   1.717
10046SOL     OW30163   3.312   1.220   1.633
10046SOL    HW130164   3.303   1.210   1.732
10046SOL    HW230165   3.408   1.213   1.607
10047SOL     OW30166   2.252   1.741   1.560
10047SOL    HW130167   2.161   1.782   1.558
10047SOL    HW230168   2.245   1.647   1.592
10048SOL     OW30169   3.536   0.883   1.254
10048SOL    HW130170   3.509   0.794   1.217
10048SOL    HW230171   3.537   0.951   1.181
10049SOL     OW30172   3.087   0.325   0.449
10049SOL    HW130173   3.152   0.251   0.438
10049SOL    HW230174   3.107   0.375   0.533
10050SOL     OW30175   2.456   0.745   0.652
10050SOL    HW130176   2.506   0.830   0.633
10050SOL    HW230177   2.368   0.747   0.604
10051SOL     OW30178   3.639   0.342   1.642
10051SOL    HW130179   3.622   0.373   1.548
10051SOL    HW230180   3.555   0.305   1.680
10052SOL     OW30181   3.592   0.934   1.517
10052SOL    HW130182   3.630   1.025   1.532
10052SOL    HW230183   3.584   0.917   1.418
10053SOL     OW30184   2.721   1.374   0.016
10053SOL    HW130185   2.675   1.389   0.104
10053SOL    HW230186   2.765   1.459  -0.014
10054SOL     OW30187   2.523   1.790   0.953
10054SOL    HW130188   2.477   1.878   0.940
10054SOL    HW230189   2.622   1.802   0.946
10055SOL     OW30190   2.721   0.956   0.861
10055SOL    HW130191   2.775   0.887   0.909
10055SOL    HW230192   2.689   1.025   0.927
10056SOL     OW30193   2.945   0.984   0.087
10056SOL    HW130194   2.922   1.037   0.005
10056SOL    HW230195   3.026   0.928   0.068
10057SOL     OW30196   3.723   1.569   0.851
10057SOL    HW130197   3.652   1.557   0.781
10057SOL    HW230198   3.724   1.490   0.911
10058SOL     OW30199   2.083   1.314   1.844
10058SOL    HW130200   2.018   1.241   1.823
10058SOL    HW230201   2.087   1.328   1.942
10059SOL     OW30202   1.941   1.240   0.653
10059SOL    HW130203   1.940   1.193   0.741
10059SOL    HW230204   2.023   1.212   0.602
10060SOL     OW30205   2.534   1.391   1.624
10060SOL    HW130206   2.456   1.341   1.662
10060SOL    HW230207   2.531   1.486   1.655
10061SOL     OW30208   3.686   0.192   1.227
10061SOL    HW130209   3.682   0.102   1.271
10061SOL    HW230210   3.689   0.181   1.128
10062SOL     OW30211   2.290   0.424   0.520
10062SOL    HW130212   2.320   0.352   0.458
10062SOL    HW230213   2.251   0.384   0.603
10063SOL     OW30214   3.567   1.487   1.104
10063SOL    HW130215   3.474   1.462   1.077
10063SOL    HW230216   3.593   1.437   1.186
10064SOL     OW30217   2.179   0.547   1.280
10064SOL    HW130218   2.217   0.488   1.352
10064SOL    HW230219   2.219   0.521   1.192
10065SOL     OW30220   2.674   1.586   0.687
10065SOL    HW130221   2.706   1.596   0.593
10065SOL    HW230222   2.595   1.524   0.689
10066SOL     OW30223   3.286   0.214   1.112
10066SOL    HW130224   3.338   0.149   1.167
10066SOL    HW230225   3.237   0.277   1.173
10067SOL     OW30226   2.863   0.034   1.154
10067SOL    HW130227   2.800  -0.038   1.123
10067SOL    HW230228   2.956  -0.002   1.154
10068SOL     OW30229   2.632   1.330   0.301
10068SOL    HW130230   2.586   1.243   0.318
10068SOL    HW230231   2.723   1.327   0.342
10069SOL     OW30232   2.480   1.567   1.284
10069SOL    HW130233   2.475   1.649   1.341
10069SOL    HW230234   2.569   1.564   1.239
10070SOL     OW30235   3.214   0.052   0.168
10070SOL    HW130236   3.249   0.011   0.084
10070SOL    HW230237   3.124   0.014   0.188
10071SOL     OW30238   3.162   0.453   0.691
10071SOL    HW130239   3.103   0.533   0.695
10071SOL    HW230240   3.177   0.418   0.784
10072SOL     OW30241   3.455   0.221   0.882
10072SOL    HW130242   3.371   0.220   0.936
10072SOL    HW230243   3.457   0.304   0.826
10073SOL     OW30244   1.901   1.077   0.300
10073SOL    HW130245   2.000   1.066   0.291
10073SOL    HW230246   1.861   0.991   0.332
10074SOL     OW30247   2.737   1.646   0.337
10074SOL    HW130248   2.660   1.611   0.283
10074SOL    HW230249   2.705   1.717   0.399
10075SOL     OW30250   2.092   0.628   1.975
10075SOL    HW130251   1.999   0.626   2.012
10075SOL    HW230252   2.093   0.589   1.883
10076SOL     OW30253   2.087   0.275   2.858
10076SOL    HW130254   2.122   0.258   2.950
10076SOL    HW230255   1.999   0.230   2.846
10077SOL     OW30256   1.881   0.368   2.509
10077SOL    HW130257   1.799   0.411   2.548
10077SOL    HW230258   1.853   0.295   2.446
10078SOL     OW30259   2.431   1.275   3.027
10078SOL    HW130260   2.338   1.268   2.990
10078SOL    HW230261   2.442   1.364   3.071
10079SOL     OW30262   3.417   1.511   2.565
10079SOL    HW130263   3.360   1.495   2.646
10079SOL    HW230264   3.358   1.521   2.485
10080SOL     OW30265   2.997   0.703   2.579
10080SOL    HW130266   3.054   0.781   2.554
10080SOL    HW230267   2.937   0.729   2.655
10081SOL     OW30268   3.617   0.607   2.093
10081SOL    HW130269   3.605   0.594   1.994
10081SOL    HW230270   3.587   0.526   2.142
10082SOL     OW30271   2.630   1.144   2.885
10082SOL    HW130272   2.552   1.161   2.945
10082SOL    HW230273   2.664   1.231   2.849
10083SOL     OW30274   2.712   0.798   3.685
10083SOL    HW130275   2.708   0.874   3.750
10083SOL    HW230276   2.734   0.834   3.594
10084SOL     OW30277   2.547   1.012   2.527
10084SOL    HW130278   2.616   0.996   2.597
10084SOL    HW230279   2.474   1.069   2.565
10085SOL     OW30280   2.548   1.161   3.665
10085SOL    HW130281   2.608   1.240   3.679
10085SOL    HW230282   2.462   1.192   3.624
10086SOL     OW30283   2.197   1.435   2.923
10086SOL    HW130284   2.119   1.404   2.870
10086SOL    HW230285   2.255   1.493   2.866
10087SOL     OW30286   3.322   1.505   3.201
10087SOL    HW130287   3.346   1.599   3.227
10087SOL    HW230288   3.306   1.451   3.283
10088SOL     OW30289   2.300   0.392   3.361
10088SOL    HW130290   2.382   0.336   3.370
10088SOL    HW230291   2.219   0.334   3.365
10089SOL     OW30292   3.465   0.447   2.599
10089SOL    HW130293   3.391   0.493   2.549
10089SOL    HW230294   3.516   0.515   2.652
10090SOL     OW30295   2.093   1.713   2.345
10090SOL    HW130296   2.127   1.790   2.399
10090SOL    HW230297   2.137   1.713   2.255
10091SOL     OW30298   2.989   1.341   3.552
10091SOL    HW130299   3.036   1.341   3.640
10091SOL    HW230300   2.941   1.254   3.541
10092SOL     OW30301   2.092   1.434   2.400
10092SOL    HW130302   2.066   1.530   2.400
10092SOL    HW230303   2.021   1.380   2.445
10093SOL     OW30304   2.102   1.091   2.748
10093SOL    HW130305   2.116   1.007   2.800
10093SOL    HW230306   2.047   1.155   2.803
10094SOL     OW30307   2.482   1.786   3.301
10094SOL    HW130308   2.390   1.769   3.336
10094SOL    HW230309   2.510   1.878   3.327
10095SOL     OW30310   2.468   0.964   1.985
10095SOL    HW130311   2.475   1.048   1.931
10095SOL    HW230312   2.514   0.977   2.073
10096SOL     OW30313   3.456   0.114   3.342
10096SOL    HW130314   3.438   0.181   3.270
10096SOL    HW230315   3.453   0.160   3.431
10097SOL     OW30316   1.984   0.643   2.425
10097SOL    HW130317   1.939   0.555   2.442
10097SOL    HW230318   1.983   0.697   2.509
10098SOL     OW30319   3.704   1.767   2.221
10098SOL    HW130320   3.758   1.738   2.301
10098SOL    HW230321   3.734   1.857   2.192
10099SOL     OW30322   1.889   1.596   1.979
10099SOL    HW130323   1.870   1.500   2.000
10099SOL    HW230324   1.856   1.654   2.054
10100SOL     OW30325   3.551   0.922   2.474
10100SOL    HW130326   3.646   0.893   2.482
10100SOL    HW230327   3.543   0.987   2.399
10101SOL     OW30328   3.503   1.108   2.294
10101SOL    HW130329   3.589   1.110   2.242
10101SOL    HW230330   3.517   1.155   2.382
10102SOL     OW30331   1.975   0.737   3.459
10102SOL    HW130332   2.063   0.724   3.504
10102SOL    HW230333   1.962   0.834   3.437
10103SOL     OW30334   2.475   1.365   2.588
10103SOL    HW130335   2.426   1.278   2.597
10103SOL    HW230336   2.452   1.408   2.501
10104SOL     OW30337   3.155   1.228   3.285
10104SOL    HW130338   3.192   1.155   3.227
10104SOL    HW230339   3.207   1.233   3.370
10105SOL     OW30340   2.671   0.004   2.364
10105SOL    HW130341   2.711   0.095   2.355
10105SOL    HW230342   2.571   0.012   2.370
10106SOL     OW30343   2.059   0.976   3.126
10106SOL    HW130344   2.148   0.931   3.112
10106SOL    HW230345   1.986   0.911   3.107
10107SOL     OW30346   3.387   0.999   2.052
10107SOL    HW130347   3.324   0.923   2.065
10107SOL    HW230348   3.435   1.017   2.138
10108SOL     OW30349   3.049   1.792   3.478
10108SOL    HW130350   3.073   1.852   3.402
10108SOL    HW230351   3.056   1.697   3.448
10109SOL     OW30352   2.179   0.251   3.663
10109SOL    HW130353   2.250   0.322   3.669
10109SOL    HW230354   2.091   0.290   3.691
10110SOL     OW30355   3.328   1.417   2.815
10110SOL    HW130356   3.269   1.423   2.895
10110SOL    HW230357   3.313   1.329   2.769
10111SOL     OW30358   3.529   1.714   2.434
10111SOL    HW130359   3.488   1.691   2.346
10111SOL    HW230360   3.511   1.640   2.499
10112SOL     OW30361   2.460   0.729   2.132
10112SOL    HW130362   2.484   0.798   2.064
10112SOL    HW230363   2.382   0.762   2.186
10113SOL     OW30364   3.143   0.345   2.806
10113SOL    HW130365   3.057   0.295   2.793
10113SOL    HW230366   3.205   0.291   2.862
10114SOL     OW30367   3.438   1.662   2.169
10114SOL    HW130368   3.527   1.708   2.172
10114SOL    HW230369   3.417   1.638   2.074
10115SOL     OW30370   2.669   0.605   3.327
10115SOL    HW130371   2.622   0.602   3.416
10115SOL    HW230372   2.618   0.550   3.261
10116SOL     OW30373   3.256   0.469   3.536
10116SOL    HW130374   3.236   0.512   3.624
10116SOL    HW230375   3.334   0.407   3.545
10117SOL     OW30376   2.835   0.890   3.434
10117SOL    HW130377   2.881   0.806   3.405
10117SOL    HW230378   2.779   0.924   3.359
10118SOL     OW30379   2.853   0.410   3.104
10118SOL    HW130380   2.776   0.444   3.158
10118SOL    HW230381   2.819   0.359   3.025
10119SOL     OW30382   2.903   0.701   2.291
10119SOL    HW130383   2.929   0.697   2.387
10119SOL    HW230384   2.818   0.650   2.277
10120SOL     OW30385   1.938   0.811   2.651
10120SOL    HW130386   2.037   0.799   2.660
10120SOL    HW230387   1.914   0.906   2.672
10121SOL     OW30388   1.992   1.821   3.433
10121SOL    HW130389   1.982   1.806   3.532
10121SOL    HW230390   1.906   1.857   3.397
10122SOL     OW30391   2.727   0.348   2.057
10122SOL    HW130392   2.786   0.411   2.008
10122SOL    HW230393   2.746   0.254   2.028
10123SOL     OW30394   3.581   0.585   3.693
10123SOL    HW130395   3.555   0.674   3.657
10123SOL    HW230396   3.579   0.517   3.620
10124SOL     OW30397   3.224   1.144   2.407
10124SOL    HW130398   3.307   1.115   2.359
10124SOL    HW230399   3.175   1.211   2.351
10125SOL     OW30400   2.412   0.196   2.747
10125SOL    HW130401   2.407   0.191   2.847
10125SOL    HW230402   2.414   0.292   2.718
10126SOL     OW30403   2.870   1.456   2.339
10126SOL    HW130404   2.824   1.528   2.287
10126SOL    HW230405   2.866   1.476   2.437
10127SOL     OW30406   2.213   1.801   2.715
10127SOL    HW130407   2.263   1.715   2.721
10127SOL    HW230408   2.278   1.878   2.712
10128SOL     OW30409   3.657   1.066   2.735
10128SOL    HW130410   3.595   1.051   2.659
10128SOL    HW230411   3.605   1.077   2.820
10129SOL     OW30412   3.089   1.550   3.368
10129SOL    HW130413   3.095   1.473   3.432
10129SOL    HW230414   3.037   1.524   3.288
10130SOL     OW30415   2.183   0.943   2.104
10130SOL    HW130416   2.265   0.982   2.062
10130SOL    HW230417   2.156   0.861   2.055
10131SOL     OW30418   3.320   0.735   2.590
10131SOL    HW130419   3.315   0.670   2.665
10131SOL    HW230420   3.400   0.794   2.603
10132SOL     OW30421   2.323   1.266   3.589
10132SOL    HW130422   2.273   1.267   3.503
10132SOL    HW230423   2.260   1.248   3.665
10133SOL     OW30424   2.973   1.776   2.099
10133SOL    HW130425   2.913   1.714   2.149
10133SOL    HW230426   3.004   1.732   2.014
10134SOL     OW30427   2.064   0.285   3.360
10134SOL    HW130428   1.984   0.345   3.347
10134SOL    HW230429   2.054   0.236   3.446
10135SOL     OW30430   3.494   1.377   1.943
10135SOL    HW130431   3.462   1.471   1.933
10135SOL    HW230432   3.418   1.314   1.931
10136SOL     OW30433   2.326   1.743   2.185
10136SOL    HW130434   2.359   1.782   2.271
10136SOL    HW230435   2.402   1.736   2.120
10137SOL     OW30436   3.262   0.107   2.288
10137SOL    HW130437   3.238   0.070   2.198
10137SOL    HW230438   3.361   0.123   2.292
10138SOL     OW30439   2.111   1.785   3.103
10138SOL    HW130440   2.168   1.720   3.153
10138SOL    HW230441   2.095   1.752   3.010
10139SOL     OW30442   2.802   1.698   2.766
10139SOL    HW130443   2.882   1.641   2.787
10139SOL    HW230444   2.753   1.658   2.689
10140SOL     OW30445   2.244   0.700   2.342
10140SOL    HW130446   2.289   0.610   2.339
10140SOL    HW230447   2.150   0.689   2.375
10141SOL     OW30448   3.409   0.222   3.591
10141SOL    HW130449   3.404   0.259   3.683
10141SOL    HW230450   3.337   0.153   3.579
10142SOL     OW30451   2.476   0.122   1.979
10142SOL    HW130452   2.574   0.100   1.986
10142SOL    HW230453   2.445   0.105   1.886
10143SOL     OW30454   2.643   0.264   3.611
10143SOL    HW130455   2.710   0.203   3.654
10143SOL    HW230456   2.570   0.283   3.676
10144SOL     OW30457   2.750   1.514   3.057
10144SOL    HW130458   2.727   1.489   2.963
10144SOL    HW230459   2.811   1.445   3.096
10145SOL     OW30460   3.213   0.590   3.295
10145SOL    HW130461   3.241   0.547   3.380
10145SOL    HW230462   3.238   0.686   3.296
10146SOL     OW30463   2.665   1.402   2.786
10146SOL    HW130464   2.755   1.416   2.744
10146SOL    HW230465   2.594   1.404   2.715
10147SOL     OW30466   2.784   0.503   2.761
10147SOL    HW130467   2.759   0.494   2.665
10147SOL    HW230468   2.832   0.421   2.792
10148SOL     OW30469   2.401   0.064   2.374
10148SOL    HW130470   2.320   0.065   2.432
10148SOL    HW230471   2.404   0.147   2.319
10149SOL     OW30472   3.296   1.188   1.903
10149SOL    HW130473   3.328   1.112   1.960
10149SOL    HW230474   3.204   1.215   1.933
10150SOL     OW30475   2.159   0.035   2.033
10150SOL    HW130476   2.208   0.119   2.012
10150SOL    HW230477   2.221  -0.030   2.078
10151SOL     OW30478   2.797   0.236   2.342
10151SOL    HW130479   2.749   0.277   2.264
10151SOL    HW230480   2.896   0.234   2.323
10152SOL     OW30481   2.938   0.683   3.326
10152SOL    HW130482   2.858   0.622   3.329
10152SOL    HW230483   3.019   0.630   3.302
10153SOL     OW30484   3.089   1.570   2.655
10153SOL    HW130485   3.110   1.644   2.590
10153SOL    HW230486   3.157   1.570   2.728
10154SOL     OW30487   2.321   1.152   2.603
10154SOL    HW130488   2.250   1.125   2.668
10154SOL    HW230489   2.295   1.124   2.510
10155SOL     OW30490   3.133   1.797   2.453
10155SOL    HW130491   3.177   1.861   2.389
10155SOL    HW230492   3.083   1.849   2.523
10156SOL     OW30493   2.894   0.549   1.878
10156SOL    HW130494   2.853   0.631   1.839
10156SOL    HW230495   2.958   0.575   1.951
10157SOL     OW30496   1.940   0.556   3.248
10157SOL    HW130497   2.032   0.555   3.207
10157SOL    HW230498   1.934   0.630   3.315
10158SOL     OW30499   2.423   0.222   3.009
10158SOL    HW130500   2.461   0.138   3.046
10158SOL    HW230501   2.335   0.241   3.053
10159SOL     OW30502   2.728   0.454   2.504
10159SOL    HW130503   2.696   0.526   2.442
10159SOL    HW230504   2.752   0.373   2.451
10160SOL     OW30505   2.879   0.039   2.615
10160SOL    HW130506   2.807   0.044   2.546
10160SOL    HW230507   2.855  -0.030   2.684
10161SOL     OW30508   3.291   1.173   2.729
10161SOL    HW130509   3.236   1.089   2.722
10161SOL    HW230510   3.317   1.202   2.637
10162SOL     OW30511   3.328   0.590   2.854
10162SOL    HW130512   3.298   0.495   2.861
10162SOL    HW230513   3.401   0.606   2.920
10163SOL     OW30514   3.719   0.833   2.239
10163SOL    HW130515   3.761   0.769   2.303
10163SOL    HW230516   3.681   0.782   2.161
10164SOL     OW30517   2.350   1.385   2.036
10164SOL    HW130518   2.263   1.370   2.083
10164SOL    HW230519   2.333   1.411   1.941
10165SOL     OW30520   3.526   1.280   2.519
10165SOL    HW130521   3.625   1.288   2.533
10165SOL    HW230522   3.481   1.364   2.550
10166SOL     OW30523   3.252   0.575   1.940
10166SOL    HW130524   3.198   0.554   2.021
10166SOL    HW230525   3.343   0.534   1.949
10167SOL     OW30526   2.389   0.256   2.190
10167SOL    HW130527   2.416   0.197   2.115
10167SOL    HW230528   2.389   0.351   2.159
10168SOL     OW30529   3.616   1.223   3.450
10168SOL    HW130530   3.707   1.184   3.437
10168SOL    HW230531   3.624   1.319   3.474
10169SOL     OW30532   2.926   1.347   3.202
10169SOL    HW130533   2.846   1.324   3.257
10169SOL    HW230534   3.009   1.321   3.251
10170SOL     OW30535   3.454   1.629   3.487
10170SOL    HW130536   3.481   1.663   3.397
10170SOL    HW230537   3.533   1.591   3.533
10171SOL     OW30538   2.973   1.195   2.962
10171SOL    HW130539   2.933   1.239   3.043
10171SOL    HW230540   2.932   1.232   2.879
10172SOL     OW30541   3.500   1.099   2.941
10172SOL    HW130542   3.505   1.180   3.000
10172SOL    HW230543   3.414   1.101   2.890
10173SOL     OW30544   2.777   0.089   3.264
10173SOL    HW130545   2.802   0.069   3.169
10173SOL    HW230546   2.849   0.145   3.306
10174SOL     OW30547   2.842   1.116   3.581
10174SOL    HW130548   2.743   1.122   3.591
10174SOL    HW230549   2.865   1.036   3.525
10175SOL     OW30550   2.567   1.050   2.230
10175SOL    HW130551   2.553   1.057   2.329
10175SOL    HW230552   2.651   0.999   2.212
10176SOL     OW30553   2.272   0.813   3.113
10176SOL    HW130554   2.358   0.825   3.163
10176SOL    HW230555   2.230   0.726   3.140
10177SOL     OW30556   3.136   0.386   3.124
10177SOL    HW130557   3.157   0.460   3.188
10177SOL    HW230558   3.047   0.403   3.081
10178SOL     OW30559   1.926   1.564   3.193
10178SOL    HW130560   1.880   1.646   3.159
10178SOL    HW230561   2.024   1.583   3.202
10179SOL     OW30562   2.229   1.100   2.363
10179SOL    HW130563   2.222   1.183   2.307
10179SOL    HW230564   2.233   1.020   2.303
10180SOL     OW30565   2.428   0.537   2.727
10180SOL    HW130566   2.440   0.603   2.653
10180SOL    HW230567   2.474   0.571   2.810
10181SOL     OW30568   3.114   1.348   2.250
10181SOL    HW130569   3.164   1.425   2.290
10181SOL    HW230570   3.019   1.350   2.282
10182SOL     OW30571   3.134   1.445   3.004
10182SOL    HW130572   3.181   1.458   3.091
10182SOL    HW230573   3.068   1.371   3.013
10183SOL     OW30574   3.444   0.639   2.334
10183SOL    HW130575   3.413   0.700   2.407
10183SOL    HW230576   3.494   0.691   2.265
10184SOL     OW30577   2.216   1.510   3.191
10184SOL    HW130578   2.195   1.466   3.104
10184SOL    HW230579   2.313   1.536   3.194
10185SOL     OW30580   2.264   0.751   3.460
10185SOL    HW130581   2.332   0.806   3.413
10185SOL    HW230582   2.304   0.663   3.487
10186SOL     OW30583   3.449   0.779   3.532
10186SOL    HW130584   3.357   0.817   3.527
10186SOL    HW230585   3.509   0.826   3.467
10187SOL     OW30586   2.875   0.105   3.632
10187SOL    HW130587   2.881   0.190   3.580
10187SOL    HW230588   2.907   0.029   3.575
10188SOL     OW30589   2.366   0.050   3.602
10188SOL    HW130590   2.324  -0.007   3.532
10188SOL    HW230591   2.300   0.119   3.634
10189SOL     OW30592   2.435   0.870   2.891
10189SOL    HW130593   2.479   0.959   2.882
10189SOL    HW230594   2.372   0.870   2.968
10190SOL     OW30595   3.222   0.862   2.907
10190SOL    HW130596   3.147   0.862   2.841
10190SOL    HW230597   3.259   0.770   2.916
10191SOL     OW30598   3.071   0.525   2.137
10191SOL    HW130599   3.084   0.441   2.191
10191SOL    HW230600   3.042   0.599   2.197
10192SOL     OW30601   2.169   0.213   3.093
10192SOL    HW130602   2.146   0.250   3.183
10192SOL    HW230603   2.139   0.118   3.087
10193SOL     OW30604   1.899   1.310   3.144
10193SOL    HW130605   1.952   1.261   3.212
10193SOL    HW230606   1.921   1.408   3.149
10194SOL     OW30607   2.594   0.634   2.926
10194SOL    HW130608   2.653   0.608   2.850
10194SOL    HW230609   2.566   0.730   2.915
10195SOL     OW30610   3.590   0.935   3.716
10195SOL    HW130611   3.544   0.928   3.627
10195SOL    HW230612   3.528   0.979   3.782
10196SOL     OW30613   2.169   0.063   2.480
10196SOL    HW130614   2.158   0.157   2.513
10196SOL    HW230615   2.164   0.000   2.557
10197SOL     OW30616   3.484   0.367   2.236
10197SOL    HW130617   3.486   0.291   2.300
10197SOL    HW230618   3.436   0.444   2.276
10198SOL     OW30619   2.885   0.766   2.828
10198SOL    HW130620   2.900   0.787   2.924
10198SOL    HW230621   2.855   0.671   2.819
10199SOL     OW30622   2.842   1.573   3.562
10199SOL    HW130623   2.822   1.617   3.474
10199SOL    HW230624   2.881   1.482   3.546
10200SOL     OW30625   3.721   1.518   3.467
10200SOL    HW130626   3.735   1.545   3.372
10200SOL    HW230627   3.804   1.540   3.520
10201SOL     OW30628   2.212   0.898   3.666
10201SOL    HW130629   2.288   0.942   3.714
10201SOL    HW230630   2.247   0.851   3.584
10202SOL     OW30631   3.402   0.274   1.987
10202SOL    HW130632   3.341   0.199   2.010
10202SOL    HW230633   3.424   0.326   2.070
10203SOL     OW30634   3.165   0.838   1.904
10203SOL    HW130635   3.199   0.745   1.919
10203SOL    HW230636   3.183   0.865   1.809
10204SOL     OW30637   2.930   1.333   2.711
10204SOL    HW130638   2.937   1.249   2.656
10204SOL    HW230639   2.992   1.402   2.675
10205SOL     OW30640   2.201   0.509   2.868
10205SOL    HW130641   2.149   0.426   2.851
10205SOL    HW230642   2.278   0.514   2.804
10206SOL     OW30643   3.000   0.380   3.540
10206SOL    HW130644   2.955   0.443   3.604
10206SOL    HW230645   3.093   0.411   3.523
10207SOL     OW30646   3.022   0.207   3.339
10207SOL    HW130647   3.022   0.271   3.416
10207SOL    HW230648   3.050   0.255   3.256
10208SOL     OW30649   1.870   1.326   2.062
10208SOL    HW130650   1.777   1.347   2.031
10208SOL    HW230651   1.880   1.227   2.075
10209SOL     OW30652   1.950   1.801   2.789
10209SOL    HW130653   1.908   1.715   2.762
10209SOL    HW230654   2.044   1.804   2.755
10210SOL     OW30655   2.366   1.568   2.772
10210SOL    HW130656   2.432   1.642   2.781
10210SOL    HW230657   2.410   1.489   2.730
10211SOL     OW30658   2.864   0.796   3.100
10211SOL    HW130659   2.905   0.764   3.186
10211SOL    HW230660   2.768   0.769   3.097
10212SOL     OW30661   1.902   0.544   2.976
10212SOL    HW130662   1.987   0.511   2.935
10212SOL    HW230663   1.915   0.559   3.074
10213SOL     OW30664   2.051   0.520   3.584
10213SOL    HW130665   2.110   0.480   3.514
10213SOL    HW230666   1.993   0.591   3.543
10214SOL     OW30667   3.231   0.950   3.522
10214SOL    HW130668   3.270   1.039   3.542
10214SOL    HW230669   3.241   0.930   3.425
10215SOL     OW30670   2.677   0.572   2.187
10215SOL    HW130671   2.684   0.483   2.141
10215SOL    HW230672   2.583   0.606   2.179
10216SOL     OW30673   3.519   0.604   3.068
10216SOL    HW130674   3.481   0.535   3.130
10216SOL    HW230675   3.601   0.568   3.024
10217SOL     OW30676   2.114   1.564   3.606
10217SOL    HW130677   2.084   1.621   3.682
10217SOL    HW230678   2.107   1.467   3.632
10218SOL     OW30679   2.533   0.464   3.131
10218SOL    HW130680   2.499   0.375   3.101
10218SOL    HW230681   2.559   0.518   3.051
10219SOL     OW30682   2.792   1.678   3.327
10219SOL    HW130683   2.768   1.660   3.232
10219SOL    HW230684   2.822   1.772   3.337
10220SOL     OW30685   2.335   0.500   2.053
10220SOL    HW130686   2.396   0.580   2.057
10220SOL    HW230687   2.240   0.531   2.060
10221SOL     OW30688   2.021   1.137   3.328
10221SOL    HW130689   2.043   1.076   3.404
10221SOL    HW230690   2.031   1.088   3.242
10222SOL     OW30691   3.209   1.059   3.096
10222SOL    HW130692   3.233   0.996   3.022
10222SOL    HW230693   3.119   1.099   3.078
10223SOL     OW30694   3.164   0.855   2.171
10223SOL    HW130695   3.078   0.824   2.213
10223SOL    HW230696   3.160   0.841   2.072
10224SOL     OW30697   3.621   1.747   3.016
10224SOL    HW130698   3.682   1.777   2.943
10224SOL    HW230699   3.583   1.658   2.994
10225SOL     OW30700   3.114   1.731   2.990
10225SOL    HW130701   3.198   1.736   2.936
10225SOL    HW230702   3.091   1.635   3.008
10226SOL     OW30703   1.945   1.258   2.884
10226SOL    HW130704   1.940   1.257   2.984
10226SOL    HW230705   1.862   1.217   2.846
10227SOL     OW30706   2.550   1.662   3.578
10227SOL    HW130707   2.494   1.743   3.587
10227SOL    HW230708   2.602   1.666   3.492
10228SOL     OW30709   3.588   0.135   2.385
10228SOL    HW130710   3.661   0.118   2.318
10228SOL    HW230711   3.557   0.048   2.423
10229SOL     OW30712   3.250   1.573   2.339
10229SOL    HW130713   3.317   1.585   2.265
10229SOL    HW230714   3.210   1.662   2.362
10230SOL     OW30715   1.992   1.794   3.713
10230SOL    HW130716   1.951   1.720   3.766
10230SOL    HW230717   2.056   1.845   3.771
10231SOL     OW30718   3.142   0.927   2.534
10231SOL    HW130719   3.202   0.846   2.536
10231SOL    HW230720   3.182   0.996   2.474
10232SOL     OW30721   2.692   1.273   3.284
10232SOL    HW130722   2.687   1.306   3.379
10232SOL    HW230723   2.606   1.292   3.238
10233SOL     OW30724   2.534   1.616   2.016
10233SOL    HW130725   2.543   1.626   1.917
10233SOL    HW230726   2.494   1.527   2.037
10234SOL     OW30727   3.512   1.720   3.256
10234SOL    HW130728   3.565   1.730   3.172
10234SOL    HW230729   3.485   1.810   3.290
10235SOL     OW30730   3.703   0.175   2.825
10235SOL    HW130731   3.742   0.090   2.789
10235SOL    HW230732   3.605   0.177   2.806
10236SOL     OW30733   2.125   0.326   2.582
10236SOL    HW130734   2.046   0.377   2.548
10236SOL    HW230735   2.116   0.311   2.680
10237SOL     OW30736   3.056   1.612   1.893
10237SOL    HW130737   3.062   1.519   1.930
10237SOL    HW230738   2.997   1.612   1.813
10238SOL     OW30739   2.684   1.002   3.234
10238SOL    HW130740   2.724   1.001   3.142
10238SOL    HW230741   2.694   1.094   3.274
10239SOL     OW30742   2.778   0.910   2.153
10239SOL    HW130743   2.841   0.948   2.085
10239SOL    HW230744   2.818   0.827   2.192
10240SOL     OW30745   3.366   1.607   1.906
10240SOL    HW130746   3.274   1.644   1.913
10240SOL    HW230747   3.404   1.627   1.816
10241SOL     OW30748   2.234   1.288   3.352
10241SOL    HW130749   2.221   1.381   3.318
10241SOL    HW230750   2.150   1.236   3.339
10242SOL     OW30751   3.476   1.292   3.151
10242SOL    HW130752   3.536   1.295   3.231
10242SOL    HW230753   3.401   1.356   3.164
10243SOL     OW30754   2.901   1.098   2.558
10243SOL    HW130755   2.831   1.051   2.612
10243SOL    HW230756   2.960   1.030   2.515
10244SOL     OW30757   2.876   0.236   2.833
10244SOL    HW130758   2.868   0.200   2.740
10244SOL    HW230759   2.874   0.160   2.898
10245SOL     OW30760   2.452   1.487   2.353
10245SOL    HW130761   2.494   1.429   2.283
10245SOL    HW230762   2.408   1.566   2.309
10246SOL     OW30763   3.571   0.385   3.243
10246SOL    HW130764   3.644   0.454   3.247
10246SOL    HW230765   3.599   0.310   3.184
10247SOL     OW30766   2.117   1.348   2.152
10247SOL    HW130767   2.021   1.349   2.125
10247SOL    HW230768   2.129   1.401   2.236
10248SOL     OW30769   1.967   1.013   3.588
10248SOL    HW130770   1.890   0.980   3.642
10248SOL    HW230771   2.052   0.983   3.630
10249SOL     OW30772   2.534   0.203   3.351
10249SOL    HW130773   2.624   0.187   3.311
10249SOL    HW230774   2.542   0.208   3.450
10250SOL     OW30775   1.937   0.345   1.895
10250SOL    HW130776   1.845   0.317   1.866
10250SOL    HW230777   1.968   0.422   1.839
10251SOL     OW30778   3.302   0.856   3.260
10251SOL    HW130779   3.245   0.908   3.197
10251SOL    HW230780   3.398   0.868   3.236
10252SOL     OW30781   1.934   0.166   2.180
10252SOL    HW130782   1.917   0.249   2.126
10252SOL    HW230783   2.024   0.129   2.158
10253SOL     OW30784   3.045   1.335   1.981
10253SOL    HW130785   2.946   1.324   1.983
10253SOL    HW230786   3.079   1.350   2.074
10254SOL     OW30787   2.475   0.842   3.293
10254SOL    HW130788   2.531   0.923   3.276
10254SOL    HW230789   2.534   0.762   3.296
10255SOL     OW30790   3.355   1.767   2.821
10255SOL    HW130791   3.388   1.831   2.752
10255SOL    HW230792   3.421   1.761   2.896
10256SOL     OW30793   2.578   0.565   3.570
10256SOL    HW130794   2.597   0.630   3.644
10256SOL    HW230795   2.638   0.485   3.579
10257SOL     OW30796   3.312   1.220   3.495
10257SOL    HW130797   3.303   1.210   3.594
10257SOL    HW230798   3.408   1.213   3.469
10258SOL     OW30799   2.252   1.741   3.422
10258SOL    HW130800   2.161   1.782   3.420
10258SOL    HW230801   2.245   1.647   3.454
10259SOL     OW30802   3.536   0.883   3.116
10259SOL    HW130803   3.509   0.794   3.079
10259SOL    HW230804   3.537   0.951   3.043
10260SOL     OW30805   3.087   0.325   2.311
10260SOL    HW130806   3.152   0.251   2.300
10260SOL    HW230807   3.107   0.375   2.395
10261SOL     OW30808   2.456   0.745   2.514
10261SOL    HW130809   2.506   0.830   2.495
10261SOL    HW230810   2.368   0.747   2.466
10262SOL     OW30811   3.639   0.342   3.504
10262SOL    HW130812   3.622   0.373   3.410
10262SOL    HW230813   3.555   0.305   3.542
10263SOL     OW30814   3.592   0.934   3.379
10263SOL    HW130815   3.630   1.025   3.394
10263SOL    HW230816   3.584   0.917   3.280
10264SOL     OW30817   2.721   1.374   1.878
10264SOL    HW130818   2.675   1.389   1.966
10264SOL    HW230819   2.765   1.459   1.848
10265SOL     OW30820   2.523   1.790   2.815
10265SOL    HW130821   2.477   1.878   2.802
10265SOL    HW230822   2.622   1.802   2.808
10266SOL     OW30823   2.721   0.956   2.723
10266SOL    HW130824   2.775   0.887   2.771
10266SOL    HW230825   2.689   1.025   2.789
10267SOL     OW30826   2.945   0.984   1.949
10267SOL    HW130827   2.922   1.037   1.867
10267SOL    HW230828   3.026   0.928   1.930
10268SOL     OW30829   3.723   1.569   2.713
10268SOL    HW130830   3.652   1.557   2.643
10268SOL    HW230831   3.724   1.490   2.773
10269SOL     OW30832   2.083   1.314   3.706
10269SOL    HW130833   2.018   1.241   3.685
10269SOL    HW230834   2.087   1.328   3.804
10270SOL     OW30835   1.941   1.240   2.515
10270SOL    HW130836   1.940   1.193   2.603
10270SOL    HW230837   2.023   1.212   2.464
10271SOL     OW30838   2.534   1.391   3.486
10271SOL    HW130839   2.456   1.341   3.524
10271SOL    HW230840   2.531   1.486   3.517
10272SOL     OW30841   3.686   0.192   3.089
10272SOL    HW130842   3.682   0.102   3.133
10272SOL    HW230843   3.689   0.181   2.990
10273SOL     OW30844   2.290   0.424   2.382
10273SOL    HW130845   2.320   0.352   2.320
10273SOL    HW230846   2.251   0.384   2.465
10274SOL     OW30847   3.567   1.487   2.966
10274SOL    HW130848   3.474   1.462   2.939
10274SOL    HW230849   3.593   1.437   3.048
10275SOL     OW30850   2.179   0.547   3.142
10275SOL    HW130851   2.217   0.488   3.214
10275SOL    HW230852   2.219   0.521   3.054
10276SOL     OW30853   2.674   1.586   2.549
10276SOL    HW130854   2.706   1.596   2.455
10276SOL    HW230855   2.595   1.524   2.551
10277SOL     OW30856   3.286   0.214   2.974
10277SOL    HW130857   3.338   0.149   3.029
10277SOL    HW230858   3.237   0.277   3.035
10278SOL     OW30859   2.863   0.034   3.016
10278SOL    HW130860   2.800  -0.038   2.985
10278SOL    HW230861   2.956  -0.002   3.016
10279SOL     OW30862   2.632   1.330   2.163
10279SOL    HW130863   2.586   1.243   2.180
10279SOL    HW230864   2.723   1.327   2.204
10280SOL     OW30865   2.480   1.567   3.146
10280SOL    HW130866   2.475   1.649   3.203
10280SOL    HW230867   2.569   1.564   3.101
10281SOL     OW30868   3.214   0.052   2.030
10281SOL    HW130869   3.249   0.011   1.946
10281SOL    HW230870   3.124   0.014   2.050
10282SOL     OW30871   3.162   0.453   2.553
10282SOL    HW130872   3.103   0.533   2.557
10282SOL    HW230873   3.177   0.418   2.646
10283SOL     OW30874   3.455   0.221   2.744
10283SOL    HW130875   3.371   0.220   2.798
10283SOL    HW230876   3.457   0.304   2.688
10284SOL     OW30877   1.901   1.077   2.162
10284SOL    HW130878   2.000   1.066   2.153
10284SOL    HW230879   1.861   0.991   2.194
10285SOL     OW30880   2.737   1.646   2.199
10285SOL    HW130881   2.660   1.611   2.145
10285SOL    HW230882   2.705   1.717   2.261
10286SOL     OW30883   2.092   0.628   3.837
10286SOL    HW130884   1.999   0.626   3.874
10286SOL    HW230885   2.093   0.589   3.745
10287SOL     OW30886   2.087   0.275   4.720
10287SOL    HW130887   2.122   0.258   4.812
10287SOL    HW230888   1.999   0.230   4.708
10288SOL     OW30889   1.881   0.368   4.371
10288SOL    HW130890   1.799   0.411   4.410
10288SOL    HW230891   1.853   0.295   4.308
10289SOL     OW30892   2.431   1.275   4.889
10289SOL    HW130893   2.338   1.268   4.852
10289SOL    HW230894   2.442   1.364   4.933
10290SOL     OW30895   3.417   1.511   4.427
10290SOL    HW130896   3.360   1.495   4.508
10290SOL    HW230897   3.358   1.521   4.347
10291SOL     OW30898   2.997   0.703   4.441
10291SOL    HW130899   3.054   0.781   4.416
10291SOL    HW230900   2.937   0.729   4.517
10292SOL     OW30901   3.617   0.607   3.955
10292SOL    HW130902   3.605   0.594   3.856
10292SOL    HW230903   3.587   0.526   4.004
10293SOL     OW30904   2.630   1.144   4.747
10293SOL    HW130905   2.552   1.161   4.807
10293SOL    HW230906   2.664   1.231   4.711
10294SOL     OW30907   2.712   0.798   5.547
10294SOL    HW130908   2.708   0.874   5.612
10294SOL    HW230909   2.734   0.834   5.456
10295SOL     OW30910   2.547   1.012   4.389
10295SOL    HW130911   2.616   0.996   4.459
10295SOL    HW230912   2.474   1.069   4.427
10296SOL     OW30913   2.548   1.161   5.527
10296SOL    HW130914   2.608   1.240   5.541
10296SOL    HW230915   2.462   1.192   5.486
10297SOL     OW30916   2.197   1.435   4.785
10297SOL    HW130917   2.119   1.404   4.732
10297SOL    HW230918   2.255   1.493   4.728
10298SOL     OW30919   3.322   1.505   5.063
10298SOL    HW130920   3.346   1.599   5.089
10298SOL    HW230921   3.306   1.451   5.145
10299SOL     OW30922   2.300   0.392   5.223
10299SOL    HW130923   2.382   0.336   5.232
10299SOL    HW230924   2.219   0.334   5.227
10300SOL     OW30925   3.465   0.447   4.461
10300SOL    HW130926   3.391   0.493   4.411
10300SOL    HW230927   3.516   0.515   4.514
10301SOL     OW30928   2.093   1.713   4.207
10301SOL    HW130929   2.127   1.790   4.261
10301SOL    HW230930   2.137   1.713   4.117
10302SOL     OW30931   2.989   1.341   5.414
10302SOL    HW130932   3.036   1.341   5.502
10302SOL    HW230933   2.941   1.254   5.403
10303SOL     OW30934   2.092   1.434   4.262
10303SOL    HW130935   2.066   1.530   4.262
10303SOL    HW230936   2.021   1.380   4.307
10304SOL     OW30937   2.102   1.091   4.610
10304SOL    HW130938   2.116   1.007   4.662
10304SOL    HW230939   2.047   1.155   4.665
10305SOL     OW30940   2.482   1.786   5.163
10305SOL    HW130941   2.390   1.769   5.198
10305SOL    HW230942   2.510   1.878   5.189
10306SOL     OW30943   2.468   0.964   3.847
10306SOL    HW130944   2.475   1.048   3.793
10306SOL    HW230945   2.514   0.977   3.935
10307SOL     OW30946   3.456   0.114   5.204
10307SOL    HW130947   3.438   0.181   5.132
10307SOL    HW230948   3.453   0.160   5.293
10308SOL     OW30949   1.984   0.643   4.287
10308SOL    HW130950   1.939   0.555   4.304
10308SOL    HW230951   1.983   0.697   4.371
10309SOL     OW30952   3.704   1.767   4.083
10309SOL    HW130953   3.758   1.738   4.163
10309SOL    HW230954   3.734   1.857   4.054
10310SOL     OW30955   1.889   1.596   3.841
10310SOL    HW130956   1.870   1.500   3.862
10310SOL    HW230957   1.856   1.654   3.916
10311SOL     OW30958   3.551   0.922   4.336
10311SOL    HW130959   3.646   0.893   4.344
10311SOL    HW230960   3.543   0.987   4.261
10312SOL     OW30961   3.503   1.108   4.156
10312SOL    HW130962   3.589   1.110   4.104
10312SOL    HW230963   3.517   1.155   4.244
10313SOL     OW30964   1.975   0.737   5.321
10313SOL    HW130965   2.063   0.724   5.366
10313SOL    HW230966   1.962   0.834   5.299
10314SOL     OW30967   2.475   1.365   4.450
10314SOL    HW130968   2.426   1.278   4.459
10314SOL    HW230969   2.452   1.408   4.363
10315SOL     OW30970   3.155   1.228   5.147
10315SOL    HW130971   3.192   1.155   5.089
10315SOL    HW230972   3.207   1.233   5.232
10316SOL     OW30973   2.671   0.004   4.226
10316SOL    HW130974   2.711   0.095   4.217
10316SOL    HW230975   2.571   0.012   4.232
10317SOL     OW30976   2.059   0.976   4.988
10317SOL    HW130977   2.148   0.931   4.974
10317SOL    HW230978   1.986   0.911   4.969
10318SOL     OW30979   3.387   0.999   3.914
10318SOL    HW130980   3.324   0.923   3.927
10318SOL    HW230981   3.435   1.017   4.000
10319SOL     OW30982   3.049   1.792   5.340
10319SOL    HW130983   3.073   1.852   5.264
10319SOL    HW230984   3.056   1.697   5.310
10320SOL     OW30985   2.179   0.251   5.525
10320SOL    HW130986   2.250   0.322   5.531
10320SOL    HW230987   2.091   0.290   5.553
10321SOL     OW30988   3.328   1.417   4.677
10321SOL    HW130989   3.269   1.423   4.757
10321SOL    HW230990   3.313   1.329   4.631
10322SOL     OW30991   3.529   1.714   4.296
10322SOL    HW130992   3.488   1.691   4.208
10322SOL    HW230993   3.511   1.640   4.361
10323SOL     OW30994   2.460   0.729   3.994
10323SOL    HW130995   2.484   0.798   3.926
10323SOL    HW230996   2.382   0.762   4.048
10324SOL     OW30997   3.143   0.345   4.668
10324SOL    HW130998   3.057   0.295   4.655
10324SOL    HW230999   3.205   0.291   4.724
10325SOL     OW31000   3.438   1.662   4.031
10325SOL    HW131001   3.527   1.708   4.034
10325SOL    HW231002   3.417   1.638   3.936
10326SOL     OW31003   2.669   0.605   5.189
10326SOL    HW131004   2.622   0.602   5.278
10326SOL    HW231005   2.618   0.550   5.123
10327SOL     OW31006   3.256   0.469   5.398
10327SOL    HW131007   3.236   0.512   5.486
10327SOL    HW231008   3.334   0.407   5.407
10328SOL     OW31009   2.835   0.890   5.296
10328SOL    HW131010   2.881   0.806   5.267
10328SOL    HW231011   2.779   0.924   5.221
10329SOL     OW31012   2.853   0.410   4.966
10329SOL    HW131013   2.776   0.444   5.020
10329SOL    HW231014   2.819   0.359   4.887
10330SOL     OW31015   1.938   0.811   4.513
10330SOL    HW131016   2.037   0.799   4.522
10330SOL    HW231017   1.914   0.906   4.534
10331SOL     OW31018   1.992   1.821   5.295
10331SOL    HW131019   1.982   1.806   5.394
10331SOL    HW231020   1.906   1.857   5.259
10332SOL     OW31021   2.727   0.348   3.919
10332SOL    HW131022   2.786   0.411   3.870
10332SOL    HW231023   2.746   0.254   3.890
10333SOL     OW31024   3.581   0.585   5.555
10333SOL    HW131025   3.555   0.674   5.519
10333SOL    HW231026   3.579   0.517   5.482
10334SOL     OW31027   3.224   1.144   4.269
10334SOL    HW131028   3.307   1.115   4.221
10334SOL    HW231029   3.175   1.211   4.213
10335SOL     OW31030   2.412   0.196   4.609
10335SOL    HW131031   2.407   0.191   4.709
10335SOL    HW231032   2.414   0.292   4.580
10336SOL     OW31033   2.870   1.456   4.201
10336SOL    HW131034   2.824   1.528   4.149
10336SOL    HW231035   2.866   1.476   4.299
10337SOL     OW31036   2.213   1.801   4.577
10337SOL    HW131037   2.263   1.715   4.583
10337SOL    HW231038   2.278   1.878   4.574
10338SOL     OW31039   3.657   1.066   4.597
10338SOL    HW131040   3.595   1.051   4.521
10338SOL    HW231041   3.605   1.077   4.682
10339SOL     OW31042   3.089   1.550   5.230
10339SOL    HW131043   3.095   1.473   5.294
10339SOL    HW231044   3.037   1.524   5.150
10340SOL     OW31045   2.183   0.943   3.966
10340SOL    HW131046   2.265   0.982   3.924
10340SOL    HW231047   2.156   0.861   3.917
10341SOL     OW31048   3.320   0.735   4.452
10341SOL    HW131049   3.315   0.670   4.527
10341SOL    HW231050   3.400   0.794   4.465
10342SOL     OW31051   2.323   1.266   5.451
10342SOL    HW131052   2.273   1.267   5.365
10342SOL    HW231053   2.260   1.248   5.527
10343SOL     OW31054   2.973   1.776   3.961
10343SOL    HW131055   2.913   1.714   4.011
10343SOL    HW231056   3.004   1.732   3.876
10344SOL     OW31057   2.064   0.285   5.222
10344SOL    HW131058   1.984   0.345   5.209
10344SOL    HW231059   2.054   0.236   5.308
10345SOL     OW31060   3.494   1.377   3.805
10345SOL    HW131061   3.462   1.471   3.795
10345SOL    HW231062   3.418   1.314   3.793
10346SOL     OW31063   2.326   1.743   4.047
10346SOL    HW131064   2.359   1.782   4.133
10346SOL    HW231065   2.402   1.736   3.982
10347SOL     OW31066   3.262   0.107   4.150
10347SOL    HW131067   3.238   0.070   4.060
10347SOL    HW231068   3.361   0.123   4.154
10348SOL     OW31069   2.111   1.785   4.965
10348SOL    HW131070   2.168   1.720   5.015
10348SOL    HW231071   2.095   1.752   4.872
10349SOL     OW31072   2.802   1.698   4.628
10349SOL    HW131073   2.882   1.641   4.649
10349SOL    HW231074   2.753   1.658   4.551
10350SOL     OW31075   2.244   0.700   4.204
10350SOL    HW131076   2.289   0.610   4.201
10350SOL    HW231077   2.150   0.689   4.237
10351SOL     OW31078   3.409   0.222   5.453
10351SOL    HW131079   3.404   0.259   5.545
10351SOL    HW231080   3.337   0.153   5.441
10352SOL     OW31081   2.476   0.122   3.841
10352SOL    HW131082   2.574   0.100   3.848
10352SOL    HW231083   2.445   0.105   3.748
10353SOL     OW31084   2.643   0.264   5.473
10353SOL    HW131085   2.710   0.203   5.516
10353SOL    HW231086   2.570   0.283   5.538
10354SOL     OW31087   2.750   1.514   4.919
10354SOL    HW131088   2.727   1.489   4.825
10354SOL    HW231089   2.811   1.445   4.958
10355SOL     OW31090   3.213   0.590   5.157
10355SOL    HW131091   3.241   0.547   5.242
10355SOL    HW231092   3.238   0.686   5.158
10356SOL     OW31093   2.665   1.402   4.648
10356SOL    HW131094   2.755   1.416   4.606
10356SOL    HW231095   2.594   1.404   4.577
10357SOL     OW31096   2.784   0.503   4.623
10357SOL    HW131097   2.759   0.494   4.527
10357SOL    HW231098   2.832   0.421   4.654
10358SOL     OW31099   2.401   0.064   4.236
10358SOL    HW131100   2.320   0.065   4.294
10358SOL    HW231101   2.404   0.147   4.181
10359SOL     OW31102   3.296   1.188   3.765
10359SOL    HW131103   3.328   1.112   3.822
10359SOL    HW231104   3.204   1.215   3.795
10360SOL     OW31105   2.159   0.035   3.895
10360SOL    HW131106   2.208   0.119   3.874
10360SOL    HW231107   2.221  -0.030   3.940
10361SOL     OW31108   2.797   0.236   4.204
10361SOL    HW131109   2.749   0.277   4.126
10361SOL    HW231110   2.896   0.234   4.185
10362SOL     OW31111   2.938   0.683   5.188
10362SOL    HW131112   2.858   0.622   5.191
10362SOL    HW231113   3.019   0.630   5.164
10363SOL     OW31114   3.089   1.570   4.517
10363SOL    HW131115   3.110   1.644   4.452
10363SOL    HW231116   3.157   1.570   4.590
10364SOL     OW31117   2.321   1.152   4.465
10364SOL    HW131118   2.250   1.125   4.530
10364SOL    HW231119   2.295   1.124   4.372
10365SOL     OW31120   3.133   1.797   4.315
10365SOL    HW131121   3.177   1.861   4.251
10365SOL    HW231122   3.083   1.849   4.385
10366SOL     OW31123   2.894   0.549   3.740
10366SOL    HW131124   2.853   0.631   3.701
10366SOL    HW231125   2.958   0.575   3.813
10367SOL     OW31126   1.940   0.556   5.110
10367SOL    HW131127   2.032   0.555   5.069
10367SOL    HW231128   1.934   0.630   5.177
10368SOL     OW31129   2.423   0.222   4.871
10368SOL    HW131130   2.461   0.138   4.908
10368SOL    HW231131   2.335   0.241   4.915
10369SOL     OW31132   2.728   0.454   4.366
10369SOL    HW131133   2.696   0.526   4.304
10369SOL    HW231134   2.752   0.373   4.313
10370SOL     OW31135   2.879   0.039   4.477
10370SOL    HW131136   2.807   0.044   4.408
10370SOL    HW231137   2.855  -0.030   4.546
10371SOL     OW31138   3.291   1.173   4.591
10371SOL    HW131139   3.236   1.089   4.584
10371SOL    HW231140   3.317   1.202   4.499
10372SOL     OW31141   3.328   0.590   4.716
10372SOL    HW131142   3.298   0.495   4.723
10372SOL    HW231143   3.401   0.606   4.782
10373SOL     OW31144   3.719   0.833   4.101
10373SOL    HW131145   3.761   0.769   4.165
10373SOL    HW231146   3.681   0.782   4.023
10374SOL     OW31147   2.350   1.385   3.898
10374SOL    HW131148   2.263   1.370   3.945
10374SOL    HW231149   2.333   1.411   3.803
10375SOL     OW31150   3.526   1.280   4.381
10375SOL    HW131151   3.625   1.288   4.395
10375SOL    HW231152   3.481   1.364   4.412
10376SOL     OW31153   3.252   0.575   3.802
10376SOL    HW131154   3.198   0.554   3.883
10376SOL    HW231155   3.343   0.534   3.811
10377SOL     OW31156   2.389   0.256   4.052
10377SOL    HW131157   2.416   0.197   3.977
10377SOL    HW231158   2.389   0.351   4.021
10378SOL     OW31159   3.616   1.223   5.312
10378SOL    HW131160   3.707   1.184   5.299
10378SOL    HW231161   3.624   1.319   5.336
10379SOL     OW31162   2.926   1.347   5.064
10379SOL    HW131163   2.846   1.324   5.119
10379SOL    HW231164   3.009   1.321   5.113
10380SOL     OW31165   3.454   1.629   5.349
10380SOL    HW131166   3.481   1.663   5.259
10380SOL    HW231167   3.533   1.591   5.395
10381SOL     OW31168   2.973   1.195   4.824
10381SOL    HW131169   2.933   1.239   4.905
10381SOL    HW231170   2.932   1.232   4.741
10382SOL     OW31171   3.500   1.099   4.803
10382SOL    HW131172   3.505   1.180   4.862
10382SOL    HW231173   3.414   1.101   4.752
10383SOL     OW31174   2.777   0.089   5.126
10383SOL    HW131175   2.802   0.069   5.031
10383SOL    HW231176   2.849   0.145   5.168
10384SOL     OW31177   2.842   1.116   5.443
10384SOL    HW131178   2.743   1.122   5.453
10384SOL    HW231179   2.865   1.036   5.387
10385SOL     OW31180   2.567   1.050   4.092
10385SOL    HW131181   2.553   1.057   4.191
10385SOL    HW231182   2.651   0.999   4.074
10386SOL     OW31183   2.272   0.813   4.975
10386SOL    HW131184   2.358   0.825   5.025
10386SOL    HW231185   2.230   0.726   5.002
10387SOL     OW31186   3.136   0.386   4.986
10387SOL    HW131187   3.157   0.460   5.050
10387SOL    HW231188   3.047   0.403   4.943
10388SOL     OW31189   1.926   1.564   5.055
10388SOL    HW131190   1.880   1.646   5.021
10388SOL    HW231191   2.024   1.583   5.064
10389SOL     OW31192   2.229   1.100   4.225
10389SOL    HW131193   2.222   1.183   4.169
10389SOL    HW231194   2.233   1.020   4.165
10390SOL     OW31195   2.428   0.537   4.589
10390SOL    HW131196   2.440   0.603   4.515
10390SOL    HW231197   2.474   0.571   4.672
10391SOL     OW31198   3.114   1.348   4.112
10391SOL    HW131199   3.164   1.425   4.152
10391SOL    HW231200   3.019   1.350   4.144
10392SOL     OW31201   3.134   1.445   4.866
10392SOL    HW131202   3.181   1.458   4.953
10392SOL    HW231203   3.068   1.371   4.875
10393SOL     OW31204   3.444   0.639   4.196
10393SOL    HW131205   3.413   0.700   4.269
10393SOL    HW231206   3.494   0.691   4.127
10394SOL     OW31207   2.216   1.510   5.053
10394SOL    HW131208   2.195   1.466   4.966
10394SOL    HW231209   2.313   1.536   5.056
10395SOL     OW31210   2.264   0.751   5.322
10395SOL    HW131211   2.332   0.806   5.275
10395SOL    HW231212   2.304   0.663   5.349
10396SOL     OW31213   3.449   0.779   5.394
10396SOL    HW131214   3.357   0.817   5.389
10396SOL    HW231215   3.509   0.826   5.329
10397SOL     OW31216   2.875   0.105   5.494
10397SOL    HW131217   2.881   0.190   5.442
10397SOL    HW231218   2.907   0.029   5.437
10398SOL     OW31219   2.366   0.050   5.464
10398SOL    HW131220   2.324  -0.007   5.394
10398SOL    HW231221   2.300   0.119   5.496
10399SOL     OW31222   2.435   0.870   4.753
10399SOL    HW131223   2.479   0.959   4.744
10399SOL    HW231224   2.372   0.870   4.830
10400SOL     OW31225   3.222   0.862   4.769
10400SOL    HW131226   3.147   0.862   4.703
10400SOL    HW231227   3.259   0.770   4.778
10401SOL     OW31228   3.071   0.525   3.999
10401SOL    HW131229   3.084   0.441   4.053
10401SOL    HW231230   3.042   0.599   4.059
10402SOL     OW31231   2.169   0.213   4.955
10402SOL    HW131232   2.146   0.250   5.045
10402SOL    HW231233   2.139   0.118   4.949
10403SOL     OW31234   1.899   1.310   5.006
10403SOL    HW131235   1.952   1.261   5.074
10403SOL    HW231236   1.921   1.408   5.011
10404SOL     OW31237   2.594   0.634   4.788
10404SOL    HW131238   2.653   0.608   4.712
10404SOL    HW231239   2.566   0.730   4.777
10405SOL     OW31240   3.590   0.935   5.578
10405SOL    HW131241   3.544   0.928   5.489
10405SOL    HW231242   3.528   0.979   5.644
10406SOL     OW31243   2.169   0.063   4.342
10406SOL    HW131244   2.158   0.157   4.375
10406SOL    HW231245   2.164   0.000   4.419
10407SOL     OW31246   3.484   0.367   4.098
10407SOL    HW131247   3.486   0.291   4.162
10407SOL    HW231248   3.436   0.444   4.138
10408SOL     OW31249   2.885   0.766   4.690
10408SOL    HW131250   2.900   0.787   4.786
10408SOL    HW231251   2.855   0.671   4.681
10409SOL     OW31252   2.842   1.573   5.424
10409SOL    HW131253   2.822   1.617   5.336
10409SOL    HW231254   2.881   1.482   5.408
10410SOL     OW31255   3.721   1.518   5.329
10410SOL    HW131256   3.735   1.545   5.234
10410SOL    HW231257   3.804   1.540   5.382
10411SOL     OW31258   2.212   0.898   5.528
10411SOL    HW131259   2.288   0.942   5.576
10411SOL    HW231260   2.247   0.851   5.446
10412SOL     OW31261   3.402   0.274   3.849
10412SOL    HW131262   3.341   0.199   3.872
10412SOL    HW231263   3.424   0.326   3.932
10413SOL     OW31264   3.165   0.838   3.766
10413SOL    HW131265   3.199   0.745   3.781
10413SOL    HW231266   3.183   0.865   3.671
10414SOL     OW31267   2.930   1.333   4.573
10414SOL    HW131268   2.937   1.249   4.518
10414SOL    HW231269   2.992   1.402   4.537
10415SOL     OW31270   2.181   0.810   4.673
10415SOL    HW131271   2.274   0.846   4.678
10415SOL    HW231272   2.175   0.725   4.725
10416SOL     OW31273   2.201   0.509   4.730
10416SOL    HW131274   2.149   0.426   4.713
10416SOL    HW231275   2.278   0.514   4.666
10417SOL     OW31276   3.000   0.380   5.402
10417SOL    HW131277   2.955   0.443   5.466
10417SOL    HW231278   3.093   0.411   5.385
10418SOL     OW31279   3.022   0.207   5.201
10418SOL    HW131280   3.022   0.271   5.278
10418SOL    HW231281   3.050   0.255   5.118
10419SOL     OW31282   1.870   1.326   3.924
10419SOL    HW131283   1.777   1.347   3.893
10419SOL    HW231284   1.880   1.227   3.937
10420SOL     OW31285   1.950   1.801   4.651
10420SOL    HW131286   1.908   1.715   4.624
10420SOL    HW231287   2.044   1.804   4.617
10421SOL     OW31288   2.366   1.568   4.634
10421SOL    HW131289   2.432   1.642   4.643
10421SOL    HW231290   2.410   1.489   4.592
10422SOL     OW31291   2.864   0.796   4.962
10422SOL    HW131292   2.905   0.764   5.048
10422SOL    HW231293   2.768   0.769   4.959
10423SOL     OW31294   1.902   0.544   4.838
10423SOL    HW131295   1.987   0.511   4.797
10423SOL    HW231296   1.915   0.559   4.936
10424SOL     OW31297   2.051   0.520   5.446
10424SOL    HW131298   2.110   0.480   5.376
10424SOL    HW231299   1.993   0.591   5.405
10425SOL     OW31300   2.677   0.572   4.049
10425SOL    HW131301   2.684   0.483   4.003
10425SOL    HW231302   2.583   0.606   4.041
10426SOL     OW31303   3.519   0.604   4.930
10426SOL    HW131304   3.481   0.535   4.992
10426SOL    HW231305   3.601   0.568   4.886
10427SOL     OW31306   2.114   1.564   5.468
10427SOL    HW131307   2.084   1.621   5.544
10427SOL    HW231308   2.107   1.467   5.494
10428SOL     OW31309   2.533   0.464   4.993
10428SOL    HW131310   2.499   0.375   4.963
10428SOL    HW231311   2.559   0.518   4.913
10429SOL     OW31312   2.792   1.678   5.189
10429SOL    HW131313   2.768   1.660   5.094
10429SOL    HW231314   2.822   1.772   5.199
10430SOL     OW31315   2.335   0.500   3.915
10430SOL    HW131316   2.396   0.580   3.919
10430SOL    HW231317   2.240   0.531   3.922
10431SOL     OW31318   2.021   1.137   5.190
10431SOL    HW131319   2.043   1.076   5.266
10431SOL    HW231320   2.031   1.088   5.104
10432SOL     OW31321   3.209   1.059   4.958
10432SOL    HW131322   3.233   0.996   4.884
10432SOL    HW231323   3.119   1.099   4.940
10433SOL     OW31324   3.164   0.855   4.033
10433SOL    HW131325   3.078   0.824   4.075
10433SOL    HW231326   3.160   0.841   3.934
10434SOL     OW31327   3.621   1.747   4.878
10434SOL    HW131328   3.682   1.777   4.805
10434SOL    HW231329   3.583   1.658   4.856
10435SOL     OW31330   3.114   1.731   4.852
10435SOL    HW131331   3.198   1.736   4.798
10435SOL    HW231332   3.091   1.635   4.870
10436SOL     OW31333   1.945   1.258   4.746
10436SOL    HW131334   1.940   1.257   4.846
10436SOL    HW231335   1.862   1.217   4.708
10437SOL     OW31336   2.550   1.662   5.440
10437SOL    HW131337   2.494   1.743   5.449
10437SOL    HW231338   2.602   1.666   5.354
10438SOL     OW31339   3.588   0.135   4.247
10438SOL    HW131340   3.661   0.118   4.180
10438SOL    HW231341   3.557   0.048   4.285
10439SOL     OW31342   3.250   1.573   4.201
10439SOL    HW131343   3.317   1.585   4.127
10439SOL    HW231344   3.210   1.662   4.224
10440SOL     OW31345   1.992   1.794   5.575
10440SOL    HW131346   1.951   1.720   5.628
10440SOL    HW231347   2.056   1.845   5.633
10441SOL     OW31348   3.142   0.927   4.396
10441SOL    HW131349   3.202   0.846   4.398
10441SOL    HW231350   3.182   0.996   4.336
10442SOL     OW31351   2.692   1.273   5.146
10442SOL    HW131352   2.687   1.306   5.241
10442SOL    HW231353   2.606   1.292   5.100
10443SOL     OW31354   2.534   1.616   3.878
10443SOL    HW131355   2.543   1.626   3.779
10443SOL    HW231356   2.494   1.527   3.899
10444SOL     OW31357   3.512   1.720   5.118
10444SOL    HW131358   3.565   1.730   5.034
10444SOL    HW231359   3.485   1.810   5.152
10445SOL     OW31360   3.703   0.175   4.687
10445SOL    HW131361   3.742   0.090   4.651
10445SOL    HW231362   3.605   0.177   4.668
10446SOL     OW31363   2.125   0.326   4.444
10446SOL    HW131364   2.046   0.377   4.410
10446SOL    HW231365   2.116   0.311   4.542
10447SOL     OW31366   3.056   1.612   3.755
10447SOL    HW131367   3.062   1.519   3.792
10447SOL    HW231368   2.997   1.612   3.675
10448SOL     OW31369   2.684   1.002   5.096
10448SOL    HW131370   2.724   1.001   5.004
10448SOL    HW231371   2.694   1.094   5.136
10449SOL     OW31372   2.778   0.910   4.015
10449SOL    HW131373   2.841   0.948   3.947
10449SOL    HW231374   2.818   0.827   4.054
10450SOL     OW31375   3.366   1.607   3.768
10450SOL    HW131376   3.274   1.644   3.775
10450SOL    HW231377   3.404   1.627   3.678
10451SOL     OW31378   2.234   1.288   5.214
10451SOL    HW131379   2.221   1.381   5.180
10451SOL    HW231380   2.150   1.236   5.201
10452SOL     OW31381   3.476   1.292   5.013
10452SOL    HW131382   3.536   1.295   5.093
10452SOL    HW231383   3.401   1.356   5.026
10453SOL     OW31384   2.901   1.098   4.420
10453SOL    HW131385   2.831   1.051   4.474
10453SOL    HW231386   2.960   1.030   4.377
10454SOL     OW31387   2.876   0.236   4.695
10454SOL    HW131388   2.868   0.200   4.602
10454SOL    HW231389   2.874   0.160   4.760
10455SOL     OW31390   2.452   1.487   4.215
10455SOL    HW131391   2.494   1.429   4.145
10455SOL    HW231392   2.408   1.566   4.171
10456SOL     OW31393   3.571   0.385   5.105
10456SOL    HW131394   3.644   0.454   5.109
10456SOL    HW231395   3.599   0.310   5.046
10457SOL     OW31396   2.117   1.348   4.014
10457SOL    HW131397   2.021   1.349   3.987
10457SOL    HW231398   2.129   1.401   4.098
10458SOL     OW31399   1.967   1.013   5.450
10458SOL    HW131400   1.890   0.980   5.504
10458SOL    HW231401   2.052   0.983   5.492
10459SOL     OW31402   2.534   0.203   5.213
10459SOL    HW131403   2.624   0.187   5.173
10459SOL    HW231404   2.542   0.208   5.312
10460SOL     OW31405   1.937   0.345   3.757
10460SOL    HW131406   1.845   0.317   3.728
10460SOL    HW231407   1.968   0.422   3.701
10461SOL     OW31408   3.302   0.856   5.122
10461SOL    HW131409   3.245   0.908   5.059
10461SOL    HW231410   3.398   0.868   5.098
10462SOL     OW31411   1.934   0.166   4.042
10462SOL    HW131412   1.917   0.249   3.988
10462SOL    HW231413   2.024   0.129   4.020
10463SOL     OW31414   3.045   1.335   3.843
10463SOL    HW131415   2.946   1.324   3.845
10463SOL    HW231416   3.079   1.350   3.936
10464SOL     OW31417   2.475   0.842   5.155
10464SOL    HW131418   2.531   0.923   5.138
10464SOL    HW231419   2.534   0.762   5.158
10465SOL     OW31420   3.355   1.767   4.683
10465SOL    HW131421   3.388   1.831   4.614
10465SOL    HW231422   3.421   1.761   4.758
10466SOL     OW31423   2.578   0.565   5.432
10466SOL    HW131424   2.597   0.630   5.506
10466SOL    HW231425   2.638   0.485   5.441
10467SOL     OW31426   3.312   1.220   5.357
10467SOL    HW131427   3.303   1.210   5.456
10467SOL    HW231428   3.408   1.213   5.331
10468SOL     OW31429   2.252   1.741   5.284
10468SOL    HW131430   2.161   1.782   5.282
10468SOL    HW231431   2.245   1.647   5.316
10469SOL     OW31432   3.536   0.883   4.978
10469SOL    HW131433   3.509   0.794   4.941
10469SOL    HW231434   3.537   0.951   4.905
10470SOL     OW31435   3.087   0.325   4.173
10470SOL    HW131436   3.152   0.251   4.162
10470SOL    HW231437   3.107   0.375   4.257
10471SOL     OW31438   2.456   0.745   4.376
10471SOL    HW131439   2.506   0.830   4.357
10471SOL    HW231440   2.368   0.747   4.328
10472SOL     OW31441   3.639   0.342   5.366
10472SOL    HW131442   3.622   0.373   5.272
10472SOL    HW231443   3.555   0.305   5.404
10473SOL     OW31444   3.592   0.934   5.241
10473SOL    HW131445   3.630   1.025   5.256
10473SOL    HW231446   3.584   0.917   5.142
10474SOL     OW31447   2.721   1.374   3.740
10474SOL    HW131448   2.675   1.389   3.828
10474SOL    HW231449   2.765   1.459   3.710
10475SOL     OW31450   2.523   1.790   4.677
10475SOL    HW131451   2.477   1.878   4.664
10475SOL    HW231452   2.622   1.802   4.670
10476SOL     OW31453   2.721   0.956   4.585
10476SOL    HW131454   2.775   0.887   4.633
10476SOL    HW231455   2.689   1.025   4.651
10477SOL     OW31456   2.945   0.984   3.811
10477SOL    HW131457   2.922   1.037   3.729
10477SOL    HW231458   3.026   0.928   3.792
10478SOL     OW31459   3.723   1.569   4.575
10478SOL    HW131460   3.652   1.557   4.505
10478SOL    HW231461   3.724   1.490   4.635
10479SOL     OW31462   2.083   1.314   5.568
10479SOL    HW131463   2.018   1.241   5.547
10479SOL    HW231464   2.087   1.328   5.666
10480SOL     OW31465   1.941   1.240   4.377
10480SOL    HW131466   1.940   1.193   4.465
10480SOL    HW231467   2.023   1.212   4.326
10481SOL     OW31468   2.534   1.391   5.348
10481SOL    HW131469   2.456   1.341   5.386
10481SOL    HW231470   2.531   1.486   5.379
10482SOL     OW31471   3.686   0.192   4.951
10482SOL    HW131472   3.682   0.102   4.995
10482SOL    HW231473   3.689   0.181   4.852
10483SOL     OW31474   2.290   0.424   4.244
10483SOL    HW131475   2.320   0.352   4.182
10483SOL    HW231476   2.251   0.384   4.327
10484SOL     OW31477   3.567   1.487   4.828
10484SOL    HW131478   3.474   1.462   4.801
10484SOL    HW231479   3.593   1.437   4.910
10485SOL     OW31480   2.179   0.547   5.004
10485SOL    HW131481   2.217   0.488   5.076
10485SOL    HW231482   2.219   0.521   4.916
10486SOL     OW31483   2.674   1.586   4.411
10486SOL    HW131484   2.706   1.596   4.317
10486SOL    HW231485   2.595   1.524   4.413
10487SOL     OW31486   3.286   0.214   4.836
10487SOL    HW131487   3.338   0.149   4.891
10487SOL    HW231488   3.237   0.277   4.897
10488SOL     OW31489   2.863   0.034   4.878
10488SOL    HW131490   2.800  -0.038   4.847
10488SOL    HW231491   2.956  -0.002   4.878
10489SOL     OW31492   2.632   1.330   4.025
10489SOL    HW131493   2.586   1.243   4.042
10489SOL    HW231494   2.723   1.327   4.066
10490SOL     OW31495   2.480   1.567   5.008
10490SOL    HW131496   2.475   1.649   5.065
10490SOL    HW231497   2.569   1.564   4.963
10491SOL     OW31498   3.214   0.052   3.892
10491SOL    HW131499   3.249   0.011   3.808
10491SOL    HW231500   3.124   0.014   3.912
10492SOL     OW31501   3.162   0.453   4.415
10492SOL    HW131502   3.103   0.533   4.419
10492SOL    HW231503   3.177   0.418   4.508
10493SOL     OW31504   3.455   0.221   4.606
10493SOL    HW131505   3.371   0.220   4.660
10493SOL    HW231506   3.457   0.304   4.550
10494SOL     OW31507   1.901   1.077   4.024
10494SOL    HW131508   2.000   1.066   4.015
10494SOL    HW231509   1.861   0.991   4.056
10495SOL     OW31510   2.737   1.646   4.061
10495SOL    HW131511   2.660   1.611   4.007
10495SOL    HW231512   2.705   1.717   4.123
10496SOL     OW31513   2.092   0.628   5.699
10496SOL    HW131514   1.999   0.626   5.736
10496SOL    HW231515   2.093   0.589   5.607
10497SOL     OW31516   2.087   0.275   6.582
10497SOL    HW131517   2.122   0.258   6.674
10497SOL    HW231518   1.999   0.230   6.570
10498SOL     OW31519   1.881   0.368   6.233
10498SOL    HW131520   1.799   0.411   6.272
10498SOL    HW231521   1.853   0.295   6.170
10499SOL     OW31522   2.431   1.275   6.751
10499SOL    HW131523   2.338   1.268   6.714
10499SOL    HW231524   2.442   1.364   6.795
10500SOL     OW31525   3.417   1.511   6.289
10500SOL    HW131526   3.360   1.495   6.370
10500SOL    HW231527   3.358   1.521   6.209
10501SOL     OW31528   2.997   0.703   6.303
10501SOL    HW131529   3.054   0.781   6.278
10501SOL    HW231530   2.937   0.729   6.379
10502SOL     OW31531   3.617   0.607   5.817
10502SOL    HW131532   3.605   0.594   5.718
10502SOL    HW231533   3.587   0.526   5.866
10503SOL     OW31534   2.630   1.144   6.609
10503SOL    HW131535   2.552   1.161   6.669
10503SOL    HW231536   2.664   1.231   6.573
10504SOL     OW31537   2.712   0.798   7.409
10504SOL    HW131538   2.708   0.874   7.474
10504SOL    HW231539   2.734   0.834   7.318
10505SOL     OW31540   2.547   1.012   6.251
10505SOL    HW131541   2.616   0.996   6.321
10505SOL    HW231542   2.474   1.069   6.289
10506SOL     OW31543   2.548   1.161   7.389
10506SOL    HW131544   2.608   1.240   7.403
10506SOL    HW231545   2.462   1.192   7.348
10507SOL     OW31546   2.197   1.435   6.647
10507SOL    HW131547   2.119   1.404   6.594
10507SOL    HW231548   2.255   1.493   6.590
10508SOL     OW31549   3.322   1.505   6.925
10508SOL    HW131550   3.346   1.599   6.951
10508SOL    HW231551   3.306   1.451   7.007
10509SOL     OW31552   2.300   0.392   7.085
10509SOL    HW131553   2.382   0.336   7.094
10509SOL    HW231554   2.219   0.334   7.089
10510SOL     OW31555   3.465   0.447   6.323
10510SOL    HW131556   3.391   0.493   6.273
10510SOL    HW231557   3.516   0.515   6.376
10511SOL     OW31558   2.093   1.713   6.069
10511SOL    HW131559   2.127   1.790   6.123
10511SOL    HW231560   2.137   1.713   5.979
10512SOL     OW31561   2.989   1.341   7.276
10512SOL    HW131562   3.036   1.341   7.364
10512SOL    HW231563   2.941   1.254   7.265
10513SOL     OW31564   2.092   1.434   6.124
10513SOL    HW131565   2.066   1.530   6.124
10513SOL    HW231566   2.021   1.380   6.169
10514SOL     OW31567   2.102   1.091   6.472
10514SOL    HW131568   2.116   1.007   6.524
10514SOL    HW231569   2.047   1.155   6.527
10515SOL     OW31570   2.482   1.786   7.025
10515SOL    HW131571   2.390   1.769   7.060
10515SOL    HW231572   2.510   1.878   7.051
10516SOL     OW31573   2.468   0.964   5.709
10516SOL    HW131574   2.475   1.048   5.655
10516SOL    HW231575   2.514   0.977   5.797
10517SOL     OW31576   3.456   0.114   7.066
10517SOL    HW131577   3.438   0.181   6.994
10517SOL    HW231578   3.453   0.160   7.155
10518SOL     OW31579   1.984   0.643   6.149
10518SOL    HW131580   1.939   0.555   6.166
10518SOL    HW231581   1.983   0.697   6.233
10519SOL     OW31582   3.704   1.767   5.945
10519SOL    HW131583   3.758   1.738   6.025
10519SOL    HW231584   3.734   1.857   5.916
10520SOL     OW31585   1.889   1.596   5.703
10520SOL    HW131586   1.870   1.500   5.724
10520SOL    HW231587   1.856   1.654   5.778
10521SOL     OW31588   3.551   0.922   6.198
10521SOL    HW131589   3.646   0.893   6.206
10521SOL    HW231590   3.543   0.987   6.123
10522SOL     OW31591   3.503   1.108   6.018
10522SOL    HW131592   3.589   1.110   5.966
10522SOL    HW231593   3.517   1.155   6.106
10523SOL     OW31594   1.975   0.737   7.183
10523SOL    HW131595   2.063   0.724   7.228
10523SOL    HW231596   1.962   0.834   7.161
10524SOL     OW31597   2.475   1.365   6.312
10524SOL    HW131598   2.426   1.278   6.321
10524SOL    HW231599   2.452   1.408   6.225
10525SOL     OW31600   3.155   1.228   7.009
10525SOL    HW131601   3.192   1.155   6.951
10525SOL    HW231602   3.207   1.233   7.094
10526SOL     OW31603   2.671   0.004   6.088
10526SOL    HW131604   2.711   0.095   6.079
10526SOL    HW231605   2.571   0.012   6.094
10527SOL     OW31606   2.059   0.976   6.850
10527SOL    HW131607   2.148   0.931   6.836
10527SOL    HW231608   1.986   0.911   6.831
10528SOL     OW31609   3.387   0.999   5.776
10528SOL    HW131610   3.324   0.923   5.789
10528SOL    HW231611   3.435   1.017   5.862
10529SOL     OW31612   3.049   1.792   7.202
10529SOL    HW131613   3.073   1.852   7.126
10529SOL    HW231614   3.056   1.697   7.172
10530SOL     OW31615   2.179   0.251   7.387
10530SOL    HW131616   2.250   0.322   7.393
10530SOL    HW231617   2.091   0.290   7.415
10531SOL     OW31618   3.328   1.417   6.539
10531SOL    HW131619   3.269   1.423   6.619
10531SOL    HW231620   3.313   1.329   6.493
10532SOL     OW31621   3.529   1.714   6.158
10532SOL    HW131622   3.488   1.691   6.070
10532SOL    HW231623   3.511   1.640   6.223
10533SOL     OW31624   2.460   0.729   5.856
10533SOL    HW131625   2.484   0.798   5.788
10533SOL    HW231626   2.382   0.762   5.910
10534SOL     OW31627   3.143   0.345   6.530
10534SOL    HW131628   3.057   0.295   6.517
10534SOL    HW231629   3.205   0.291   6.586
10535SOL     OW31630   3.438   1.662   5.893
10535SOL    HW131631   3.527   1.708   5.896
10535SOL    HW231632   3.417   1.638   5.798
10536SOL     OW31633   2.669   0.605   7.051
10536SOL    HW131634   2.622   0.602   7.140
10536SOL    HW231635   2.618   0.550   6.985
10537SOL     OW31636   3.256   0.469   7.260
10537SOL    HW131637   3.236   0.512   7.348
10537SOL    HW231638   3.334   0.407   7.269
10538SOL     OW31639   2.835   0.890   7.158
10538SOL    HW131640   2.881   0.806   7.129
10538SOL    HW231641   2.779   0.924   7.083
10539SOL     OW31642   2.853   0.410   6.828
10539SOL    HW131643   2.776   0.444   6.882
10539SOL    HW231644   2.819   0.359   6.749
10540SOL     OW31645   2.903   0.701   6.015
10540SOL    HW131646   2.929   0.697   6.111
10540SOL    HW231647   2.818   0.650   6.001
10541SOL     OW31648   1.938   0.811   6.375
10541SOL    HW131649   2.037   0.799   6.384
10541SOL    HW231650   1.914   0.906   6.396
10542SOL     OW31651   1.992   1.821   7.157
10542SOL    HW131652   1.982   1.806   7.256
10542SOL    HW231653   1.906   1.857   7.121
10543SOL     OW31654   2.727   0.348   5.781
10543SOL    HW131655   2.786   0.411   5.732
10543SOL    HW231656   2.746   0.254   5.752
10544SOL     OW31657   3.581   0.585   7.417
10544SOL    HW131658   3.555   0.674   7.381
10544SOL    HW231659   3.579   0.517   7.344
10545SOL     OW31660   3.224   1.144   6.131
10545SOL    HW131661   3.307   1.115   6.083
10545SOL    HW231662   3.175   1.211   6.075
10546SOL     OW31663   2.412   0.196   6.471
10546SOL    HW131664   2.407   0.191   6.571
10546SOL    HW231665   2.414   0.292   6.442
10547SOL     OW31666   2.870   1.456   6.063
10547SOL    HW131667   2.824   1.528   6.011
10547SOL    HW231668   2.866   1.476   6.161
10548SOL     OW31669   2.213   1.801   6.439
10548SOL    HW131670   2.263   1.715   6.445
10548SOL    HW231671   2.278   1.878   6.436
10549SOL     OW31672   3.657   1.066   6.459
10549SOL    HW131673   3.595   1.051   6.383
10549SOL    HW231674   3.605   1.077   6.544
10550SOL     OW31675   3.089   1.550   7.092
10550SOL    HW131676   3.095   1.473   7.156
10550SOL    HW231677   3.037   1.524   7.012
10551SOL     OW31678   2.183   0.943   5.828
10551SOL    HW131679   2.265   0.982   5.786
10551SOL    HW231680   2.156   0.861   5.779
10552SOL     OW31681   3.320   0.735   6.314
10552SOL    HW131682   3.315   0.670   6.389
10552SOL    HW231683   3.400   0.794   6.327
10553SOL     OW31684   2.323   1.266   7.313
10553SOL    HW131685   2.273   1.267   7.227
10553SOL    HW231686   2.260   1.248   7.389
10554SOL     OW31687   2.973   1.776   5.823
10554SOL    HW131688   2.913   1.714   5.873
10554SOL    HW231689   3.004   1.732   5.738
10555SOL     OW31690   2.064   0.285   7.084
10555SOL    HW131691   1.984   0.345   7.071
10555SOL    HW231692   2.054   0.236   7.170
10556SOL     OW31693   3.494   1.377   5.667
10556SOL    HW131694   3.462   1.471   5.657
10556SOL    HW231695   3.418   1.314   5.655
10557SOL     OW31696   2.326   1.743   5.909
10557SOL    HW131697   2.359   1.782   5.995
10557SOL    HW231698   2.402   1.736   5.844
10558SOL     OW31699   3.262   0.107   6.012
10558SOL    HW131700   3.238   0.070   5.922
10558SOL    HW231701   3.361   0.123   6.016
10559SOL     OW31702   2.111   1.785   6.827
10559SOL    HW131703   2.168   1.720   6.877
10559SOL    HW231704   2.095   1.752   6.734
10560SOL     OW31705   2.802   1.698   6.490
10560SOL    HW131706   2.882   1.641   6.511
10560SOL    HW231707   2.753   1.658   6.413
10561SOL     OW31708   2.244   0.700   6.066
10561SOL    HW131709   2.289   0.610   6.063
10561SOL    HW231710   2.150   0.689   6.099
10562SOL     OW31711   3.409   0.222   7.315
10562SOL    HW131712   3.404   0.259   7.407
10562SOL    HW231713   3.337   0.153   7.303
10563SOL     OW31714   2.476   0.122   5.703
10563SOL    HW131715   2.574   0.100   5.710
10563SOL    HW231716   2.445   0.105   5.610
10564SOL     OW31717   2.643   0.264   7.335
10564SOL    HW131718   2.710   0.203   7.378
10564SOL    HW231719   2.570   0.283   7.400
10565SOL     OW31720   2.750   1.514   6.781
10565SOL    HW131721   2.727   1.489   6.687
10565SOL    HW231722   2.811   1.445   6.820
10566SOL     OW31723   3.213   0.590   7.019
10566SOL    HW131724   3.241   0.547   7.104
10566SOL    HW231725   3.238   0.686   7.020
10567SOL     OW31726   2.784   0.503   6.485
10567SOL    HW131727   2.759   0.494   6.389
10567SOL    HW231728   2.832   0.421   6.516
10568SOL     OW31729   2.401   0.064   6.098
10568SOL    HW131730   2.320   0.065   6.156
10568SOL    HW231731   2.404   0.147   6.043
10569SOL     OW31732   3.296   1.188   5.627
10569SOL    HW131733   3.328   1.112   5.684
10569SOL    HW231734   3.204   1.215   5.657
10570SOL     OW31735   2.159   0.035   5.757
10570SOL    HW131736   2.208   0.119   5.736
10570SOL    HW231737   2.221  -0.030   5.802
10571SOL     OW31738   2.797   0.236   6.066
10571SOL    HW131739   2.749   0.277   5.988
10571SOL    HW231740   2.896   0.234   6.047
10572SOL     OW31741   2.938   0.683   7.050
10572SOL    HW131742   2.858   0.622   7.053
10572SOL    HW231743   3.019   0.630   7.026
10573SOL     OW31744   3.089   1.570   6.379
10573SOL    HW131745   3.110   1.644   6.314
10573SOL    HW231746   3.157   1.570   6.452
10574SOL     OW31747   2.321   1.152   6.327
10574SOL    HW131748   2.250   1.125   6.392
10574SOL    HW231749   2.295   1.124   6.234
10575SOL     OW31750   3.133   1.797   6.177
10575SOL    HW131751   3.177   1.861   6.113
10575SOL    HW231752   3.083   1.849   6.247
10576SOL     OW31753   2.894   0.549   5.602
10576SOL    HW131754   2.853   0.631   5.563
10576SOL    HW231755   2.958   0.575   5.675
10577SOL     OW31756   1.940   0.556   6.972
10577SOL    HW131757   2.032   0.555   6.931
10577SOL    HW231758   1.934   0.630   7.039
10578SOL     OW31759   2.423   0.222   6.733
10578SOL    HW131760   2.461   0.138   6.770
10578SOL    HW231761   2.335   0.241   6.777
10579SOL     OW31762   2.728   0.454   6.228
10579SOL    HW131763   2.696   0.526   6.166
10579SOL    HW231764   2.752   0.373   6.175
10580SOL     OW31765   2.879   0.039   6.339
10580SOL    HW131766   2.807   0.044   6.270
10580SOL    HW231767   2.855  -0.030   6.408
10581SOL     OW31768   3.291   1.173   6.453
10581SOL    HW131769   3.236   1.089   6.446
10581SOL    HW231770   3.317   1.202   6.361
10582SOL     OW31771   3.328   0.590   6.578
10582SOL    HW131772   3.298   0.495   6.585
10582SOL    HW231773   3.401   0.606   6.644
10583SOL     OW31774   3.719   0.833   5.963
10583SOL    HW131775   3.761   0.769   6.027
10583SOL    HW231776   3.681   0.782   5.885
10584SOL     OW31777   2.350   1.385   5.760
10584SOL    HW131778   2.263   1.370   5.807
10584SOL    HW231779   2.333   1.411   5.665
10585SOL     OW31780   3.526   1.280   6.243
10585SOL    HW131781   3.625   1.288   6.257
10585SOL    HW231782   3.481   1.364   6.274
10586SOL     OW31783   3.252   0.575   5.664
10586SOL    HW131784   3.198   0.554   5.745
10586SOL    HW231785   3.343   0.534   5.673
10587SOL     OW31786   2.389   0.256   5.914
10587SOL    HW131787   2.416   0.197   5.839
10587SOL    HW231788   2.389   0.351   5.883
10588SOL     OW31789   3.616   1.223   7.174
10588SOL    HW131790   3.707   1.184   7.161
10588SOL    HW231791   3.624   1.319   7.198
10589SOL     OW31792   2.926   1.347   6.926
10589SOL    HW131793   2.846   1.324   6.981
10589SOL    HW231794   3.009   1.321   6.975
10590SOL     OW31795   3.454   1.629   7.211
10590SOL    HW131796   3.481   1.663   7.121
10590SOL    HW231797   3.533   1.591   7.257
10591SOL     OW31798   2.973   1.195   6.686
10591SOL    HW131799   2.933   1.239   6.767
10591SOL    HW231800   2.932   1.232   6.603
10592SOL     OW31801   3.500   1.099   6.665
10592SOL    HW131802   3.505   1.180   6.724
10592SOL    HW231803   3.414   1.101   6.614
10593SOL     OW31804   2.777   0.089   6.988
10593SOL    HW131805   2.802   0.069   6.893
10593SOL    HW231806   2.849   0.145   7.030
10594SOL     OW31807   2.842   1.116   7.305
10594SOL    HW131808   2.743   1.122   7.315
10594SOL    HW231809   2.865   1.036   7.249
10595SOL     OW31810   2.567   1.050   5.954
10595SOL    HW131811   2.553   1.057   6.053
10595SOL    HW231812   2.651   0.999   5.936
10596SOL     OW31813   2.272   0.813   6.837
10596SOL    HW131814   2.358   0.825   6.887
10596SOL    HW231815   2.230   0.726   6.864
10597SOL     OW31816   3.136   0.386   6.848
10597SOL    HW131817   3.157   0.460   6.912
10597SOL    HW231818   3.047   0.403   6.805
10598SOL     OW31819   1.926   1.564   6.917
10598SOL    HW131820   1.880   1.646   6.883
10598SOL    HW231821   2.024   1.583   6.926
10599SOL     OW31822   2.229   1.100   6.087
10599SOL    HW131823   2.222   1.183   6.031
10599SOL    HW231824   2.233   1.020   6.027
10600SOL     OW31825   2.428   0.537   6.451
10600SOL    HW131826   2.440   0.603   6.377
10600SOL    HW231827   2.474   0.571   6.534
10601SOL     OW31828   3.114   1.348   5.974
10601SOL    HW131829   3.164   1.425   6.014
10601SOL    HW231830   3.019   1.350   6.006
10602SOL     OW31831   3.134   1.445   6.728
10602SOL    HW131832   3.181   1.458   6.815
10602SOL    HW231833   3.068   1.371   6.737
10603SOL     OW31834   3.444   0.639   6.058
10603SOL    HW131835   3.413   0.700   6.131
10603SOL    HW231836   3.494   0.691   5.989
10604SOL     OW31837   2.216   1.510   6.915
10604SOL    HW131838   2.195   1.466   6.828
10604SOL    HW231839   2.313   1.536   6.918
10605SOL     OW31840   2.264   0.751   7.184
10605SOL    HW131841   2.332   0.806   7.137
10605SOL    HW231842   2.304   0.663   7.211
10606SOL     OW31843   3.449   0.779   7.256
10606SOL    HW131844   3.357   0.817   7.251
10606SOL    HW231845   3.509   0.826   7.191
10607SOL     OW31846   2.875   0.105   7.356
10607SOL    HW131847   2.881   0.190   7.304
10607SOL    HW231848   2.907   0.029   7.299
10608SOL     OW31849   2.366   0.050   7.326
10608SOL    HW131850   2.324  -0.007   7.256
10608SOL    HW231851   2.300   0.119   7.358
10609SOL     OW31852   2.435   0.870   6.615
10609SOL    HW131853   2.479   0.959   6.606
10609SOL    HW231854   2.372   0.870   6.692
10610SOL     OW31855   3.222   0.862   6.631
10610SOL    HW131856   3.147   0.862   6.565
10610SOL    HW231857   3.259   0.770   6.640
10611SOL     OW31858   3.071   0.525   5.861
10611SOL    HW131859   3.084   0.441   5.915
10611SOL    HW231860   3.042   0.599   5.921
10612SOL     OW31861   2.169   0.213   6.817
10612SOL    HW131862   2.146   0.250   6.907
10612SOL    HW231863   2.139   0.118   6.811
10613SOL     OW31864   1.899   1.310   6.868
10613SOL    HW131865   1.952   1.261   6.936
10613SOL    HW231866   1.921   1.408   6.873
10614SOL     OW31867   2.594   0.634   6.650
10614SOL    HW131868   2.653   0.608   6.574
10614SOL    HW231869   2.566   0.730   6.639
10615SOL     OW31870   3.590   0.935   7.440
10615SOL    HW131871   3.544   0.928   7.351
10615SOL    HW231872   3.528   0.979   7.506
10616SOL     OW31873   2.169   0.063   6.204
10616SOL    HW131874   2.158   0.157   6.237
10616SOL    HW231875   2.164   0.000   6.281
10617SOL     OW31876   3.484   0.367   5.960
10617SOL    HW131877   3.486   0.291   6.024
10617SOL    HW231878   3.436   0.444   6.000
10618SOL     OW31879   2.885   0.766   6.552
10618SOL    HW131880   2.900   0.787   6.648
10618SOL    HW231881   2.855   0.671   6.543
10619SOL     OW31882   2.842   1.573   7.286
10619SOL    HW131883   2.822   1.617   7.198
10619SOL    HW231884   2.881   1.482   7.270
10620SOL     OW31885   3.721   1.518   7.191
10620SOL    HW131886   3.735   1.545   7.096
10620SOL    HW231887   3.804   1.540   7.244
10621SOL     OW31888   2.212   0.898   7.390
10621SOL    HW131889   2.288   0.942   7.438
10621SOL    HW231890   2.247   0.851   7.308
10622SOL     OW31891   3.402   0.274   5.711
10622SOL    HW131892   3.341   0.199   5.734
10622SOL    HW231893   3.424   0.326   5.794
10623SOL     OW31894   3.165   0.838   5.628
10623SOL    HW131895   3.199   0.745   5.643
10623SOL    HW231896   3.183   0.865   5.533
10624SOL     OW31897   2.930   1.333   6.435
10624SOL    HW131898   2.937   1.249   6.380
10624SOL    HW231899   2.992   1.402   6.399
10625SOL     OW31900   2.181   0.810   6.535
10625SOL    HW131901   2.274   0.846   6.540
10625SOL    HW231902   2.175   0.725   6.587
10626SOL     OW31903   2.201   0.509   6.592
10626SOL    HW131904   2.149   0.426   6.575
10626SOL    HW231905   2.278   0.514   6.528
10627SOL     OW31906   3.000   0.380   7.264
10627SOL    HW131907   2.955   0.443   7.328
10627SOL    HW231908   3.093   0.411   7.247
10628SOL     OW31909   3.022   0.207   7.063
10628SOL    HW131910   3.022   0.271   7.140
10628SOL    HW231911   3.050   0.255   6.980
10629SOL     OW31912   1.870   1.326   5.786
10629SOL    HW131913   1.777   1.347   5.755
10629SOL    HW231914   1.880   1.227   5.799
10630SOL     OW31915   2.366   1.568   6.496
10630SOL    HW131916   2.432   1.642   6.505
10630SOL    HW231917   2.410   1.489   6.454
10631SOL     OW31918   2.864   0.796   6.824
10631SOL    HW131919   2.905   0.764   6.910
10631SOL    HW231920   2.768   0.769   6.821
10632SOL     OW31921   1.902   0.544   6.700
10632SOL    HW131922   1.987   0.511   6.659
10632SOL    HW231923   1.915   0.559   6.798
10633SOL     OW31924   2.051   0.520   7.308
10633SOL    HW131925   2.110   0.480   7.238
10633SOL    HW231926   1.993   0.591   7.267
10634SOL     OW31927   3.231   0.950   7.246
10634SOL    HW131928   3.270   1.039   7.266
10634SOL    HW231929   3.241   0.930   7.149
10635SOL     OW31930   2.677   0.572   5.911
10635SOL    HW131931   2.684   0.483   5.865
10635SOL    HW231932   2.583   0.606   5.903
10636SOL     OW31933   3.519   0.604   6.792
10636SOL    HW131934   3.481   0.535   6.854
10636SOL    HW231935   3.601   0.568   6.748
10637SOL     OW31936   2.114   1.564   7.330
10637SOL    HW131937   2.084   1.621   7.406
10637SOL    HW231938   2.107   1.467   7.356
10638SOL     OW31939   2.533   0.464   6.855
10638SOL    HW131940   2.499   0.375   6.825
10638SOL    HW231941   2.559   0.518   6.775
10639SOL     OW31942   2.792   1.678   7.051
10639SOL    HW131943   2.768   1.660   6.956
10639SOL    HW231944   2.822   1.772   7.061
10640SOL     OW31945   2.335   0.500   5.777
10640SOL    HW131946   2.396   0.580   5.781
10640SOL    HW231947   2.240   0.531   5.784
10641SOL     OW31948   2.021   1.137   7.052
10641SOL    HW131949   2.043   1.076   7.128
10641SOL    HW231950   2.031   1.088   6.966
10642SOL     OW31951   3.209   1.059   6.820
10642SOL    HW131952   3.233   0.996   6.746
10642SOL    HW231953   3.119   1.099   6.802
10643SOL     OW31954   3.164   0.855   5.895
10643SOL    HW131955   3.078   0.824   5.937
10643SOL    HW231956   3.160   0.841   5.796
10644SOL     OW31957   3.621   1.747   6.740
10644SOL    HW131958   3.682   1.777   6.667
10644SOL    HW231959   3.583   1.658   6.718
10645SOL     OW31960   3.114   1.731   6.714
10645SOL    HW131961   3.198   1.736   6.660
10645SOL    HW231962   3.091   1.635   6.732
10646SOL     OW31963   1.945   1.258   6.608
10646SOL    HW131964   1.940   1.257   6.708
10646SOL    HW231965   1.862   1.217   6.570
10647SOL     OW31966   2.550   1.662   7.302
10647SOL    HW131967   2.494   1.743   7.311
10647SOL    HW231968   2.602   1.666   7.216
10648SOL     OW31969   3.588   0.135   6.109
10648SOL    HW131970   3.661   0.118   6.042
10648SOL    HW231971   3.557   0.048   6.147
10649SOL     OW31972   3.250   1.573   6.063
10649SOL    HW131973   3.317   1.585   5.989
10649SOL    HW231974   3.210   1.662   6.086
10650SOL     OW31975   1.992   1.794   7.437
10650SOL    HW131976   1.951   1.720   7.490
10650SOL    HW231977   2.056   1.845   7.495
10651SOL     OW31978   3.142   0.927   6.258
10651SOL    HW131979   3.202   0.846   6.260
10651SOL    HW231980   3.182   0.996   6.198
10652SOL     OW31981   2.692   1.273   7.008
10652SOL    HW131982   2.687   1.306   7.103
10652SOL    HW231983   2.606   1.292   6.962
10653SOL     OW31984   2.534   1.616   5.740
10653SOL    HW131985   2.543   1.626   5.641
10653SOL    HW231986   2.494   1.527   5.761
10654SOL     OW31987   3.512   1.720   6.980
10654SOL    HW131988   3.565   1.730   6.896
10654SOL    HW231989   3.485   1.810   7.014
10655SOL     OW31990   3.703   0.175   6.549
10655SOL    HW131991   3.742   0.090   6.513
10655SOL    HW231992   3.605   0.177   6.530
10656SOL     OW31993   2.125   0.326   6.306
10656SOL    HW131994   2.046   0.377   6.272
10656SOL    HW231995   2.116   0.311   6.404
10657SOL     OW31996   3.056   1.612   5.617
10657SOL    HW131997   3.062   1.519   5.654
10657SOL    HW231998   2.997   1.612   5.537
10658SOL     OW31999   2.684   1.002   6.958
10658SOL    HW132000   2.724   1.001   6.866
10658SOL    HW232001   2.694   1.094   6.998
10659SOL     OW32002   2.778   0.910   5.877
10659SOL    HW132003   2.841   0.948   5.809
10659SOL    HW232004   2.818   0.827   5.916
10660SOL     OW32005   3.366   1.607   5.630
10660SOL    HW132006   3.274   1.644   5.637
10660SOL    HW232007   3.404   1.627   5.540
10661SOL     OW32008   2.234   1.288   7.076
10661SOL    HW132009   2.221   1.381   7.042
10661SOL    HW232010   2.150   1.236   7.063
10662SOL     OW32011   3.476   1.292   6.875
10662SOL    HW132012   3.536   1.295   6.955
10662SOL    HW232013   3.401   1.356   6.888
10663SOL     OW32014   2.901   1.098   6.282
10663SOL    HW132015   2.831   1.051   6.336
10663SOL    HW232016   2.960   1.030   6.239
10664SOL     OW32017   2.876   0.236   6.557
10664SOL    HW132018   2.868   0.200   6.464
10664SOL    HW232019   2.874   0.160   6.622
10665SOL     OW32020   2.452   1.487   6.077
10665SOL    HW132021   2.494   1.429   6.007
10665SOL    HW232022   2.408   1.566   6.033
10666SOL     OW32023   3.571   0.385   6.967
10666SOL    HW132024   3.644   0.454   6.971
10666SOL    HW232025   3.599   0.310   6.908
10667SOL     OW32026   2.117   1.348   5.876
10667SOL    HW132027   2.021   1.349   5.849
10667SOL    HW232028   2.129   1.401   5.960
10668SOL     OW32029   1.967   1.013   7.312
10668SOL    HW132030   1.890   0.980   7.366
10668SOL    HW232031   2.052   0.983   7.354
10669SOL     OW32032   2.534   0.203   7.075
10669SOL    HW132033   2.624   0.187   7.035
10669SOL    HW232034   2.542   0.208   7.174
10670SOL     OW32035   1.937   0.345   5.619
10670SOL    HW132036   1.845   0.317   5.590
10670SOL    HW232037   1.968   0.422   5.563
10671SOL     OW32038   3.302   0.856   6.984
10671SOL    HW132039   3.245   0.908   6.921
10671SOL    HW232040   3.398   0.868   6.960
10672SOL     OW32041   1.934   0.166   5.904
10672SOL    HW132042   1.917   0.249   5.850
10672SOL    HW232043   2.024   0.129   5.882
10673SOL     OW32044   3.045   1.335   5.705
10673SOL    HW132045   2.946   1.324   5.707
10673SOL    HW232046   3.079   1.350   5.798
10674SOL     OW32047   2.475   0.842   7.017
10674SOL    HW132048   2.531   0.923   7.000
10674SOL    HW232049   2.534   0.762   7.020
10675SOL     OW32050   3.355   1.767   6.545
10675SOL    HW132051   3.388   1.831   6.476
10675SOL    HW232052   3.421   1.761   6.620
10676SOL     OW32053   2.578   0.565   7.294
10676SOL    HW132054   2.597   0.630   7.368
10676SOL    HW232055   2.638   0.485   7.303
10677SOL     OW32056   3.312   1.220   7.219
10677SOL    HW132057   3.303   1.210   7.318
10677SOL    HW232058   3.408   1.213   7.193
10678SOL     OW32059   2.252   1.741   7.146
10678SOL    HW132060   2.161   1.782   7.144
10678SOL    HW232061   2.245   1.647   7.178
10679SOL     OW32062   3.536   0.883   6.840
10679SOL    HW132063   3.509   0.794   6.803
10679SOL    HW232064   3.537   0.951   6.767
10680SOL     OW32065   3.087   0.325   6.035
10680SOL    HW132066   3.152   0.251   6.024
10680SOL    HW232067   3.107   0.375   6.119
10681SOL     OW32068   2.456   0.745   6.238
10681SOL    HW132069   2.506   0.830   6.219
10681SOL    HW232070   2.368   0.747   6.190
10682SOL     OW32071   3.639   0.342   7.228
10682SOL    HW132072   3.622   0.373   7.134
10682SOL    HW232073   3.555   0.305   7.266
10683SOL     OW32074   3.592   0.934   7.103
10683SOL    HW132075   3.630   1.025   7.118
10683SOL    HW232076   3.584   0.917   7.004
10684SOL     OW32077   2.721   1.374   5.602
10684SOL    HW132078   2.675   1.389   5.690
10684SOL    HW232079   2.765   1.459   5.572
10685SOL     OW32080   2.523   1.790   6.539
10685SOL    HW132081   2.477   1.878   6.526
10685SOL    HW232082   2.622   1.802   6.532
10686SOL     OW32083   2.721   0.956   6.447
10686SOL    HW132084   2.775   0.887   6.495
10686SOL    HW232085   2.689   1.025   6.513
10687SOL     OW32086   2.945   0.984   5.673
10687SOL    HW132087   2.922   1.037   5.591
10687SOL    HW232088   3.026   0.928   5.654
10688SOL     OW32089   3.723   1.569   6.437
10688SOL    HW132090   3.652   1.557   6.367
10688SOL    HW232091   3.724   1.490   6.497
10689SOL     OW32092   2.083   1.314   7.430
10689SOL    HW132093   2.018   1.241   7.409
10689SOL    HW232094   2.087   1.328   7.528
10690SOL     OW32095   1.941   1.240   6.239
10690SOL    HW132096   1.940   1.193   6.327
10690SOL    HW232097   2.023   1.212   6.188
10691SOL     OW32098   2.534   1.391   7.210
10691SOL    HW132099   2.456   1.341   7.248
10691SOL    HW232100   2.531   1.486   7.241
10692SOL     OW32101   3.686   0.192   6.813
10692SOL    HW132102   3.682   0.102   6.857
10692SOL    HW232103   3.689   0.181   6.714
10693SOL     OW32104   2.290   0.424   6.106
10693SOL    HW132105   2.320   0.352   6.044
10693SOL    HW232106   2.251   0.384   6.189
10694SOL     OW32107   3.567   1.487   6.690
10694SOL    HW132108   3.474   1.462   6.663
10694SOL    HW232109   3.593   1.437   6.772
10695SOL     OW32110   2.179   0.547   6.866
10695SOL    HW132111   2.217   0.488   6.938
10695SOL    HW232112   2.219   0.521   6.778
10696SOL     OW32113   2.674   1.586   6.273
10696SOL    HW132114   2.706   1.596   6.179
10696SOL    HW232115   2.595   1.524   6.275
10697SOL     OW32116   3.286   0.214   6.698
10697SOL    HW132117   3.338   0.149   6.753
10697SOL    HW232118   3.237   0.277   6.759
10698SOL     OW32119   2.863   0.034   6.740
10698SOL    HW132120   2.800  -0.038   6.709
10698SOL    HW232121   2.956  -0.002   6.740
10699SOL     OW32122   2.632   1.330   5.887
10699SOL    HW132123   2.586   1.243   5.904
10699SOL    HW232124   2.723   1.327   5.928
10700SOL     OW32125   2.480   1.567   6.870
10700SOL    HW132126   2.475   1.649   6.927
10700SOL    HW232127   2.569   1.564   6.825
10701SOL     OW32128   3.214   0.052   5.754
10701SOL    HW132129   3.249   0.011   5.670
10701SOL    HW232130   3.124   0.014   5.774
10702SOL     OW32131   3.162   0.453   6.277
10702SOL    HW132132   3.103   0.533   6.281
10702SOL    HW232133   3.177   0.418   6.370
10703SOL     OW32134   3.455   0.221   6.468
10703SOL    HW132135   3.371   0.220   6.522
10703SOL    HW232136   3.457   0.304   6.412
10704SOL     OW32137   1.901   1.077   5.886
10704SOL    HW132138   2.000   1.066   5.877
10704SOL    HW232139   1.861   0.991   5.918
10705SOL     OW32140   2.737   1.646   5.923
10705SOL    HW132141   2.660   1.611   5.869
10705SOL    HW232142   2.705   1.717   5.985
10706SOL     OW32143   2.092   0.628   7.561
10706SOL    HW132144   1.999   0.626   7.598
10706SOL    HW232145   2.093   0.589   7.469
10707SOL     OW32146   2.087   0.275   8.444
10707SOL    HW132147   2.122   0.258   8.536
10707SOL    HW232148   1.999   0.230   8.432
10708SOL     OW32149   1.881   0.368   8.095
10708SOL    HW132150   1.799   0.411   8.134
10708SOL    HW232151   1.853   0.295   8.032
10709SOL     OW32152   2.431   1.275   8.613
10709SOL    HW132153   2.338   1.268   8.576
10709SOL    HW232154   2.442   1.364   8.657
10710SOL     OW32155   3.417   1.511   8.151
10710SOL    HW132156   3.360   1.495   8.232
10710SOL    HW232157   3.358   1.521   8.071
10711SOL     OW32158   2.997   0.703   8.165
10711SOL    HW132159   3.054   0.781   8.140
10711SOL    HW232160   2.937   0.729   8.241
10712SOL     OW32161   3.617   0.607   7.679
10712SOL    HW132162   3.605   0.594   7.580
10712SOL    HW232163   3.587   0.526   7.728
10713SOL     OW32164   2.630   1.144   8.471
10713SOL    HW132165   2.552   1.161   8.531
10713SOL    HW232166   2.664   1.231   8.435
10714SOL     OW32167   2.712   0.798   9.271
10714SOL    HW132168   2.708   0.874   9.336
10714SOL    HW232169   2.734   0.834   9.180
10715SOL     OW32170   2.547   1.012   8.113
10715SOL    HW132171   2.616   0.996   8.183
10715SOL    HW232172   2.474   1.069   8.151
10716SOL     OW32173   2.548   1.161   9.251
10716SOL    HW132174   2.608   1.240   9.265
10716SOL    HW232175   2.462   1.192   9.210
10717SOL     OW32176   2.197   1.435   8.509
10717SOL    HW132177   2.119   1.404   8.456
10717SOL    HW232178   2.255   1.493   8.452
10718SOL     OW32179   3.322   1.505   8.787
10718SOL    HW132180   3.346   1.599   8.813
10718SOL    HW232181   3.306   1.451   8.869
10719SOL     OW32182   2.300   0.392   8.947
10719SOL    HW132183   2.382   0.336   8.956
10719SOL    HW232184   2.219   0.334   8.951
10720SOL     OW32185   3.465   0.447   8.185
10720SOL    HW132186   3.391   0.493   8.135
10720SOL    HW232187   3.516   0.515   8.238
10721SOL     OW32188   2.093   1.713   7.931
10721SOL    HW132189   2.127   1.790   7.985
10721SOL    HW232190   2.137   1.713   7.841
10722SOL     OW32191   2.989   1.341   9.138
10722SOL    HW132192   3.036   1.341   9.226
10722SOL    HW232193   2.941   1.254   9.127
10723SOL     OW32194   2.092   1.434   7.986
10723SOL    HW132195   2.066   1.530   7.986
10723SOL    HW232196   2.021   1.380   8.031
10724SOL     OW32197   2.102   1.091   8.334
10724SOL    HW132198   2.116   1.007   8.386
10724SOL    HW232199   2.047   1.155   8.389
10725SOL     OW32200   2.468   0.964   7.571
10725SOL    HW132201   2.475   1.048   7.517
10725SOL    HW232202   2.514   0.977   7.659
10726SOL     OW32203   3.456   0.114   8.928
10726SOL    HW132204   3.438   0.181   8.856
10726SOL    HW232205   3.453   0.160   9.017
10727SOL     OW32206   1.984   0.643   8.011
10727SOL    HW132207   1.939   0.555   8.028
10727SOL    HW232208   1.983   0.697   8.095
10728SOL     OW32209   3.704   1.767   7.807
10728SOL    HW132210   3.758   1.738   7.887
10728SOL    HW232211   3.734   1.857   7.778
10729SOL     OW32212   1.889   1.596   7.565
10729SOL    HW132213   1.870   1.500   7.586
10729SOL    HW232214   1.856   1.654   7.640
10730SOL     OW32215   3.503   1.108   7.880
10730SOL    HW132216   3.589   1.110   7.828
10730SOL    HW232217   3.517   1.155   7.968
10731SOL     OW32218   1.975   0.737   9.045
10731SOL    HW132219   2.063   0.724   9.090
10731SOL    HW232220   1.962   0.834   9.023
10732SOL     OW32221   2.475   1.365   8.174
10732SOL    HW132222   2.426   1.278   8.183
10732SOL    HW232223   2.452   1.408   8.087
10733SOL     OW32224   3.155   1.228   8.871
10733SOL    HW132225   3.192   1.155   8.813
10733SOL    HW232226   3.207   1.233   8.956
10734SOL     OW32227   2.671   0.004   7.950
10734SOL    HW132228   2.711   0.095   7.941
10734SOL    HW232229   2.571   0.012   7.956
10735SOL     OW32230   2.059   0.976   8.712
10735SOL    HW132231   2.148   0.931   8.698
10735SOL    HW232232   1.986   0.911   8.693
10736SOL     OW32233   3.387   0.999   7.638
10736SOL    HW132234   3.324   0.923   7.651
10736SOL    HW232235   3.435   1.017   7.724
10737SOL     OW32236   3.049   1.792   9.064
10737SOL    HW132237   3.073   1.852   8.988
10737SOL    HW232238   3.056   1.697   9.034
10738SOL     OW32239   2.179   0.251   9.249
10738SOL    HW132240   2.250   0.322   9.255
10738SOL    HW232241   2.091   0.290   9.277
10739SOL     OW32242   3.328   1.417   8.401
10739SOL    HW132243   3.269   1.423   8.481
10739SOL    HW232244   3.313   1.329   8.355
10740SOL     OW32245   3.529   1.714   8.020
10740SOL    HW132246   3.488   1.691   7.932
10740SOL    HW232247   3.511   1.640   8.085
10741SOL     OW32248   2.460   0.729   7.718
10741SOL    HW132249   2.484   0.798   7.650
10741SOL    HW232250   2.382   0.762   7.772
10742SOL     OW32251   3.143   0.345   8.392
10742SOL    HW132252   3.057   0.295   8.379
10742SOL    HW232253   3.205   0.291   8.448
10743SOL     OW32254   3.438   1.662   7.755
10743SOL    HW132255   3.527   1.708   7.758
10743SOL    HW232256   3.417   1.638   7.660
10744SOL     OW32257   2.669   0.605   8.913
10744SOL    HW132258   2.622   0.602   9.002
10744SOL    HW232259   2.618   0.550   8.847
10745SOL     OW32260   3.256   0.469   9.122
10745SOL    HW132261   3.236   0.512   9.210
10745SOL    HW232262   3.334   0.407   9.131
10746SOL     OW32263   2.835   0.890   9.020
10746SOL    HW132264   2.881   0.806   8.991
10746SOL    HW232265   2.779   0.924   8.945
10747SOL     OW32266   2.853   0.410   8.690
10747SOL    HW132267   2.776   0.444   8.744
10747SOL    HW232268   2.819   0.359   8.611
10748SOL     OW32269   2.903   0.701   7.877
10748SOL    HW132270   2.929   0.697   7.973
10748SOL    HW232271   2.818   0.650   7.863
10749SOL     OW32272   1.938   0.811   8.237
10749SOL    HW132273   2.037   0.799   8.246
10749SOL    HW232274   1.914   0.906   8.258
10750SOL     OW32275   1.992   1.821   9.019
10750SOL    HW132276   1.982   1.806   9.118
10750SOL    HW232277   1.906   1.857   8.983
10751SOL     OW32278   2.727   0.348   7.643
10751SOL    HW132279   2.786   0.411   7.594
10751SOL    HW232280   2.746   0.254   7.614
10752SOL     OW32281   3.581   0.585   9.279
10752SOL    HW132282   3.555   0.674   9.243
10752SOL    HW232283   3.579   0.517   9.206
10753SOL     OW32284   3.224   1.144   7.993
10753SOL    HW132285   3.307   1.115   7.945
10753SOL    HW232286   3.175   1.211   7.937
10754SOL     OW32287   2.412   0.196   8.333
10754SOL    HW132288   2.407   0.191   8.433
10754SOL    HW232289   2.414   0.292   8.304
10755SOL     OW32290   2.870   1.456   7.925
10755SOL    HW132291   2.824   1.528   7.873
10755SOL    HW232292   2.866   1.476   8.023
10756SOL     OW32293   2.213   1.801   8.301
10756SOL    HW132294   2.263   1.715   8.307
10756SOL    HW232295   2.278   1.878   8.298
10757SOL     OW32296   3.657   1.066   8.321
10757SOL    HW132297   3.595   1.051   8.245
10757SOL    HW232298   3.605   1.077   8.406
10758SOL     OW32299   3.089   1.550   8.954
10758SOL    HW132300   3.095   1.473   9.018
10758SOL    HW232301   3.037   1.524   8.874
10759SOL     OW32302   2.183   0.943   7.690
10759SOL    HW132303   2.265   0.982   7.648
10759SOL    HW232304   2.156   0.861   7.641
10760SOL     OW32305   3.320   0.735   8.176
10760SOL    HW132306   3.315   0.670   8.251
10760SOL    HW232307   3.400   0.794   8.189
10761SOL     OW32308   2.323   1.266   9.175
10761SOL    HW132309   2.273   1.267   9.089
10761SOL    HW232310   2.260   1.248   9.251
10762SOL     OW32311   2.973   1.776   7.685
10762SOL    HW132312   2.913   1.714   7.735
10762SOL    HW232313   3.004   1.732   7.600
10763SOL     OW32314   2.064   0.285   8.946
10763SOL    HW132315   1.984   0.345   8.933
10763SOL    HW232316   2.054   0.236   9.032
10764SOL     OW32317   3.494   1.377   7.529
10764SOL    HW132318   3.462   1.471   7.519
10764SOL    HW232319   3.418   1.314   7.517
10765SOL     OW32320   2.326   1.743   7.771
10765SOL    HW132321   2.359   1.782   7.857
10765SOL    HW232322   2.402   1.736   7.706
10766SOL     OW32323   3.262   0.107   7.874
10766SOL    HW132324   3.238   0.070   7.784
10766SOL    HW232325   3.361   0.123   7.878
10767SOL     OW32326   2.111   1.785   8.689
10767SOL    HW132327   2.168   1.720   8.739
10767SOL    HW232328   2.095   1.752   8.596
10768SOL     OW32329   2.802   1.698   8.352
10768SOL    HW132330   2.882   1.641   8.373
10768SOL    HW232331   2.753   1.658   8.275
10769SOL     OW32332   2.244   0.700   7.928
10769SOL    HW132333   2.289   0.610   7.925
10769SOL    HW232334   2.150   0.689   7.961
10770SOL     OW32335   3.409   0.222   9.177
10770SOL    HW132336   3.404   0.259   9.269
10770SOL    HW232337   3.337   0.153   9.165
10771SOL     OW32338   2.476   0.122   7.565
10771SOL    HW132339   2.574   0.100   7.572
10771SOL    HW232340   2.445   0.105   7.472
10772SOL     OW32341   2.643   0.264   9.197
10772SOL    HW132342   2.710   0.203   9.240
10772SOL    HW232343   2.570   0.283   9.262
10773SOL     OW32344   2.750   1.514   8.643
10773SOL    HW132345   2.727   1.489   8.549
10773SOL    HW232346   2.811   1.445   8.682
10774SOL     OW32347   3.213   0.590   8.881
10774SOL    HW132348   3.241   0.547   8.966
10774SOL    HW232349   3.238   0.686   8.882
10775SOL     OW32350   2.665   1.402   8.372
10775SOL    HW132351   2.755   1.416   8.330
10775SOL    HW232352   2.594   1.404   8.301
10776SOL     OW32353   2.784   0.503   8.347
10776SOL    HW132354   2.759   0.494   8.251
10776SOL    HW232355   2.832   0.421   8.378
10777SOL     OW32356   2.401   0.064   7.960
10777SOL    HW132357   2.320   0.065   8.018
10777SOL    HW232358   2.404   0.147   7.905
10778SOL     OW32359   3.296   1.188   7.489
10778SOL    HW132360   3.328   1.112   7.546
10778SOL    HW232361   3.204   1.215   7.519
10779SOL     OW32362   2.159   0.035   7.619
10779SOL    HW132363   2.208   0.119   7.598
10779SOL    HW232364   2.221  -0.030   7.664
10780SOL     OW32365   2.797   0.236   7.928
10780SOL    HW132366   2.749   0.277   7.850
10780SOL    HW232367   2.896   0.234   7.909
10781SOL     OW32368   2.938   0.683   8.912
10781SOL    HW132369   2.858   0.622   8.915
10781SOL    HW232370   3.019   0.630   8.888
10782SOL     OW32371   3.089   1.570   8.241
10782SOL    HW132372   3.110   1.644   8.176
10782SOL    HW232373   3.157   1.570   8.314
10783SOL     OW32374   2.321   1.152   8.189
10783SOL    HW132375   2.250   1.125   8.254
10783SOL    HW232376   2.295   1.124   8.096
10784SOL     OW32377   3.133   1.797   8.039
10784SOL    HW132378   3.177   1.861   7.975
10784SOL    HW232379   3.083   1.849   8.109
10785SOL     OW32380   2.894   0.549   7.464
10785SOL    HW132381   2.853   0.631   7.425
10785SOL    HW232382   2.958   0.575   7.537
10786SOL     OW32383   1.940   0.556   8.834
10786SOL    HW132384   2.032   0.555   8.793
10786SOL    HW232385   1.934   0.630   8.901
10787SOL     OW32386   2.423   0.222   8.595
10787SOL    HW132387   2.461   0.138   8.632
10787SOL    HW232388   2.335   0.241   8.639
10788SOL     OW32389   2.728   0.454   8.090
10788SOL    HW132390   2.696   0.526   8.028
10788SOL    HW232391   2.752   0.373   8.037
10789SOL     OW32392   2.879   0.039   8.201
10789SOL    HW132393   2.807   0.044   8.132
10789SOL    HW232394   2.855  -0.030   8.270
10790SOL     OW32395   3.291   1.173   8.315
10790SOL    HW132396   3.236   1.089   8.308
10790SOL    HW232397   3.317   1.202   8.223
10791SOL     OW32398   3.328   0.590   8.440
10791SOL    HW132399   3.298   0.495   8.447
10791SOL    HW232400   3.401   0.606   8.506
10792SOL     OW32401   3.719   0.833   7.825
10792SOL    HW132402   3.761   0.769   7.889
10792SOL    HW232403   3.681   0.782   7.747
10793SOL     OW32404   2.350   1.385   7.622
10793SOL    HW132405   2.263   1.370   7.669
10793SOL    HW232406   2.333   1.411   7.527
10794SOL     OW32407   3.526   1.280   8.105
10794SOL    HW132408   3.625   1.288   8.119
10794SOL    HW232409   3.481   1.364   8.136
10795SOL     OW32410   3.252   0.575   7.526
10795SOL    HW132411   3.198   0.554   7.607
10795SOL    HW232412   3.343   0.534   7.535
10796SOL     OW32413   2.389   0.256   7.776
10796SOL    HW132414   2.416   0.197   7.701
10796SOL    HW232415   2.389   0.351   7.745
10797SOL     OW32416   3.616   1.223   9.036
10797SOL    HW132417   3.707   1.184   9.023
10797SOL    HW232418   3.624   1.319   9.060
10798SOL     OW32419   2.926   1.347   8.788
10798SOL    HW132420   2.846   1.324   8.843
10798SOL    HW232421   3.009   1.321   8.837
10799SOL     OW32422   3.454   1.629   9.073
10799SOL    HW132423   3.481   1.663   8.983
10799SOL    HW232424   3.533   1.591   9.119
10800SOL     OW32425   2.973   1.195   8.548
10800SOL    HW132426   2.933   1.239   8.629
10800SOL    HW232427   2.932   1.232   8.465
10801SOL     OW32428   3.500   1.099   8.527
10801SOL    HW132429   3.505   1.180   8.586
10801SOL    HW232430   3.414   1.101   8.476
10802SOL     OW32431   2.777   0.089   8.850
10802SOL    HW132432   2.802   0.069   8.755
10802SOL    HW232433   2.849   0.145   8.892
10803SOL     OW32434   2.842   1.116   9.167
10803SOL    HW132435   2.743   1.122   9.177
10803SOL    HW232436   2.865   1.036   9.111
10804SOL     OW32437   2.567   1.050   7.816
10804SOL    HW132438   2.553   1.057   7.915
10804SOL    HW232439   2.651   0.999   7.798
10805SOL     OW32440   2.272   0.813   8.699
10805SOL    HW132441   2.358   0.825   8.749
10805SOL    HW232442   2.230   0.726   8.726
10806SOL     OW32443   3.136   0.386   8.710
10806SOL    HW132444   3.157   0.460   8.774
10806SOL    HW232445   3.047   0.403   8.667
10807SOL     OW32446   1.926   1.564   8.779
10807SOL    HW132447   1.880   1.646   8.745
10807SOL    HW232448   2.024   1.583   8.788
10808SOL     OW32449   2.229   1.100   7.949
10808SOL    HW132450   2.222   1.183   7.893
10808SOL    HW232451   2.233   1.020   7.889
10809SOL     OW32452   2.428   0.537   8.313
10809SOL    HW132453   2.440   0.603   8.239
10809SOL    HW232454   2.474   0.571   8.396
10810SOL     OW32455   3.114   1.348   7.836
10810SOL    HW132456   3.164   1.425   7.876
10810SOL    HW232457   3.019   1.350   7.868
10811SOL     OW32458   3.134   1.445   8.590
10811SOL    HW132459   3.181   1.458   8.677
10811SOL    HW232460   3.068   1.371   8.599
10812SOL     OW32461   3.444   0.639   7.920
10812SOL    HW132462   3.413   0.700   7.993
10812SOL    HW232463   3.494   0.691   7.851
10813SOL     OW32464   2.216   1.510   8.777
10813SOL    HW132465   2.195   1.466   8.690
10813SOL    HW232466   2.313   1.536   8.780
10814SOL     OW32467   2.264   0.751   9.046
10814SOL    HW132468   2.332   0.806   8.999
10814SOL    HW232469   2.304   0.663   9.073
10815SOL     OW32470   3.449   0.779   9.118
10815SOL    HW132471   3.357   0.817   9.113
10815SOL    HW232472   3.509   0.826   9.053
10816SOL     OW32473   2.875   0.105   9.218
10816SOL    HW132474   2.881   0.190   9.166
10816SOL    HW232475   2.907   0.029   9.161
10817SOL     OW32476   2.366   0.050   9.188
10817SOL    HW132477   2.324  -0.007   9.118
10817SOL    HW232478   2.300   0.119   9.220
10818SOL     OW32479   2.435   0.870   8.477
10818SOL    HW132480   2.479   0.959   8.468
10818SOL    HW232481   2.372   0.870   8.554
10819SOL     OW32482   3.222   0.862   8.493
10819SOL    HW132483   3.147   0.862   8.427
10819SOL    HW232484   3.259   0.770   8.502
10820SOL     OW32485   3.071   0.525   7.723
10820SOL    HW132486   3.084   0.441   7.777
10820SOL    HW232487   3.042   0.599   7.783
10821SOL     OW32488   2.169   0.213   8.679
10821SOL    HW132489   2.146   0.250   8.769
10821SOL    HW232490   2.139   0.118   8.673
10822SOL     OW32491   1.899   1.310   8.730
10822SOL    HW132492   1.952   1.261   8.798
10822SOL    HW232493   1.921   1.408   8.735
10823SOL     OW32494   2.594   0.634   8.512
10823SOL    HW132495   2.653   0.608   8.436
10823SOL    HW232496   2.566   0.730   8.501
10824SOL     OW32497   3.590   0.935   9.302
10824SOL    HW132498   3.544   0.928   9.213
10824SOL    HW232499   3.528   0.979   9.368
10825SOL     OW32500   2.169   0.063   8.066
10825SOL    HW132501   2.158   0.157   8.099
10825SOL    HW232502   2.164   0.000   8.143
10826SOL     OW32503   3.484   0.367   7.822
10826SOL    HW132504   3.486   0.291   7.886
10826SOL    HW232505   3.436   0.444   7.862
10827SOL     OW32506   2.885   0.766   8.414
10827SOL    HW132507   2.900   0.787   8.510
10827SOL    HW232508   2.855   0.671   8.405
10828SOL     OW32509   2.842   1.573   9.148
10828SOL    HW132510   2.822   1.617   9.060
10828SOL    HW232511   2.881   1.482   9.132
10829SOL     OW32512   3.721   1.518   9.053
10829SOL    HW132513   3.735   1.545   8.958
10829SOL    HW232514   3.804   1.540   9.106
10830SOL     OW32515   2.212   0.898   9.252
10830SOL    HW132516   2.288   0.942   9.300
10830SOL    HW232517   2.247   0.851   9.170
10831SOL     OW32518   3.402   0.274   7.573
10831SOL    HW132519   3.341   0.199   7.596
10831SOL    HW232520   3.424   0.326   7.656
10832SOL     OW32521   3.165   0.838   7.490
10832SOL    HW132522   3.199   0.745   7.505
10832SOL    HW232523   3.183   0.865   7.395
10833SOL     OW32524   2.930   1.333   8.297
10833SOL    HW132525   2.937   1.249   8.242
10833SOL    HW232526   2.992   1.402   8.261
10834SOL     OW32527   2.181   0.810   8.397
10834SOL    HW132528   2.274   0.846   8.402
10834SOL    HW232529   2.175   0.725   8.449
10835SOL     OW32530   2.201   0.509   8.454
10835SOL    HW132531   2.149   0.426   8.437
10835SOL    HW232532   2.278   0.514   8.390
10836SOL     OW32533   3.000   0.380   9.126
10836SOL    HW132534   2.955   0.443   9.190
10836SOL    HW232535   3.093   0.411   9.109
10837SOL     OW32536   3.022   0.207   8.925
10837SOL    HW132537   3.022   0.271   9.002
10837SOL    HW232538   3.050   0.255   8.842
10838SOL     OW32539   1.870   1.326   7.648
10838SOL    HW132540   1.777   1.347   7.617
10838SOL    HW232541   1.880   1.227   7.661
10839SOL     OW32542   1.950   1.801   8.375
10839SOL    HW132543   1.908   1.715   8.348
10839SOL    HW232544   2.044   1.804   8.341
10840SOL     OW32545   2.366   1.568   8.358
10840SOL    HW132546   2.432   1.642   8.367
10840SOL    HW232547   2.410   1.489   8.316
10841SOL     OW32548   2.864   0.796   8.686
10841SOL    HW132549   2.905   0.764   8.772
10841SOL    HW232550   2.768   0.769   8.683
10842SOL     OW32551   1.902   0.544   8.562
10842SOL    HW132552   1.987   0.511   8.521
10842SOL    HW232553   1.915   0.559   8.660
10843SOL     OW32554   2.051   0.520   9.170
10843SOL    HW132555   2.110   0.480   9.100
10843SOL    HW232556   1.993   0.591   9.129
10844SOL     OW32557   3.231   0.950   9.108
10844SOL    HW132558   3.270   1.039   9.128
10844SOL    HW232559   3.241   0.930   9.011
10845SOL     OW32560   2.677   0.572   7.773
10845SOL    HW132561   2.684   0.483   7.727
10845SOL    HW232562   2.583   0.606   7.765
10846SOL     OW32563   3.519   0.604   8.654
10846SOL    HW132564   3.481   0.535   8.716
10846SOL    HW232565   3.601   0.568   8.610
10847SOL     OW32566   2.114   1.564   9.192
10847SOL    HW132567   2.084   1.621   9.268
10847SOL    HW232568   2.107   1.467   9.218
10848SOL     OW32569   2.792   1.678   8.913
10848SOL    HW132570   2.768   1.660   8.818
10848SOL    HW232571   2.822   1.772   8.923
10849SOL     OW32572   2.335   0.500   7.639
10849SOL    HW132573   2.396   0.580   7.643
10849SOL    HW232574   2.240   0.531   7.646
10850SOL     OW32575   2.021   1.137   8.914
10850SOL    HW132576   2.043   1.076   8.990
10850SOL    HW232577   2.031   1.088   8.828
10851SOL     OW32578   3.209   1.059   8.682
10851SOL    HW132579   3.233   0.996   8.608
10851SOL    HW232580   3.119   1.099   8.664
10852SOL     OW32581   3.164   0.855   7.757
10852SOL    HW132582   3.078   0.824   7.799
10852SOL    HW232583   3.160   0.841   7.658
10853SOL     OW32584   3.621   1.747   8.602
10853SOL    HW132585   3.682   1.777   8.529
10853SOL    HW232586   3.583   1.658   8.580
10854SOL     OW32587   3.114   1.731   8.576
10854SOL    HW132588   3.198   1.736   8.522
10854SOL    HW232589   3.091   1.635   8.594
10855SOL     OW32590   1.945   1.258   8.470
10855SOL    HW132591   1.940   1.257   8.570
10855SOL    HW232592   1.862   1.217   8.432
10856SOL     OW32593   2.550   1.662   9.164
10856SOL    HW132594   2.494   1.743   9.173
10856SOL    HW232595   2.602   1.666   9.078
10857SOL     OW32596   3.588   0.135   7.971
10857SOL    HW132597   3.661   0.118   7.904
10857SOL    HW232598   3.557   0.048   8.009
10858SOL     OW32599   3.250   1.573   7.925
10858SOL    HW132600   3.317   1.585   7.851
10858SOL    HW232601   3.210   1.662   7.948
10859SOL     OW32602   1.992   1.794   9.299
10859SOL    HW132603   1.951   1.720   9.352
10859SOL    HW232604   2.056   1.845   9.357
10860SOL     OW32605   3.142   0.927   8.120
10860SOL    HW132606   3.202   0.846   8.122
10860SOL    HW232607   3.182   0.996   8.060
10861SOL     OW32608   2.692   1.273   8.870
10861SOL    HW132609   2.687   1.306   8.965
10861SOL    HW232610   2.606   1.292   8.824
10862SOL     OW32611   2.534   1.616   7.602
10862SOL    HW132612   2.543   1.626   7.503
10862SOL    HW232613   2.494   1.527   7.623
10863SOL     OW32614   3.512   1.720   8.842
10863SOL    HW132615   3.565   1.730   8.758
10863SOL    HW232616   3.485   1.810   8.876
10864SOL     OW32617   3.703   0.175   8.411
10864SOL    HW132618   3.742   0.090   8.375
10864SOL    HW232619   3.605   0.177   8.392
10865SOL     OW32620   2.125   0.326   8.168
10865SOL    HW132621   2.046   0.377   8.134
10865SOL    HW232622   2.116   0.311   8.266
10866SOL     OW32623   3.056   1.612   7.479
10866SOL    HW132624   3.062   1.519   7.516
10866SOL    HW232625   2.997   1.612   7.399
10867SOL     OW32626   2.684   1.002   8.820
10867SOL    HW132627   2.724   1.001   8.728
10867SOL    HW232628   2.694   1.094   8.860
10868SOL     OW32629   2.778   0.910   7.739
10868SOL    HW132630   2.841   0.948   7.671
10868SOL    HW232631   2.818   0.827   7.778
10869SOL     OW32632   3.366   1.607   7.492
10869SOL    HW132633   3.274   1.644   7.499
10869SOL    HW232634   3.404   1.627   7.402
10870SOL     OW32635   2.234   1.288   8.938
10870SOL    HW132636   2.221   1.381   8.904
10870SOL    HW232637   2.150   1.236   8.925
10871SOL     OW32638   3.476   1.292   8.737
10871SOL    HW132639   3.536   1.295   8.817
10871SOL    HW232640   3.401   1.356   8.750
10872SOL     OW32641   2.901   1.098   8.144
10872SOL    HW132642   2.831   1.051   8.198
10872SOL    HW232643   2.960   1.030   8.101
10873SOL     OW32644   2.876   0.236   8.419
10873SOL    HW132645   2.868   0.200   8.326
10873SOL    HW232646   2.874   0.160   8.484
10874SOL     OW32647   2.452   1.487   7.939
10874SOL    HW132648   2.494   1.429   7.869
10874SOL    HW232649   2.408   1.566   7.895
10875SOL     OW32650   3.571   0.385   8.829
10875SOL    HW132651   3.644   0.454   8.833
10875SOL    HW232652   3.599   0.310   8.770
10876SOL     OW32653   2.117   1.348   7.738
10876SOL    HW132654   2.021   1.349   7.711
10876SOL    HW232655   2.129   1.401   7.822
10877SOL     OW32656   1.967   1.013   9.174
10877SOL    HW132657   1.890   0.980   9.228
10877SOL    HW232658   2.052   0.983   9.216
10878SOL     OW32659   2.534   0.203   8.937
10878SOL    HW132660   2.624   0.187   8.897
10878SOL    HW232661   2.542   0.208   9.036
10879SOL     OW32662   1.937   0.345   7.481
10879SOL    HW132663   1.845   0.317   7.452
10879SOL    HW232664   1.968   0.422   7.425
10880SOL     OW32665   3.302   0.856   8.846
10880SOL    HW132666   3.245   0.908   8.783
10880SOL    HW232667   3.398   0.868   8.822
10881SOL     OW32668   1.934   0.166   7.766
10881SOL    HW132669   1.917   0.249   7.712
10881SOL    HW232670   2.024   0.129   7.744
10882SOL     OW32671   3.045   1.335   7.567
10882SOL    HW132672   2.946   1.324   7.569
10882SOL    HW232673   3.079   1.350   7.660
10883SOL     OW32674   2.475   0.842   8.879
10883SOL    HW132675   2.531   0.923   8.862
10883SOL    HW232676   2.534   0.762   8.882
10884SOL     OW32677   3.355   1.767   8.407
10884SOL    HW132678   3.388   1.831   8.338
10884SOL    HW232679   3.421   1.761   8.482
10885SOL     OW32680   2.578   0.565   9.156
10885SOL    HW132681   2.597   0.630   9.230
10885SOL    HW232682   2.638   0.485   9.165
10886SOL     OW32683   3.312   1.220   9.081
10886SOL    HW132684   3.303   1.210   9.180
10886SOL    HW232685   3.408   1.213   9.055
10887SOL     OW32686   2.252   1.741   9.008
10887SOL    HW132687   2.161   1.782   9.006
10887SOL    HW232688   2.245   1.647   9.040
10888SOL     OW32689   3.536   0.883   8.702
10888SOL    HW132690   3.509   0.794   8.665
10888SOL    HW232691   3.537   0.951   8.629
10889SOL     OW32692   3.087   0.325   7.897
10889SOL    HW132693   3.152   0.251   7.886
10889SOL    HW232694   3.107   0.375   7.981
10890SOL     OW32695   2.456   0.745   8.100
10890SOL    HW132696   2.506   0.830   8.081
10890SOL    HW232697   2.368   0.747   8.052
10891SOL     OW32698   3.639   0.342   9.090
10891SOL    HW132699   3.622   0.373   8.996
10891SOL    HW232700   3.555   0.305   9.128
10892SOL     OW32701   3.592   0.934   8.965
10892SOL    HW132702   3.630   1.025   8.980
10892SOL    HW232703   3.584   0.917   8.866
10893SOL     OW32704   2.721   1.374   7.464
10893SOL    HW132705   2.675   1.389   7.552
10893SOL    HW232706   2.765   1.459   7.434
10894SOL     OW32707   2.523   1.790   8.401
10894SOL    HW132708   2.477   1.878   8.388
10894SOL    HW232709   2.622   1.802   8.394
10895SOL     OW32710   2.721   0.956   8.309
10895SOL    HW132711   2.775   0.887   8.357
10895SOL    HW232712   2.689   1.025   8.375
10896SOL     OW32713   2.945   0.984   7.535
10896SOL    HW132714   2.922   1.037   7.453
10896SOL    HW232715   3.026   0.928   7.516
10897SOL     OW32716   3.723   1.569   8.299
10897SOL    HW132717   3.652   1.557   8.229
10897SOL    HW232718   3.724   1.490   8.359
10898SOL     OW32719   2.083   1.314   9.292
10898SOL    HW132720   2.018   1.241   9.271
10898SOL    HW232721   2.087   1.328   9.390
10899SOL     OW32722   1.941   1.240   8.101
10899SOL    HW132723   1.940   1.193   8.189
10899SOL    HW232724   2.023   1.212   8.050
10900SOL     OW32725   2.534   1.391   9.072
10900SOL    HW132726   2.456   1.341   9.110
10900SOL    HW232727   2.531   1.486   9.103
10901SOL     OW32728   3.686   0.192   8.675
10901SOL    HW132729   3.682   0.102   8.719
10901SOL    HW232730   3.689   0.181   8.576
10902SOL     OW32731   2.290   0.424   7.968
10902SOL    HW132732   2.320   0.352   7.906
10902SOL    HW232733   2.251   0.384   8.051
10903SOL     OW32734   3.567   1.487   8.552
10903SOL    HW132735   3.474   1.462   8.525
10903SOL    HW232736   3.593   1.437   8.634
10904SOL     OW32737   2.179   0.547   8.728
10904SOL    HW132738   2.217   0.488   8.800
10904SOL    HW232739   2.219   0.521   8.640
10905SOL     OW32740   2.674   1.586   8.135
10905SOL    HW132741   2.706   1.596   8.041
10905SOL    HW232742   2.595   1.524   8.137
10906SOL     OW32743   3.286   0.214   8.560
10906SOL    HW132744   3.338   0.149   8.615
10906SOL    HW232745   3.237   0.277   8.621
10907SOL     OW32746   2.863   0.034   8.602
10907SOL    HW132747   2.800  -0.038   8.571
10907SOL    HW232748   2.956  -0.002   8.602
10908SOL     OW32749   2.632   1.330   7.749
10908SOL    HW132750   2.586   1.243   7.766
10908SOL    HW232751   2.723   1.327   7.790
10909SOL     OW32752   2.480   1.567   8.732
10909SOL    HW132753   2.475   1.649   8.789
10909SOL    HW232754   2.569   1.564   8.687
10910SOL     OW32755   3.214   0.052   7.616
10910SOL    HW132756   3.249   0.011   7.532
10910SOL    HW232757   3.124   0.014   7.636
10911SOL     OW32758   3.162   0.453   8.139
10911SOL    HW132759   3.103   0.533   8.143
10911SOL    HW232760   3.177   0.418   8.232
10912SOL     OW32761   3.455   0.221   8.330
10912SOL    HW132762   3.371   0.220   8.384
10912SOL    HW232763   3.457   0.304   8.274
10913SOL     OW32764   1.901   1.077   7.748
10913SOL    HW132765   2.000   1.066   7.739
10913SOL    HW232766   1.861   0.991   7.780
10914SOL     OW32767   2.737   1.646   7.785
10914SOL    HW132768   2.660   1.611   7.731
10914SOL    HW232769   2.705   1.717   7.847
10915SOL     OW32770   2.092   0.628   9.423
10915SOL    HW132771   1.999   0.626   9.460
10915SOL    HW232772   2.093   0.589   9.331
10916SOL     OW32773   2.087   0.275  10.306
10916SOL    HW132774   2.122   0.258  10.398
10916SOL    HW232775   1.999   0.230  10.294
10917SOL     OW32776   1.881   0.368   9.957
10917SOL    HW132777   1.799   0.411   9.996
10917SOL    HW232778   1.853   0.295   9.894
10918SOL     OW32779   2.431   1.275  10.475
10918SOL    HW132780   2.338   1.268  10.438
10918SOL    HW232781   2.442   1.364  10.519
10919SOL     OW32782   3.417   1.511  10.013
10919SOL    HW132783   3.360   1.495  10.094
10919SOL    HW232784   3.358   1.521   9.933
10920SOL     OW32785   2.997   0.703  10.027
10920SOL    HW132786   3.054   0.781  10.002
10920SOL    HW232787   2.937   0.729  10.103
10921SOL     OW32788   3.617   0.607   9.541
10921SOL    HW132789   3.605   0.594   9.442
10921SOL    HW232790   3.587   0.526   9.590
10922SOL     OW32791   2.630   1.144  10.333
10922SOL    HW132792   2.552   1.161  10.393
10922SOL    HW232793   2.664   1.231  10.297
10923SOL     OW32794   2.712   0.798  11.133
10923SOL    HW132795   2.708   0.874  11.198
10923SOL    HW232796   2.734   0.834  11.042
10924SOL     OW32797   2.547   1.012   9.975
10924SOL    HW132798   2.616   0.996  10.045
10924SOL    HW232799   2.474   1.069  10.013
10925SOL     OW32800   2.548   1.161  11.113
10925SOL    HW132801   2.608   1.240  11.127
10925SOL    HW232802   2.462   1.192  11.072
10926SOL     OW32803   2.197   1.435  10.371
10926SOL    HW132804   2.119   1.404  10.318
10926SOL    HW232805   2.255   1.493  10.314
10927SOL     OW32806   3.322   1.505  10.649
10927SOL    HW132807   3.346   1.599  10.675
10927SOL    HW232808   3.306   1.451  10.731
10928SOL     OW32809   2.300   0.392  10.809
10928SOL    HW132810   2.382   0.336  10.818
10928SOL    HW232811   2.219   0.334  10.813
10929SOL     OW32812   3.465   0.447  10.047
10929SOL    HW132813   3.391   0.493   9.997
10929SOL    HW232814   3.516   0.515  10.100
10930SOL     OW32815   2.093   1.713   9.793
10930SOL    HW132816   2.127   1.790   9.847
10930SOL    HW232817   2.137   1.713   9.703
10931SOL     OW32818   2.989   1.341  11.000
10931SOL    HW132819   3.036   1.341  11.088
10931SOL    HW232820   2.941   1.254  10.989
10932SOL     OW32821   2.092   1.434   9.848
10932SOL    HW132822   2.066   1.530   9.848
10932SOL    HW232823   2.021   1.380   9.893
10933SOL     OW32824   2.102   1.091  10.196
10933SOL    HW132825   2.116   1.007  10.248
10933SOL    HW232826   2.047   1.155  10.251
10934SOL     OW32827   2.482   1.786  10.749
10934SOL    HW132828   2.390   1.769  10.784
10934SOL    HW232829   2.510   1.878  10.775
10935SOL     OW32830   2.468   0.964   9.433
10935SOL    HW132831   2.475   1.048   9.379
10935SOL    HW232832   2.514   0.977   9.521
10936SOL     OW32833   3.456   0.114  10.790
10936SOL    HW132834   3.438   0.181  10.718
10936SOL    HW232835   3.453   0.160  10.879
10937SOL     OW32836   1.984   0.643   9.873
10937SOL    HW132837   1.939   0.555   9.890
10937SOL    HW232838   1.983   0.697   9.957
10938SOL     OW32839   3.704   1.767   9.669
10938SOL    HW132840   3.758   1.738   9.749
10938SOL    HW232841   3.734   1.857   9.640
10939SOL     OW32842   1.889   1.596   9.427
10939SOL    HW132843   1.870   1.500   9.448
10939SOL    HW232844   1.856   1.654   9.502
10940SOL     OW32845   3.551   0.922   9.922
10940SOL    HW132846   3.646   0.893   9.930
10940SOL    HW232847   3.543   0.987   9.847
10941SOL     OW32848   3.503   1.108   9.742
10941SOL    HW132849   3.589   1.110   9.690
10941SOL    HW232850   3.517   1.155   9.830
10942SOL     OW32851   1.975   0.737  10.907
10942SOL    HW132852   2.063   0.724  10.952
10942SOL    HW232853   1.962   0.834  10.885
10943SOL     OW32854   2.475   1.365  10.036
10943SOL    HW132855   2.426   1.278  10.045
10943SOL    HW232856   2.452   1.408   9.949
10944SOL     OW32857   3.155   1.228  10.733
10944SOL    HW132858   3.192   1.155  10.675
10944SOL    HW232859   3.207   1.233  10.818
10945SOL     OW32860   2.671   0.004   9.812
10945SOL    HW132861   2.711   0.095   9.803
10945SOL    HW232862   2.571   0.012   9.818
10946SOL     OW32863   2.059   0.976  10.574
10946SOL    HW132864   2.148   0.931  10.560
10946SOL    HW232865   1.986   0.911  10.555
10947SOL     OW32866   3.387   0.999   9.500
10947SOL    HW132867   3.324   0.923   9.513
10947SOL    HW232868   3.435   1.017   9.586
10948SOL     OW32869   3.049   1.792  10.926
10948SOL    HW132870   3.073   1.852  10.850
10948SOL    HW232871   3.056   1.697  10.896
10949SOL     OW32872   2.179   0.251  11.111
10949SOL    HW132873   2.250   0.322  11.117
10949SOL    HW232874   2.091   0.290  11.139
10950SOL     OW32875   3.328   1.417  10.263
10950SOL    HW132876   3.269   1.423  10.343
10950SOL    HW232877   3.313   1.329  10.217
10951SOL     OW32878   3.529   1.714   9.882
10951SOL    HW132879   3.488   1.691   9.794
10951SOL    HW232880   3.511   1.640   9.947
10952SOL     OW32881   2.460   0.729   9.580
10952SOL    HW132882   2.484   0.798   9.512
10952SOL    HW232883   2.382   0.762   9.634
10953SOL     OW32884   3.143   0.345  10.254
10953SOL    HW132885   3.057   0.295  10.241
10953SOL    HW232886   3.205   0.291  10.310
10954SOL     OW32887   3.438   1.662   9.617
10954SOL    HW132888   3.527   1.708   9.620
10954SOL    HW232889   3.417   1.638   9.522
10955SOL     OW32890   2.669   0.605  10.775
10955SOL    HW132891   2.622   0.602  10.864
10955SOL    HW232892   2.618   0.550  10.709
10956SOL     OW32893   3.256   0.469  10.984
10956SOL    HW132894   3.236   0.512  11.072
10956SOL    HW232895   3.334   0.407  10.993
10957SOL     OW32896   2.835   0.890  10.882
10957SOL    HW132897   2.881   0.806  10.853
10957SOL    HW232898   2.779   0.924  10.807
10958SOL     OW32899   2.853   0.410  10.552
10958SOL    HW132900   2.776   0.444  10.606
10958SOL    HW232901   2.819   0.359  10.473
10959SOL     OW32902   2.903   0.701   9.739
10959SOL    HW132903   2.929   0.697   9.835
10959SOL    HW232904   2.818   0.650   9.725
10960SOL     OW32905   1.938   0.811  10.099
10960SOL    HW132906   2.037   0.799  10.108
10960SOL    HW232907   1.914   0.906  10.120
10961SOL     OW32908   1.992   1.821  10.881
10961SOL    HW132909   1.982   1.806  10.980
10961SOL    HW232910   1.906   1.857  10.845
10962SOL     OW32911   2.727   0.348   9.505
10962SOL    HW132912   2.786   0.411   9.456
10962SOL    HW232913   2.746   0.254   9.476
10963SOL     OW32914   3.581   0.585  11.141
10963SOL    HW132915   3.555   0.674  11.105
10963SOL    HW232916   3.579   0.517  11.068
10964SOL     OW32917   3.224   1.144   9.855
10964SOL    HW132918   3.307   1.115   9.807
10964SOL    HW232919   3.175   1.211   9.799
10965SOL     OW32920   2.412   0.196  10.195
10965SOL    HW132921   2.407   0.191  10.295
10965SOL    HW232922   2.414   0.292  10.166
10966SOL     OW32923   2.870   1.456   9.787
10966SOL    HW132924   2.824   1.528   9.735
10966SOL    HW232925   2.866   1.476   9.885
10967SOL     OW32926   2.213   1.801  10.163
10967SOL    HW132927   2.263   1.715  10.169
10967SOL    HW232928   2.278   1.878  10.160
10968SOL     OW32929   3.657   1.066  10.183
10968SOL    HW132930   3.595   1.051  10.107
10968SOL    HW232931   3.605   1.077  10.268
10969SOL     OW32932   3.089   1.550  10.816
10969SOL    HW132933   3.095   1.473  10.880
10969SOL    HW232934   3.037   1.524  10.736
10970SOL     OW32935   2.183   0.943   9.552
10970SOL    HW132936   2.265   0.982   9.510
10970SOL    HW232937   2.156   0.861   9.503
10971SOL     OW32938   3.320   0.735  10.038
10971SOL    HW132939   3.315   0.670  10.113
10971SOL    HW232940   3.400   0.794  10.051
10972SOL     OW32941   2.323   1.266  11.037
10972SOL    HW132942   2.273   1.267  10.951
10972SOL    HW232943   2.260   1.248  11.113
10973SOL     OW32944   2.973   1.776   9.547
10973SOL    HW132945   2.913   1.714   9.597
10973SOL    HW232946   3.004   1.732   9.462
10974SOL     OW32947   2.064   0.285  10.808
10974SOL    HW132948   1.984   0.345  10.795
10974SOL    HW232949   2.054   0.236  10.894
10975SOL     OW32950   3.494   1.377   9.391
10975SOL    HW132951   3.462   1.471   9.381
10975SOL    HW232952   3.418   1.314   9.379
10976SOL     OW32953   2.326   1.743   9.633
10976SOL    HW132954   2.359   1.782   9.719
10976SOL    HW232955   2.402   1.736   9.568
10977SOL     OW32956   3.262   0.107   9.736
10977SOL    HW132957   3.238   0.070   9.646
10977SOL    HW232958   3.361   0.123   9.740
10978SOL     OW32959   2.111   1.785  10.551
10978SOL    HW132960   2.168   1.720  10.601
10978SOL    HW232961   2.095   1.752  10.458
10979SOL     OW32962   2.802   1.698  10.214
10979SOL    HW132963   2.882   1.641  10.235
10979SOL    HW232964   2.753   1.658  10.137
10980SOL     OW32965   2.244   0.700   9.790
10980SOL    HW132966   2.289   0.610   9.787
10980SOL    HW232967   2.150   0.689   9.823
10981SOL     OW32968   3.409   0.222  11.039
10981SOL    HW132969   3.404   0.259  11.131
10981SOL    HW232970   3.337   0.153  11.027
10982SOL     OW32971   2.476   0.122   9.427
10982SOL    HW132972   2.574   0.100   9.434
10982SOL    HW232973   2.445   0.105   9.334
10983SOL     OW32974   2.643   0.264  11.059
10983SOL    HW132975   2.710   0.203  11.102
10983SOL    HW232976   2.570   0.283  11.124
10984SOL     OW32977   2.750   1.514  10.505
10984SOL    HW132978   2.727   1.489  10.411
10984SOL    HW232979   2.811   1.445  10.544
10985SOL     OW32980   3.213   0.590  10.743
10985SOL    HW132981   3.241   0.547  10.828
10985SOL    HW232982   3.238   0.686  10.744
10986SOL     OW32983   2.665   1.402  10.234
10986SOL    HW132984   2.755   1.416  10.192
10986SOL    HW232985   2.594   1.404  10.163
10987SOL     OW32986   2.784   0.503  10.209
10987SOL    HW132987   2.759   0.494  10.113
10987SOL    HW232988   2.832   0.421  10.240
10988SOL     OW32989   2.401   0.064   9.822
10988SOL    HW132990   2.320   0.065   9.880
10988SOL    HW232991   2.404   0.147   9.767
10989SOL     OW32992   3.296   1.188   9.351
10989SOL    HW132993   3.328   1.112   9.408
10989SOL    HW232994   3.204   1.215   9.381
10990SOL     OW32995   2.159   0.035   9.481
10990SOL    HW132996   2.208   0.119   9.460
10990SOL    HW232997   2.221  -0.030   9.526
10991SOL     OW32998   2.797   0.236   9.790
10991SOL    HW132999   2.749   0.277   9.712
10991SOL    HW233000   2.896   0.234   9.771
10992SOL     OW33001   2.938   0.683  10.774
10992SOL    HW133002   2.858   0.622  10.777
10992SOL    HW233003   3.019   0.630  10.750
10993SOL     OW33004   3.089   1.570  10.103
10993SOL    HW133005   3.110   1.644  10.038
10993SOL    HW233006   3.157   1.570  10.176
10994SOL     OW33007   2.321   1.152  10.051
10994SOL    HW133008   2.250   1.125  10.116
10994SOL    HW233009   2.295   1.124   9.958
10995SOL     OW33010   3.133   1.797   9.901
10995SOL    HW133011   3.177   1.861   9.837
10995SOL    HW233012   3.083   1.849   9.971
10996SOL     OW33013   2.894   0.549   9.326
10996SOL    HW133014   2.853   0.631   9.287
10996SOL    HW233015   2.958   0.575   9.399
10997SOL     OW33016   1.940   0.556  10.696
10997SOL    HW133017   2.032   0.555  10.655
10997SOL    HW233018   1.934   0.630  10.763
10998SOL     OW33019   2.423   0.222  10.457
10998SOL    HW133020   2.461   0.138  10.494
10998SOL    HW233021   2.335   0.241  10.501
10999SOL     OW33022   2.728   0.454   9.952
10999SOL    HW133023   2.696   0.526   9.890
10999SOL    HW233024   2.752   0.373   9.899
11000SOL     OW33025   2.879   0.039  10.063
11000SOL    HW133026   2.807   0.044   9.994
11000SOL    HW233027   2.855  -0.030  10.132
11001SOL     OW33028   3.291   1.173  10.177
11001SOL    HW133029   3.236   1.089  10.170
11001SOL    HW233030   3.317   1.202  10.085
11002SOL     OW33031   3.328   0.590  10.302
11002SOL    HW133032   3.298   0.495  10.309
11002SOL    HW233033   3.401   0.606  10.368
11003SOL     OW33034   3.719   0.833   9.687
11003SOL    HW133035   3.761   0.769   9.751
11003SOL    HW233036   3.681   0.782   9.609
11004SOL     OW33037   2.350   1.385   9.484
11004SOL    HW133038   2.263   1.370   9.531
11004SOL    HW233039   2.333   1.411   9.389
11005SOL     OW33040   3.526   1.280   9.967
11005SOL    HW133041   3.625   1.288   9.981
11005SOL    HW233042   3.481   1.364   9.998
11006SOL     OW33043   3.252   0.575   9.388
11006SOL    HW133044   3.198   0.554   9.469
11006SOL    HW233045   3.343   0.534   9.397
11007SOL     OW33046   2.389   0.256   9.638
11007SOL    HW133047   2.416   0.197   9.563
11007SOL    HW233048   2.389   0.351   9.607
11008SOL     OW33049   3.616   1.223  10.898
11008SOL    HW133050   3.707   1.184  10.885
11008SOL    HW233051   3.624   1.319  10.922
11009SOL     OW33052   2.926   1.347  10.650
11009SOL    HW133053   2.846   1.324  10.705
11009SOL    HW233054   3.009   1.321  10.699
11010SOL     OW33055   3.454   1.629  10.935
11010SOL    HW133056   3.481   1.663  10.845
11010SOL    HW233057   3.533   1.591  10.981
11011SOL     OW33058   2.973   1.195  10.410
11011SOL    HW133059   2.933   1.239  10.491
11011SOL    HW233060   2.932   1.232  10.327
11012SOL     OW33061   3.500   1.099  10.389
11012SOL    HW133062   3.505   1.180  10.448
11012SOL    HW233063   3.414   1.101  10.338
11013SOL     OW33064   2.777   0.089  10.712
11013SOL    HW133065   2.802   0.069  10.617
11013SOL    HW233066   2.849   0.145  10.754
11014SOL     OW33067   2.842   1.116  11.029
11014SOL    HW133068   2.743   1.122  11.039
11014SOL    HW233069   2.865   1.036  10.973
11015SOL     OW33070   2.567   1.050   9.678
11015SOL    HW133071   2.553   1.057   9.777
11015SOL    HW233072   2.651   0.999   9.660
11016SOL     OW33073   2.272   0.813  10.561
11016SOL    HW133074   2.358   0.825  10.611
11016SOL    HW233075   2.230   0.726  10.588
11017SOL     OW33076   3.136   0.386  10.572
11017SOL    HW133077   3.157   0.460  10.636
11017SOL    HW233078   3.047   0.403  10.529
11018SOL     OW33079   1.926   1.564  10.641
11018SOL    HW133080   1.880   1.646  10.607
11018SOL    HW233081   2.024   1.583  10.650
11019SOL     OW33082   2.229   1.100   9.811
11019SOL    HW133083   2.222   1.183   9.755
11019SOL    HW233084   2.233   1.020   9.751
11020SOL     OW33085   2.428   0.537  10.175
11020SOL    HW133086   2.440   0.603  10.101
11020SOL    HW233087   2.474   0.571  10.258
11021SOL     OW33088   3.114   1.348   9.698
11021SOL    HW133089   3.164   1.425   9.738
11021SOL    HW233090   3.019   1.350   9.730
11022SOL     OW33091   3.134   1.445  10.452
11022SOL    HW133092   3.181   1.458  10.539
11022SOL    HW233093   3.068   1.371  10.461
11023SOL     OW33094   3.444   0.639   9.782
11023SOL    HW133095   3.413   0.700   9.855
11023SOL    HW233096   3.494   0.691   9.713
11024SOL     OW33097   2.216   1.510  10.639
11024SOL    HW133098   2.195   1.466  10.552
11024SOL    HW233099   2.313   1.536  10.642
11025SOL     OW33100   2.264   0.751  10.908
11025SOL    HW133101   2.332   0.806  10.861
11025SOL    HW233102   2.304   0.663  10.935
11026SOL     OW33103   3.449   0.779  10.980
11026SOL    HW133104   3.357   0.817  10.975
11026SOL    HW233105   3.509   0.826  10.915
11027SOL     OW33106   2.875   0.105  11.080
11027SOL    HW133107   2.881   0.190  11.028
11027SOL    HW233108   2.907   0.029  11.023
11028SOL     OW33109   2.366   0.050  11.050
11028SOL    HW133110   2.324  -0.007  10.980
11028SOL    HW233111   2.300   0.119  11.082
11029SOL     OW33112   2.435   0.870  10.339
11029SOL    HW133113   2.479   0.959  10.330
11029SOL    HW233114   2.372   0.870  10.416
11030SOL     OW33115   3.222   0.862  10.355
11030SOL    HW133116   3.147   0.862  10.289
11030SOL    HW233117   3.259   0.770  10.364
11031SOL     OW33118   3.071   0.525   9.585
11031SOL    HW133119   3.084   0.441   9.639
11031SOL    HW233120   3.042   0.599   9.645
11032SOL     OW33121   2.169   0.213  10.541
11032SOL    HW133122   2.146   0.250  10.631
11032SOL    HW233123   2.139   0.118  10.535
11033SOL     OW33124   1.899   1.310  10.592
11033SOL    HW133125   1.952   1.261  10.660
11033SOL    HW233126   1.921   1.408  10.597
11034SOL     OW33127   2.594   0.634  10.374
11034SOL    HW133128   2.653   0.608  10.298
11034SOL    HW233129   2.566   0.730  10.363
11035SOL     OW33130   3.590   0.935  11.164
11035SOL    HW133131   3.544   0.928  11.075
11035SOL    HW233132   3.528   0.979  11.230
11036SOL     OW33133   2.169   0.063   9.928
11036SOL    HW133134   2.158   0.157   9.961
11036SOL    HW233135   2.164   0.000  10.005
11037SOL     OW33136   3.484   0.367   9.684
11037SOL    HW133137   3.486   0.291   9.748
11037SOL    HW233138   3.436   0.444   9.724
11038SOL     OW33139   2.885   0.766  10.276
11038SOL    HW133140   2.900   0.787  10.372
11038SOL    HW233141   2.855   0.671  10.267
11039SOL     OW33142   2.842   1.573  11.010
11039SOL    HW133143   2.822   1.617  10.922
11039SOL    HW233144   2.881   1.482  10.994
11040SOL     OW33145   3.721   1.518  10.915
11040SOL    HW133146   3.735   1.545  10.820
11040SOL    HW233147   3.804   1.540  10.968
11041SOL     OW33148   2.212   0.898  11.114
11041SOL    HW133149   2.288   0.942  11.162
11041SOL    HW233150   2.247   0.851  11.032
11042SOL     OW33151   3.402   0.274   9.435
11042SOL    HW133152   3.341   0.199   9.458
11042SOL    HW233153   3.424   0.326   9.518
11043SOL     OW33154   3.165   0.838   9.352
11043SOL    HW133155   3.199   0.745   9.367
11043SOL    HW233156   3.183   0.865   9.257
11044SOL     OW33157   2.930   1.333  10.159
11044SOL    HW133158   2.937   1.249  10.104
11044SOL    HW233159   2.992   1.402  10.123
11045SOL     OW33160   2.181   0.810  10.259
11045SOL    HW133161   2.274   0.846  10.264
11045SOL    HW233162   2.175   0.725  10.311
11046SOL     OW33163   2.201   0.509  10.316
11046SOL    HW133164   2.149   0.426  10.299
11046SOL    HW233165   2.278   0.514  10.252
11047SOL     OW33166   3.000   0.380  10.988
11047SOL    HW133167   2.955   0.443  11.052
11047SOL    HW233168   3.093   0.411  10.971
11048SOL     OW33169   3.022   0.207  10.787
11048SOL    HW133170   3.022   0.271  10.864
11048SOL    HW233171   3.050   0.255  10.704
11049SOL     OW33172   1.870   1.326   9.510
11049SOL    HW133173   1.777   1.347   9.479
11049SOL    HW233174   1.880   1.227   9.523
11050SOL     OW33175   1.950   1.801  10.237
11050SOL    HW133176   1.908   1.715  10.210
11050SOL    HW233177   2.044   1.804  10.203
11051SOL     OW33178   2.366   1.568  10.220
11051SOL    HW133179   2.432   1.642  10.229
11051SOL    HW233180   2.410   1.489  10.178
11052SOL     OW33181   2.864   0.796  10.548
11052SOL    HW133182   2.905   0.764  10.634
11052SOL    HW233183   2.768   0.769  10.545
11053SOL     OW33184   1.902   0.544  10.424
11053SOL    HW133185   1.987   0.511  10.383
11053SOL    HW233186   1.915   0.559  10.522
11054SOL     OW33187   2.051   0.520  11.032
11054SOL    HW133188   2.110   0.480  10.962
11054SOL    HW233189   1.993   0.591  10.991
11055SOL     OW33190   3.231   0.950  10.970
11055SOL    HW133191   3.270   1.039  10.990
11055SOL    HW233192   3.241   0.930  10.873
11056SOL     OW33193   2.677   0.572   9.635
11056SOL    HW133194   2.684   0.483   9.589
11056SOL    HW233195   2.583   0.606   9.627
11057SOL     OW33196   3.519   0.604  10.516
11057SOL    HW133197   3.481   0.535  10.578
11057SOL    HW233198   3.601   0.568  10.472
11058SOL     OW33199   2.114   1.564  11.054
11058SOL    HW133200   2.084   1.621  11.130
11058SOL    HW233201   2.107   1.467  11.080
11059SOL     OW33202   2.533   0.464  10.579
11059SOL    HW133203   2.499   0.375  10.549
11059SOL    HW233204   2.559   0.518  10.499
11060SOL     OW33205   2.792   1.678  10.775
11060SOL    HW133206   2.768   1.660  10.680
11060SOL    HW233207   2.822   1.772  10.785
11061SOL     OW33208   2.335   0.500   9.501
11061SOL    HW133209   2.396   0.580   9.505
11061SOL    HW233210   2.240   0.531   9.508
11062SOL     OW33211   2.021   1.137  10.776
11062SOL    HW133212   2.043   1.076  10.852
11062SOL    HW233213   2.031   1.088  10.690
11063SOL     OW33214   3.209   1.059  10.544
11063SOL    HW133215   3.233   0.996  10.470
11063SOL    HW233216   3.119   1.099  10.526
11064SOL     OW33217   3.164   0.855   9.619
11064SOL    HW133218   3.078   0.824   9.661
11064SOL    HW233219   3.160   0.841   9.520
11065SOL     OW33220   3.621   1.747  10.464
11065SOL    HW133221   3.682   1.777  10.391
11065SOL    HW233222   3.583   1.658  10.442
11066SOL     OW33223   3.114   1.731  10.438
11066SOL    HW133224   3.198   1.736  10.384
11066SOL    HW233225   3.091   1.635  10.456
11067SOL     OW33226   1.945   1.258  10.332
11067SOL    HW133227   1.940   1.257  10.432
11067SOL    HW233228   1.862   1.217  10.294
11068SOL     OW33229   2.550   1.662  11.026
11068SOL    HW133230   2.494   1.743  11.035
11068SOL    HW233231   2.602   1.666  10.940
11069SOL     OW33232   3.588   0.135   9.833
11069SOL    HW133233   3.661   0.118   9.766
11069SOL    HW233234   3.557   0.048   9.871
11070SOL     OW33235   3.250   1.573   9.787
11070SOL    HW133236   3.317   1.585   9.713
11070SOL    HW233237   3.210   1.662   9.810
11071SOL     OW33238   1.992   1.794  11.161
11071SOL    HW133239   1.951   1.720  11.214
11071SOL    HW233240   2.056   1.845  11.219
11072SOL     OW33241   3.142   0.927   9.982
11072SOL    HW133242   3.202   0.846   9.984
11072SOL    HW233243   3.182   0.996   9.922
11073SOL     OW33244   2.692   1.273  10.732
11073SOL    HW133245   2.687   1.306  10.827
11073SOL    HW233246   2.606   1.292  10.686
11074SOL     OW33247   2.534   1.616   9.464
11074SOL    HW133248   2.543   1.626   9.365
11074SOL    HW233249   2.494   1.527   9.485
11075SOL     OW33250   3.512   1.720  10.704
11075SOL    HW133251   3.565   1.730  10.620
11075SOL    HW233252   3.485   1.810  10.738
11076SOL     OW33253   3.703   0.175  10.273
11076SOL    HW133254   3.742   0.090  10.237
11076SOL    HW233255   3.605   0.177  10.254
11077SOL     OW33256   2.125   0.326  10.030
11077SOL    HW133257   2.046   0.377   9.996
11077SOL    HW233258   2.116   0.311  10.128
11078SOL     OW33259   3.056   1.612   9.341
11078SOL    HW133260   3.062   1.519   9.378
11078SOL    HW233261   2.997   1.612   9.261
11079SOL     OW33262   2.684   1.002  10.682
11079SOL    HW133263   2.724   1.001  10.590
11079SOL    HW233264   2.694   1.094  10.722
11080SOL     OW33265   2.778   0.910   9.601
11080SOL    HW133266   2.841   0.948   9.533
11080SOL    HW233267   2.818   0.827   9.640
11081SOL     OW33268   2.234   1.288  10.800
11081SOL    HW133269   2.221   1.381  10.766
11081SOL    HW233270   2.150   1.236  10.787
11082SOL     OW33271   3.476   1.292  10.599
11082SOL    HW133272   3.536   1.295  10.679
11082SOL    HW233273   3.401   1.356  10.612
11083SOL     OW33274   2.901   1.098  10.006
11083SOL    HW133275   2.831   1.051  10.060
11083SOL    HW233276   2.960   1.030   9.963
11084SOL     OW33277   2.876   0.236  10.281
11084SOL    HW133278   2.868   0.200  10.188
11084SOL    HW233279   2.874   0.160  10.346
11085SOL     OW33280   2.452   1.487   9.801
11085SOL    HW133281   2.494   1.429   9.731
11085SOL    HW233282   2.408   1.566   9.757
11086SOL     OW33283   3.571   0.385  10.691
11086SOL    HW133284   3.644   0.454  10.695
11086SOL    HW233285   3.599   0.310  10.632
11087SOL     OW33286   2.117   1.348   9.600
11087SOL    HW133287   2.021   1.349   9.573
11087SOL    HW233288   2.129   1.401   9.684
11088SOL     OW33289   1.967   1.013  11.036
11088SOL    HW133290   1.890   0.980  11.090
11088SOL    HW233291   2.052   0.983  11.078
11089SOL     OW33292   2.534   0.203  10.799
11089SOL    HW133293   2.624   0.187  10.759
11089SOL    HW233294   2.542   0.208  10.898
11090SOL     OW33295   1.937   0.345   9.343
11090SOL    HW133296   1.845   0.317   9.314
11090SOL    HW233297   1.968   0.422   9.287
11091SOL     OW33298   3.302   0.856  10.708
11091SOL    HW133299   3.245   0.908  10.645
11091SOL    HW233300   3.398   0.868  10.684
11092SOL     OW33301   1.934   0.166   9.628
11092SOL    HW133302   1.917   0.249   9.574
11092SOL    HW233303   2.024   0.129   9.606
11093SOL     OW33304   3.045   1.335   9.429
11093SOL    HW133305   2.946   1.324   9.431
11093SOL    HW233306   3.079   1.350   9.522
11094SOL     OW33307   2.475   0.842  10.741
11094SOL    HW133308   2.531   0.923  10.724
11094SOL    HW233309   2.534   0.762  10.744
11095SOL     OW33310   3.355   1.767  10.269
11095SOL    HW133311   3.388   1.831  10.200
11095SOL    HW233312   3.421   1.761  10.344
11096SOL     OW33313   2.578   0.565  11.018
11096SOL    HW133314   2.597   0.630  11.092
11096SOL    HW233315   2.638   0.485  11.027
11097SOL     OW33316   3.312   1.220  10.943
11097SOL    HW133317   3.303   1.210  11.042
11097SOL    HW233318   3.408   1.213  10.917
11098SOL     OW33319   2.252   1.741  10.870
11098SOL    HW133320   2.161   1.782  10.868
11098SOL    HW233321   2.245   1.647  10.902
11099SOL     OW33322   3.536   0.883  10.564
11099SOL    HW133323   3.509   0.794  10.527
11099SOL    HW233324   3.537   0.951  10.491
11100SOL     OW33325   3.087   0.325   9.759
11100SOL    HW133326   3.152   0.251   9.748
11100SOL    HW233327   3.107   0.375   9.843
11101SOL     OW33328   2.456   0.745   9.962
11101SOL    HW133329   2.506   0.830   9.943
11101SOL    HW233330   2.368   0.747   9.914
11102SOL     OW33331   3.639   0.342  10.952
11102SOL    HW133332   3.622   0.373  10.858
11102SOL    HW233333   3.555   0.305  10.990
11103SOL     OW33334   3.592   0.934  10.827
11103SOL    HW133335   3.630   1.025  10.842
11103SOL    HW233336   3.584   0.917  10.728
11104SOL     OW33337   2.721   1.374   9.326
11104SOL    HW133338   2.675   1.389   9.414
11104SOL    HW233339   2.765   1.459   9.296
11105SOL     OW33340   2.523   1.790  10.263
11105SOL    HW133341   2.477   1.878  10.250
11105SOL    HW233342   2.622   1.802  10.256
11106SOL     OW33343   2.721   0.956  10.171
11106SOL    HW133344   2.775   0.887  10.219
11106SOL    HW233345   2.689   1.025  10.237
11107SOL     OW33346   2.945   0.984   9.397
11107SOL    HW133347   2.922   1.037   9.315
11107SOL    HW233348   3.026   0.928   9.378
11108SOL     OW33349   3.723   1.569  10.161
11108SOL    HW133350   3.652   1.557  10.091
11108SOL    HW233351   3.724   1.490  10.221
11109SOL     OW33352   2.083   1.314  11.154
11109SOL    HW133353   2.018   1.241  11.133
11109SOL    HW233354   2.087   1.328  11.252
11110SOL     OW33355   1.941   1.240   9.963
11110SOL    HW133356   1.940   1.193  10.051
11110SOL    HW233357   2.023   1.212   9.912
11111SOL     OW33358   2.534   1.391  10.934
11111SOL    HW133359   2.456   1.341  10.972
11111SOL    HW233360   2.531   1.486  10.965
11112SOL     OW33361   3.686   0.192  10.537
11112SOL    HW133362   3.682   0.102  10.581
11112SOL    HW233363   3.689   0.181  10.438
11113SOL     OW33364   2.290   0.424   9.830
11113SOL    HW133365   2.320   0.352   9.768
11113SOL    HW233366   2.251   0.384   9.913
11114SOL     OW33367   3.567   1.487  10.414
11114SOL    HW133368   3.474   1.462  10.387
11114SOL    HW233369   3.593   1.437  10.496
11115SOL     OW33370   2.179   0.547  10.590
11115SOL    HW133371   2.217   0.488  10.662
11115SOL    HW233372   2.219   0.521  10.502
11116SOL     OW33373   2.674   1.586   9.997
11116SOL    HW133374   2.706   1.596   9.903
11116SOL    HW233375   2.595   1.524   9.999
11117SOL     OW33376   3.286   0.214  10.422
11117SOL    HW133377   3.338   0.149  10.477
11117SOL    HW233378   3.237   0.277  10.483
11118SOL     OW33379   2.863   0.034  10.464
11118SOL    HW133380   2.800  -0.038  10.433
11118SOL    HW233381   2.956  -0.002  10.464
11119SOL     OW33382   2.632   1.330   9.611
11119SOL    HW133383   2.586   1.243   9.628
11119SOL    HW233384   2.723   1.327   9.652
11120SOL     OW33385   2.480   1.567  10.594
11120SOL    HW133386   2.475   1.649  10.651
11120SOL    HW233387   2.569   1.564  10.549
11121SOL     OW33388   3.214   0.052   9.478
11121SOL    HW133389   3.249   0.011   9.394
11121SOL    HW233390   3.124   0.014   9.498
11122SOL     OW33391   3.162   0.453  10.001
11122SOL    HW133392   3.103   0.533  10.005
11122SOL    HW233393   3.177   0.418  10.094
11123SOL     OW33394   3.455   0.221  10.192
11123SOL    HW133395   3.371   0.220  10.246
11123SOL    HW233396   3.457   0.304  10.136
11124SOL     OW33397   1.901   1.077   9.610
11124SOL    HW133398   2.000   1.066   9.601
11124SOL    HW233399   1.861   0.991   9.642
11125SOL     OW33400   2.737   1.646   9.647
11125SOL    HW133401   2.660   1.611   9.593
11125SOL    HW233402   2.705   1.717   9.709
11126SOL     OW33403   2.092   0.628  11.285
11126SOL    HW133404   1.999   0.626  11.322
11126SOL    HW233405   2.093   0.589  11.193
11127SOL     OW33406   2.087   0.275  12.168
11127SOL    HW133407   2.122   0.258  12.260
11127SOL    HW233408   1.999   0.230  12.156
11128SOL     OW33409   1.881   0.368  11.819
11128SOL    HW133410   1.799   0.411  11.858
11128SOL    HW233411   1.853   0.295  11.756
11129SOL     OW33412   2.431   1.275  12.337
11129SOL    HW133413   2.338   1.268  12.300
11129SOL    HW233414   2.442   1.364  12.381
11130SOL     OW33415   3.417   1.511  11.875
11130SOL    HW133416   3.360   1.495  11.956
11130SOL    HW233417   3.358   1.521  11.795
11131SOL     OW33418   2.997   0.703  11.889
11131SOL    HW133419   3.054   0.781  11.864
11131SOL    HW233420   2.937   0.729  11.965
11132SOL     OW33421   3.617   0.607  11.403
11132SOL    HW133422   3.605   0.594  11.304
11132SOL    HW233423   3.587   0.526  11.452
11133SOL     OW33424   2.630   1.144  12.195
11133SOL    HW133425   2.552   1.161  12.255
11133SOL    HW233426   2.664   1.231  12.159
11134SOL     OW33427   2.547   1.012  11.837
11134SOL    HW133428   2.616   0.996  11.907
11134SOL    HW233429   2.474   1.069  11.875
11135SOL     OW33430   2.197   1.435  12.233
11135SOL    HW133431   2.119   1.404  12.180
11135SOL    HW233432   2.255   1.493  12.176
11136SOL     OW33433   3.322   1.505  12.511
11136SOL    HW133434   3.346   1.599  12.537
11136SOL    HW233435   3.306   1.451  12.593
11137SOL     OW33436   2.300   0.392  12.671
11137SOL    HW133437   2.382   0.336  12.680
11137SOL    HW233438   2.219   0.334  12.675
11138SOL     OW33439   3.465   0.447  11.909
11138SOL    HW133440   3.391   0.493  11.859
11138SOL    HW233441   3.516   0.515  11.962
11139SOL     OW33442   2.093   1.713  11.655
11139SOL    HW133443   2.127   1.790  11.709
11139SOL    HW233444   2.137   1.713  11.565
11140SOL     OW33445   2.092   1.434  11.710
11140SOL    HW133446   2.066   1.530  11.710
11140SOL    HW233447   2.021   1.380  11.755
11141SOL     OW33448   2.102   1.091  12.058
11141SOL    HW133449   2.116   1.007  12.110
11141SOL    HW233450   2.047   1.155  12.113
11142SOL     OW33451   2.482   1.786  12.611
11142SOL    HW133452   2.390   1.769  12.646
11142SOL    HW233453   2.510   1.878  12.637
11143SOL     OW33454   2.468   0.964  11.295
11143SOL    HW133455   2.475   1.048  11.241
11143SOL    HW233456   2.514   0.977  11.383
11144SOL     OW33457   3.456   0.114  12.652
11144SOL    HW133458   3.438   0.181  12.580
11144SOL    HW233459   3.453   0.160  12.741
11145SOL     OW33460   1.984   0.643  11.735
11145SOL    HW133461   1.939   0.555  11.752
11145SOL    HW233462   1.983   0.697  11.819
11146SOL     OW33463   3.704   1.767  11.531
11146SOL    HW133464   3.758   1.738  11.611
11146SOL    HW233465   3.734   1.857  11.502
11147SOL     OW33466   1.889   1.596  11.289
11147SOL    HW133467   1.870   1.500  11.310
11147SOL    HW233468   1.856   1.654  11.364
11148SOL     OW33469   3.551   0.922  11.784
11148SOL    HW133470   3.646   0.893  11.792
11148SOL    HW233471   3.543   0.987  11.709
11149SOL     OW33472   3.503   1.108  11.604
11149SOL    HW133473   3.589   1.110  11.552
11149SOL    HW233474   3.517   1.155  11.692
11150SOL     OW33475   2.475   1.365  11.898
11150SOL    HW133476   2.426   1.278  11.907
11150SOL    HW233477   2.452   1.408  11.811
11151SOL     OW33478   2.671   0.004  11.674
11151SOL    HW133479   2.711   0.095  11.665
11151SOL    HW233480   2.571   0.012  11.680
11152SOL     OW33481   2.059   0.976  12.436
11152SOL    HW133482   2.148   0.931  12.422
11152SOL    HW233483   1.986   0.911  12.417
11153SOL     OW33484   3.387   0.999  11.362
11153SOL    HW133485   3.324   0.923  11.375
11153SOL    HW233486   3.435   1.017  11.448
11154SOL     OW33487   2.179   0.251  12.973
11154SOL    HW133488   2.250   0.322  12.979
11154SOL    HW233489   2.091   0.290  13.001
11155SOL     OW33490   3.328   1.417  12.125
11155SOL    HW133491   3.269   1.423  12.205
11155SOL    HW233492   3.313   1.329  12.079
11156SOL     OW33493   3.529   1.714  11.744
11156SOL    HW133494   3.488   1.691  11.656
11156SOL    HW233495   3.511   1.640  11.809
11157SOL     OW33496   2.460   0.729  11.442
11157SOL    HW133497   2.484   0.798  11.374
11157SOL    HW233498   2.382   0.762  11.496
11158SOL     OW33499   3.143   0.345  12.116
11158SOL    HW133500   3.057   0.295  12.103
11158SOL    HW233501   3.205   0.291  12.172
11159SOL     OW33502   3.438   1.662  11.479
11159SOL    HW133503   3.527   1.708  11.482
11159SOL    HW233504   3.417   1.638  11.384
11160SOL     OW33505   2.669   0.605  12.637
11160SOL    HW133506   2.622   0.602  12.726
11160SOL    HW233507   2.618   0.550  12.571
11161SOL     OW33508   2.853   0.410  12.414
11161SOL    HW133509   2.776   0.444  12.468
11161SOL    HW233510   2.819   0.359  12.335
11162SOL     OW33511   2.903   0.701  11.601
11162SOL    HW133512   2.929   0.697  11.697
11162SOL    HW233513   2.818   0.650  11.587
11163SOL     OW33514   1.938   0.811  11.961
11163SOL    HW133515   2.037   0.799  11.970
11163SOL    HW233516   1.914   0.906  11.982
11164SOL     OW33517   1.992   1.821  12.743
11164SOL    HW133518   1.982   1.806  12.842
11164SOL    HW233519   1.906   1.857  12.707
11165SOL     OW33520   2.727   0.348  11.367
11165SOL    HW133521   2.786   0.411  11.318
11165SOL    HW233522   2.746   0.254  11.338
11166SOL     OW33523   3.224   1.144  11.717
11166SOL    HW133524   3.307   1.115  11.669
11166SOL    HW233525   3.175   1.211  11.661
11167SOL     OW33526   2.412   0.196  12.057
11167SOL    HW133527   2.407   0.191  12.157
11167SOL    HW233528   2.414   0.292  12.028
11168SOL     OW33529   2.870   1.456  11.649
11168SOL    HW133530   2.824   1.528  11.597
11168SOL    HW233531   2.866   1.476  11.747
11169SOL     OW33532   2.213   1.801  12.025
11169SOL    HW133533   2.263   1.715  12.031
11169SOL    HW233534   2.278   1.878  12.022
11170SOL     OW33535   3.657   1.066  12.045
11170SOL    HW133536   3.595   1.051  11.969
11170SOL    HW233537   3.605   1.077  12.130
11171SOL     OW33538   2.183   0.943  11.414
11171SOL    HW133539   2.265   0.982  11.372
11171SOL    HW233540   2.156   0.861  11.365
11172SOL     OW33541   3.320   0.735  11.900
11172SOL    HW133542   3.315   0.670  11.975
11172SOL    HW233543   3.400   0.794  11.913
11173SOL     OW33544   2.973   1.776  11.409
11173SOL    HW133545   2.913   1.714  11.459
11173SOL    HW233546   3.004   1.732  11.324
11174SOL     OW33547   2.064   0.285  12.670
11174SOL    HW133548   1.984   0.345  12.657
11174SOL    HW233549   2.054   0.236  12.756
11175SOL     OW33550   3.494   1.377  11.253
11175SOL    HW133551   3.462   1.471  11.243
11175SOL    HW233552   3.418   1.314  11.241
11176SOL     OW33553   2.326   1.743  11.495
11176SOL    HW133554   2.359   1.782  11.581
11176SOL    HW233555   2.402   1.736  11.430
11177SOL     OW33556   3.262   0.107  11.598
11177SOL    HW133557   3.238   0.070  11.508
11177SOL    HW233558   3.361   0.123  11.602
11178SOL     OW33559   2.111   1.785  12.413
11178SOL    HW133560   2.168   1.720  12.463
11178SOL    HW233561   2.095   1.752  12.320
11179SOL     OW33562   2.802   1.698  12.076
11179SOL    HW133563   2.882   1.641  12.097
11179SOL    HW233564   2.753   1.658  11.999
11180SOL     OW33565   2.244   0.700  11.652
11180SOL    HW133566   2.289   0.610  11.649
11180SOL    HW233567   2.150   0.689  11.685
11181SOL     OW33568   2.476   0.122  11.289
11181SOL    HW133569   2.574   0.100  11.296
11181SOL    HW233570   2.445   0.105  11.196
11182SOL     OW33571   2.750   1.514  12.367
11182SOL    HW133572   2.727   1.489  12.273
11182SOL    HW233573   2.811   1.445  12.406
11183SOL     OW33574   2.665   1.402  12.096
11183SOL    HW133575   2.755   1.416  12.054
11183SOL    HW233576   2.594   1.404  12.025
11184SOL     OW33577   2.784   0.503  12.071
11184SOL    HW133578   2.759   0.494  11.975
11184SOL    HW233579   2.832   0.421  12.102
11185SOL     OW33580   2.401   0.064  11.684
11185SOL    HW133581   2.320   0.065  11.742
11185SOL    HW233582   2.404   0.147  11.629
11186SOL     OW33583   3.296   1.188  11.213
11186SOL    HW133584   3.328   1.112  11.270
11186SOL    HW233585   3.204   1.215  11.243
11187SOL     OW33586   2.159   0.035  11.343
11187SOL    HW133587   2.208   0.119  11.322
11187SOL    HW233588   2.221  -0.030  11.388
11188SOL     OW33589   2.797   0.236  11.652
11188SOL    HW133590   2.749   0.277  11.574
11188SOL    HW233591   2.896   0.234  11.633
11189SOL     OW33592   3.089   1.570  11.965
11189SOL    HW133593   3.110   1.644  11.900
11189SOL    HW233594   3.157   1.570  12.038
11190SOL     OW33595   2.321   1.152  11.913
11190SOL    HW133596   2.250   1.125  11.978
11190SOL    HW233597   2.295   1.124  11.820
11191SOL     OW33598   3.133   1.797  11.763
11191SOL    HW133599   3.177   1.861  11.699
11191SOL    HW233600   3.083   1.849  11.833
11192SOL     OW33601   2.894   0.549  11.188
11192SOL    HW133602   2.853   0.631  11.149
11192SOL    HW233603   2.958   0.575  11.261
11193SOL     OW33604   1.940   0.556  12.558
11193SOL    HW133605   2.032   0.555  12.517
11193SOL    HW233606   1.934   0.630  12.625
11194SOL     OW33607   2.423   0.222  12.319
11194SOL    HW133608   2.461   0.138  12.356
11194SOL    HW233609   2.335   0.241  12.363
11195SOL     OW33610   2.728   0.454  11.814
11195SOL    HW133611   2.696   0.526  11.752
11195SOL    HW233612   2.752   0.373  11.761
11196SOL     OW33613   2.879   0.039  11.925
11196SOL    HW133614   2.807   0.044  11.856
11196SOL    HW233615   2.855  -0.030  11.994
11197SOL     OW33616   3.291   1.173  12.039
11197SOL    HW133617   3.236   1.089  12.032
11197SOL    HW233618   3.317   1.202  11.947
11198SOL     OW33619   3.328   0.590  12.164
11198SOL    HW133620   3.298   0.495  12.171
11198SOL    HW233621   3.401   0.606  12.230
11199SOL     OW33622   3.719   0.833  11.549
11199SOL    HW133623   3.761   0.769  11.613
11199SOL    HW233624   3.681   0.782  11.471
11200SOL     OW33625   2.350   1.385  11.346
11200SOL    HW133626   2.263   1.370  11.393
11200SOL    HW233627   2.333   1.411  11.251
11201SOL     OW33628   3.526   1.280  11.829
11201SOL    HW133629   3.625   1.288  11.843
11201SOL    HW233630   3.481   1.364  11.860
11202SOL     OW33631   3.252   0.575  11.250
11202SOL    HW133632   3.198   0.554  11.331
11202SOL    HW233633   3.343   0.534  11.259
11203SOL     OW33634   2.389   0.256  11.500
11203SOL    HW133635   2.416   0.197  11.425
11203SOL    HW233636   2.389   0.351  11.469
11204SOL     OW33637   2.926   1.347  12.512
11204SOL    HW133638   2.846   1.324  12.567
11204SOL    HW233639   3.009   1.321  12.561
11205SOL     OW33640   2.973   1.195  12.272
11205SOL    HW133641   2.933   1.239  12.353
11205SOL    HW233642   2.932   1.232  12.189
11206SOL     OW33643   3.500   1.099  12.251
11206SOL    HW133644   3.505   1.180  12.310
11206SOL    HW233645   3.414   1.101  12.200
11207SOL     OW33646   2.777   0.089  12.574
11207SOL    HW133647   2.802   0.069  12.479
11207SOL    HW233648   2.849   0.145  12.616
11208SOL     OW33649   2.567   1.050  11.540
11208SOL    HW133650   2.553   1.057  11.639
11208SOL    HW233651   2.651   0.999  11.522
11209SOL     OW33652   2.272   0.813  12.423
11209SOL    HW133653   2.358   0.825  12.473
11209SOL    HW233654   2.230   0.726  12.450
11210SOL     OW33655   3.136   0.386  12.434
11210SOL    HW133656   3.157   0.460  12.498
11210SOL    HW233657   3.047   0.403  12.391
11211SOL     OW33658   1.926   1.564  12.503
11211SOL    HW133659   1.880   1.646  12.469
11211SOL    HW233660   2.024   1.583  12.512
11212SOL     OW33661   2.229   1.100  11.673
11212SOL    HW133662   2.222   1.183  11.617
11212SOL    HW233663   2.233   1.020  11.613
11213SOL     OW33664   2.428   0.537  12.037
11213SOL    HW133665   2.440   0.603  11.963
11213SOL    HW233666   2.474   0.571  12.120
11214SOL     OW33667   3.114   1.348  11.560
11214SOL    HW133668   3.164   1.425  11.600
11214SOL    HW233669   3.019   1.350  11.592
11215SOL     OW33670   3.134   1.445  12.314
11215SOL    HW133671   3.181   1.458  12.401
11215SOL    HW233672   3.068   1.371  12.323
11216SOL     OW33673   3.444   0.639  11.644
11216SOL    HW133674   3.413   0.700  11.717
11216SOL    HW233675   3.494   0.691  11.575
11217SOL     OW33676   2.216   1.510  12.501
11217SOL    HW133677   2.195   1.466  12.414
11217SOL    HW233678   2.313   1.536  12.504
11218SOL     OW33679   2.264   0.751  12.770
11218SOL    HW133680   2.332   0.806  12.723
11218SOL    HW233681   2.304   0.663  12.797
11219SOL     OW33682   3.449   0.779  12.842
11219SOL    HW133683   3.357   0.817  12.837
11219SOL    HW233684   3.509   0.826  12.777
11220SOL     OW33685   2.435   0.870  12.201
11220SOL    HW133686   2.479   0.959  12.192
11220SOL    HW233687   2.372   0.870  12.278
11221SOL     OW33688   3.222   0.862  12.217
11221SOL    HW133689   3.147   0.862  12.151
11221SOL    HW233690   3.259   0.770  12.226
11222SOL     OW33691   3.071   0.525  11.447
11222SOL    HW133692   3.084   0.441  11.501
11222SOL    HW233693   3.042   0.599  11.507
11223SOL     OW33694   2.169   0.213  12.403
11223SOL    HW133695   2.146   0.250  12.493
11223SOL    HW233696   2.139   0.118  12.397
11224SOL     OW33697   1.899   1.310  12.454
11224SOL    HW133698   1.952   1.261  12.522
11224SOL    HW233699   1.921   1.408  12.459
11225SOL     OW33700   2.594   0.634  12.236
11225SOL    HW133701   2.653   0.608  12.160
11225SOL    HW233702   2.566   0.730  12.225
11226SOL     OW33703   2.169   0.063  11.790
11226SOL    HW133704   2.158   0.157  11.823
11226SOL    HW233705   2.164   0.000  11.867
11227SOL     OW33706   3.484   0.367  11.546
11227SOL    HW133707   3.486   0.291  11.610
11227SOL    HW233708   3.436   0.444  11.586
11228SOL     OW33709   2.885   0.766  12.138
11228SOL    HW133710   2.900   0.787  12.234
11228SOL    HW233711   2.855   0.671  12.129
11229SOL     OW33712   2.842   1.573  12.872
11229SOL    HW133713   2.822   1.617  12.784
11229SOL    HW233714   2.881   1.482  12.856
11230SOL     OW33715   3.402   0.274  11.297
11230SOL    HW133716   3.341   0.199  11.320
11230SOL    HW233717   3.424   0.326  11.380
11231SOL     OW33718   3.165   0.838  11.214
11231SOL    HW133719   3.199   0.745  11.229
11231SOL    HW233720   3.183   0.865  11.119
11232SOL     OW33721   2.930   1.333  12.021
11232SOL    HW133722   2.937   1.249  11.966
11232SOL    HW233723   2.992   1.402  11.985
11233SOL     OW33724   2.181   0.810  12.121
11233SOL    HW133725   2.274   0.846  12.126
11233SOL    HW233726   2.175   0.725  12.173
11234SOL     OW33727   2.201   0.509  12.178
11234SOL    HW133728   2.149   0.426  12.161
11234SOL    HW233729   2.278   0.514  12.114
11235SOL     OW33730   3.000   0.380  12.850
11235SOL    HW133731   2.955   0.443  12.914
11235SOL    HW233732   3.093   0.411  12.833
11236SOL     OW33733   3.022   0.207  12.649
11236SOL    HW133734   3.022   0.271  12.726
11236SOL    HW233735   3.050   0.255  12.566
11237SOL     OW33736   1.870   1.326  11.372
11237SOL    HW133737   1.777   1.347  11.341
11237SOL    HW233738   1.880   1.227  11.385
11238SOL     OW33739   1.950   1.801  12.099
11238SOL    HW133740   1.908   1.715  12.072
11238SOL    HW233741   2.044   1.804  12.065
11239SOL     OW33742   2.366   1.568  12.082
11239SOL    HW133743   2.432   1.642  12.091
11239SOL    HW233744   2.410   1.489  12.040
11240SOL     OW33745   2.864   0.796  12.410
11240SOL    HW133746   2.905   0.764  12.496
11240SOL    HW233747   2.768   0.769  12.407
11241SOL     OW33748   1.902   0.544  12.286
11241SOL    HW133749   1.987   0.511  12.245
11241SOL    HW233750   1.915   0.559  12.384
11242SOL     OW33751   2.677   0.572  11.497
11242SOL    HW133752   2.684   0.483  11.451
11242SOL    HW233753   2.583   0.606  11.489
11243SOL     OW33754   3.519   0.604  12.378
11243SOL    HW133755   3.481   0.535  12.440
11243SOL    HW233756   3.601   0.568  12.334
11244SOL     OW33757   2.533   0.464  12.441
11244SOL    HW133758   2.499   0.375  12.411
11244SOL    HW233759   2.559   0.518  12.361
11245SOL     OW33760   2.792   1.678  12.637
11245SOL    HW133761   2.768   1.660  12.542
11245SOL    HW233762   2.822   1.772  12.647
11246SOL     OW33763   2.335   0.500  11.363
11246SOL    HW133764   2.396   0.580  11.367
11246SOL    HW233765   2.240   0.531  11.370
11247SOL     OW33766   2.021   1.137  12.638
11247SOL    HW133767   2.043   1.076  12.714
11247SOL    HW233768   2.031   1.088  12.552
11248SOL     OW33769   3.164   0.855  11.481
11248SOL    HW133770   3.078   0.824  11.523
11248SOL    HW233771   3.160   0.841  11.382
11249SOL     OW33772   3.621   1.747  12.326
11249SOL    HW133773   3.682   1.777  12.253
11249SOL    HW233774   3.583   1.658  12.304
11250SOL     OW33775   3.114   1.731  12.300
11250SOL    HW133776   3.198   1.736  12.246
11250SOL    HW233777   3.091   1.635  12.318
11251SOL     OW33778   1.945   1.258  12.194
11251SOL    HW133779   1.940   1.257  12.294
11251SOL    HW233780   1.862   1.217  12.156
11252SOL     OW33781   3.588   0.135  11.695
11252SOL    HW133782   3.661   0.118  11.628
11252SOL    HW233783   3.557   0.048  11.733
11253SOL     OW33784   3.250   1.573  11.649
11253SOL    HW133785   3.317   1.585  11.575
11253SOL    HW233786   3.210   1.662  11.672
11254SOL     OW33787   3.142   0.927  11.844
11254SOL    HW133788   3.202   0.846  11.846
11254SOL    HW233789   3.182   0.996  11.784
11255SOL     OW33790   2.534   1.616  11.326
11255SOL    HW133791   2.543   1.626  11.227
11255SOL    HW233792   2.494   1.527  11.347
11256SOL     OW33793   3.512   1.720  12.566
11256SOL    HW133794   3.565   1.730  12.482
11256SOL    HW233795   3.485   1.810  12.600
11257SOL     OW33796   3.703   0.175  12.135
11257SOL    HW133797   3.742   0.090  12.099
11257SOL    HW233798   3.605   0.177  12.116
11258SOL     OW33799   2.125   0.326  11.892
11258SOL    HW133800   2.046   0.377  11.858
11258SOL    HW233801   2.116   0.311  11.990
11259SOL     OW33802   3.056   1.612  11.203
11259SOL    HW133803   3.062   1.519  11.240
11259SOL    HW233804   2.997   1.612  11.123
11260SOL     OW33805   2.684   1.002  12.544
11260SOL    HW133806   2.724   1.001  12.452
11260SOL    HW233807   2.694   1.094  12.584
11261SOL     OW33808   2.778   0.910  11.463
11261SOL    HW133809   2.841   0.948  11.395
11261SOL    HW233810   2.818   0.827  11.502
11262SOL     OW33811   3.366   1.607  11.216
11262SOL    HW133812   3.274   1.644  11.223
11262SOL    HW233813   3.404   1.627  11.126
11263SOL     OW33814   2.234   1.288  12.662
11263SOL    HW133815   2.221   1.381  12.628
11263SOL    HW233816   2.150   1.236  12.649
11264SOL     OW33817   3.476   1.292  12.461
11264SOL    HW133818   3.536   1.295  12.541
11264SOL    HW233819   3.401   1.356  12.474
11265SOL     OW33820   2.901   1.098  11.868
11265SOL    HW133821   2.831   1.051  11.922
11265SOL    HW233822   2.960   1.030  11.825
11266SOL     OW33823   2.876   0.236  12.143
11266SOL    HW133824   2.868   0.200  12.050
11266SOL    HW233825   2.874   0.160  12.208
11267SOL     OW33826   2.452   1.487  11.663
11267SOL    HW133827   2.494   1.429  11.593
11267SOL    HW233828   2.408   1.566  11.619
11268SOL     OW33829   3.571   0.385  12.553
11268SOL    HW133830   3.644   0.454  12.557
11268SOL    HW233831   3.599   0.310  12.494
11269SOL     OW33832   2.117   1.348  11.462
11269SOL    HW133833   2.021   1.349  11.435
11269SOL    HW233834   2.129   1.401  11.546
11270SOL     OW33835   1.937   0.345  11.205
11270SOL    HW133836   1.845   0.317  11.176
11270SOL    HW233837   1.968   0.422  11.149
11271SOL     OW33838   3.302   0.856  12.570
11271SOL    HW133839   3.245   0.908  12.507
11271SOL    HW233840   3.398   0.868  12.546
11272SOL     OW33841   1.934   0.166  11.490
11272SOL    HW133842   1.917   0.249  11.436
11272SOL    HW233843   2.024   0.129  11.468
11273SOL     OW33844   3.045   1.335  11.291
11273SOL    HW133845   2.946   1.324  11.293
11273SOL    HW233846   3.079   1.350  11.384
11274SOL     OW33847   2.475   0.842  12.603
11274SOL    HW133848   2.531   0.923  12.586
11274SOL    HW233849   2.534   0.762  12.606
11275SOL     OW33850   3.355   1.767  12.131
11275SOL    HW133851   3.388   1.831  12.062
11275SOL    HW233852   3.421   1.761  12.206
11276SOL     OW33853   2.252   1.741  12.732
11276SOL    HW133854   2.161   1.782  12.730
11276SOL    HW233855   2.245   1.647  12.764
11277SOL     OW33856   3.536   0.883  12.426
11277SOL    HW133857   3.509   0.794  12.389
11277SOL    HW233858   3.537   0.951  12.353
11278SOL     OW33859   3.087   0.325  11.621
11278SOL    HW133860   3.152   0.251  11.610
11278SOL    HW233861   3.107   0.375  11.705
11279SOL     OW33862   2.456   0.745  11.824
11279SOL    HW133863   2.506   0.830  11.805
11279SOL    HW233864   2.368   0.747  11.776
11280SOL     OW33865   3.639   0.342  12.814
11280SOL    HW133866   3.622   0.373  12.720
11280SOL    HW233867   3.555   0.305  12.852
11281SOL     OW33868   3.592   0.934  12.689
11281SOL    HW133869   3.630   1.025  12.704
11281SOL    HW233870   3.584   0.917  12.590
11282SOL     OW33871   2.721   1.374  11.188
11282SOL    HW133872   2.675   1.389  11.276
11282SOL    HW233873   2.765   1.459  11.158
11283SOL     OW33874   2.523   1.790  12.125
11283SOL    HW133875   2.477   1.878  12.112
11283SOL    HW233876   2.622   1.802  12.118
11284SOL     OW33877   2.721   0.956  12.033
11284SOL    HW133878   2.775   0.887  12.081
11284SOL    HW233879   2.689   1.025  12.099
11285SOL     OW33880   2.945   0.984  11.259
11285SOL    HW133881   2.922   1.037  11.177
11285SOL    HW233882   3.026   0.928  11.240
11286SOL     OW33883   3.723   1.569  12.023
11286SOL    HW133884   3.652   1.557  11.953
11286SOL    HW233885   3.724   1.490  12.083
11287SOL     OW33886   1.941   1.240  11.825
11287SOL    HW133887   1.940   1.193  11.913
11287SOL    HW233888   2.023   1.212  11.774
11288SOL     OW33889   3.686   0.192  12.399
11288SOL    HW133890   3.682   0.102  12.443
11288SOL    HW233891   3.689   0.181  12.300
11289SOL     OW33892   2.290   0.424  11.692
11289SOL    HW133893   2.320   0.352  11.630
11289SOL    HW233894   2.251   0.384  11.775
11290SOL     OW33895   3.567   1.487  12.276
11290SOL    HW133896   3.474   1.462  12.249
11290SOL    HW233897   3.593   1.437  12.358
11291SOL     OW33898   2.179   0.547  12.452
11291SOL    HW133899   2.217   0.488  12.524
11291SOL    HW233900   2.219   0.521  12.364
11292SOL     OW33901   2.674   1.586  11.859
11292SOL    HW133902   2.706   1.596  11.765
11292SOL    HW233903   2.595   1.524  11.861
11293SOL     OW33904   3.286   0.214  12.284
11293SOL    HW133905   3.338   0.149  12.339
11293SOL    HW233906   3.237   0.277  12.345
11294SOL     OW33907   2.863   0.034  12.326
11294SOL    HW133908   2.800  -0.038  12.295
11294SOL    HW233909   2.956  -0.002  12.326
11295SOL     OW33910   2.632   1.330  11.473
11295SOL    HW133911   2.586   1.243  11.490
11295SOL    HW233912   2.723   1.327  11.514
11296SOL     OW33913   2.480   1.567  12.456
11296SOL    HW133914   2.475   1.649  12.513
11296SOL    HW233915   2.569   1.564  12.411
11297SOL     OW33916   3.214   0.052  11.340
11297SOL    HW133917   3.249   0.011  11.256
11297SOL    HW233918   3.124   0.014  11.360
11298SOL     OW33919   3.162   0.453  11.863
11298SOL    HW133920   3.103   0.533  11.867
11298SOL    HW233921   3.177   0.418  11.956
11299SOL     OW33922   3.455   0.221  12.054
11299SOL    HW133923   3.371   0.220  12.108
11299SOL    HW233924   3.457   0.304  11.998
11300SOL     OW33925   1.901   1.077  11.472
11300SOL    HW133926   2.000   1.066  11.463
11300SOL    HW233927   1.861   0.991  11.504
11301SOL     OW33928   2.737   1.646  11.509
11301SOL    HW133929   2.660   1.611  11.455
11301SOL    HW233930   2.705   1.717  11.571
11302SOL     OW33931   2.092   2.490   0.113
11302SOL    HW133932   1.999   2.488   0.150
11302SOL    HW233933   2.093   2.451   0.021
11303SOL     OW33934   2.087   2.137   0.996
11303SOL    HW133935   2.122   2.120   1.088
11303SOL    HW233936   1.999   2.092   0.984
11304SOL     OW33937   1.881   2.230   0.647
11304SOL    HW133938   1.799   2.273   0.686
11304SOL    HW233939   1.853   2.157   0.584
11305SOL     OW33940   2.431   3.137   1.165
11305SOL    HW133941   2.338   3.130   1.128
11305SOL    HW233942   2.442   3.226   1.209
11306SOL     OW33943   3.417   3.373   0.703
11306SOL    HW133944   3.360   3.357   0.784
11306SOL    HW233945   3.358   3.383   0.623
11307SOL     OW33946   2.997   2.565   0.717
11307SOL    HW133947   3.054   2.643   0.692
11307SOL    HW233948   2.937   2.591   0.793
11308SOL     OW33949   3.617   2.469   0.231
11308SOL    HW133950   3.605   2.456   0.132
11308SOL    HW233951   3.587   2.388   0.280
11309SOL     OW33952   2.630   3.006   1.023
11309SOL    HW133953   2.552   3.023   1.083
11309SOL    HW233954   2.664   3.093   0.987
11310SOL     OW33955   2.712   2.660   1.823
11310SOL    HW133956   2.708   2.736   1.888
11310SOL    HW233957   2.734   2.696   1.732
11311SOL     OW33958   2.547   2.874   0.665
11311SOL    HW133959   2.616   2.858   0.735
11311SOL    HW233960   2.474   2.931   0.703
11312SOL     OW33961   2.548   3.023   1.803
11312SOL    HW133962   2.608   3.102   1.817
11312SOL    HW233963   2.462   3.054   1.762
11313SOL     OW33964   2.197   3.297   1.061
11313SOL    HW133965   2.119   3.266   1.008
11313SOL    HW233966   2.255   3.355   1.004
11314SOL     OW33967   3.322   3.367   1.339
11314SOL    HW133968   3.346   3.461   1.365
11314SOL    HW233969   3.306   3.313   1.421
11315SOL     OW33970   2.300   2.254   1.499
11315SOL    HW133971   2.382   2.198   1.508
11315SOL    HW233972   2.219   2.196   1.503
11316SOL     OW33973   3.465   2.309   0.737
11316SOL    HW133974   3.391   2.355   0.687
11316SOL    HW233975   3.516   2.377   0.790
11317SOL     OW33976   2.093   3.575   0.483
11317SOL    HW133977   2.127   3.652   0.537
11317SOL    HW233978   2.137   3.575   0.393
11318SOL     OW33979   2.989   3.203   1.690
11318SOL    HW133980   3.036   3.203   1.778
11318SOL    HW233981   2.941   3.116   1.679
11319SOL     OW33982   2.092   3.296   0.538
11319SOL    HW133983   2.066   3.392   0.538
11319SOL    HW233984   2.021   3.242   0.583
11320SOL     OW33985   2.102   2.953   0.886
11320SOL    HW133986   2.116   2.869   0.938
11320SOL    HW233987   2.047   3.017   0.941
11321SOL     OW33988   2.482   3.648   1.439
11321SOL    HW133989   2.390   3.631   1.474
11321SOL    HW233990   2.510   3.740   1.465
11322SOL     OW33991   2.468   2.826   0.123
11322SOL    HW133992   2.475   2.910   0.069
11322SOL    HW233993   2.514   2.839   0.211
11323SOL     OW33994   3.456   1.976   1.480
11323SOL    HW133995   3.438   2.043   1.408
11323SOL    HW233996   3.453   2.022   1.569
11324SOL     OW33997   1.984   2.505   0.563
11324SOL    HW133998   1.939   2.417   0.580
11324SOL    HW233999   1.983   2.559   0.647
11325SOL     OW34000   3.704   3.629   0.359
11325SOL    HW134001   3.758   3.600   0.439
11325SOL    HW234002   3.734   3.719   0.330
11326SOL     OW34003   1.889   3.458   0.117
11326SOL    HW134004   1.870   3.362   0.138
11326SOL    HW234005   1.856   3.516   0.192
11327SOL     OW34006   3.551   2.784   0.612
11327SOL    HW134007   3.646   2.755   0.620
11327SOL    HW234008   3.543   2.849   0.537
11328SOL     OW34009   3.503   2.970   0.432
11328SOL    HW134010   3.589   2.972   0.380
11328SOL    HW234011   3.517   3.017   0.520
11329SOL     OW34012   1.975   2.599   1.597
11329SOL    HW134013   2.063   2.586   1.642
11329SOL    HW234014   1.962   2.696   1.575
11330SOL     OW34015   2.475   3.227   0.726
11330SOL    HW134016   2.426   3.140   0.735
11330SOL    HW234017   2.452   3.270   0.639
11331SOL     OW34018   3.155   3.090   1.423
11331SOL    HW134019   3.192   3.017   1.365
11331SOL    HW234020   3.207   3.095   1.508
11332SOL     OW34021   2.671   1.866   0.502
11332SOL    HW134022   2.711   1.957   0.493
11332SOL    HW234023   2.571   1.874   0.508
11333SOL     OW34024   2.059   2.838   1.264
11333SOL    HW134025   2.148   2.793   1.250
11333SOL    HW234026   1.986   2.773   1.245
11334SOL     OW34027   3.387   2.861   0.190
11334SOL    HW134028   3.324   2.785   0.203
11334SOL    HW234029   3.435   2.879   0.276
11335SOL     OW34030   3.049   3.654   1.616
11335SOL    HW134031   3.073   3.714   1.540
11335SOL    HW234032   3.056   3.559   1.586
11336SOL     OW34033   2.179   2.113   1.801
11336SOL    HW134034   2.250   2.184   1.807
11336SOL    HW234035   2.091   2.152   1.829
11337SOL     OW34036   3.328   3.279   0.953
11337SOL    HW134037   3.269   3.285   1.033
11337SOL    HW234038   3.313   3.191   0.907
11338SOL     OW34039   3.529   3.576   0.572
11338SOL    HW134040   3.488   3.553   0.484
11338SOL    HW234041   3.511   3.502   0.637
11339SOL     OW34042   2.460   2.591   0.270
11339SOL    HW134043   2.484   2.660   0.202
11339SOL    HW234044   2.382   2.624   0.324
11340SOL     OW34045   3.143   2.207   0.944
11340SOL    HW134046   3.057   2.157   0.931
11340SOL    HW234047   3.205   2.153   1.000
11341SOL     OW34048   3.438   3.524   0.307
11341SOL    HW134049   3.527   3.570   0.310
11341SOL    HW234050   3.417   3.500   0.212
11342SOL     OW34051   2.669   2.467   1.465
11342SOL    HW134052   2.622   2.464   1.554
11342SOL    HW234053   2.618   2.412   1.399
11343SOL     OW34054   3.256   2.331   1.674
11343SOL    HW134055   3.236   2.374   1.762
11343SOL    HW234056   3.334   2.269   1.683
11344SOL     OW34057   2.835   2.752   1.572
11344SOL    HW134058   2.881   2.668   1.543
11344SOL    HW234059   2.779   2.786   1.497
11345SOL     OW34060   2.853   2.272   1.242
11345SOL    HW134061   2.776   2.306   1.296
11345SOL    HW234062   2.819   2.221   1.163
11346SOL     OW34063   2.903   2.563   0.429
11346SOL    HW134064   2.929   2.559   0.525
11346SOL    HW234065   2.818   2.512   0.415
11347SOL     OW34066   1.938   2.673   0.789
11347SOL    HW134067   2.037   2.661   0.798
11347SOL    HW234068   1.914   2.768   0.810
11348SOL     OW34069   1.992   3.683   1.571
11348SOL    HW134070   1.982   3.668   1.670
11348SOL    HW234071   1.906   3.719   1.535
11349SOL     OW34072   2.727   2.210   0.195
11349SOL    HW134073   2.786   2.273   0.146
11349SOL    HW234074   2.746   2.116   0.166
11350SOL     OW34075   3.581   2.447   1.831
11350SOL    HW134076   3.555   2.536   1.795
11350SOL    HW234077   3.579   2.379   1.758
11351SOL     OW34078   3.224   3.006   0.545
11351SOL    HW134079   3.307   2.977   0.497
11351SOL    HW234080   3.175   3.073   0.489
11352SOL     OW34081   2.412   2.058   0.885
11352SOL    HW134082   2.407   2.053   0.985
11352SOL    HW234083   2.414   2.154   0.856
11353SOL     OW34084   2.870   3.318   0.477
11353SOL    HW134085   2.824   3.390   0.425
11353SOL    HW234086   2.866   3.338   0.575
11354SOL     OW34087   2.213   3.663   0.853
11354SOL    HW134088   2.263   3.577   0.859
11354SOL    HW234089   2.278   3.740   0.850
11355SOL     OW34090   3.657   2.928   0.873
11355SOL    HW134091   3.595   2.913   0.797
11355SOL    HW234092   3.605   2.939   0.958
11356SOL     OW34093   3.089   3.412   1.506
11356SOL    HW134094   3.095   3.335   1.570
11356SOL    HW234095   3.037   3.386   1.426
11357SOL     OW34096   2.183   2.805   0.242
11357SOL    HW134097   2.265   2.844   0.200
11357SOL    HW234098   2.156   2.723   0.193
11358SOL     OW34099   3.320   2.597   0.728
11358SOL    HW134100   3.315   2.532   0.803
11358SOL    HW234101   3.400   2.656   0.741
11359SOL     OW34102   2.323   3.128   1.727
11359SOL    HW134103   2.273   3.129   1.641
11359SOL    HW234104   2.260   3.110   1.803
11360SOL     OW34105   2.973   3.638   0.237
11360SOL    HW134106   2.913   3.576   0.287
11360SOL    HW234107   3.004   3.594   0.152
11361SOL     OW34108   2.064   2.147   1.498
11361SOL    HW134109   1.984   2.207   1.485
11361SOL    HW234110   2.054   2.098   1.584
11362SOL     OW34111   3.494   3.239   0.081
11362SOL    HW134112   3.462   3.333   0.071
11362SOL    HW234113   3.418   3.176   0.069
11363SOL     OW34114   2.326   3.605   0.323
11363SOL    HW134115   2.359   3.644   0.409
11363SOL    HW234116   2.402   3.598   0.258
11364SOL     OW34117   3.262   1.969   0.426
11364SOL    HW134118   3.238   1.932   0.336
11364SOL    HW234119   3.361   1.985   0.430
11365SOL     OW34120   2.111   3.647   1.241
11365SOL    HW134121   2.168   3.582   1.291
11365SOL    HW234122   2.095   3.614   1.148
11366SOL     OW34123   2.802   3.560   0.904
11366SOL    HW134124   2.882   3.503   0.925
11366SOL    HW234125   2.753   3.520   0.827
11367SOL     OW34126   2.244   2.562   0.480
11367SOL    HW134127   2.289   2.472   0.477
11367SOL    HW234128   2.150   2.551   0.513
11368SOL     OW34129   3.409   2.084   1.729
11368SOL    HW134130   3.404   2.121   1.821
11368SOL    HW234131   3.337   2.015   1.717
11369SOL     OW34132   2.476   1.984   0.117
11369SOL    HW134133   2.574   1.962   0.124
11369SOL    HW234134   2.445   1.967   0.024
11370SOL     OW34135   2.643   2.126   1.749
11370SOL    HW134136   2.710   2.065   1.792
11370SOL    HW234137   2.570   2.145   1.814
11371SOL     OW34138   2.750   3.376   1.195
11371SOL    HW134139   2.727   3.351   1.101
11371SOL    HW234140   2.811   3.307   1.234
11372SOL     OW34141   3.213   2.452   1.433
11372SOL    HW134142   3.241   2.409   1.518
11372SOL    HW234143   3.238   2.548   1.434
11373SOL     OW34144   2.665   3.264   0.924
11373SOL    HW134145   2.755   3.278   0.882
11373SOL    HW234146   2.594   3.266   0.853
11374SOL     OW34147   2.784   2.365   0.899
11374SOL    HW134148   2.759   2.356   0.803
11374SOL    HW234149   2.832   2.283   0.930
11375SOL     OW34150   2.401   1.926   0.512
11375SOL    HW134151   2.320   1.927   0.570
11375SOL    HW234152   2.404   2.009   0.457
11376SOL     OW34153   3.296   3.050   0.041
11376SOL    HW134154   3.328   2.974   0.098
11376SOL    HW234155   3.204   3.077   0.071
11377SOL     OW34156   2.159   1.897   0.171
11377SOL    HW134157   2.208   1.981   0.150
11377SOL    HW234158   2.221   1.832   0.216
11378SOL     OW34159   2.797   2.098   0.480
11378SOL    HW134160   2.749   2.139   0.402
11378SOL    HW234161   2.896   2.096   0.461
11379SOL     OW34162   2.938   2.545   1.464
11379SOL    HW134163   2.858   2.484   1.467
11379SOL    HW234164   3.019   2.492   1.440
11380SOL     OW34165   3.089   3.432   0.793
11380SOL    HW134166   3.110   3.506   0.728
11380SOL    HW234167   3.157   3.432   0.866
11381SOL     OW34168   2.321   3.014   0.741
11381SOL    HW134169   2.250   2.987   0.806
11381SOL    HW234170   2.295   2.986   0.648
11382SOL     OW34171   3.133   3.659   0.591
11382SOL    HW134172   3.177   3.723   0.527
11382SOL    HW234173   3.083   3.711   0.661
11383SOL     OW34174   2.894   2.411   0.016
11383SOL    HW134175   2.853   2.493  -0.023
11383SOL    HW234176   2.958   2.437   0.089
11384SOL     OW34177   1.940   2.418   1.386
11384SOL    HW134178   2.032   2.417   1.345
11384SOL    HW234179   1.934   2.492   1.453
11385SOL     OW34180   2.423   2.084   1.147
11385SOL    HW134181   2.461   2.000   1.184
11385SOL    HW234182   2.335   2.103   1.191
11386SOL     OW34183   2.728   2.316   0.642
11386SOL    HW134184   2.696   2.388   0.580
11386SOL    HW234185   2.752   2.235   0.589
11387SOL     OW34186   2.879   1.901   0.753
11387SOL    HW134187   2.807   1.906   0.684
11387SOL    HW234188   2.855   1.832   0.822
11388SOL     OW34189   3.291   3.035   0.867
11388SOL    HW134190   3.236   2.951   0.860
11388SOL    HW234191   3.317   3.064   0.775
11389SOL     OW34192   3.328   2.452   0.992
11389SOL    HW134193   3.298   2.357   0.999
11389SOL    HW234194   3.401   2.468   1.058
11390SOL     OW34195   3.719   2.695   0.377
11390SOL    HW134196   3.761   2.631   0.441
11390SOL    HW234197   3.681   2.644   0.299
11391SOL     OW34198   2.350   3.247   0.174
11391SOL    HW134199   2.263   3.232   0.221
11391SOL    HW234200   2.333   3.273   0.079
11392SOL     OW34201   3.526   3.142   0.657
11392SOL    HW134202   3.625   3.150   0.671
11392SOL    HW234203   3.481   3.226   0.688
11393SOL     OW34204   3.252   2.437   0.078
11393SOL    HW134205   3.198   2.416   0.159
11393SOL    HW234206   3.343   2.396   0.087
11394SOL     OW34207   2.389   2.118   0.328
11394SOL    HW134208   2.416   2.059   0.253
11394SOL    HW234209   2.389   2.213   0.297
11395SOL     OW34210   3.616   3.085   1.588
11395SOL    HW134211   3.707   3.046   1.575
11395SOL    HW234212   3.624   3.181   1.612
11396SOL     OW34213   2.926   3.209   1.340
11396SOL    HW134214   2.846   3.186   1.395
11396SOL    HW234215   3.009   3.183   1.389
11397SOL     OW34216   3.454   3.491   1.625
11397SOL    HW134217   3.481   3.525   1.535
11397SOL    HW234218   3.533   3.453   1.671
11398SOL     OW34219   2.973   3.057   1.100
11398SOL    HW134220   2.933   3.101   1.181
11398SOL    HW234221   2.932   3.094   1.017
11399SOL     OW34222   3.500   2.961   1.079
11399SOL    HW134223   3.505   3.042   1.138
11399SOL    HW234224   3.414   2.963   1.028
11400SOL     OW34225   2.777   1.951   1.402
11400SOL    HW134226   2.802   1.931   1.307
11400SOL    HW234227   2.849   2.007   1.444
11401SOL     OW34228   2.842   2.978   1.719
11401SOL    HW134229   2.743   2.984   1.729
11401SOL    HW234230   2.865   2.898   1.663
11402SOL     OW34231   2.567   2.912   0.368
11402SOL    HW134232   2.553   2.919   0.467
11402SOL    HW234233   2.651   2.861   0.350
11403SOL     OW34234   2.272   2.675   1.251
11403SOL    HW134235   2.358   2.687   1.301
11403SOL    HW234236   2.230   2.588   1.278
11404SOL     OW34237   3.136   2.248   1.262
11404SOL    HW134238   3.157   2.322   1.326
11404SOL    HW234239   3.047   2.265   1.219
11405SOL     OW34240   1.926   3.426   1.331
11405SOL    HW134241   1.880   3.508   1.297
11405SOL    HW234242   2.024   3.445   1.340
11406SOL     OW34243   2.229   2.962   0.501
11406SOL    HW134244   2.222   3.045   0.445
11406SOL    HW234245   2.233   2.882   0.441
11407SOL     OW34246   2.428   2.399   0.865
11407SOL    HW134247   2.440   2.465   0.791
11407SOL    HW234248   2.474   2.433   0.948
11408SOL     OW34249   3.114   3.210   0.388
11408SOL    HW134250   3.164   3.287   0.428
11408SOL    HW234251   3.019   3.212   0.420
11409SOL     OW34252   3.134   3.307   1.142
11409SOL    HW134253   3.181   3.320   1.229
11409SOL    HW234254   3.068   3.233   1.151
11410SOL     OW34255   3.444   2.501   0.472
11410SOL    HW134256   3.413   2.562   0.545
11410SOL    HW234257   3.494   2.553   0.403
11411SOL     OW34258   2.216   3.372   1.329
11411SOL    HW134259   2.195   3.328   1.242
11411SOL    HW234260   2.313   3.398   1.332
11412SOL     OW34261   2.264   2.613   1.598
11412SOL    HW134262   2.332   2.668   1.551
11412SOL    HW234263   2.304   2.525   1.625
11413SOL     OW34264   3.449   2.641   1.670
11413SOL    HW134265   3.357   2.679   1.665
11413SOL    HW234266   3.509   2.688   1.605
11414SOL     OW34267   2.875   1.967   1.770
11414SOL    HW134268   2.881   2.052   1.718
11414SOL    HW234269   2.907   1.891   1.713
11415SOL     OW34270   2.366   1.912   1.740
11415SOL    HW134271   2.324   1.855   1.670
11415SOL    HW234272   2.300   1.981   1.772
11416SOL     OW34273   2.435   2.732   1.029
11416SOL    HW134274   2.479   2.821   1.020
11416SOL    HW234275   2.372   2.732   1.106
11417SOL     OW34276   3.222   2.724   1.045
11417SOL    HW134277   3.147   2.724   0.979
11417SOL    HW234278   3.259   2.632   1.054
11418SOL     OW34279   3.071   2.387   0.275
11418SOL    HW134280   3.084   2.303   0.329
11418SOL    HW234281   3.042   2.461   0.335
11419SOL     OW34282   2.169   2.075   1.231
11419SOL    HW134283   2.146   2.112   1.321
11419SOL    HW234284   2.139   1.980   1.225
11420SOL     OW34285   1.899   3.172   1.282
11420SOL    HW134286   1.952   3.123   1.350
11420SOL    HW234287   1.921   3.270   1.287
11421SOL     OW34288   3.590   2.797   1.854
11421SOL    HW134289   3.544   2.790   1.765
11421SOL    HW234290   3.528   2.841   1.920
11422SOL     OW34291   2.169   1.925   0.618
11422SOL    HW134292   2.158   2.019   0.651
11422SOL    HW234293   2.164   1.862   0.695
11423SOL     OW34294   3.484   2.229   0.374
11423SOL    HW134295   3.486   2.153   0.438
11423SOL    HW234296   3.436   2.306   0.414
11424SOL     OW34297   2.885   2.628   0.966
11424SOL    HW134298   2.900   2.649   1.062
11424SOL    HW234299   2.855   2.533   0.957
11425SOL     OW34300   2.842   3.435   1.700
11425SOL    HW134301   2.822   3.479   1.612
11425SOL    HW234302   2.881   3.344   1.684
11426SOL     OW34303   3.721   3.380   1.605
11426SOL    HW134304   3.735   3.407   1.510
11426SOL    HW234305   3.804   3.402   1.658
11427SOL     OW34306   2.212   2.760   1.804
11427SOL    HW134307   2.288   2.804   1.852
11427SOL    HW234308   2.247   2.713   1.722
11428SOL     OW34309   3.402   2.136   0.125
11428SOL    HW134310   3.341   2.061   0.148
11428SOL    HW234311   3.424   2.188   0.208
11429SOL     OW34312   3.165   2.700   0.042
11429SOL    HW134313   3.199   2.607   0.057
11429SOL    HW234314   3.183   2.727  -0.053
11430SOL     OW34315   2.930   3.195   0.849
11430SOL    HW134316   2.937   3.111   0.794
11430SOL    HW234317   2.992   3.264   0.813
11431SOL     OW34318   2.181   2.672   0.949
11431SOL    HW134319   2.274   2.708   0.954
11431SOL    HW234320   2.175   2.587   1.001
11432SOL     OW34321   2.201   2.371   1.006
11432SOL    HW134322   2.149   2.288   0.989
11432SOL    HW234323   2.278   2.376   0.942
11433SOL     OW34324   3.000   2.242   1.678
11433SOL    HW134325   2.955   2.305   1.742
11433SOL    HW234326   3.093   2.273   1.661
11434SOL     OW34327   3.022   2.069   1.477
11434SOL    HW134328   3.022   2.133   1.554
11434SOL    HW234329   3.050   2.117   1.394
11435SOL     OW34330   1.870   3.188   0.200
11435SOL    HW134331   1.777   3.209   0.169
11435SOL    HW234332   1.880   3.089   0.213
11436SOL     OW34333   1.950   3.663   0.927
11436SOL    HW134334   1.908   3.577   0.900
11436SOL    HW234335   2.044   3.666   0.893
11437SOL     OW34336   2.366   3.430   0.910
11437SOL    HW134337   2.432   3.504   0.919
11437SOL    HW234338   2.410   3.351   0.868
11438SOL     OW34339   2.864   2.658   1.238
11438SOL    HW134340   2.905   2.626   1.324
11438SOL    HW234341   2.768   2.631   1.235
11439SOL     OW34342   1.902   2.406   1.114
11439SOL    HW134343   1.987   2.373   1.073
11439SOL    HW234344   1.915   2.421   1.212
11440SOL     OW34345   2.051   2.382   1.722
11440SOL    HW134346   2.110   2.342   1.652
11440SOL    HW234347   1.993   2.453   1.681
11441SOL     OW34348   3.231   2.812   1.660
11441SOL    HW134349   3.270   2.901   1.680
11441SOL    HW234350   3.241   2.792   1.563
11442SOL     OW34351   2.677   2.434   0.325
11442SOL    HW134352   2.684   2.345   0.279
11442SOL    HW234353   2.583   2.468   0.317
11443SOL     OW34354   3.519   2.466   1.206
11443SOL    HW134355   3.481   2.397   1.268
11443SOL    HW234356   3.601   2.430   1.162
11444SOL     OW34357   2.114   3.426   1.744
11444SOL    HW134358   2.084   3.483   1.820
11444SOL    HW234359   2.107   3.329   1.770
11445SOL     OW34360   2.533   2.326   1.269
11445SOL    HW134361   2.499   2.237   1.239
11445SOL    HW234362   2.559   2.380   1.189
11446SOL     OW34363   2.792   3.540   1.465
11446SOL    HW134364   2.768   3.522   1.370
11446SOL    HW234365   2.822   3.634   1.475
11447SOL     OW34366   2.335   2.362   0.191
11447SOL    HW134367   2.396   2.442   0.195
11447SOL    HW234368   2.240   2.393   0.198
11448SOL     OW34369   2.021   2.999   1.466
11448SOL    HW134370   2.043   2.938   1.542
11448SOL    HW234371   2.031   2.950   1.380
11449SOL     OW34372   3.209   2.921   1.234
11449SOL    HW134373   3.233   2.858   1.160
11449SOL    HW234374   3.119   2.961   1.216
11450SOL     OW34375   3.164   2.717   0.309
11450SOL    HW134376   3.078   2.686   0.351
11450SOL    HW234377   3.160   2.703   0.210
11451SOL     OW34378   3.621   3.609   1.154
11451SOL    HW134379   3.682   3.639   1.081
11451SOL    HW234380   3.583   3.520   1.132
11452SOL     OW34381   3.114   3.593   1.128
11452SOL    HW134382   3.198   3.598   1.074
11452SOL    HW234383   3.091   3.497   1.146
11453SOL     OW34384   1.945   3.120   1.022
11453SOL    HW134385   1.940   3.119   1.122
11453SOL    HW234386   1.862   3.079   0.984
11454SOL     OW34387   2.550   3.524   1.716
11454SOL    HW134388   2.494   3.605   1.725
11454SOL    HW234389   2.602   3.528   1.630
11455SOL     OW34390   2.765   1.948   0.133
11455SOL    HW134391   2.816   1.949   0.047
11455SOL    HW234392   2.821   1.906   0.204
11456SOL     OW34393   3.588   1.997   0.523
11456SOL    HW134394   3.661   1.980   0.456
11456SOL    HW234395   3.557   1.910   0.561
11457SOL     OW34396   3.250   3.435   0.477
11457SOL    HW134397   3.317   3.447   0.403
11457SOL    HW234398   3.210   3.524   0.500
11458SOL     OW34399   1.992   3.656   1.851
11458SOL    HW134400   1.951   3.582   1.904
11458SOL    HW234401   2.056   3.707   1.909
11459SOL     OW34402   3.142   2.789   0.672
11459SOL    HW134403   3.202   2.708   0.674
11459SOL    HW234404   3.182   2.858   0.612
11460SOL     OW34405   2.692   3.135   1.422
11460SOL    HW134406   2.687   3.168   1.517
11460SOL    HW234407   2.606   3.154   1.376
11461SOL     OW34408   2.534   3.478   0.154
11461SOL    HW134409   2.543   3.488   0.055
11461SOL    HW234410   2.494   3.389   0.175
11462SOL     OW34411   3.512   3.582   1.394
11462SOL    HW134412   3.565   3.592   1.310
11462SOL    HW234413   3.485   3.672   1.428
11463SOL     OW34414   3.703   2.037   0.963
11463SOL    HW134415   3.742   1.952   0.927
11463SOL    HW234416   3.605   2.039   0.944
11464SOL     OW34417   2.125   2.188   0.720
11464SOL    HW134418   2.046   2.239   0.686
11464SOL    HW234419   2.116   2.173   0.818
11465SOL     OW34420   3.056   3.474   0.031
11465SOL    HW134421   3.062   3.381   0.068
11465SOL    HW234422   2.997   3.474  -0.049
11466SOL     OW34423   2.684   2.864   1.372
11466SOL    HW134424   2.724   2.863   1.280
11466SOL    HW234425   2.694   2.956   1.412
11467SOL     OW34426   2.778   2.772   0.291
11467SOL    HW134427   2.841   2.810   0.223
11467SOL    HW234428   2.818   2.689   0.330
11468SOL     OW34429   3.366   3.469   0.044
11468SOL    HW134430   3.274   3.506   0.051
11468SOL    HW234431   3.404   3.489  -0.046
11469SOL     OW34432   2.234   3.150   1.490
11469SOL    HW134433   2.221   3.243   1.456
11469SOL    HW234434   2.150   3.098   1.477
11470SOL     OW34435   3.476   3.154   1.289
11470SOL    HW134436   3.536   3.157   1.369
11470SOL    HW234437   3.401   3.218   1.302
11471SOL     OW34438   2.901   2.960   0.696
11471SOL    HW134439   2.831   2.913   0.750
11471SOL    HW234440   2.960   2.892   0.653
11472SOL     OW34441   2.876   2.098   0.971
11472SOL    HW134442   2.868   2.062   0.878
11472SOL    HW234443   2.874   2.022   1.036
11473SOL     OW34444   2.452   3.349   0.491
11473SOL    HW134445   2.494   3.291   0.421
11473SOL    HW234446   2.408   3.428   0.447
11474SOL     OW34447   3.571   2.247   1.381
11474SOL    HW134448   3.644   2.316   1.385
11474SOL    HW234449   3.599   2.172   1.322
11475SOL     OW34450   2.117   3.210   0.290
11475SOL    HW134451   2.021   3.211   0.263
11475SOL    HW234452   2.129   3.263   0.374
11476SOL     OW34453   1.967   2.875   1.726
11476SOL    HW134454   1.890   2.842   1.780
11476SOL    HW234455   2.052   2.845   1.768
11477SOL     OW34456   2.534   2.065   1.489
11477SOL    HW134457   2.624   2.049   1.449
11477SOL    HW234458   2.542   2.070   1.588
11478SOL     OW34459   3.302   2.718   1.398
11478SOL    HW134460   3.245   2.770   1.335
11478SOL    HW234461   3.398   2.730   1.374
11479SOL     OW34462   1.934   2.028   0.318
11479SOL    HW134463   1.917   2.111   0.264
11479SOL    HW234464   2.024   1.991   0.296
11480SOL     OW34465   3.045   3.197   0.119
11480SOL    HW134466   2.946   3.186   0.121
11480SOL    HW234467   3.079   3.212   0.212
11481SOL     OW34468   2.475   2.704   1.431
11481SOL    HW134469   2.531   2.785   1.414
11481SOL    HW234470   2.534   2.624   1.434
11482SOL     OW34471   3.355   3.629   0.959
11482SOL    HW134472   3.388   3.693   0.890
11482SOL    HW234473   3.421   3.623   1.034
11483SOL     OW34474   2.578   2.427   1.708
11483SOL    HW134475   2.597   2.492   1.782
11483SOL    HW234476   2.638   2.347   1.717
11484SOL     OW34477   3.312   3.082   1.633
11484SOL    HW134478   3.303   3.072   1.732
11484SOL    HW234479   3.408   3.075   1.607
11485SOL     OW34480   2.252   3.603   1.560
11485SOL    HW134481   2.161   3.644   1.558
11485SOL    HW234482   2.245   3.509   1.592
11486SOL     OW34483   3.536   2.745   1.254
11486SOL    HW134484   3.509   2.656   1.217
11486SOL    HW234485   3.537   2.813   1.181
11487SOL     OW34486   3.087   2.187   0.449
11487SOL    HW134487   3.152   2.113   0.438
11487SOL    HW234488   3.107   2.237   0.533
11488SOL     OW34489   2.456   2.607   0.652
11488SOL    HW134490   2.506   2.692   0.633
11488SOL    HW234491   2.368   2.609   0.604
11489SOL     OW34492   3.639   2.204   1.642
11489SOL    HW134493   3.622   2.235   1.548
11489SOL    HW234494   3.555   2.167   1.680
11490SOL     OW34495   3.592   2.796   1.517
11490SOL    HW134496   3.630   2.887   1.532
11490SOL    HW234497   3.584   2.779   1.418
11491SOL     OW34498   2.721   3.236   0.016
11491SOL    HW134499   2.675   3.251   0.104
11491SOL    HW234500   2.765   3.321  -0.014
11492SOL     OW34501   2.523   3.652   0.953
11492SOL    HW134502   2.477   3.740   0.940
11492SOL    HW234503   2.622   3.664   0.946
11493SOL     OW34504   2.721   2.818   0.861
11493SOL    HW134505   2.775   2.749   0.909
11493SOL    HW234506   2.689   2.887   0.927
11494SOL     OW34507   2.945   2.846   0.087
11494SOL    HW134508   2.922   2.899   0.005
11494SOL    HW234509   3.026   2.790   0.068
11495SOL     OW34510   3.723   3.431   0.851
11495SOL    HW134511   3.652   3.419   0.781
11495SOL    HW234512   3.724   3.352   0.911
11496SOL     OW34513   2.083   3.176   1.844
11496SOL    HW134514   2.018   3.103   1.823
11496SOL    HW234515   2.087   3.190   1.942
11497SOL     OW34516   1.941   3.102   0.653
11497SOL    HW134517   1.940   3.055   0.741
11497SOL    HW234518   2.023   3.074   0.602
11498SOL     OW34519   2.534   3.253   1.624
11498SOL    HW134520   2.456   3.203   1.662
11498SOL    HW234521   2.531   3.348   1.655
11499SOL     OW34522   3.686   2.054   1.227
11499SOL    HW134523   3.682   1.964   1.271
11499SOL    HW234524   3.689   2.043   1.128
11500SOL     OW34525   2.290   2.286   0.520
11500SOL    HW134526   2.320   2.214   0.458
11500SOL    HW234527   2.251   2.246   0.603
11501SOL     OW34528   3.567   3.349   1.104
11501SOL    HW134529   3.474   3.324   1.077
11501SOL    HW234530   3.593   3.299   1.186
11502SOL     OW34531   2.179   2.409   1.280
11502SOL    HW134532   2.217   2.350   1.352
11502SOL    HW234533   2.219   2.383   1.192
11503SOL     OW34534   2.674   3.448   0.687
11503SOL    HW134535   2.706   3.458   0.593
11503SOL    HW234536   2.595   3.386   0.689
11504SOL     OW34537   3.286   2.076   1.112
11504SOL    HW134538   3.338   2.011   1.167
11504SOL    HW234539   3.237   2.139   1.173
11505SOL     OW34540   2.863   1.896   1.154
11505SOL    HW134541   2.800   1.824   1.123
11505SOL    HW234542   2.956   1.860   1.154
11506SOL     OW34543   2.632   3.192   0.301
11506SOL    HW134544   2.586   3.105   0.318
11506SOL    HW234545   2.723   3.189   0.342
11507SOL     OW34546   2.480   3.429   1.284
11507SOL    HW134547   2.475   3.511   1.341
11507SOL    HW234548   2.569   3.426   1.239
11508SOL     OW34549   3.214   1.914   0.168
11508SOL    HW134550   3.249   1.873   0.084
11508SOL    HW234551   3.124   1.876   0.188
11509SOL     OW34552   3.162   2.315   0.691
11509SOL    HW134553   3.103   2.395   0.695
11509SOL    HW234554   3.177   2.280   0.784
11510SOL     OW34555   3.455   2.083   0.882
11510SOL    HW134556   3.371   2.082   0.936
11510SOL    HW234557   3.457   2.166   0.826
11511SOL     OW34558   1.901   2.939   0.300
11511SOL    HW134559   2.000   2.928   0.291
11511SOL    HW234560   1.861   2.853   0.332
11512SOL     OW34561   2.737   3.508   0.337
11512SOL    HW134562   2.660   3.473   0.283
11512SOL    HW234563   2.705   3.579   0.399
11513SOL     OW34564   2.092   2.490   1.975
11513SOL    HW134565   1.999   2.488   2.012
11513SOL    HW234566   2.093   2.451   1.883
11514SOL     OW34567   2.087   2.137   2.858
11514SOL    HW134568   2.122   2.120   2.950
11514SOL    HW234569   1.999   2.092   2.846
11515SOL     OW34570   1.881   2.230   2.509
11515SOL    HW134571   1.799   2.273   2.548
11515SOL    HW234572   1.853   2.157   2.446
11516SOL     OW34573   2.431   3.137   3.027
11516SOL    HW134574   2.338   3.130   2.990
11516SOL    HW234575   2.442   3.226   3.071
11517SOL     OW34576   3.417   3.373   2.565
11517SOL    HW134577   3.360   3.357   2.646
11517SOL    HW234578   3.358   3.383   2.485
11518SOL     OW34579   2.997   2.565   2.579
11518SOL    HW134580   3.054   2.643   2.554
11518SOL    HW234581   2.937   2.591   2.655
11519SOL     OW34582   2.630   3.006   2.885
11519SOL    HW134583   2.552   3.023   2.945
11519SOL    HW234584   2.664   3.093   2.849
11520SOL     OW34585   2.712   2.660   3.685
11520SOL    HW134586   2.708   2.736   3.750
11520SOL    HW234587   2.734   2.696   3.594
11521SOL     OW34588   2.547   2.874   2.527
11521SOL    HW134589   2.616   2.858   2.597
11521SOL    HW234590   2.474   2.931   2.565
11522SOL     OW34591   2.548   3.023   3.665
11522SOL    HW134592   2.608   3.102   3.679
11522SOL    HW234593   2.462   3.054   3.624
11523SOL     OW34594   2.197   3.297   2.923
11523SOL    HW134595   2.119   3.266   2.870
11523SOL    HW234596   2.255   3.355   2.866
11524SOL     OW34597   3.322   3.367   3.201
11524SOL    HW134598   3.346   3.461   3.227
11524SOL    HW234599   3.306   3.313   3.283
11525SOL     OW34600   2.300   2.254   3.361
11525SOL    HW134601   2.382   2.198   3.370
11525SOL    HW234602   2.219   2.196   3.365
11526SOL     OW34603   3.465   2.309   2.599
11526SOL    HW134604   3.391   2.355   2.549
11526SOL    HW234605   3.516   2.377   2.652
11527SOL     OW34606   2.093   3.575   2.345
11527SOL    HW134607   2.127   3.652   2.399
11527SOL    HW234608   2.137   3.575   2.255
11528SOL     OW34609   2.989   3.203   3.552
11528SOL    HW134610   3.036   3.203   3.640
11528SOL    HW234611   2.941   3.116   3.541
11529SOL     OW34612   2.092   3.296   2.400
11529SOL    HW134613   2.066   3.392   2.400
11529SOL    HW234614   2.021   3.242   2.445
11530SOL     OW34615   2.102   2.953   2.748
11530SOL    HW134616   2.116   2.869   2.800
11530SOL    HW234617   2.047   3.017   2.803
11531SOL     OW34618   2.482   3.648   3.301
11531SOL    HW134619   2.390   3.631   3.336
11531SOL    HW234620   2.510   3.740   3.327
11532SOL     OW34621   2.468   2.826   1.985
11532SOL    HW134622   2.475   2.910   1.931
11532SOL    HW234623   2.514   2.839   2.073
11533SOL     OW34624   3.456   1.976   3.342
11533SOL    HW134625   3.438   2.043   3.270
11533SOL    HW234626   3.453   2.022   3.431
11534SOL     OW34627   1.984   2.505   2.425
11534SOL    HW134628   1.939   2.417   2.442
11534SOL    HW234629   1.983   2.559   2.509
11535SOL     OW34630   3.704   3.629   2.221
11535SOL    HW134631   3.758   3.600   2.301
11535SOL    HW234632   3.734   3.719   2.192
11536SOL     OW34633   1.889   3.458   1.979
11536SOL    HW134634   1.870   3.362   2.000
11536SOL    HW234635   1.856   3.516   2.054
11537SOL     OW34636   3.551   2.784   2.474
11537SOL    HW134637   3.646   2.755   2.482
11537SOL    HW234638   3.543   2.849   2.399
11538SOL     OW34639   3.503   2.970   2.294
11538SOL    HW134640   3.589   2.972   2.242
11538SOL    HW234641   3.517   3.017   2.382
11539SOL     OW34642   1.975   2.599   3.459
11539SOL    HW134643   2.063   2.586   3.504
11539SOL    HW234644   1.962   2.696   3.437
11540SOL     OW34645   2.475   3.227   2.588
11540SOL    HW134646   2.426   3.140   2.597
11540SOL    HW234647   2.452   3.270   2.501
11541SOL     OW34648   3.155   3.090   3.285
11541SOL    HW134649   3.192   3.017   3.227
11541SOL    HW234650   3.207   3.095   3.370
11542SOL     OW34651   2.671   1.866   2.364
11542SOL    HW134652   2.711   1.957   2.355
11542SOL    HW234653   2.571   1.874   2.370
11543SOL     OW34654   2.059   2.838   3.126
11543SOL    HW134655   2.148   2.793   3.112
11543SOL    HW234656   1.986   2.773   3.107
11544SOL     OW34657   3.387   2.861   2.052
11544SOL    HW134658   3.324   2.785   2.065
11544SOL    HW234659   3.435   2.879   2.138
11545SOL     OW34660   3.049   3.654   3.478
11545SOL    HW134661   3.073   3.714   3.402
11545SOL    HW234662   3.056   3.559   3.448
11546SOL     OW34663   2.179   2.113   3.663
11546SOL    HW134664   2.250   2.184   3.669
11546SOL    HW234665   2.091   2.152   3.691
11547SOL     OW34666   3.328   3.279   2.815
11547SOL    HW134667   3.269   3.285   2.895
11547SOL    HW234668   3.313   3.191   2.769
11548SOL     OW34669   3.529   3.576   2.434
11548SOL    HW134670   3.488   3.553   2.346
11548SOL    HW234671   3.511   3.502   2.499
11549SOL     OW34672   2.460   2.591   2.132
11549SOL    HW134673   2.484   2.660   2.064
11549SOL    HW234674   2.382   2.624   2.186
11550SOL     OW34675   3.143   2.207   2.806
11550SOL    HW134676   3.057   2.157   2.793
11550SOL    HW234677   3.205   2.153   2.862
11551SOL     OW34678   3.438   3.524   2.169
11551SOL    HW134679   3.527   3.570   2.172
11551SOL    HW234680   3.417   3.500   2.074
11552SOL     OW34681   2.669   2.467   3.327
11552SOL    HW134682   2.622   2.464   3.416
11552SOL    HW234683   2.618   2.412   3.261
11553SOL     OW34684   3.256   2.331   3.536
11553SOL    HW134685   3.236   2.374   3.624
11553SOL    HW234686   3.334   2.269   3.545
11554SOL     OW34687   2.835   2.752   3.434
11554SOL    HW134688   2.881   2.668   3.405
11554SOL    HW234689   2.779   2.786   3.359
11555SOL     OW34690   2.853   2.272   3.104
11555SOL    HW134691   2.776   2.306   3.158
11555SOL    HW234692   2.819   2.221   3.025
11556SOL     OW34693   2.903   2.563   2.291
11556SOL    HW134694   2.929   2.559   2.387
11556SOL    HW234695   2.818   2.512   2.277
11557SOL     OW34696   1.938   2.673   2.651
11557SOL    HW134697   2.037   2.661   2.660
11557SOL    HW234698   1.914   2.768   2.672
11558SOL     OW34699   1.992   3.683   3.433
11558SOL    HW134700   1.982   3.668   3.532
11558SOL    HW234701   1.906   3.719   3.397
11559SOL     OW34702   2.727   2.210   2.057
11559SOL    HW134703   2.786   2.273   2.008
11559SOL    HW234704   2.746   2.116   2.028
11560SOL     OW34705   3.581   2.447   3.693
11560SOL    HW134706   3.555   2.536   3.657
11560SOL    HW234707   3.579   2.379   3.620
11561SOL     OW34708   3.224   3.006   2.407
11561SOL    HW134709   3.307   2.977   2.359
11561SOL    HW234710   3.175   3.073   2.351
11562SOL     OW34711   2.412   2.058   2.747
11562SOL    HW134712   2.407   2.053   2.847
11562SOL    HW234713   2.414   2.154   2.718
11563SOL     OW34714   2.870   3.318   2.339
11563SOL    HW134715   2.824   3.390   2.287
11563SOL    HW234716   2.866   3.338   2.437
11564SOL     OW34717   2.213   3.663   2.715
11564SOL    HW134718   2.263   3.577   2.721
11564SOL    HW234719   2.278   3.740   2.712
11565SOL     OW34720   3.657   2.928   2.735
11565SOL    HW134721   3.595   2.913   2.659
11565SOL    HW234722   3.605   2.939   2.820
11566SOL     OW34723   3.089   3.412   3.368
11566SOL    HW134724   3.095   3.335   3.432
11566SOL    HW234725   3.037   3.386   3.288
11567SOL     OW34726   2.183   2.805   2.104
11567SOL    HW134727   2.265   2.844   2.062
11567SOL    HW234728   2.156   2.723   2.055
11568SOL     OW34729   3.320   2.597   2.590
11568SOL    HW134730   3.315   2.532   2.665
11568SOL    HW234731   3.400   2.656   2.603
11569SOL     OW34732   2.323   3.128   3.589
11569SOL    HW134733   2.273   3.129   3.503
11569SOL    HW234734   2.260   3.110   3.665
11570SOL     OW34735   2.973   3.638   2.099
11570SOL    HW134736   2.913   3.576   2.149
11570SOL    HW234737   3.004   3.594   2.014
11571SOL     OW34738   2.064   2.147   3.360
11571SOL    HW134739   1.984   2.207   3.347
11571SOL    HW234740   2.054   2.098   3.446
11572SOL     OW34741   3.494   3.239   1.943
11572SOL    HW134742   3.462   3.333   1.933
11572SOL    HW234743   3.418   3.176   1.931
11573SOL     OW34744   2.326   3.605   2.185
11573SOL    HW134745   2.359   3.644   2.271
11573SOL    HW234746   2.402   3.598   2.120
11574SOL     OW34747   3.262   1.969   2.288
11574SOL    HW134748   3.238   1.932   2.198
11574SOL    HW234749   3.361   1.985   2.292
11575SOL     OW34750   2.111   3.647   3.103
11575SOL    HW134751   2.168   3.582   3.153
11575SOL    HW234752   2.095   3.614   3.010
11576SOL     OW34753   2.802   3.560   2.766
11576SOL    HW134754   2.882   3.503   2.787
11576SOL    HW234755   2.753   3.520   2.689
11577SOL     OW34756   2.244   2.562   2.342
11577SOL    HW134757   2.289   2.472   2.339
11577SOL    HW234758   2.150   2.551   2.375
11578SOL     OW34759   3.409   2.084   3.591
11578SOL    HW134760   3.404   2.121   3.683
11578SOL    HW234761   3.337   2.015   3.579
11579SOL     OW34762   2.476   1.984   1.979
11579SOL    HW134763   2.574   1.962   1.986
11579SOL    HW234764   2.445   1.967   1.886
11580SOL     OW34765   2.643   2.126   3.611
11580SOL    HW134766   2.710   2.065   3.654
11580SOL    HW234767   2.570   2.145   3.676
11581SOL     OW34768   2.750   3.376   3.057
11581SOL    HW134769   2.727   3.351   2.963
11581SOL    HW234770   2.811   3.307   3.096
11582SOL     OW34771   3.213   2.452   3.295
11582SOL    HW134772   3.241   2.409   3.380
11582SOL    HW234773   3.238   2.548   3.296
11583SOL     OW34774   2.784   2.365   2.761
11583SOL    HW134775   2.759   2.356   2.665
11583SOL    HW234776   2.832   2.283   2.792
11584SOL     OW34777   2.401   1.926   2.374
11584SOL    HW134778   2.320   1.927   2.432
11584SOL    HW234779   2.404   2.009   2.319
11585SOL     OW34780   3.296   3.050   1.903
11585SOL    HW134781   3.328   2.974   1.960
11585SOL    HW234782   3.204   3.077   1.933
11586SOL     OW34783   2.159   1.897   2.033
11586SOL    HW134784   2.208   1.981   2.012
11586SOL    HW234785   2.221   1.832   2.078
11587SOL     OW34786   2.797   2.098   2.342
11587SOL    HW134787   2.749   2.139   2.264
11587SOL    HW234788   2.896   2.096   2.323
11588SOL     OW34789   2.938   2.545   3.326
11588SOL    HW134790   2.858   2.484   3.329
11588SOL    HW234791   3.019   2.492   3.302
11589SOL     OW34792   3.089   3.432   2.655
11589SOL    HW134793   3.110   3.506   2.590
11589SOL    HW234794   3.157   3.432   2.728
11590SOL     OW34795   2.321   3.014   2.603
11590SOL    HW134796   2.250   2.987   2.668
11590SOL    HW234797   2.295   2.986   2.510
11591SOL     OW34798   3.133   3.659   2.453
11591SOL    HW134799   3.177   3.723   2.389
11591SOL    HW234800   3.083   3.711   2.523
11592SOL     OW34801   2.894   2.411   1.878
11592SOL    HW134802   2.853   2.493   1.839
11592SOL    HW234803   2.958   2.437   1.951
11593SOL     OW34804   1.940   2.418   3.248
11593SOL    HW134805   2.032   2.417   3.207
11593SOL    HW234806   1.934   2.492   3.315
11594SOL     OW34807   2.423   2.084   3.009
11594SOL    HW134808   2.461   2.000   3.046
11594SOL    HW234809   2.335   2.103   3.053
11595SOL     OW34810   2.728   2.316   2.504
11595SOL    HW134811   2.696   2.388   2.442
11595SOL    HW234812   2.752   2.235   2.451
11596SOL     OW34813   2.879   1.901   2.615
11596SOL    HW134814   2.807   1.906   2.546
11596SOL    HW234815   2.855   1.832   2.684
11597SOL     OW34816   3.291   3.035   2.729
11597SOL    HW134817   3.236   2.951   2.722
11597SOL    HW234818   3.317   3.064   2.637
11598SOL     OW34819   3.328   2.452   2.854
11598SOL    HW134820   3.298   2.357   2.861
11598SOL    HW234821   3.401   2.468   2.920
11599SOL     OW34822   3.719   2.695   2.239
11599SOL    HW134823   3.761   2.631   2.303
11599SOL    HW234824   3.681   2.644   2.161
11600SOL     OW34825   2.350   3.247   2.036
11600SOL    HW134826   2.263   3.232   2.083
11600SOL    HW234827   2.333   3.273   1.941
11601SOL     OW34828   3.526   3.142   2.519
11601SOL    HW134829   3.625   3.150   2.533
11601SOL    HW234830   3.481   3.226   2.550
11602SOL     OW34831   3.252   2.437   1.940
11602SOL    HW134832   3.198   2.416   2.021
11602SOL    HW234833   3.343   2.396   1.949
11603SOL     OW34834   2.389   2.118   2.190
11603SOL    HW134835   2.416   2.059   2.115
11603SOL    HW234836   2.389   2.213   2.159
11604SOL     OW34837   3.616   3.085   3.450
11604SOL    HW134838   3.707   3.046   3.437
11604SOL    HW234839   3.624   3.181   3.474
11605SOL     OW34840   2.926   3.209   3.202
11605SOL    HW134841   2.846   3.186   3.257
11605SOL    HW234842   3.009   3.183   3.251
11606SOL     OW34843   3.454   3.491   3.487
11606SOL    HW134844   3.481   3.525   3.397
11606SOL    HW234845   3.533   3.453   3.533
11607SOL     OW34846   2.973   3.057   2.962
11607SOL    HW134847   2.933   3.101   3.043
11607SOL    HW234848   2.932   3.094   2.879
11608SOL     OW34849   3.500   2.961   2.941
11608SOL    HW134850   3.505   3.042   3.000
11608SOL    HW234851   3.414   2.963   2.890
11609SOL     OW34852   2.777   1.951   3.264
11609SOL    HW134853   2.802   1.931   3.169
11609SOL    HW234854   2.849   2.007   3.306
11610SOL     OW34855   2.842   2.978   3.581
11610SOL    HW134856   2.743   2.984   3.591
11610SOL    HW234857   2.865   2.898   3.525
11611SOL     OW34858   2.567   2.912   2.230
11611SOL    HW134859   2.553   2.919   2.329
11611SOL    HW234860   2.651   2.861   2.212
11612SOL     OW34861   2.272   2.675   3.113
11612SOL    HW134862   2.358   2.687   3.163
11612SOL    HW234863   2.230   2.588   3.140
11613SOL     OW34864   3.136   2.248   3.124
11613SOL    HW134865   3.157   2.322   3.188
11613SOL    HW234866   3.047   2.265   3.081
11614SOL     OW34867   1.926   3.426   3.193
11614SOL    HW134868   1.880   3.508   3.159
11614SOL    HW234869   2.024   3.445   3.202
11615SOL     OW34870   2.229   2.962   2.363
11615SOL    HW134871   2.222   3.045   2.307
11615SOL    HW234872   2.233   2.882   2.303
11616SOL     OW34873   2.428   2.399   2.727
11616SOL    HW134874   2.440   2.465   2.653
11616SOL    HW234875   2.474   2.433   2.810
11617SOL     OW34876   3.114   3.210   2.250
11617SOL    HW134877   3.164   3.287   2.290
11617SOL    HW234878   3.019   3.212   2.282
11618SOL     OW34879   3.134   3.307   3.004
11618SOL    HW134880   3.181   3.320   3.091
11618SOL    HW234881   3.068   3.233   3.013
11619SOL     OW34882   3.444   2.501   2.334
11619SOL    HW134883   3.413   2.562   2.407
11619SOL    HW234884   3.494   2.553   2.265
11620SOL     OW34885   2.216   3.372   3.191
11620SOL    HW134886   2.195   3.328   3.104
11620SOL    HW234887   2.313   3.398   3.194
11621SOL     OW34888   2.264   2.613   3.460
11621SOL    HW134889   2.332   2.668   3.413
11621SOL    HW234890   2.304   2.525   3.487
11622SOL     OW34891   3.449   2.641   3.532
11622SOL    HW134892   3.357   2.679   3.527
11622SOL    HW234893   3.509   2.688   3.467
11623SOL     OW34894   2.875   1.967   3.632
11623SOL    HW134895   2.881   2.052   3.580
11623SOL    HW234896   2.907   1.891   3.575
11624SOL     OW34897   2.366   1.912   3.602
11624SOL    HW134898   2.324   1.855   3.532
11624SOL    HW234899   2.300   1.981   3.634
11625SOL     OW34900   2.435   2.732   2.891
11625SOL    HW134901   2.479   2.821   2.882
11625SOL    HW234902   2.372   2.732   2.968
11626SOL     OW34903   3.222   2.724   2.907
11626SOL    HW134904   3.147   2.724   2.841
11626SOL    HW234905   3.259   2.632   2.916
11627SOL     OW34906   3.071   2.387   2.137
11627SOL    HW134907   3.084   2.303   2.191
11627SOL    HW234908   3.042   2.461   2.197
11628SOL     OW34909   2.169   2.075   3.093
11628SOL    HW134910   2.146   2.112   3.183
11628SOL    HW234911   2.139   1.980   3.087
11629SOL     OW34912   1.899   3.172   3.144
11629SOL    HW134913   1.952   3.123   3.212
11629SOL    HW234914   1.921   3.270   3.149
11630SOL     OW34915   2.594   2.496   2.926
11630SOL    HW134916   2.653   2.470   2.850
11630SOL    HW234917   2.566   2.592   2.915
11631SOL     OW34918   3.590   2.797   3.716
11631SOL    HW134919   3.544   2.790   3.627
11631SOL    HW234920   3.528   2.841   3.782
11632SOL     OW34921   2.169   1.925   2.480
11632SOL    HW134922   2.158   2.019   2.513
11632SOL    HW234923   2.164   1.862   2.557
11633SOL     OW34924   3.484   2.229   2.236
11633SOL    HW134925   3.486   2.153   2.300
11633SOL    HW234926   3.436   2.306   2.276
11634SOL     OW34927   2.885   2.628   2.828
11634SOL    HW134928   2.900   2.649   2.924
11634SOL    HW234929   2.855   2.533   2.819
11635SOL     OW34930   2.842   3.435   3.562
11635SOL    HW134931   2.822   3.479   3.474
11635SOL    HW234932   2.881   3.344   3.546
11636SOL     OW34933   3.721   3.380   3.467
11636SOL    HW134934   3.735   3.407   3.372
11636SOL    HW234935   3.804   3.402   3.520
11637SOL     OW34936   2.212   2.760   3.666
11637SOL    HW134937   2.288   2.804   3.714
11637SOL    HW234938   2.247   2.713   3.584
11638SOL     OW34939   3.402   2.136   1.987
11638SOL    HW134940   3.341   2.061   2.010
11638SOL    HW234941   3.424   2.188   2.070
11639SOL     OW34942   3.165   2.700   1.904
11639SOL    HW134943   3.199   2.607   1.919
11639SOL    HW234944   3.183   2.727   1.809
11640SOL     OW34945   2.930   3.195   2.711
11640SOL    HW134946   2.937   3.111   2.656
11640SOL    HW234947   2.992   3.264   2.675
11641SOL     OW34948   2.181   2.672   2.811
11641SOL    HW134949   2.274   2.708   2.816
11641SOL    HW234950   2.175   2.587   2.863
11642SOL     OW34951   2.201   2.371   2.868
11642SOL    HW134952   2.149   2.288   2.851
11642SOL    HW234953   2.278   2.376   2.804
11643SOL     OW34954   3.000   2.242   3.540
11643SOL    HW134955   2.955   2.305   3.604
11643SOL    HW234956   3.093   2.273   3.523
11644SOL     OW34957   3.022   2.069   3.339
11644SOL    HW134958   3.022   2.133   3.416
11644SOL    HW234959   3.050   2.117   3.256
11645SOL     OW34960   1.870   3.188   2.062
11645SOL    HW134961   1.777   3.209   2.031
11645SOL    HW234962   1.880   3.089   2.075
11646SOL     OW34963   1.950   3.663   2.789
11646SOL    HW134964   1.908   3.577   2.762
11646SOL    HW234965   2.044   3.666   2.755
11647SOL     OW34966   2.366   3.430   2.772
11647SOL    HW134967   2.432   3.504   2.781
11647SOL    HW234968   2.410   3.351   2.730
11648SOL     OW34969   2.864   2.658   3.100
11648SOL    HW134970   2.905   2.626   3.186
11648SOL    HW234971   2.768   2.631   3.097
11649SOL     OW34972   1.902   2.406   2.976
11649SOL    HW134973   1.987   2.373   2.935
11649SOL    HW234974   1.915   2.421   3.074
11650SOL     OW34975   2.051   2.382   3.584
11650SOL    HW134976   2.110   2.342   3.514
11650SOL    HW234977   1.993   2.453   3.543
11651SOL     OW34978   3.231   2.812   3.522
11651SOL    HW134979   3.270   2.901   3.542
11651SOL    HW234980   3.241   2.792   3.425
11652SOL     OW34981   2.677   2.434   2.187
11652SOL    HW134982   2.684   2.345   2.141
11652SOL    HW234983   2.583   2.468   2.179
11653SOL     OW34984   3.519   2.466   3.068
11653SOL    HW134985   3.481   2.397   3.130
11653SOL    HW234986   3.601   2.430   3.024
11654SOL     OW34987   2.114   3.426   3.606
11654SOL    HW134988   2.084   3.483   3.682
11654SOL    HW234989   2.107   3.329   3.632
11655SOL     OW34990   2.533   2.326   3.131
11655SOL    HW134991   2.499   2.237   3.101
11655SOL    HW234992   2.559   2.380   3.051
11656SOL     OW34993   2.792   3.540   3.327
11656SOL    HW134994   2.768   3.522   3.232
11656SOL    HW234995   2.822   3.634   3.337
11657SOL     OW34996   2.335   2.362   2.053
11657SOL    HW134997   2.396   2.442   2.057
11657SOL    HW234998   2.240   2.393   2.060
11658SOL     OW34999   2.021   2.999   3.328
11658SOL    HW135000   2.043   2.938   3.404
11658SOL    HW235001   2.031   2.950   3.242
11659SOL     OW35002   3.209   2.921   3.096
11659SOL    HW135003   3.233   2.858   3.022
11659SOL    HW235004   3.119   2.961   3.078
11660SOL     OW35005   3.164   2.717   2.171
11660SOL    HW135006   3.078   2.686   2.213
11660SOL    HW235007   3.160   2.703   2.072
11661SOL     OW35008   3.621   3.609   3.016
11661SOL    HW135009   3.682   3.639   2.943
11661SOL    HW235010   3.583   3.520   2.994
11662SOL     OW35011   3.114   3.593   2.990
11662SOL    HW135012   3.198   3.598   2.936
11662SOL    HW235013   3.091   3.497   3.008
11663SOL     OW35014   1.945   3.120   2.884
11663SOL    HW135015   1.940   3.119   2.984
11663SOL    HW235016   1.862   3.079   2.846
11664SOL     OW35017   2.550   3.524   3.578
11664SOL    HW135018   2.494   3.605   3.587
11664SOL    HW235019   2.602   3.528   3.492
11665SOL     OW35020   3.588   1.997   2.385
11665SOL    HW135021   3.661   1.980   2.318
11665SOL    HW235022   3.557   1.910   2.423
11666SOL     OW35023   3.250   3.435   2.339
11666SOL    HW135024   3.317   3.447   2.265
11666SOL    HW235025   3.210   3.524   2.362
11667SOL     OW35026   1.992   3.656   3.713
11667SOL    HW135027   1.951   3.582   3.766
11667SOL    HW235028   2.056   3.707   3.771
11668SOL     OW35029   3.142   2.789   2.534
11668SOL    HW135030   3.202   2.708   2.536
11668SOL    HW235031   3.182   2.858   2.474
11669SOL     OW35032   2.692   3.135   3.284
11669SOL    HW135033   2.687   3.168   3.379
11669SOL    HW235034   2.606   3.154   3.238
11670SOL     OW35035   2.534   3.478   2.016
11670SOL    HW135036   2.543   3.488   1.917
11670SOL    HW235037   2.494   3.389   2.037
11671SOL     OW35038   3.512   3.582   3.256
11671SOL    HW135039   3.565   3.592   3.172
11671SOL    HW235040   3.485   3.672   3.290
11672SOL     OW35041   3.703   2.037   2.825
11672SOL    HW135042   3.742   1.952   2.789
11672SOL    HW235043   3.605   2.039   2.806
11673SOL     OW35044   2.125   2.188   2.582
11673SOL    HW135045   2.046   2.239   2.548
11673SOL    HW235046   2.116   2.173   2.680
11674SOL     OW35047   3.056   3.474   1.893
11674SOL    HW135048   3.062   3.381   1.930
11674SOL    HW235049   2.997   3.474   1.813
11675SOL     OW35050   2.684   2.864   3.234
11675SOL    HW135051   2.724   2.863   3.142
11675SOL    HW235052   2.694   2.956   3.274
11676SOL     OW35053   2.778   2.772   2.153
11676SOL    HW135054   2.841   2.810   2.085
11676SOL    HW235055   2.818   2.689   2.192
11677SOL     OW35056   3.366   3.469   1.906
11677SOL    HW135057   3.274   3.506   1.913
11677SOL    HW235058   3.404   3.489   1.816
11678SOL     OW35059   2.234   3.150   3.352
11678SOL    HW135060   2.221   3.243   3.318
11678SOL    HW235061   2.150   3.098   3.339
11679SOL     OW35062   3.476   3.154   3.151
11679SOL    HW135063   3.536   3.157   3.231
11679SOL    HW235064   3.401   3.218   3.164
11680SOL     OW35065   2.901   2.960   2.558
11680SOL    HW135066   2.831   2.913   2.612
11680SOL    HW235067   2.960   2.892   2.515
11681SOL     OW35068   2.452   3.349   2.353
11681SOL    HW135069   2.494   3.291   2.283
11681SOL    HW235070   2.408   3.428   2.309
11682SOL     OW35071   3.571   2.247   3.243
11682SOL    HW135072   3.644   2.316   3.247
11682SOL    HW235073   3.599   2.172   3.184
11683SOL     OW35074   2.117   3.210   2.152
11683SOL    HW135075   2.021   3.211   2.125
11683SOL    HW235076   2.129   3.263   2.236
11684SOL     OW35077   1.967   2.875   3.588
11684SOL    HW135078   1.890   2.842   3.642
11684SOL    HW235079   2.052   2.845   3.630
11685SOL     OW35080   2.534   2.065   3.351
11685SOL    HW135081   2.624   2.049   3.311
11685SOL    HW235082   2.542   2.070   3.450
11686SOL     OW35083   1.937   2.207   1.895
11686SOL    HW135084   1.845   2.179   1.866
11686SOL    HW235085   1.968   2.284   1.839
11687SOL     OW35086   3.302   2.718   3.260
11687SOL    HW135087   3.245   2.770   3.197
11687SOL    HW235088   3.398   2.730   3.236
11688SOL     OW35089   1.934   2.028   2.180
11688SOL    HW135090   1.917   2.111   2.126
11688SOL    HW235091   2.024   1.991   2.158
11689SOL     OW35092   3.045   3.197   1.981
11689SOL    HW135093   2.946   3.186   1.983
11689SOL    HW235094   3.079   3.212   2.074
11690SOL     OW35095   2.475   2.704   3.293
11690SOL    HW135096   2.531   2.785   3.276
11690SOL    HW235097   2.534   2.624   3.296
11691SOL     OW35098   3.355   3.629   2.821
11691SOL    HW135099   3.388   3.693   2.752
11691SOL    HW235100   3.421   3.623   2.896
11692SOL     OW35101   2.578   2.427   3.570
11692SOL    HW135102   2.597   2.492   3.644
11692SOL    HW235103   2.638   2.347   3.579
11693SOL     OW35104   3.312   3.082   3.495
11693SOL    HW135105   3.303   3.072   3.594
11693SOL    HW235106   3.408   3.075   3.469
11694SOL     OW35107   2.252   3.603   3.422
11694SOL    HW135108   2.161   3.644   3.420
11694SOL    HW235109   2.245   3.509   3.454
11695SOL     OW35110   3.536   2.745   3.116
11695SOL    HW135111   3.509   2.656   3.079
11695SOL    HW235112   3.537   2.813   3.043
11696SOL     OW35113   3.087   2.187   2.311
11696SOL    HW135114   3.152   2.113   2.300
11696SOL    HW235115   3.107   2.237   2.395
11697SOL     OW35116   2.456   2.607   2.514
11697SOL    HW135117   2.506   2.692   2.495
11697SOL    HW235118   2.368   2.609   2.466
11698SOL     OW35119   3.639   2.204   3.504
11698SOL    HW135120   3.622   2.235   3.410
11698SOL    HW235121   3.555   2.167   3.542
11699SOL     OW35122   3.592   2.796   3.379
11699SOL    HW135123   3.630   2.887   3.394
11699SOL    HW235124   3.584   2.779   3.280
11700SOL     OW35125   2.721   3.236   1.878
11700SOL    HW135126   2.675   3.251   1.966
11700SOL    HW235127   2.765   3.321   1.848
11701SOL     OW35128   2.523   3.652   2.815
11701SOL    HW135129   2.477   3.740   2.802
11701SOL    HW235130   2.622   3.664   2.808
11702SOL     OW35131   2.721   2.818   2.723
11702SOL    HW135132   2.775   2.749   2.771
11702SOL    HW235133   2.689   2.887   2.789
11703SOL     OW35134   2.945   2.846   1.949
11703SOL    HW135135   2.922   2.899   1.867
11703SOL    HW235136   3.026   2.790   1.930
11704SOL     OW35137   3.723   3.431   2.713
11704SOL    HW135138   3.652   3.419   2.643
11704SOL    HW235139   3.724   3.352   2.773
11705SOL     OW35140   2.083   3.176   3.706
11705SOL    HW135141   2.018   3.103   3.685
11705SOL    HW235142   2.087   3.190   3.804
11706SOL     OW35143   1.941   3.102   2.515
11706SOL    HW135144   1.940   3.055   2.603
11706SOL    HW235145   2.023   3.074   2.464
11707SOL     OW35146   2.534   3.253   3.486
11707SOL    HW135147   2.456   3.203   3.524
11707SOL    HW235148   2.531   3.348   3.517
11708SOL     OW35149   3.686   2.054   3.089
11708SOL    HW135150   3.682   1.964   3.133
11708SOL    HW235151   3.689   2.043   2.990
11709SOL     OW35152   2.290   2.286   2.382
11709SOL    HW135153   2.320   2.214   2.320
11709SOL    HW235154   2.251   2.246   2.465
11710SOL     OW35155   3.567   3.349   2.966
11710SOL    HW135156   3.474   3.324   2.939
11710SOL    HW235157   3.593   3.299   3.048
11711SOL     OW35158   2.179   2.409   3.142
11711SOL    HW135159   2.217   2.350   3.214
11711SOL    HW235160   2.219   2.383   3.054
11712SOL     OW35161   2.674   3.448   2.549
11712SOL    HW135162   2.706   3.458   2.455
11712SOL    HW235163   2.595   3.386   2.551
11713SOL     OW35164   3.286   2.076   2.974
11713SOL    HW135165   3.338   2.011   3.029
11713SOL    HW235166   3.237   2.139   3.035
11714SOL     OW35167   2.863   1.896   3.016
11714SOL    HW135168   2.800   1.824   2.985
11714SOL    HW235169   2.956   1.860   3.016
11715SOL     OW35170   2.632   3.192   2.163
11715SOL    HW135171   2.586   3.105   2.180
11715SOL    HW235172   2.723   3.189   2.204
11716SOL     OW35173   2.480   3.429   3.146
11716SOL    HW135174   2.475   3.511   3.203
11716SOL    HW235175   2.569   3.426   3.101
11717SOL     OW35176   3.214   1.914   2.030
11717SOL    HW135177   3.249   1.873   1.946
11717SOL    HW235178   3.124   1.876   2.050
11718SOL     OW35179   3.162   2.315   2.553
11718SOL    HW135180   3.103   2.395   2.557
11718SOL    HW235181   3.177   2.280   2.646
11719SOL     OW35182   3.455   2.083   2.744
11719SOL    HW135183   3.371   2.082   2.798
11719SOL    HW235184   3.457   2.166   2.688
11720SOL     OW35185   1.901   2.939   2.162
11720SOL    HW135186   2.000   2.928   2.153
11720SOL    HW235187   1.861   2.853   2.194
11721SOL     OW35188   2.737   3.508   2.199
11721SOL    HW135189   2.660   3.473   2.145
11721SOL    HW235190   2.705   3.579   2.261
11722SOL     OW35191   2.092   2.490   3.837
11722SOL    HW135192   1.999   2.488   3.874
11722SOL    HW235193   2.093   2.451   3.745
11723SOL     OW35194   2.087   2.137   4.720
11723SOL    HW135195   2.122   2.120   4.812
11723SOL    HW235196   1.999   2.092   4.708
11724SOL     OW35197   1.881   2.230   4.371
11724SOL    HW135198   1.799   2.273   4.410
11724SOL    HW235199   1.853   2.157   4.308
11725SOL     OW35200   2.431   3.137   4.889
11725SOL    HW135201   2.338   3.130   4.852
11725SOL    HW235202   2.442   3.226   4.933
11726SOL     OW35203   3.417   3.373   4.427
11726SOL    HW135204   3.360   3.357   4.508
11726SOL    HW235205   3.358   3.383   4.347
11727SOL     OW35206   2.997   2.565   4.441
11727SOL    HW135207   3.054   2.643   4.416
11727SOL    HW235208   2.937   2.591   4.517
11728SOL     OW35209   3.617   2.469   3.955
11728SOL    HW135210   3.605   2.456   3.856
11728SOL    HW235211   3.587   2.388   4.004
11729SOL     OW35212   2.630   3.006   4.747
11729SOL    HW135213   2.552   3.023   4.807
11729SOL    HW235214   2.664   3.093   4.711
11730SOL     OW35215   2.712   2.660   5.547
11730SOL    HW135216   2.708   2.736   5.612
11730SOL    HW235217   2.734   2.696   5.456
11731SOL     OW35218   2.547   2.874   4.389
11731SOL    HW135219   2.616   2.858   4.459
11731SOL    HW235220   2.474   2.931   4.427
11732SOL     OW35221   2.548   3.023   5.527
11732SOL    HW135222   2.608   3.102   5.541
11732SOL    HW235223   2.462   3.054   5.486
11733SOL     OW35224   2.197   3.297   4.785
11733SOL    HW135225   2.119   3.266   4.732
11733SOL    HW235226   2.255   3.355   4.728
11734SOL     OW35227   3.322   3.367   5.063
11734SOL    HW135228   3.346   3.461   5.089
11734SOL    HW235229   3.306   3.313   5.145
11735SOL     OW35230   2.300   2.254   5.223
11735SOL    HW135231   2.382   2.198   5.232
11735SOL    HW235232   2.219   2.196   5.227
11736SOL     OW35233   3.465   2.309   4.461
11736SOL    HW135234   3.391   2.355   4.411
11736SOL    HW235235   3.516   2.377   4.514
11737SOL     OW35236   2.093   3.575   4.207
11737SOL    HW135237   2.127   3.652   4.261
11737SOL    HW235238   2.137   3.575   4.117
11738SOL     OW35239   2.989   3.203   5.414
11738SOL    HW135240   3.036   3.203   5.502
11738SOL    HW235241   2.941   3.116   5.403
11739SOL     OW35242   2.092   3.296   4.262
11739SOL    HW135243   2.066   3.392   4.262
11739SOL    HW235244   2.021   3.242   4.307
11740SOL     OW35245   2.102   2.953   4.610
11740SOL    HW135246   2.116   2.869   4.662
11740SOL    HW235247   2.047   3.017   4.665
11741SOL     OW35248   2.482   3.648   5.163
11741SOL    HW135249   2.390   3.631   5.198
11741SOL    HW235250   2.510   3.740   5.189
11742SOL     OW35251   2.468   2.826   3.847
11742SOL    HW135252   2.475   2.910   3.793
11742SOL    HW235253   2.514   2.839   3.935
11743SOL     OW35254   3.456   1.976   5.204
11743SOL    HW135255   3.438   2.043   5.132
11743SOL    HW235256   3.453   2.022   5.293
11744SOL     OW35257   1.984   2.505   4.287
11744SOL    HW135258   1.939   2.417   4.304
11744SOL    HW235259   1.983   2.559   4.371
11745SOL     OW35260   3.704   3.629   4.083
11745SOL    HW135261   3.758   3.600   4.163
11745SOL    HW235262   3.734   3.719   4.054
11746SOL     OW35263   1.889   3.458   3.841
11746SOL    HW135264   1.870   3.362   3.862
11746SOL    HW235265   1.856   3.516   3.916
11747SOL     OW35266   3.551   2.784   4.336
11747SOL    HW135267   3.646   2.755   4.344
11747SOL    HW235268   3.543   2.849   4.261
11748SOL     OW35269   3.503   2.970   4.156
11748SOL    HW135270   3.589   2.972   4.104
11748SOL    HW235271   3.517   3.017   4.244
11749SOL     OW35272   1.975   2.599   5.321
11749SOL    HW135273   2.063   2.586   5.366
11749SOL    HW235274   1.962   2.696   5.299
11750SOL     OW35275   2.475   3.227   4.450
11750SOL    HW135276   2.426   3.140   4.459
11750SOL    HW235277   2.452   3.270   4.363
11751SOL     OW35278   3.155   3.090   5.147
11751SOL    HW135279   3.192   3.017   5.089
11751SOL    HW235280   3.207   3.095   5.232
11752SOL     OW35281   2.671   1.866   4.226
11752SOL    HW135282   2.711   1.957   4.217
11752SOL    HW235283   2.571   1.874   4.232
11753SOL     OW35284   2.059   2.838   4.988
11753SOL    HW135285   2.148   2.793   4.974
11753SOL    HW235286   1.986   2.773   4.969
11754SOL     OW35287   3.387   2.861   3.914
11754SOL    HW135288   3.324   2.785   3.927
11754SOL    HW235289   3.435   2.879   4.000
11755SOL     OW35290   3.049   3.654   5.340
11755SOL    HW135291   3.073   3.714   5.264
11755SOL    HW235292   3.056   3.559   5.310
11756SOL     OW35293   2.179   2.113   5.525
11756SOL    HW135294   2.250   2.184   5.531
11756SOL    HW235295   2.091   2.152   5.553
11757SOL     OW35296   3.328   3.279   4.677
11757SOL    HW135297   3.269   3.285   4.757
11757SOL    HW235298   3.313   3.191   4.631
11758SOL     OW35299   3.529   3.576   4.296
11758SOL    HW135300   3.488   3.553   4.208
11758SOL    HW235301   3.511   3.502   4.361
11759SOL     OW35302   2.460   2.591   3.994
11759SOL    HW135303   2.484   2.660   3.926
11759SOL    HW235304   2.382   2.624   4.048
11760SOL     OW35305   3.143   2.207   4.668
11760SOL    HW135306   3.057   2.157   4.655
11760SOL    HW235307   3.205   2.153   4.724
11761SOL     OW35308   3.438   3.524   4.031
11761SOL    HW135309   3.527   3.570   4.034
11761SOL    HW235310   3.417   3.500   3.936
11762SOL     OW35311   2.669   2.467   5.189
11762SOL    HW135312   2.622   2.464   5.278
11762SOL    HW235313   2.618   2.412   5.123
11763SOL     OW35314   3.256   2.331   5.398
11763SOL    HW135315   3.236   2.374   5.486
11763SOL    HW235316   3.334   2.269   5.407
11764SOL     OW35317   2.835   2.752   5.296
11764SOL    HW135318   2.881   2.668   5.267
11764SOL    HW235319   2.779   2.786   5.221
11765SOL     OW35320   2.853   2.272   4.966
11765SOL    HW135321   2.776   2.306   5.020
11765SOL    HW235322   2.819   2.221   4.887
11766SOL     OW35323   2.903   2.563   4.153
11766SOL    HW135324   2.929   2.559   4.249
11766SOL    HW235325   2.818   2.512   4.139
11767SOL     OW35326   1.938   2.673   4.513
11767SOL    HW135327   2.037   2.661   4.522
11767SOL    HW235328   1.914   2.768   4.534
11768SOL     OW35329   1.992   3.683   5.295
11768SOL    HW135330   1.982   3.668   5.394
11768SOL    HW235331   1.906   3.719   5.259
11769SOL     OW35332   2.727   2.210   3.919
11769SOL    HW135333   2.786   2.273   3.870
11769SOL    HW235334   2.746   2.116   3.890
11770SOL     OW35335   3.581   2.447   5.555
11770SOL    HW135336   3.555   2.536   5.519
11770SOL    HW235337   3.579   2.379   5.482
11771SOL     OW35338   3.224   3.006   4.269
11771SOL    HW135339   3.307   2.977   4.221
11771SOL    HW235340   3.175   3.073   4.213
11772SOL     OW35341   2.412   2.058   4.609
11772SOL    HW135342   2.407   2.053   4.709
11772SOL    HW235343   2.414   2.154   4.580
11773SOL     OW35344   2.870   3.318   4.201
11773SOL    HW135345   2.824   3.390   4.149
11773SOL    HW235346   2.866   3.338   4.299
11774SOL     OW35347   2.213   3.663   4.577
11774SOL    HW135348   2.263   3.577   4.583
11774SOL    HW235349   2.278   3.740   4.574
11775SOL     OW35350   3.657   2.928   4.597
11775SOL    HW135351   3.595   2.913   4.521
11775SOL    HW235352   3.605   2.939   4.682
11776SOL     OW35353   3.089   3.412   5.230
11776SOL    HW135354   3.095   3.335   5.294
11776SOL    HW235355   3.037   3.386   5.150
11777SOL     OW35356   2.183   2.805   3.966
11777SOL    HW135357   2.265   2.844   3.924
11777SOL    HW235358   2.156   2.723   3.917
11778SOL     OW35359   3.320   2.597   4.452
11778SOL    HW135360   3.315   2.532   4.527
11778SOL    HW235361   3.400   2.656   4.465
11779SOL     OW35362   2.323   3.128   5.451
11779SOL    HW135363   2.273   3.129   5.365
11779SOL    HW235364   2.260   3.110   5.527
11780SOL     OW35365   2.973   3.638   3.961
11780SOL    HW135366   2.913   3.576   4.011
11780SOL    HW235367   3.004   3.594   3.876
11781SOL     OW35368   2.064   2.147   5.222
11781SOL    HW135369   1.984   2.207   5.209
11781SOL    HW235370   2.054   2.098   5.308
11782SOL     OW35371   3.494   3.239   3.805
11782SOL    HW135372   3.462   3.333   3.795
11782SOL    HW235373   3.418   3.176   3.793
11783SOL     OW35374   2.326   3.605   4.047
11783SOL    HW135375   2.359   3.644   4.133
11783SOL    HW235376   2.402   3.598   3.982
11784SOL     OW35377   3.262   1.969   4.150
11784SOL    HW135378   3.238   1.932   4.060
11784SOL    HW235379   3.361   1.985   4.154
11785SOL     OW35380   2.111   3.647   4.965
11785SOL    HW135381   2.168   3.582   5.015
11785SOL    HW235382   2.095   3.614   4.872
11786SOL     OW35383   2.802   3.560   4.628
11786SOL    HW135384   2.882   3.503   4.649
11786SOL    HW235385   2.753   3.520   4.551
11787SOL     OW35386   2.244   2.562   4.204
11787SOL    HW135387   2.289   2.472   4.201
11787SOL    HW235388   2.150   2.551   4.237
11788SOL     OW35389   3.409   2.084   5.453
11788SOL    HW135390   3.404   2.121   5.545
11788SOL    HW235391   3.337   2.015   5.441
11789SOL     OW35392   2.476   1.984   3.841
11789SOL    HW135393   2.574   1.962   3.848
11789SOL    HW235394   2.445   1.967   3.748
11790SOL     OW35395   2.643   2.126   5.473
11790SOL    HW135396   2.710   2.065   5.516
11790SOL    HW235397   2.570   2.145   5.538
11791SOL     OW35398   2.750   3.376   4.919
11791SOL    HW135399   2.727   3.351   4.825
11791SOL    HW235400   2.811   3.307   4.958
11792SOL     OW35401   3.213   2.452   5.157
11792SOL    HW135402   3.241   2.409   5.242
11792SOL    HW235403   3.238   2.548   5.158
11793SOL     OW35404   2.665   3.264   4.648
11793SOL    HW135405   2.755   3.278   4.606
11793SOL    HW235406   2.594   3.266   4.577
11794SOL     OW35407   2.784   2.365   4.623
11794SOL    HW135408   2.759   2.356   4.527
11794SOL    HW235409   2.832   2.283   4.654
11795SOL     OW35410   2.401   1.926   4.236
11795SOL    HW135411   2.320   1.927   4.294
11795SOL    HW235412   2.404   2.009   4.181
11796SOL     OW35413   3.296   3.050   3.765
11796SOL    HW135414   3.328   2.974   3.822
11796SOL    HW235415   3.204   3.077   3.795
11797SOL     OW35416   2.159   1.897   3.895
11797SOL    HW135417   2.208   1.981   3.874
11797SOL    HW235418   2.221   1.832   3.940
11798SOL     OW35419   2.797   2.098   4.204
11798SOL    HW135420   2.749   2.139   4.126
11798SOL    HW235421   2.896   2.096   4.185
11799SOL     OW35422   2.938   2.545   5.188
11799SOL    HW135423   2.858   2.484   5.191
11799SOL    HW235424   3.019   2.492   5.164
11800SOL     OW35425   3.089   3.432   4.517
11800SOL    HW135426   3.110   3.506   4.452
11800SOL    HW235427   3.157   3.432   4.590
11801SOL     OW35428   2.321   3.014   4.465
11801SOL    HW135429   2.250   2.987   4.530
11801SOL    HW235430   2.295   2.986   4.372
11802SOL     OW35431   3.133   3.659   4.315
11802SOL    HW135432   3.177   3.723   4.251
11802SOL    HW235433   3.083   3.711   4.385
11803SOL     OW35434   2.894   2.411   3.740
11803SOL    HW135435   2.853   2.493   3.701
11803SOL    HW235436   2.958   2.437   3.813
11804SOL     OW35437   1.940   2.418   5.110
11804SOL    HW135438   2.032   2.417   5.069
11804SOL    HW235439   1.934   2.492   5.177
11805SOL     OW35440   2.423   2.084   4.871
11805SOL    HW135441   2.461   2.000   4.908
11805SOL    HW235442   2.335   2.103   4.915
11806SOL     OW35443   2.728   2.316   4.366
11806SOL    HW135444   2.696   2.388   4.304
11806SOL    HW235445   2.752   2.235   4.313
11807SOL     OW35446   2.879   1.901   4.477
11807SOL    HW135447   2.807   1.906   4.408
11807SOL    HW235448   2.855   1.832   4.546
11808SOL     OW35449   3.291   3.035   4.591
11808SOL    HW135450   3.236   2.951   4.584
11808SOL    HW235451   3.317   3.064   4.499
11809SOL     OW35452   3.328   2.452   4.716
11809SOL    HW135453   3.298   2.357   4.723
11809SOL    HW235454   3.401   2.468   4.782
11810SOL     OW35455   3.719   2.695   4.101
11810SOL    HW135456   3.761   2.631   4.165
11810SOL    HW235457   3.681   2.644   4.023
11811SOL     OW35458   2.350   3.247   3.898
11811SOL    HW135459   2.263   3.232   3.945
11811SOL    HW235460   2.333   3.273   3.803
11812SOL     OW35461   3.526   3.142   4.381
11812SOL    HW135462   3.625   3.150   4.395
11812SOL    HW235463   3.481   3.226   4.412
11813SOL     OW35464   3.252   2.437   3.802
11813SOL    HW135465   3.198   2.416   3.883
11813SOL    HW235466   3.343   2.396   3.811
11814SOL     OW35467   2.389   2.118   4.052
11814SOL    HW135468   2.416   2.059   3.977
11814SOL    HW235469   2.389   2.213   4.021
11815SOL     OW35470   3.616   3.085   5.312
11815SOL    HW135471   3.707   3.046   5.299
11815SOL    HW235472   3.624   3.181   5.336
11816SOL     OW35473   2.926   3.209   5.064
11816SOL    HW135474   2.846   3.186   5.119
11816SOL    HW235475   3.009   3.183   5.113
11817SOL     OW35476   3.454   3.491   5.349
11817SOL    HW135477   3.481   3.525   5.259
11817SOL    HW235478   3.533   3.453   5.395
11818SOL     OW35479   2.973   3.057   4.824
11818SOL    HW135480   2.933   3.101   4.905
11818SOL    HW235481   2.932   3.094   4.741
11819SOL     OW35482   3.500   2.961   4.803
11819SOL    HW135483   3.505   3.042   4.862
11819SOL    HW235484   3.414   2.963   4.752
11820SOL     OW35485   2.777   1.951   5.126
11820SOL    HW135486   2.802   1.931   5.031
11820SOL    HW235487   2.849   2.007   5.168
11821SOL     OW35488   2.842   2.978   5.443
11821SOL    HW135489   2.743   2.984   5.453
11821SOL    HW235490   2.865   2.898   5.387
11822SOL     OW35491   2.567   2.912   4.092
11822SOL    HW135492   2.553   2.919   4.191
11822SOL    HW235493   2.651   2.861   4.074
11823SOL     OW35494   2.272   2.675   4.975
11823SOL    HW135495   2.358   2.687   5.025
11823SOL    HW235496   2.230   2.588   5.002
11824SOL     OW35497   3.136   2.248   4.986
11824SOL    HW135498   3.157   2.322   5.050
11824SOL    HW235499   3.047   2.265   4.943
11825SOL     OW35500   1.926   3.426   5.055
11825SOL    HW135501   1.880   3.508   5.021
11825SOL    HW235502   2.024   3.445   5.064
11826SOL     OW35503   2.229   2.962   4.225
11826SOL    HW135504   2.222   3.045   4.169
11826SOL    HW235505   2.233   2.882   4.165
11827SOL     OW35506   2.428   2.399   4.589
11827SOL    HW135507   2.440   2.465   4.515
11827SOL    HW235508   2.474   2.433   4.672
11828SOL     OW35509   3.114   3.210   4.112
11828SOL    HW135510   3.164   3.287   4.152
11828SOL    HW235511   3.019   3.212   4.144
11829SOL     OW35512   3.134   3.307   4.866
11829SOL    HW135513   3.181   3.320   4.953
11829SOL    HW235514   3.068   3.233   4.875
11830SOL     OW35515   3.444   2.501   4.196
11830SOL    HW135516   3.413   2.562   4.269
11830SOL    HW235517   3.494   2.553   4.127
11831SOL     OW35518   2.216   3.372   5.053
11831SOL    HW135519   2.195   3.328   4.966
11831SOL    HW235520   2.313   3.398   5.056
11832SOL     OW35521   2.264   2.613   5.322
11832SOL    HW135522   2.332   2.668   5.275
11832SOL    HW235523   2.304   2.525   5.349
11833SOL     OW35524   3.449   2.641   5.394
11833SOL    HW135525   3.357   2.679   5.389
11833SOL    HW235526   3.509   2.688   5.329
11834SOL     OW35527   2.875   1.967   5.494
11834SOL    HW135528   2.881   2.052   5.442
11834SOL    HW235529   2.907   1.891   5.437
11835SOL     OW35530   2.366   1.912   5.464
11835SOL    HW135531   2.324   1.855   5.394
11835SOL    HW235532   2.300   1.981   5.496
11836SOL     OW35533   2.435   2.732   4.753
11836SOL    HW135534   2.479   2.821   4.744
11836SOL    HW235535   2.372   2.732   4.830
11837SOL     OW35536   3.222   2.724   4.769
11837SOL    HW135537   3.147   2.724   4.703
11837SOL    HW235538   3.259   2.632   4.778
11838SOL     OW35539   3.071   2.387   3.999
11838SOL    HW135540   3.084   2.303   4.053
11838SOL    HW235541   3.042   2.461   4.059
11839SOL     OW35542   2.169   2.075   4.955
11839SOL    HW135543   2.146   2.112   5.045
11839SOL    HW235544   2.139   1.980   4.949
11840SOL     OW35545   1.899   3.172   5.006
11840SOL    HW135546   1.952   3.123   5.074
11840SOL    HW235547   1.921   3.270   5.011
11841SOL     OW35548   2.594   2.496   4.788
11841SOL    HW135549   2.653   2.470   4.712
11841SOL    HW235550   2.566   2.592   4.777
11842SOL     OW35551   3.590   2.797   5.578
11842SOL    HW135552   3.544   2.790   5.489
11842SOL    HW235553   3.528   2.841   5.644
11843SOL     OW35554   2.169   1.925   4.342
11843SOL    HW135555   2.158   2.019   4.375
11843SOL    HW235556   2.164   1.862   4.419
11844SOL     OW35557   3.484   2.229   4.098
11844SOL    HW135558   3.486   2.153   4.162
11844SOL    HW235559   3.436   2.306   4.138
11845SOL     OW35560   2.885   2.628   4.690
11845SOL    HW135561   2.900   2.649   4.786
11845SOL    HW235562   2.855   2.533   4.681
11846SOL     OW35563   2.842   3.435   5.424
11846SOL    HW135564   2.822   3.479   5.336
11846SOL    HW235565   2.881   3.344   5.408
11847SOL     OW35566   3.721   3.380   5.329
11847SOL    HW135567   3.735   3.407   5.234
11847SOL    HW235568   3.804   3.402   5.382
11848SOL     OW35569   2.212   2.760   5.528
11848SOL    HW135570   2.288   2.804   5.576
11848SOL    HW235571   2.247   2.713   5.446
11849SOL     OW35572   3.402   2.136   3.849
11849SOL    HW135573   3.341   2.061   3.872
11849SOL    HW235574   3.424   2.188   3.932
11850SOL     OW35575   3.165   2.700   3.766
11850SOL    HW135576   3.199   2.607   3.781
11850SOL    HW235577   3.183   2.727   3.671
11851SOL     OW35578   2.930   3.195   4.573
11851SOL    HW135579   2.937   3.111   4.518
11851SOL    HW235580   2.992   3.264   4.537
11852SOL     OW35581   2.181   2.672   4.673
11852SOL    HW135582   2.274   2.708   4.678
11852SOL    HW235583   2.175   2.587   4.725
11853SOL     OW35584   2.201   2.371   4.730
11853SOL    HW135585   2.149   2.288   4.713
11853SOL    HW235586   2.278   2.376   4.666
11854SOL     OW35587   3.000   2.242   5.402
11854SOL    HW135588   2.955   2.305   5.466
11854SOL    HW235589   3.093   2.273   5.385
11855SOL     OW35590   3.022   2.069   5.201
11855SOL    HW135591   3.022   2.133   5.278
11855SOL    HW235592   3.050   2.117   5.118
11856SOL     OW35593   1.870   3.188   3.924
11856SOL    HW135594   1.777   3.209   3.893
11856SOL    HW235595   1.880   3.089   3.937
11857SOL     OW35596   1.950   3.663   4.651
11857SOL    HW135597   1.908   3.577   4.624
11857SOL    HW235598   2.044   3.666   4.617
11858SOL     OW35599   2.366   3.430   4.634
11858SOL    HW135600   2.432   3.504   4.643
11858SOL    HW235601   2.410   3.351   4.592
11859SOL     OW35602   2.864   2.658   4.962
11859SOL    HW135603   2.905   2.626   5.048
11859SOL    HW235604   2.768   2.631   4.959
11860SOL     OW35605   1.902   2.406   4.838
11860SOL    HW135606   1.987   2.373   4.797
11860SOL    HW235607   1.915   2.421   4.936
11861SOL     OW35608   2.051   2.382   5.446
11861SOL    HW135609   2.110   2.342   5.376
11861SOL    HW235610   1.993   2.453   5.405
11862SOL     OW35611   3.231   2.812   5.384
11862SOL    HW135612   3.270   2.901   5.404
11862SOL    HW235613   3.241   2.792   5.287
11863SOL     OW35614   2.677   2.434   4.049
11863SOL    HW135615   2.684   2.345   4.003
11863SOL    HW235616   2.583   2.468   4.041
11864SOL     OW35617   3.519   2.466   4.930
11864SOL    HW135618   3.481   2.397   4.992
11864SOL    HW235619   3.601   2.430   4.886
11865SOL     OW35620   2.114   3.426   5.468
11865SOL    HW135621   2.084   3.483   5.544
11865SOL    HW235622   2.107   3.329   5.494
11866SOL     OW35623   2.533   2.326   4.993
11866SOL    HW135624   2.499   2.237   4.963
11866SOL    HW235625   2.559   2.380   4.913
11867SOL     OW35626   2.792   3.540   5.189
11867SOL    HW135627   2.768   3.522   5.094
11867SOL    HW235628   2.822   3.634   5.199
11868SOL     OW35629   2.335   2.362   3.915
11868SOL    HW135630   2.396   2.442   3.919
11868SOL    HW235631   2.240   2.393   3.922
11869SOL     OW35632   2.021   2.999   5.190
11869SOL    HW135633   2.043   2.938   5.266
11869SOL    HW235634   2.031   2.950   5.104
11870SOL     OW35635   3.209   2.921   4.958
11870SOL    HW135636   3.233   2.858   4.884
11870SOL    HW235637   3.119   2.961   4.940
11871SOL     OW35638   3.164   2.717   4.033
11871SOL    HW135639   3.078   2.686   4.075
11871SOL    HW235640   3.160   2.703   3.934
11872SOL     OW35641   3.621   3.609   4.878
11872SOL    HW135642   3.682   3.639   4.805
11872SOL    HW235643   3.583   3.520   4.856
11873SOL     OW35644   3.114   3.593   4.852
11873SOL    HW135645   3.198   3.598   4.798
11873SOL    HW235646   3.091   3.497   4.870
11874SOL     OW35647   1.945   3.120   4.746
11874SOL    HW135648   1.940   3.119   4.846
11874SOL    HW235649   1.862   3.079   4.708
11875SOL     OW35650   2.550   3.524   5.440
11875SOL    HW135651   2.494   3.605   5.449
11875SOL    HW235652   2.602   3.528   5.354
11876SOL     OW35653   3.588   1.997   4.247
11876SOL    HW135654   3.661   1.980   4.180
11876SOL    HW235655   3.557   1.910   4.285
11877SOL     OW35656   3.250   3.435   4.201
11877SOL    HW135657   3.317   3.447   4.127
11877SOL    HW235658   3.210   3.524   4.224
11878SOL     OW35659   1.992   3.656   5.575
11878SOL    HW135660   1.951   3.582   5.628
11878SOL    HW235661   2.056   3.707   5.633
11879SOL     OW35662   3.142   2.789   4.396
11879SOL    HW135663   3.202   2.708   4.398
11879SOL    HW235664   3.182   2.858   4.336
11880SOL     OW35665   2.692   3.135   5.146
11880SOL    HW135666   2.687   3.168   5.241
11880SOL    HW235667   2.606   3.154   5.100
11881SOL     OW35668   2.534   3.478   3.878
11881SOL    HW135669   2.543   3.488   3.779
11881SOL    HW235670   2.494   3.389   3.899
11882SOL     OW35671   3.512   3.582   5.118
11882SOL    HW135672   3.565   3.592   5.034
11882SOL    HW235673   3.485   3.672   5.152
11883SOL     OW35674   3.703   2.037   4.687
11883SOL    HW135675   3.742   1.952   4.651
11883SOL    HW235676   3.605   2.039   4.668
11884SOL     OW35677   2.125   2.188   4.444
11884SOL    HW135678   2.046   2.239   4.410
11884SOL    HW235679   2.116   2.173   4.542
11885SOL     OW35680   3.056   3.474   3.755
11885SOL    HW135681   3.062   3.381   3.792
11885SOL    HW235682   2.997   3.474   3.675
11886SOL     OW35683   2.684   2.864   5.096
11886SOL    HW135684   2.724   2.863   5.004
11886SOL    HW235685   2.694   2.956   5.136
11887SOL     OW35686   2.778   2.772   4.015
11887SOL    HW135687   2.841   2.810   3.947
11887SOL    HW235688   2.818   2.689   4.054
11888SOL     OW35689   3.366   3.469   3.768
11888SOL    HW135690   3.274   3.506   3.775
11888SOL    HW235691   3.404   3.489   3.678
11889SOL     OW35692   2.234   3.150   5.214
11889SOL    HW135693   2.221   3.243   5.180
11889SOL    HW235694   2.150   3.098   5.201
11890SOL     OW35695   3.476   3.154   5.013
11890SOL    HW135696   3.536   3.157   5.093
11890SOL    HW235697   3.401   3.218   5.026
11891SOL     OW35698   2.901   2.960   4.420
11891SOL    HW135699   2.831   2.913   4.474
11891SOL    HW235700   2.960   2.892   4.377
11892SOL     OW35701   2.876   2.098   4.695
11892SOL    HW135702   2.868   2.062   4.602
11892SOL    HW235703   2.874   2.022   4.760
11893SOL     OW35704   2.452   3.349   4.215
11893SOL    HW135705   2.494   3.291   4.145
11893SOL    HW235706   2.408   3.428   4.171
11894SOL     OW35707   3.571   2.247   5.105
11894SOL    HW135708   3.644   2.316   5.109
11894SOL    HW235709   3.599   2.172   5.046
11895SOL     OW35710   2.117   3.210   4.014
11895SOL    HW135711   2.021   3.211   3.987
11895SOL    HW235712   2.129   3.263   4.098
11896SOL     OW35713   1.967   2.875   5.450
11896SOL    HW135714   1.890   2.842   5.504
11896SOL    HW235715   2.052   2.845   5.492
11897SOL     OW35716   2.534   2.065   5.213
11897SOL    HW135717   2.624   2.049   5.173
11897SOL    HW235718   2.542   2.070   5.312
11898SOL     OW35719   1.937   2.207   3.757
11898SOL    HW135720   1.845   2.179   3.728
11898SOL    HW235721   1.968   2.284   3.701
11899SOL     OW35722   3.302   2.718   5.122
11899SOL    HW135723   3.245   2.770   5.059
11899SOL    HW235724   3.398   2.730   5.098
11900SOL     OW35725   1.934   2.028   4.042
11900SOL    HW135726   1.917   2.111   3.988
11900SOL    HW235727   2.024   1.991   4.020
11901SOL     OW35728   3.045   3.197   3.843
11901SOL    HW135729   2.946   3.186   3.845
11901SOL    HW235730   3.079   3.212   3.936
11902SOL     OW35731   2.475   2.704   5.155
11902SOL    HW135732   2.531   2.785   5.138
11902SOL    HW235733   2.534   2.624   5.158
11903SOL     OW35734   3.355   3.629   4.683
11903SOL    HW135735   3.388   3.693   4.614
11903SOL    HW235736   3.421   3.623   4.758
11904SOL     OW35737   2.578   2.427   5.432
11904SOL    HW135738   2.597   2.492   5.506
11904SOL    HW235739   2.638   2.347   5.441
11905SOL     OW35740   3.312   3.082   5.357
11905SOL    HW135741   3.303   3.072   5.456
11905SOL    HW235742   3.408   3.075   5.331
11906SOL     OW35743   2.252   3.603   5.284
11906SOL    HW135744   2.161   3.644   5.282
11906SOL    HW235745   2.245   3.509   5.316
11907SOL     OW35746   3.536   2.745   4.978
11907SOL    HW135747   3.509   2.656   4.941
11907SOL    HW235748   3.537   2.813   4.905
11908SOL     OW35749   3.087   2.187   4.173
11908SOL    HW135750   3.152   2.113   4.162
11908SOL    HW235751   3.107   2.237   4.257
11909SOL     OW35752   2.456   2.607   4.376
11909SOL    HW135753   2.506   2.692   4.357
11909SOL    HW235754   2.368   2.609   4.328
11910SOL     OW35755   3.639   2.204   5.366
11910SOL    HW135756   3.622   2.235   5.272
11910SOL    HW235757   3.555   2.167   5.404
11911SOL     OW35758   3.592   2.796   5.241
11911SOL    HW135759   3.630   2.887   5.256
11911SOL    HW235760   3.584   2.779   5.142
11912SOL     OW35761   2.721   3.236   3.740
11912SOL    HW135762   2.675   3.251   3.828
11912SOL    HW235763   2.765   3.321   3.710
11913SOL     OW35764   2.523   3.652   4.677
11913SOL    HW135765   2.477   3.740   4.664
11913SOL    HW235766   2.622   3.664   4.670
11914SOL     OW35767   2.721   2.818   4.585
11914SOL    HW135768   2.775   2.749   4.633
11914SOL    HW235769   2.689   2.887   4.651
11915SOL     OW35770   2.945   2.846   3.811
11915SOL    HW135771   2.922   2.899   3.729
11915SOL    HW235772   3.026   2.790   3.792
11916SOL     OW35773   3.723   3.431   4.575
11916SOL    HW135774   3.652   3.419   4.505
11916SOL    HW235775   3.724   3.352   4.635
11917SOL     OW35776   2.083   3.176   5.568
11917SOL    HW135777   2.018   3.103   5.547
11917SOL    HW235778   2.087   3.190   5.666
11918SOL     OW35779   1.941   3.102   4.377
11918SOL    HW135780   1.940   3.055   4.465
11918SOL    HW235781   2.023   3.074   4.326
11919SOL     OW35782   2.534   3.253   5.348
11919SOL    HW135783   2.456   3.203   5.386
11919SOL    HW235784   2.531   3.348   5.379
11920SOL     OW35785   3.686   2.054   4.951
11920SOL    HW135786   3.682   1.964   4.995
11920SOL    HW235787   3.689   2.043   4.852
11921SOL     OW35788   2.290   2.286   4.244
11921SOL    HW135789   2.320   2.214   4.182
11921SOL    HW235790   2.251   2.246   4.327
11922SOL     OW35791   3.567   3.349   4.828
11922SOL    HW135792   3.474   3.324   4.801
11922SOL    HW235793   3.593   3.299   4.910
11923SOL     OW35794   2.179   2.409   5.004
11923SOL    HW135795   2.217   2.350   5.076
11923SOL    HW235796   2.219   2.383   4.916
11924SOL     OW35797   2.674   3.448   4.411
11924SOL    HW135798   2.706   3.458   4.317
11924SOL    HW235799   2.595   3.386   4.413
11925SOL     OW35800   3.286   2.076   4.836
11925SOL    HW135801   3.338   2.011   4.891
11925SOL    HW235802   3.237   2.139   4.897
11926SOL     OW35803   2.863   1.896   4.878
11926SOL    HW135804   2.800   1.824   4.847
11926SOL    HW235805   2.956   1.860   4.878
11927SOL     OW35806   2.632   3.192   4.025
11927SOL    HW135807   2.586   3.105   4.042
11927SOL    HW235808   2.723   3.189   4.066
11928SOL     OW35809   2.480   3.429   5.008
11928SOL    HW135810   2.475   3.511   5.065
11928SOL    HW235811   2.569   3.426   4.963
11929SOL     OW35812   3.214   1.914   3.892
11929SOL    HW135813   3.249   1.873   3.808
11929SOL    HW235814   3.124   1.876   3.912
11930SOL     OW35815   3.162   2.315   4.415
11930SOL    HW135816   3.103   2.395   4.419
11930SOL    HW235817   3.177   2.280   4.508
11931SOL     OW35818   3.455   2.083   4.606
11931SOL    HW135819   3.371   2.082   4.660
11931SOL    HW235820   3.457   2.166   4.550
11932SOL     OW35821   1.901   2.939   4.024
11932SOL    HW135822   2.000   2.928   4.015
11932SOL    HW235823   1.861   2.853   4.056
11933SOL     OW35824   2.737   3.508   4.061
11933SOL    HW135825   2.660   3.473   4.007
11933SOL    HW235826   2.705   3.579   4.123
11934SOL     OW35827   2.092   2.490   5.699
11934SOL    HW135828   1.999   2.488   5.736
11934SOL    HW235829   2.093   2.451   5.607
11935SOL     OW35830   2.087   2.137   6.582
11935SOL    HW135831   2.122   2.120   6.674
11935SOL    HW235832   1.999   2.092   6.570
11936SOL     OW35833   1.881   2.230   6.233
11936SOL    HW135834   1.799   2.273   6.272
11936SOL    HW235835   1.853   2.157   6.170
11937SOL     OW35836   2.431   3.137   6.751
11937SOL    HW135837   2.338   3.130   6.714
11937SOL    HW235838   2.442   3.226   6.795
11938SOL     OW35839   3.417   3.373   6.289
11938SOL    HW135840   3.360   3.357   6.370
11938SOL    HW235841   3.358   3.383   6.209
11939SOL     OW35842   2.997   2.565   6.303
11939SOL    HW135843   3.054   2.643   6.278
11939SOL    HW235844   2.937   2.591   6.379
11940SOL     OW35845   3.617   2.469   5.817
11940SOL    HW135846   3.605   2.456   5.718
11940SOL    HW235847   3.587   2.388   5.866
11941SOL     OW35848   2.630   3.006   6.609
11941SOL    HW135849   2.552   3.023   6.669
11941SOL    HW235850   2.664   3.093   6.573
11942SOL     OW35851   2.712   2.660   7.409
11942SOL    HW135852   2.708   2.736   7.474
11942SOL    HW235853   2.734   2.696   7.318
11943SOL     OW35854   2.547   2.874   6.251
11943SOL    HW135855   2.616   2.858   6.321
11943SOL    HW235856   2.474   2.931   6.289
11944SOL     OW35857   2.548   3.023   7.389
11944SOL    HW135858   2.608   3.102   7.403
11944SOL    HW235859   2.462   3.054   7.348
11945SOL     OW35860   2.197   3.297   6.647
11945SOL    HW135861   2.119   3.266   6.594
11945SOL    HW235862   2.255   3.355   6.590
11946SOL     OW35863   3.322   3.367   6.925
11946SOL    HW135864   3.346   3.461   6.951
11946SOL    HW235865   3.306   3.313   7.007
11947SOL     OW35866   2.300   2.254   7.085
11947SOL    HW135867   2.382   2.198   7.094
11947SOL    HW235868   2.219   2.196   7.089
11948SOL     OW35869   3.465   2.309   6.323
11948SOL    HW135870   3.391   2.355   6.273
11948SOL    HW235871   3.516   2.377   6.376
11949SOL     OW35872   2.093   3.575   6.069
11949SOL    HW135873   2.127   3.652   6.123
11949SOL    HW235874   2.137   3.575   5.979
11950SOL     OW35875   2.989   3.203   7.276
11950SOL    HW135876   3.036   3.203   7.364
11950SOL    HW235877   2.941   3.116   7.265
11951SOL     OW35878   2.092   3.296   6.124
11951SOL    HW135879   2.066   3.392   6.124
11951SOL    HW235880   2.021   3.242   6.169
11952SOL     OW35881   2.102   2.953   6.472
11952SOL    HW135882   2.116   2.869   6.524
11952SOL    HW235883   2.047   3.017   6.527
11953SOL     OW35884   2.482   3.648   7.025
11953SOL    HW135885   2.390   3.631   7.060
11953SOL    HW235886   2.510   3.740   7.051
11954SOL     OW35887   2.468   2.826   5.709
11954SOL    HW135888   2.475   2.910   5.655
11954SOL    HW235889   2.514   2.839   5.797
11955SOL     OW35890   3.456   1.976   7.066
11955SOL    HW135891   3.438   2.043   6.994
11955SOL    HW235892   3.453   2.022   7.155
11956SOL     OW35893   1.984   2.505   6.149
11956SOL    HW135894   1.939   2.417   6.166
11956SOL    HW235895   1.983   2.559   6.233
11957SOL     OW35896   3.704   3.629   5.945
11957SOL    HW135897   3.758   3.600   6.025
11957SOL    HW235898   3.734   3.719   5.916
11958SOL     OW35899   1.889   3.458   5.703
11958SOL    HW135900   1.870   3.362   5.724
11958SOL    HW235901   1.856   3.516   5.778
11959SOL     OW35902   3.551   2.784   6.198
11959SOL    HW135903   3.646   2.755   6.206
11959SOL    HW235904   3.543   2.849   6.123
11960SOL     OW35905   3.503   2.970   6.018
11960SOL    HW135906   3.589   2.972   5.966
11960SOL    HW235907   3.517   3.017   6.106
11961SOL     OW35908   1.975   2.599   7.183
11961SOL    HW135909   2.063   2.586   7.228
11961SOL    HW235910   1.962   2.696   7.161
11962SOL     OW35911   2.475   3.227   6.312
11962SOL    HW135912   2.426   3.140   6.321
11962SOL    HW235913   2.452   3.270   6.225
11963SOL     OW35914   3.155   3.090   7.009
11963SOL    HW135915   3.192   3.017   6.951
11963SOL    HW235916   3.207   3.095   7.094
11964SOL     OW35917   2.671   1.866   6.088
11964SOL    HW135918   2.711   1.957   6.079
11964SOL    HW235919   2.571   1.874   6.094
11965SOL     OW35920   2.059   2.838   6.850
11965SOL    HW135921   2.148   2.793   6.836
11965SOL    HW235922   1.986   2.773   6.831
11966SOL     OW35923   3.387   2.861   5.776
11966SOL    HW135924   3.324   2.785   5.789
11966SOL    HW235925   3.435   2.879   5.862
11967SOL     OW35926   3.049   3.654   7.202
11967SOL    HW135927   3.073   3.714   7.126
11967SOL    HW235928   3.056   3.559   7.172
11968SOL     OW35929   2.179   2.113   7.387
11968SOL    HW135930   2.250   2.184   7.393
11968SOL    HW235931   2.091   2.152   7.415
11969SOL     OW35932   3.328   3.279   6.539
11969SOL    HW135933   3.269   3.285   6.619
11969SOL    HW235934   3.313   3.191   6.493
11970SOL     OW35935   3.529   3.576   6.158
11970SOL    HW135936   3.488   3.553   6.070
11970SOL    HW235937   3.511   3.502   6.223
11971SOL     OW35938   2.460   2.591   5.856
11971SOL    HW135939   2.484   2.660   5.788
11971SOL    HW235940   2.382   2.624   5.910
11972SOL     OW35941   3.143   2.207   6.530
11972SOL    HW135942   3.057   2.157   6.517
11972SOL    HW235943   3.205   2.153   6.586
11973SOL     OW35944   3.438   3.524   5.893
11973SOL    HW135945   3.527   3.570   5.896
11973SOL    HW235946   3.417   3.500   5.798
11974SOL     OW35947   2.669   2.467   7.051
11974SOL    HW135948   2.622   2.464   7.140
11974SOL    HW235949   2.618   2.412   6.985
11975SOL     OW35950   3.256   2.331   7.260
11975SOL    HW135951   3.236   2.374   7.348
11975SOL    HW235952   3.334   2.269   7.269
11976SOL     OW35953   2.835   2.752   7.158
11976SOL    HW135954   2.881   2.668   7.129
11976SOL    HW235955   2.779   2.786   7.083
11977SOL     OW35956   2.853   2.272   6.828
11977SOL    HW135957   2.776   2.306   6.882
11977SOL    HW235958   2.819   2.221   6.749
11978SOL     OW35959   2.903   2.563   6.015
11978SOL    HW135960   2.929   2.559   6.111
11978SOL    HW235961   2.818   2.512   6.001
11979SOL     OW35962   1.938   2.673   6.375
11979SOL    HW135963   2.037   2.661   6.384
11979SOL    HW235964   1.914   2.768   6.396
11980SOL     OW35965   1.992   3.683   7.157
11980SOL    HW135966   1.982   3.668   7.256
11980SOL    HW235967   1.906   3.719   7.121
11981SOL     OW35968   2.727   2.210   5.781
11981SOL    HW135969   2.786   2.273   5.732
11981SOL    HW235970   2.746   2.116   5.752
11982SOL     OW35971   3.581   2.447   7.417
11982SOL    HW135972   3.555   2.536   7.381
11982SOL    HW235973   3.579   2.379   7.344
11983SOL     OW35974   3.224   3.006   6.131
11983SOL    HW135975   3.307   2.977   6.083
11983SOL    HW235976   3.175   3.073   6.075
11984SOL     OW35977   2.412   2.058   6.471
11984SOL    HW135978   2.407   2.053   6.571
11984SOL    HW235979   2.414   2.154   6.442
11985SOL     OW35980   2.870   3.318   6.063
11985SOL    HW135981   2.824   3.390   6.011
11985SOL    HW235982   2.866   3.338   6.161
11986SOL     OW35983   2.213   3.663   6.439
11986SOL    HW135984   2.263   3.577   6.445
11986SOL    HW235985   2.278   3.740   6.436
11987SOL     OW35986   3.657   2.928   6.459
11987SOL    HW135987   3.595   2.913   6.383
11987SOL    HW235988   3.605   2.939   6.544
11988SOL     OW35989   3.089   3.412   7.092
11988SOL    HW135990   3.095   3.335   7.156
11988SOL    HW235991   3.037   3.386   7.012
11989SOL     OW35992   2.183   2.805   5.828
11989SOL    HW135993   2.265   2.844   5.786
11989SOL    HW235994   2.156   2.723   5.779
11990SOL     OW35995   3.320   2.597   6.314
11990SOL    HW135996   3.315   2.532   6.389
11990SOL    HW235997   3.400   2.656   6.327
11991SOL     OW35998   2.323   3.128   7.313
11991SOL    HW135999   2.273   3.129   7.227
11991SOL    HW236000   2.260   3.110   7.389
11992SOL     OW36001   2.973   3.638   5.823
11992SOL    HW136002   2.913   3.576   5.873
11992SOL    HW236003   3.004   3.594   5.738
11993SOL     OW36004   2.064   2.147   7.084
11993SOL    HW136005   1.984   2.207   7.071
11993SOL    HW236006   2.054   2.098   7.170
11994SOL     OW36007   3.494   3.239   5.667
11994SOL    HW136008   3.462   3.333   5.657
11994SOL    HW236009   3.418   3.176   5.655
11995SOL     OW36010   2.326   3.605   5.909
11995SOL    HW136011   2.359   3.644   5.995
11995SOL    HW236012   2.402   3.598   5.844
11996SOL     OW36013   3.262   1.969   6.012
11996SOL    HW136014   3.238   1.932   5.922
11996SOL    HW236015   3.361   1.985   6.016
11997SOL     OW36016   2.111   3.647   6.827
11997SOL    HW136017   2.168   3.582   6.877
11997SOL    HW236018   2.095   3.614   6.734
11998SOL     OW36019   2.802   3.560   6.490
11998SOL    HW136020   2.882   3.503   6.511
11998SOL    HW236021   2.753   3.520   6.413
11999SOL     OW36022   2.244   2.562   6.066
11999SOL    HW136023   2.289   2.472   6.063
11999SOL    HW236024   2.150   2.551   6.099
12000SOL     OW36025   3.409   2.084   7.315
12000SOL    HW136026   3.404   2.121   7.407
12000SOL    HW236027   3.337   2.015   7.303
12001SOL     OW36028   2.476   1.984   5.703
12001SOL    HW136029   2.574   1.962   5.710
12001SOL    HW236030   2.445   1.967   5.610
12002SOL     OW36031   2.643   2.126   7.335
12002SOL    HW136032   2.710   2.065   7.378
12002SOL    HW236033   2.570   2.145   7.400
12003SOL     OW36034   2.750   3.376   6.781
12003SOL    HW136035   2.727   3.351   6.687
12003SOL    HW236036   2.811   3.307   6.820
12004SOL     OW36037   3.213   2.452   7.019
12004SOL    HW136038   3.241   2.409   7.104
12004SOL    HW236039   3.238   2.548   7.020
12005SOL     OW36040   2.665   3.264   6.510
12005SOL    HW136041   2.755   3.278   6.468
12005SOL    HW236042   2.594   3.266   6.439
12006SOL     OW36043   2.784   2.365   6.485
12006SOL    HW136044   2.759   2.356   6.389
12006SOL    HW236045   2.832   2.283   6.516
12007SOL     OW36046   2.401   1.926   6.098
12007SOL    HW136047   2.320   1.927   6.156
12007SOL    HW236048   2.404   2.009   6.043
12008SOL     OW36049   3.296   3.050   5.627
12008SOL    HW136050   3.328   2.974   5.684
12008SOL    HW236051   3.204   3.077   5.657
12009SOL     OW36052   2.159   1.897   5.757
12009SOL    HW136053   2.208   1.981   5.736
12009SOL    HW236054   2.221   1.832   5.802
12010SOL     OW36055   2.797   2.098   6.066
12010SOL    HW136056   2.749   2.139   5.988
12010SOL    HW236057   2.896   2.096   6.047
12011SOL     OW36058   2.938   2.545   7.050
12011SOL    HW136059   2.858   2.484   7.053
12011SOL    HW236060   3.019   2.492   7.026
12012SOL     OW36061   3.089   3.432   6.379
12012SOL    HW136062   3.110   3.506   6.314
12012SOL    HW236063   3.157   3.432   6.452
12013SOL     OW36064   2.321   3.014   6.327
12013SOL    HW136065   2.250   2.987   6.392
12013SOL    HW236066   2.295   2.986   6.234
12014SOL     OW36067   3.133   3.659   6.177
12014SOL    HW136068   3.177   3.723   6.113
12014SOL    HW236069   3.083   3.711   6.247
12015SOL     OW36070   2.894   2.411   5.602
12015SOL    HW136071   2.853   2.493   5.563
12015SOL    HW236072   2.958   2.437   5.675
12016SOL     OW36073   1.940   2.418   6.972
12016SOL    HW136074   2.032   2.417   6.931
12016SOL    HW236075   1.934   2.492   7.039
12017SOL     OW36076   2.423   2.084   6.733
12017SOL    HW136077   2.461   2.000   6.770
12017SOL    HW236078   2.335   2.103   6.777
12018SOL     OW36079   2.728   2.316   6.228
12018SOL    HW136080   2.696   2.388   6.166
12018SOL    HW236081   2.752   2.235   6.175
12019SOL     OW36082   2.879   1.901   6.339
12019SOL    HW136083   2.807   1.906   6.270
12019SOL    HW236084   2.855   1.832   6.408
12020SOL     OW36085   3.291   3.035   6.453
12020SOL    HW136086   3.236   2.951   6.446
12020SOL    HW236087   3.317   3.064   6.361
12021SOL     OW36088   3.328   2.452   6.578
12021SOL    HW136089   3.298   2.357   6.585
12021SOL    HW236090   3.401   2.468   6.644
12022SOL     OW36091   3.719   2.695   5.963
12022SOL    HW136092   3.761   2.631   6.027
12022SOL    HW236093   3.681   2.644   5.885
12023SOL     OW36094   2.350   3.247   5.760
12023SOL    HW136095   2.263   3.232   5.807
12023SOL    HW236096   2.333   3.273   5.665
12024SOL     OW36097   3.526   3.142   6.243
12024SOL    HW136098   3.625   3.150   6.257
12024SOL    HW236099   3.481   3.226   6.274
12025SOL     OW36100   3.252   2.437   5.664
12025SOL    HW136101   3.198   2.416   5.745
12025SOL    HW236102   3.343   2.396   5.673
12026SOL     OW36103   2.389   2.118   5.914
12026SOL    HW136104   2.416   2.059   5.839
12026SOL    HW236105   2.389   2.213   5.883
12027SOL     OW36106   3.616   3.085   7.174
12027SOL    HW136107   3.707   3.046   7.161
12027SOL    HW236108   3.624   3.181   7.198
12028SOL     OW36109   2.926   3.209   6.926
12028SOL    HW136110   2.846   3.186   6.981
12028SOL    HW236111   3.009   3.183   6.975
12029SOL     OW36112   3.454   3.491   7.211
12029SOL    HW136113   3.481   3.525   7.121
12029SOL    HW236114   3.533   3.453   7.257
12030SOL     OW36115   2.973   3.057   6.686
12030SOL    HW136116   2.933   3.101   6.767
12030SOL    HW236117   2.932   3.094   6.603
12031SOL     OW36118   3.500   2.961   6.665
12031SOL    HW136119   3.505   3.042   6.724
12031SOL    HW236120   3.414   2.963   6.614
12032SOL     OW36121   2.842   2.978   7.305
12032SOL    HW136122   2.743   2.984   7.315
12032SOL    HW236123   2.865   2.898   7.249
12033SOL     OW36124   2.567   2.912   5.954
12033SOL    HW136125   2.553   2.919   6.053
12033SOL    HW236126   2.651   2.861   5.936
12034SOL     OW36127   2.272   2.675   6.837
12034SOL    HW136128   2.358   2.687   6.887
12034SOL    HW236129   2.230   2.588   6.864
12035SOL     OW36130   3.136   2.248   6.848
12035SOL    HW136131   3.157   2.322   6.912
12035SOL    HW236132   3.047   2.265   6.805
12036SOL     OW36133   1.926   3.426   6.917
12036SOL    HW136134   1.880   3.508   6.883
12036SOL    HW236135   2.024   3.445   6.926
12037SOL     OW36136   2.229   2.962   6.087
12037SOL    HW136137   2.222   3.045   6.031
12037SOL    HW236138   2.233   2.882   6.027
12038SOL     OW36139   2.428   2.399   6.451
12038SOL    HW136140   2.440   2.465   6.377
12038SOL    HW236141   2.474   2.433   6.534
12039SOL     OW36142   3.114   3.210   5.974
12039SOL    HW136143   3.164   3.287   6.014
12039SOL    HW236144   3.019   3.212   6.006
12040SOL     OW36145   3.134   3.307   6.728
12040SOL    HW136146   3.181   3.320   6.815
12040SOL    HW236147   3.068   3.233   6.737
12041SOL     OW36148   3.444   2.501   6.058
12041SOL    HW136149   3.413   2.562   6.131
12041SOL    HW236150   3.494   2.553   5.989
12042SOL     OW36151   2.216   3.372   6.915
12042SOL    HW136152   2.195   3.328   6.828
12042SOL    HW236153   2.313   3.398   6.918
12043SOL     OW36154   2.264   2.613   7.184
12043SOL    HW136155   2.332   2.668   7.137
12043SOL    HW236156   2.304   2.525   7.211
12044SOL     OW36157   2.875   1.967   7.356
12044SOL    HW136158   2.881   2.052   7.304
12044SOL    HW236159   2.907   1.891   7.299
12045SOL     OW36160   2.366   1.912   7.326
12045SOL    HW136161   2.324   1.855   7.256
12045SOL    HW236162   2.300   1.981   7.358
12046SOL     OW36163   2.435   2.732   6.615
12046SOL    HW136164   2.479   2.821   6.606
12046SOL    HW236165   2.372   2.732   6.692
12047SOL     OW36166   3.222   2.724   6.631
12047SOL    HW136167   3.147   2.724   6.565
12047SOL    HW236168   3.259   2.632   6.640
12048SOL     OW36169   3.071   2.387   5.861
12048SOL    HW136170   3.084   2.303   5.915
12048SOL    HW236171   3.042   2.461   5.921
12049SOL     OW36172   2.169   2.075   6.817
12049SOL    HW136173   2.146   2.112   6.907
12049SOL    HW236174   2.139   1.980   6.811
12050SOL     OW36175   1.899   3.172   6.868
12050SOL    HW136176   1.952   3.123   6.936
12050SOL    HW236177   1.921   3.270   6.873
12051SOL     OW36178   2.594   2.496   6.650
12051SOL    HW136179   2.653   2.470   6.574
12051SOL    HW236180   2.566   2.592   6.639
12052SOL     OW36181   3.590   2.797   7.440
12052SOL    HW136182   3.544   2.790   7.351
12052SOL    HW236183   3.528   2.841   7.506
12053SOL     OW36184   2.169   1.925   6.204
12053SOL    HW136185   2.158   2.019   6.237
12053SOL    HW236186   2.164   1.862   6.281
12054SOL     OW36187   3.484   2.229   5.960
12054SOL    HW136188   3.486   2.153   6.024
12054SOL    HW236189   3.436   2.306   6.000
12055SOL     OW36190   2.885   2.628   6.552
12055SOL    HW136191   2.900   2.649   6.648
12055SOL    HW236192   2.855   2.533   6.543
12056SOL     OW36193   2.842   3.435   7.286
12056SOL    HW136194   2.822   3.479   7.198
12056SOL    HW236195   2.881   3.344   7.270
12057SOL     OW36196   3.721   3.380   7.191
12057SOL    HW136197   3.735   3.407   7.096
12057SOL    HW236198   3.804   3.402   7.244
12058SOL     OW36199   2.212   2.760   7.390
12058SOL    HW136200   2.288   2.804   7.438
12058SOL    HW236201   2.247   2.713   7.308
12059SOL     OW36202   3.402   2.136   5.711
12059SOL    HW136203   3.341   2.061   5.734
12059SOL    HW236204   3.424   2.188   5.794
12060SOL     OW36205   3.165   2.700   5.628
12060SOL    HW136206   3.199   2.607   5.643
12060SOL    HW236207   3.183   2.727   5.533
12061SOL     OW36208   2.930   3.195   6.435
12061SOL    HW136209   2.937   3.111   6.380
12061SOL    HW236210   2.992   3.264   6.399
12062SOL     OW36211   2.181   2.672   6.535
12062SOL    HW136212   2.274   2.708   6.540
12062SOL    HW236213   2.175   2.587   6.587
12063SOL     OW36214   2.201   2.371   6.592
12063SOL    HW136215   2.149   2.288   6.575
12063SOL    HW236216   2.278   2.376   6.528
12064SOL     OW36217   3.000   2.242   7.264
12064SOL    HW136218   2.955   2.305   7.328
12064SOL    HW236219   3.093   2.273   7.247
12065SOL     OW36220   3.022   2.069   7.063
12065SOL    HW136221   3.022   2.133   7.140
12065SOL    HW236222   3.050   2.117   6.980
12066SOL     OW36223   1.870   3.188   5.786
12066SOL    HW136224   1.777   3.209   5.755
12066SOL    HW236225   1.880   3.089   5.799
12067SOL     OW36226   1.950   3.663   6.513
12067SOL    HW136227   1.908   3.577   6.486
12067SOL    HW236228   2.044   3.666   6.479
12068SOL     OW36229   2.366   3.430   6.496
12068SOL    HW136230   2.432   3.504   6.505
12068SOL    HW236231   2.410   3.351   6.454
12069SOL     OW36232   2.864   2.658   6.824
12069SOL    HW136233   2.905   2.626   6.910
12069SOL    HW236234   2.768   2.631   6.821
12070SOL     OW36235   1.902   2.406   6.700
12070SOL    HW136236   1.987   2.373   6.659
12070SOL    HW236237   1.915   2.421   6.798
12071SOL     OW36238   2.051   2.382   7.308
12071SOL    HW136239   2.110   2.342   7.238
12071SOL    HW236240   1.993   2.453   7.267
12072SOL     OW36241   3.231   2.812   7.246
12072SOL    HW136242   3.270   2.901   7.266
12072SOL    HW236243   3.241   2.792   7.149
12073SOL     OW36244   2.677   2.434   5.911
12073SOL    HW136245   2.684   2.345   5.865
12073SOL    HW236246   2.583   2.468   5.903
12074SOL     OW36247   3.519   2.466   6.792
12074SOL    HW136248   3.481   2.397   6.854
12074SOL    HW236249   3.601   2.430   6.748
12075SOL     OW36250   2.114   3.426   7.330
12075SOL    HW136251   2.084   3.483   7.406
12075SOL    HW236252   2.107   3.329   7.356
12076SOL     OW36253   2.533   2.326   6.855
12076SOL    HW136254   2.499   2.237   6.825
12076SOL    HW236255   2.559   2.380   6.775
12077SOL     OW36256   2.792   3.540   7.051
12077SOL    HW136257   2.768   3.522   6.956
12077SOL    HW236258   2.822   3.634   7.061
12078SOL     OW36259   2.335   2.362   5.777
12078SOL    HW136260   2.396   2.442   5.781
12078SOL    HW236261   2.240   2.393   5.784
12079SOL     OW36262   2.021   2.999   7.052
12079SOL    HW136263   2.043   2.938   7.128
12079SOL    HW236264   2.031   2.950   6.966
12080SOL     OW36265   3.209   2.921   6.820
12080SOL    HW136266   3.233   2.858   6.746
12080SOL    HW236267   3.119   2.961   6.802
12081SOL     OW36268   3.164   2.717   5.895
12081SOL    HW136269   3.078   2.686   5.937
12081SOL    HW236270   3.160   2.703   5.796
12082SOL     OW36271   3.621   3.609   6.740
12082SOL    HW136272   3.682   3.639   6.667
12082SOL    HW236273   3.583   3.520   6.718
12083SOL     OW36274   3.114   3.593   6.714
12083SOL    HW136275   3.198   3.598   6.660
12083SOL    HW236276   3.091   3.497   6.732
12084SOL     OW36277   1.945   3.120   6.608
12084SOL    HW136278   1.940   3.119   6.708
12084SOL    HW236279   1.862   3.079   6.570
12085SOL     OW36280   2.550   3.524   7.302
12085SOL    HW136281   2.494   3.605   7.311
12085SOL    HW236282   2.602   3.528   7.216
12086SOL     OW36283   3.588   1.997   6.109
12086SOL    HW136284   3.661   1.980   6.042
12086SOL    HW236285   3.557   1.910   6.147
12087SOL     OW36286   3.250   3.435   6.063
12087SOL    HW136287   3.317   3.447   5.989
12087SOL    HW236288   3.210   3.524   6.086
12088SOL     OW36289   1.992   3.656   7.437
12088SOL    HW136290   1.951   3.582   7.490
12088SOL    HW236291   2.056   3.707   7.495
12089SOL     OW36292   3.142   2.789   6.258
12089SOL    HW136293   3.202   2.708   6.260
12089SOL    HW236294   3.182   2.858   6.198
12090SOL     OW36295   2.692   3.135   7.008
12090SOL    HW136296   2.687   3.168   7.103
12090SOL    HW236297   2.606   3.154   6.962
12091SOL     OW36298   2.534   3.478   5.740
12091SOL    HW136299   2.543   3.488   5.641
12091SOL    HW236300   2.494   3.389   5.761
12092SOL     OW36301   3.512   3.582   6.980
12092SOL    HW136302   3.565   3.592   6.896
12092SOL    HW236303   3.485   3.672   7.014
12093SOL     OW36304   3.703   2.037   6.549
12093SOL    HW136305   3.742   1.952   6.513
12093SOL    HW236306   3.605   2.039   6.530
12094SOL     OW36307   2.125   2.188   6.306
12094SOL    HW136308   2.046   2.239   6.272
12094SOL    HW236309   2.116   2.173   6.404
12095SOL     OW36310   3.056   3.474   5.617
12095SOL    HW136311   3.062   3.381   5.654
12095SOL    HW236312   2.997   3.474   5.537
12096SOL     OW36313   2.684   2.864   6.958
12096SOL    HW136314   2.724   2.863   6.866
12096SOL    HW236315   2.694   2.956   6.998
12097SOL     OW36316   2.778   2.772   5.877
12097SOL    HW136317   2.841   2.810   5.809
12097SOL    HW236318   2.818   2.689   5.916
12098SOL     OW36319   3.366   3.469   5.630
12098SOL    HW136320   3.274   3.506   5.637
12098SOL    HW236321   3.404   3.489   5.540
12099SOL     OW36322   2.234   3.150   7.076
12099SOL    HW136323   2.221   3.243   7.042
12099SOL    HW236324   2.150   3.098   7.063
12100SOL     OW36325   3.476   3.154   6.875
12100SOL    HW136326   3.536   3.157   6.955
12100SOL    HW236327   3.401   3.218   6.888
12101SOL     OW36328   2.901   2.960   6.282
12101SOL    HW136329   2.831   2.913   6.336
12101SOL    HW236330   2.960   2.892   6.239
12102SOL     OW36331   2.876   2.098   6.557
12102SOL    HW136332   2.868   2.062   6.464
12102SOL    HW236333   2.874   2.022   6.622
12103SOL     OW36334   2.452   3.349   6.077
12103SOL    HW136335   2.494   3.291   6.007
12103SOL    HW236336   2.408   3.428   6.033
12104SOL     OW36337   3.571   2.247   6.967
12104SOL    HW136338   3.644   2.316   6.971
12104SOL    HW236339   3.599   2.172   6.908
12105SOL     OW36340   2.117   3.210   5.876
12105SOL    HW136341   2.021   3.211   5.849
12105SOL    HW236342   2.129   3.263   5.960
12106SOL     OW36343   1.967   2.875   7.312
12106SOL    HW136344   1.890   2.842   7.366
12106SOL    HW236345   2.052   2.845   7.354
12107SOL     OW36346   2.534   2.065   7.075
12107SOL    HW136347   2.624   2.049   7.035
12107SOL    HW236348   2.542   2.070   7.174
12108SOL     OW36349   1.937   2.207   5.619
12108SOL    HW136350   1.845   2.179   5.590
12108SOL    HW236351   1.968   2.284   5.563
12109SOL     OW36352   3.302   2.718   6.984
12109SOL    HW136353   3.245   2.770   6.921
12109SOL    HW236354   3.398   2.730   6.960
12110SOL     OW36355   1.934   2.028   5.904
12110SOL    HW136356   1.917   2.111   5.850
12110SOL    HW236357   2.024   1.991   5.882
12111SOL     OW36358   3.045   3.197   5.705
12111SOL    HW136359   2.946   3.186   5.707
12111SOL    HW236360   3.079   3.212   5.798
12112SOL     OW36361   2.475   2.704   7.017
12112SOL    HW136362   2.531   2.785   7.000
12112SOL    HW236363   2.534   2.624   7.020
12113SOL     OW36364   3.355   3.629   6.545
12113SOL    HW136365   3.388   3.693   6.476
12113SOL    HW236366   3.421   3.623   6.620
12114SOL     OW36367   2.578   2.427   7.294
12114SOL    HW136368   2.597   2.492   7.368
12114SOL    HW236369   2.638   2.347   7.303
12115SOL     OW36370   3.312   3.082   7.219
12115SOL    HW136371   3.303   3.072   7.318
12115SOL    HW236372   3.408   3.075   7.193
12116SOL     OW36373   2.252   3.603   7.146
12116SOL    HW136374   2.161   3.644   7.144
12116SOL    HW236375   2.245   3.509   7.178
12117SOL     OW36376   3.536   2.745   6.840
12117SOL    HW136377   3.509   2.656   6.803
12117SOL    HW236378   3.537   2.813   6.767
12118SOL     OW36379   3.087   2.187   6.035
12118SOL    HW136380   3.152   2.113   6.024
12118SOL    HW236381   3.107   2.237   6.119
12119SOL     OW36382   2.456   2.607   6.238
12119SOL    HW136383   2.506   2.692   6.219
12119SOL    HW236384   2.368   2.609   6.190
12120SOL     OW36385   3.639   2.204   7.228
12120SOL    HW136386   3.622   2.235   7.134
12120SOL    HW236387   3.555   2.167   7.266
12121SOL     OW36388   3.592   2.796   7.103
12121SOL    HW136389   3.630   2.887   7.118
12121SOL    HW236390   3.584   2.779   7.004
12122SOL     OW36391   2.721   3.236   5.602
12122SOL    HW136392   2.675   3.251   5.690
12122SOL    HW236393   2.765   3.321   5.572
12123SOL     OW36394   2.523   3.652   6.539
12123SOL    HW136395   2.477   3.740   6.526
12123SOL    HW236396   2.622   3.664   6.532
12124SOL     OW36397   2.721   2.818   6.447
12124SOL    HW136398   2.775   2.749   6.495
12124SOL    HW236399   2.689   2.887   6.513
12125SOL     OW36400   2.945   2.846   5.673
12125SOL    HW136401   2.922   2.899   5.591
12125SOL    HW236402   3.026   2.790   5.654
12126SOL     OW36403   3.723   3.431   6.437
12126SOL    HW136404   3.652   3.419   6.367
12126SOL    HW236405   3.724   3.352   6.497
12127SOL     OW36406   2.083   3.176   7.430
12127SOL    HW136407   2.018   3.103   7.409
12127SOL    HW236408   2.087   3.190   7.528
12128SOL     OW36409   1.941   3.102   6.239
12128SOL    HW136410   1.940   3.055   6.327
12128SOL    HW236411   2.023   3.074   6.188
12129SOL     OW36412   2.534   3.253   7.210
12129SOL    HW136413   2.456   3.203   7.248
12129SOL    HW236414   2.531   3.348   7.241
12130SOL     OW36415   3.686   2.054   6.813
12130SOL    HW136416   3.682   1.964   6.857
12130SOL    HW236417   3.689   2.043   6.714
12131SOL     OW36418   2.290   2.286   6.106
12131SOL    HW136419   2.320   2.214   6.044
12131SOL    HW236420   2.251   2.246   6.189
12132SOL     OW36421   3.567   3.349   6.690
12132SOL    HW136422   3.474   3.324   6.663
12132SOL    HW236423   3.593   3.299   6.772
12133SOL     OW36424   2.179   2.409   6.866
12133SOL    HW136425   2.217   2.350   6.938
12133SOL    HW236426   2.219   2.383   6.778
12134SOL     OW36427   2.674   3.448   6.273
12134SOL    HW136428   2.706   3.458   6.179
12134SOL    HW236429   2.595   3.386   6.275
12135SOL     OW36430   3.286   2.076   6.698
12135SOL    HW136431   3.338   2.011   6.753
12135SOL    HW236432   3.237   2.139   6.759
12136SOL     OW36433   2.863   1.896   6.740
12136SOL    HW136434   2.800   1.824   6.709
12136SOL    HW236435   2.956   1.860   6.740
12137SOL     OW36436   2.632   3.192   5.887
12137SOL    HW136437   2.586   3.105   5.904
12137SOL    HW236438   2.723   3.189   5.928
12138SOL     OW36439   2.480   3.429   6.870
12138SOL    HW136440   2.475   3.511   6.927
12138SOL    HW236441   2.569   3.426   6.825
12139SOL     OW36442   3.214   1.914   5.754
12139SOL    HW136443   3.249   1.873   5.670
12139SOL    HW236444   3.124   1.876   5.774
12140SOL     OW36445   3.162   2.315   6.277
12140SOL    HW136446   3.103   2.395   6.281
12140SOL    HW236447   3.177   2.280   6.370
12141SOL     OW36448   3.455   2.083   6.468
12141SOL    HW136449   3.371   2.082   6.522
12141SOL    HW236450   3.457   2.166   6.412
12142SOL     OW36451   1.901   2.939   5.886
12142SOL    HW136452   2.000   2.928   5.877
12142SOL    HW236453   1.861   2.853   5.918
12143SOL     OW36454   2.737   3.508   5.923
12143SOL    HW136455   2.660   3.473   5.869
12143SOL    HW236456   2.705   3.579   5.985
12144SOL     OW36457   2.092   2.490   7.561
12144SOL    HW136458   1.999   2.488   7.598
12144SOL    HW236459   2.093   2.451   7.469
12145SOL     OW36460   2.087   2.137   8.444
12145SOL    HW136461   2.122   2.120   8.536
12145SOL    HW236462   1.999   2.092   8.432
12146SOL     OW36463   1.881   2.230   8.095
12146SOL    HW136464   1.799   2.273   8.134
12146SOL    HW236465   1.853   2.157   8.032
12147SOL     OW36466   2.431   3.137   8.613
12147SOL    HW136467   2.338   3.130   8.576
12147SOL    HW236468   2.442   3.226   8.657
12148SOL     OW36469   3.417   3.373   8.151
12148SOL    HW136470   3.360   3.357   8.232
12148SOL    HW236471   3.358   3.383   8.071
12149SOL     OW36472   2.997   2.565   8.165
12149SOL    HW136473   3.054   2.643   8.140
12149SOL    HW236474   2.937   2.591   8.241
12150SOL     OW36475   3.617   2.469   7.679
12150SOL    HW136476   3.605   2.456   7.580
12150SOL    HW236477   3.587   2.388   7.728
12151SOL     OW36478   2.630   3.006   8.471
12151SOL    HW136479   2.552   3.023   8.531
12151SOL    HW236480   2.664   3.093   8.435
12152SOL     OW36481   2.712   2.660   9.271
12152SOL    HW136482   2.708   2.736   9.336
12152SOL    HW236483   2.734   2.696   9.180
12153SOL     OW36484   2.547   2.874   8.113
12153SOL    HW136485   2.616   2.858   8.183
12153SOL    HW236486   2.474   2.931   8.151
12154SOL     OW36487   2.548   3.023   9.251
12154SOL    HW136488   2.608   3.102   9.265
12154SOL    HW236489   2.462   3.054   9.210
12155SOL     OW36490   2.197   3.297   8.509
12155SOL    HW136491   2.119   3.266   8.456
12155SOL    HW236492   2.255   3.355   8.452
12156SOL     OW36493   3.322   3.367   8.787
12156SOL    HW136494   3.346   3.461   8.813
12156SOL    HW236495   3.306   3.313   8.869
12157SOL     OW36496   2.300   2.254   8.947
12157SOL    HW136497   2.382   2.198   8.956
12157SOL    HW236498   2.219   2.196   8.951
12158SOL     OW36499   3.465   2.309   8.185
12158SOL    HW136500   3.391   2.355   8.135
12158SOL    HW236501   3.516   2.377   8.238
12159SOL     OW36502   2.093   3.575   7.931
12159SOL    HW136503   2.127   3.652   7.985
12159SOL    HW236504   2.137   3.575   7.841
12160SOL     OW36505   2.989   3.203   9.138
12160SOL    HW136506   3.036   3.203   9.226
12160SOL    HW236507   2.941   3.116   9.127
12161SOL     OW36508   2.092   3.296   7.986
12161SOL    HW136509   2.066   3.392   7.986
12161SOL    HW236510   2.021   3.242   8.031
12162SOL     OW36511   2.102   2.953   8.334
12162SOL    HW136512   2.116   2.869   8.386
12162SOL    HW236513   2.047   3.017   8.389
12163SOL     OW36514   2.482   3.648   8.887
12163SOL    HW136515   2.390   3.631   8.922
12163SOL    HW236516   2.510   3.740   8.913
12164SOL     OW36517   2.468   2.826   7.571
12164SOL    HW136518   2.475   2.910   7.517
12164SOL    HW236519   2.514   2.839   7.659
12165SOL     OW36520   3.456   1.976   8.928
12165SOL    HW136521   3.438   2.043   8.856
12165SOL    HW236522   3.453   2.022   9.017
12166SOL     OW36523   1.984   2.505   8.011
12166SOL    HW136524   1.939   2.417   8.028
12166SOL    HW236525   1.983   2.559   8.095
12167SOL     OW36526   3.704   3.629   7.807
12167SOL    HW136527   3.758   3.600   7.887
12167SOL    HW236528   3.734   3.719   7.778
12168SOL     OW36529   1.889   3.458   7.565
12168SOL    HW136530   1.870   3.362   7.586
12168SOL    HW236531   1.856   3.516   7.640
12169SOL     OW36532   3.551   2.784   8.060
12169SOL    HW136533   3.646   2.755   8.068
12169SOL    HW236534   3.543   2.849   7.985
12170SOL     OW36535   3.503   2.970   7.880
12170SOL    HW136536   3.589   2.972   7.828
12170SOL    HW236537   3.517   3.017   7.968
12171SOL     OW36538   1.975   2.599   9.045
12171SOL    HW136539   2.063   2.586   9.090
12171SOL    HW236540   1.962   2.696   9.023
12172SOL     OW36541   2.475   3.227   8.174
12172SOL    HW136542   2.426   3.140   8.183
12172SOL    HW236543   2.452   3.270   8.087
12173SOL     OW36544   3.155   3.090   8.871
12173SOL    HW136545   3.192   3.017   8.813
12173SOL    HW236546   3.207   3.095   8.956
12174SOL     OW36547   2.671   1.866   7.950
12174SOL    HW136548   2.711   1.957   7.941
12174SOL    HW236549   2.571   1.874   7.956
12175SOL     OW36550   2.059   2.838   8.712
12175SOL    HW136551   2.148   2.793   8.698
12175SOL    HW236552   1.986   2.773   8.693
12176SOL     OW36553   3.387   2.861   7.638
12176SOL    HW136554   3.324   2.785   7.651
12176SOL    HW236555   3.435   2.879   7.724
12177SOL     OW36556   3.049   3.654   9.064
12177SOL    HW136557   3.073   3.714   8.988
12177SOL    HW236558   3.056   3.559   9.034
12178SOL     OW36559   2.179   2.113   9.249
12178SOL    HW136560   2.250   2.184   9.255
12178SOL    HW236561   2.091   2.152   9.277
12179SOL     OW36562   3.328   3.279   8.401
12179SOL    HW136563   3.269   3.285   8.481
12179SOL    HW236564   3.313   3.191   8.355
12180SOL     OW36565   3.529   3.576   8.020
12180SOL    HW136566   3.488   3.553   7.932
12180SOL    HW236567   3.511   3.502   8.085
12181SOL     OW36568   2.460   2.591   7.718
12181SOL    HW136569   2.484   2.660   7.650
12181SOL    HW236570   2.382   2.624   7.772
12182SOL     OW36571   3.143   2.207   8.392
12182SOL    HW136572   3.057   2.157   8.379
12182SOL    HW236573   3.205   2.153   8.448
12183SOL     OW36574   3.438   3.524   7.755
12183SOL    HW136575   3.527   3.570   7.758
12183SOL    HW236576   3.417   3.500   7.660
12184SOL     OW36577   2.669   2.467   8.913
12184SOL    HW136578   2.622   2.464   9.002
12184SOL    HW236579   2.618   2.412   8.847
12185SOL     OW36580   3.256   2.331   9.122
12185SOL    HW136581   3.236   2.374   9.210
12185SOL    HW236582   3.334   2.269   9.131
12186SOL     OW36583   2.835   2.752   9.020
12186SOL    HW136584   2.881   2.668   8.991
12186SOL    HW236585   2.779   2.786   8.945
12187SOL     OW36586   2.853   2.272   8.690
12187SOL    HW136587   2.776   2.306   8.744
12187SOL    HW236588   2.819   2.221   8.611
12188SOL     OW36589   2.903   2.563   7.877
12188SOL    HW136590   2.929   2.559   7.973
12188SOL    HW236591   2.818   2.512   7.863
12189SOL     OW36592   1.938   2.673   8.237
12189SOL    HW136593   2.037   2.661   8.246
12189SOL    HW236594   1.914   2.768   8.258
12190SOL     OW36595   1.992   3.683   9.019
12190SOL    HW136596   1.982   3.668   9.118
12190SOL    HW236597   1.906   3.719   8.983
12191SOL     OW36598   2.727   2.210   7.643
12191SOL    HW136599   2.786   2.273   7.594
12191SOL    HW236600   2.746   2.116   7.614
12192SOL     OW36601   3.581   2.447   9.279
12192SOL    HW136602   3.555   2.536   9.243
12192SOL    HW236603   3.579   2.379   9.206
12193SOL     OW36604   3.224   3.006   7.993
12193SOL    HW136605   3.307   2.977   7.945
12193SOL    HW236606   3.175   3.073   7.937
12194SOL     OW36607   2.412   2.058   8.333
12194SOL    HW136608   2.407   2.053   8.433
12194SOL    HW236609   2.414   2.154   8.304
12195SOL     OW36610   2.870   3.318   7.925
12195SOL    HW136611   2.824   3.390   7.873
12195SOL    HW236612   2.866   3.338   8.023
12196SOL     OW36613   2.213   3.663   8.301
12196SOL    HW136614   2.263   3.577   8.307
12196SOL    HW236615   2.278   3.740   8.298
12197SOL     OW36616   3.657   2.928   8.321
12197SOL    HW136617   3.595   2.913   8.245
12197SOL    HW236618   3.605   2.939   8.406
12198SOL     OW36619   3.089   3.412   8.954
12198SOL    HW136620   3.095   3.335   9.018
12198SOL    HW236621   3.037   3.386   8.874
12199SOL     OW36622   2.183   2.805   7.690
12199SOL    HW136623   2.265   2.844   7.648
12199SOL    HW236624   2.156   2.723   7.641
12200SOL     OW36625   3.320   2.597   8.176
12200SOL    HW136626   3.315   2.532   8.251
12200SOL    HW236627   3.400   2.656   8.189
12201SOL     OW36628   2.323   3.128   9.175
12201SOL    HW136629   2.273   3.129   9.089
12201SOL    HW236630   2.260   3.110   9.251
12202SOL     OW36631   2.973   3.638   7.685
12202SOL    HW136632   2.913   3.576   7.735
12202SOL    HW236633   3.004   3.594   7.600
12203SOL     OW36634   2.064   2.147   8.946
12203SOL    HW136635   1.984   2.207   8.933
12203SOL    HW236636   2.054   2.098   9.032
12204SOL     OW36637   3.494   3.239   7.529
12204SOL    HW136638   3.462   3.333   7.519
12204SOL    HW236639   3.418   3.176   7.517
12205SOL     OW36640   2.326   3.605   7.771
12205SOL    HW136641   2.359   3.644   7.857
12205SOL    HW236642   2.402   3.598   7.706
12206SOL     OW36643   3.262   1.969   7.874
12206SOL    HW136644   3.238   1.932   7.784
12206SOL    HW236645   3.361   1.985   7.878
12207SOL     OW36646   2.111   3.647   8.689
12207SOL    HW136647   2.168   3.582   8.739
12207SOL    HW236648   2.095   3.614   8.596
12208SOL     OW36649   2.802   3.560   8.352
12208SOL    HW136650   2.882   3.503   8.373
12208SOL    HW236651   2.753   3.520   8.275
12209SOL     OW36652   2.244   2.562   7.928
12209SOL    HW136653   2.289   2.472   7.925
12209SOL    HW236654   2.150   2.551   7.961
12210SOL     OW36655   3.409   2.084   9.177
12210SOL    HW136656   3.404   2.121   9.269
12210SOL    HW236657   3.337   2.015   9.165
12211SOL     OW36658   2.476   1.984   7.565
12211SOL    HW136659   2.574   1.962   7.572
12211SOL    HW236660   2.445   1.967   7.472
12212SOL     OW36661   2.643   2.126   9.197
12212SOL    HW136662   2.710   2.065   9.240
12212SOL    HW236663   2.570   2.145   9.262
12213SOL     OW36664   2.750   3.376   8.643
12213SOL    HW136665   2.727   3.351   8.549
12213SOL    HW236666   2.811   3.307   8.682
12214SOL     OW36667   3.213   2.452   8.881
12214SOL    HW136668   3.241   2.409   8.966
12214SOL    HW236669   3.238   2.548   8.882
12215SOL     OW36670   2.665   3.264   8.372
12215SOL    HW136671   2.755   3.278   8.330
12215SOL    HW236672   2.594   3.266   8.301
12216SOL     OW36673   2.784   2.365   8.347
12216SOL    HW136674   2.759   2.356   8.251
12216SOL    HW236675   2.832   2.283   8.378
12217SOL     OW36676   2.401   1.926   7.960
12217SOL    HW136677   2.320   1.927   8.018
12217SOL    HW236678   2.404   2.009   7.905
12218SOL     OW36679   3.296   3.050   7.489
12218SOL    HW136680   3.328   2.974   7.546
12218SOL    HW236681   3.204   3.077   7.519
12219SOL     OW36682   2.159   1.897   7.619
12219SOL    HW136683   2.208   1.981   7.598
12219SOL    HW236684   2.221   1.832   7.664
12220SOL     OW36685   2.797   2.098   7.928
12220SOL    HW136686   2.749   2.139   7.850
12220SOL    HW236687   2.896   2.096   7.909
12221SOL     OW36688   2.938   2.545   8.912
12221SOL    HW136689   2.858   2.484   8.915
12221SOL    HW236690   3.019   2.492   8.888
12222SOL     OW36691   3.089   3.432   8.241
12222SOL    HW136692   3.110   3.506   8.176
12222SOL    HW236693   3.157   3.432   8.314
12223SOL     OW36694   2.321   3.014   8.189
12223SOL    HW136695   2.250   2.987   8.254
12223SOL    HW236696   2.295   2.986   8.096
12224SOL     OW36697   3.133   3.659   8.039
12224SOL    HW136698   3.177   3.723   7.975
12224SOL    HW236699   3.083   3.711   8.109
12225SOL     OW36700   2.894   2.411   7.464
12225SOL    HW136701   2.853   2.493   7.425
12225SOL    HW236702   2.958   2.437   7.537
12226SOL     OW36703   1.940   2.418   8.834
12226SOL    HW136704   2.032   2.417   8.793
12226SOL    HW236705   1.934   2.492   8.901
12227SOL     OW36706   2.423   2.084   8.595
12227SOL    HW136707   2.461   2.000   8.632
12227SOL    HW236708   2.335   2.103   8.639
12228SOL     OW36709   2.728   2.316   8.090
12228SOL    HW136710   2.696   2.388   8.028
12228SOL    HW236711   2.752   2.235   8.037
12229SOL     OW36712   2.879   1.901   8.201
12229SOL    HW136713   2.807   1.906   8.132
12229SOL    HW236714   2.855   1.832   8.270
12230SOL     OW36715   3.291   3.035   8.315
12230SOL    HW136716   3.236   2.951   8.308
12230SOL    HW236717   3.317   3.064   8.223
12231SOL     OW36718   3.328   2.452   8.440
12231SOL    HW136719   3.298   2.357   8.447
12231SOL    HW236720   3.401   2.468   8.506
12232SOL     OW36721   3.719   2.695   7.825
12232SOL    HW136722   3.761   2.631   7.889
12232SOL    HW236723   3.681   2.644   7.747
12233SOL     OW36724   2.350   3.247   7.622
12233SOL    HW136725   2.263   3.232   7.669
12233SOL    HW236726   2.333   3.273   7.527
12234SOL     OW36727   3.526   3.142   8.105
12234SOL    HW136728   3.625   3.150   8.119
12234SOL    HW236729   3.481   3.226   8.136
12235SOL     OW36730   3.252   2.437   7.526
12235SOL    HW136731   3.198   2.416   7.607
12235SOL    HW236732   3.343   2.396   7.535
12236SOL     OW36733   2.389   2.118   7.776
12236SOL    HW136734   2.416   2.059   7.701
12236SOL    HW236735   2.389   2.213   7.745
12237SOL     OW36736   3.616   3.085   9.036
12237SOL    HW136737   3.707   3.046   9.023
12237SOL    HW236738   3.624   3.181   9.060
12238SOL     OW36739   2.926   3.209   8.788
12238SOL    HW136740   2.846   3.186   8.843
12238SOL    HW236741   3.009   3.183   8.837
12239SOL     OW36742   3.454   3.491   9.073
12239SOL    HW136743   3.481   3.525   8.983
12239SOL    HW236744   3.533   3.453   9.119
12240SOL     OW36745   2.973   3.057   8.548
12240SOL    HW136746   2.933   3.101   8.629
12240SOL    HW236747   2.932   3.094   8.465
12241SOL     OW36748   3.500   2.961   8.527
12241SOL    HW136749   3.505   3.042   8.586
12241SOL    HW236750   3.414   2.963   8.476
12242SOL     OW36751   2.777   1.951   8.850
12242SOL    HW136752   2.802   1.931   8.755
12242SOL    HW236753   2.849   2.007   8.892
12243SOL     OW36754   2.842   2.978   9.167
12243SOL    HW136755   2.743   2.984   9.177
12243SOL    HW236756   2.865   2.898   9.111
12244SOL     OW36757   2.567   2.912   7.816
12244SOL    HW136758   2.553   2.919   7.915
12244SOL    HW236759   2.651   2.861   7.798
12245SOL     OW36760   2.272   2.675   8.699
12245SOL    HW136761   2.358   2.687   8.749
12245SOL    HW236762   2.230   2.588   8.726
12246SOL     OW36763   3.136   2.248   8.710
12246SOL    HW136764   3.157   2.322   8.774
12246SOL    HW236765   3.047   2.265   8.667
12247SOL     OW36766   1.926   3.426   8.779
12247SOL    HW136767   1.880   3.508   8.745
12247SOL    HW236768   2.024   3.445   8.788
12248SOL     OW36769   2.229   2.962   7.949
12248SOL    HW136770   2.222   3.045   7.893
12248SOL    HW236771   2.233   2.882   7.889
12249SOL     OW36772   2.428   2.399   8.313
12249SOL    HW136773   2.440   2.465   8.239
12249SOL    HW236774   2.474   2.433   8.396
12250SOL     OW36775   3.114   3.210   7.836
12250SOL    HW136776   3.164   3.287   7.876
12250SOL    HW236777   3.019   3.212   7.868
12251SOL     OW36778   3.134   3.307   8.590
12251SOL    HW136779   3.181   3.320   8.677
12251SOL    HW236780   3.068   3.233   8.599
12252SOL     OW36781   3.444   2.501   7.920
12252SOL    HW136782   3.413   2.562   7.993
12252SOL    HW236783   3.494   2.553   7.851
12253SOL     OW36784   2.216   3.372   8.777
12253SOL    HW136785   2.195   3.328   8.690
12253SOL    HW236786   2.313   3.398   8.780
12254SOL     OW36787   2.264   2.613   9.046
12254SOL    HW136788   2.332   2.668   8.999
12254SOL    HW236789   2.304   2.525   9.073
12255SOL     OW36790   3.449   2.641   9.118
12255SOL    HW136791   3.357   2.679   9.113
12255SOL    HW236792   3.509   2.688   9.053
12256SOL     OW36793   2.875   1.967   9.218
12256SOL    HW136794   2.881   2.052   9.166
12256SOL    HW236795   2.907   1.891   9.161
12257SOL     OW36796   2.366   1.912   9.188
12257SOL    HW136797   2.324   1.855   9.118
12257SOL    HW236798   2.300   1.981   9.220
12258SOL     OW36799   2.435   2.732   8.477
12258SOL    HW136800   2.479   2.821   8.468
12258SOL    HW236801   2.372   2.732   8.554
12259SOL     OW36802   3.222   2.724   8.493
12259SOL    HW136803   3.147   2.724   8.427
12259SOL    HW236804   3.259   2.632   8.502
12260SOL     OW36805   3.071   2.387   7.723
12260SOL    HW136806   3.084   2.303   7.777
12260SOL    HW236807   3.042   2.461   7.783
12261SOL     OW36808   2.169   2.075   8.679
12261SOL    HW136809   2.146   2.112   8.769
12261SOL    HW236810   2.139   1.980   8.673
12262SOL     OW36811   1.899   3.172   8.730
12262SOL    HW136812   1.952   3.123   8.798
12262SOL    HW236813   1.921   3.270   8.735
12263SOL     OW36814   2.594   2.496   8.512
12263SOL    HW136815   2.653   2.470   8.436
12263SOL    HW236816   2.566   2.592   8.501
12264SOL     OW36817   3.590   2.797   9.302
12264SOL    HW136818   3.544   2.790   9.213
12264SOL    HW236819   3.528   2.841   9.368
12265SOL     OW36820   2.169   1.925   8.066
12265SOL    HW136821   2.158   2.019   8.099
12265SOL    HW236822   2.164   1.862   8.143
12266SOL     OW36823   3.484   2.229   7.822
12266SOL    HW136824   3.486   2.153   7.886
12266SOL    HW236825   3.436   2.306   7.862
12267SOL     OW36826   2.885   2.628   8.414
12267SOL    HW136827   2.900   2.649   8.510
12267SOL    HW236828   2.855   2.533   8.405
12268SOL     OW36829   2.842   3.435   9.148
12268SOL    HW136830   2.822   3.479   9.060
12268SOL    HW236831   2.881   3.344   9.132
12269SOL     OW36832   3.721   3.380   9.053
12269SOL    HW136833   3.735   3.407   8.958
12269SOL    HW236834   3.804   3.402   9.106
12270SOL     OW36835   2.212   2.760   9.252
12270SOL    HW136836   2.288   2.804   9.300
12270SOL    HW236837   2.247   2.713   9.170
12271SOL     OW36838   3.402   2.136   7.573
12271SOL    HW136839   3.341   2.061   7.596
12271SOL    HW236840   3.424   2.188   7.656
12272SOL     OW36841   3.165   2.700   7.490
12272SOL    HW136842   3.199   2.607   7.505
12272SOL    HW236843   3.183   2.727   7.395
12273SOL     OW36844   2.930   3.195   8.297
12273SOL    HW136845   2.937   3.111   8.242
12273SOL    HW236846   2.992   3.264   8.261
12274SOL     OW36847   2.181   2.672   8.397
12274SOL    HW136848   2.274   2.708   8.402
12274SOL    HW236849   2.175   2.587   8.449
12275SOL     OW36850   2.201   2.371   8.454
12275SOL    HW136851   2.149   2.288   8.437
12275SOL    HW236852   2.278   2.376   8.390
12276SOL     OW36853   3.000   2.242   9.126
12276SOL    HW136854   2.955   2.305   9.190
12276SOL    HW236855   3.093   2.273   9.109
12277SOL     OW36856   3.022   2.069   8.925
12277SOL    HW136857   3.022   2.133   9.002
12277SOL    HW236858   3.050   2.117   8.842
12278SOL     OW36859   1.870   3.188   7.648
12278SOL    HW136860   1.777   3.209   7.617
12278SOL    HW236861   1.880   3.089   7.661
12279SOL     OW36862   1.950   3.663   8.375
12279SOL    HW136863   1.908   3.577   8.348
12279SOL    HW236864   2.044   3.666   8.341
12280SOL     OW36865   2.366   3.430   8.358
12280SOL    HW136866   2.432   3.504   8.367
12280SOL    HW236867   2.410   3.351   8.316
12281SOL     OW36868   2.864   2.658   8.686
12281SOL    HW136869   2.905   2.626   8.772
12281SOL    HW236870   2.768   2.631   8.683
12282SOL     OW36871   1.902   2.406   8.562
12282SOL    HW136872   1.987   2.373   8.521
12282SOL    HW236873   1.915   2.421   8.660
12283SOL     OW36874   2.051   2.382   9.170
12283SOL    HW136875   2.110   2.342   9.100
12283SOL    HW236876   1.993   2.453   9.129
12284SOL     OW36877   3.231   2.812   9.108
12284SOL    HW136878   3.270   2.901   9.128
12284SOL    HW236879   3.241   2.792   9.011
12285SOL     OW36880   2.677   2.434   7.773
12285SOL    HW136881   2.684   2.345   7.727
12285SOL    HW236882   2.583   2.468   7.765
12286SOL     OW36883   3.519   2.466   8.654
12286SOL    HW136884   3.481   2.397   8.716
12286SOL    HW236885   3.601   2.430   8.610
12287SOL     OW36886   2.114   3.426   9.192
12287SOL    HW136887   2.084   3.483   9.268
12287SOL    HW236888   2.107   3.329   9.218
12288SOL     OW36889   2.533   2.326   8.717
12288SOL    HW136890   2.499   2.237   8.687
12288SOL    HW236891   2.559   2.380   8.637
12289SOL     OW36892   2.792   3.540   8.913
12289SOL    HW136893   2.768   3.522   8.818
12289SOL    HW236894   2.822   3.634   8.923
12290SOL     OW36895   2.335   2.362   7.639
12290SOL    HW136896   2.396   2.442   7.643
12290SOL    HW236897   2.240   2.393   7.646
12291SOL     OW36898   2.021   2.999   8.914
12291SOL    HW136899   2.043   2.938   8.990
12291SOL    HW236900   2.031   2.950   8.828
12292SOL     OW36901   3.209   2.921   8.682
12292SOL    HW136902   3.233   2.858   8.608
12292SOL    HW236903   3.119   2.961   8.664
12293SOL     OW36904   3.164   2.717   7.757
12293SOL    HW136905   3.078   2.686   7.799
12293SOL    HW236906   3.160   2.703   7.658
12294SOL     OW36907   3.621   3.609   8.602
12294SOL    HW136908   3.682   3.639   8.529
12294SOL    HW236909   3.583   3.520   8.580
12295SOL     OW36910   3.114   3.593   8.576
12295SOL    HW136911   3.198   3.598   8.522
12295SOL    HW236912   3.091   3.497   8.594
12296SOL     OW36913   1.945   3.120   8.470
12296SOL    HW136914   1.940   3.119   8.570
12296SOL    HW236915   1.862   3.079   8.432
12297SOL     OW36916   2.550   3.524   9.164
12297SOL    HW136917   2.494   3.605   9.173
12297SOL    HW236918   2.602   3.528   9.078
12298SOL     OW36919   3.588   1.997   7.971
12298SOL    HW136920   3.661   1.980   7.904
12298SOL    HW236921   3.557   1.910   8.009
12299SOL     OW36922   3.250   3.435   7.925
12299SOL    HW136923   3.317   3.447   7.851
12299SOL    HW236924   3.210   3.524   7.948
12300SOL     OW36925   1.992   3.656   9.299
12300SOL    HW136926   1.951   3.582   9.352
12300SOL    HW236927   2.056   3.707   9.357
12301SOL     OW36928   3.142   2.789   8.120
12301SOL    HW136929   3.202   2.708   8.122
12301SOL    HW236930   3.182   2.858   8.060
12302SOL     OW36931   2.692   3.135   8.870
12302SOL    HW136932   2.687   3.168   8.965
12302SOL    HW236933   2.606   3.154   8.824
12303SOL     OW36934   2.534   3.478   7.602
12303SOL    HW136935   2.543   3.488   7.503
12303SOL    HW236936   2.494   3.389   7.623
12304SOL     OW36937   3.512   3.582   8.842
12304SOL    HW136938   3.565   3.592   8.758
12304SOL    HW236939   3.485   3.672   8.876
12305SOL     OW36940   3.703   2.037   8.411
12305SOL    HW136941   3.742   1.952   8.375
12305SOL    HW236942   3.605   2.039   8.392
12306SOL     OW36943   2.125   2.188   8.168
12306SOL    HW136944   2.046   2.239   8.134
12306SOL    HW236945   2.116   2.173   8.266
12307SOL     OW36946   3.056   3.474   7.479
12307SOL    HW136947   3.062   3.381   7.516
12307SOL    HW236948   2.997   3.474   7.399
12308SOL     OW36949   2.684   2.864   8.820
12308SOL    HW136950   2.724   2.863   8.728
12308SOL    HW236951   2.694   2.956   8.860
12309SOL     OW36952   2.778   2.772   7.739
12309SOL    HW136953   2.841   2.810   7.671
12309SOL    HW236954   2.818   2.689   7.778
12310SOL     OW36955   3.366   3.469   7.492
12310SOL    HW136956   3.274   3.506   7.499
12310SOL    HW236957   3.404   3.489   7.402
12311SOL     OW36958   2.234   3.150   8.938
12311SOL    HW136959   2.221   3.243   8.904
12311SOL    HW236960   2.150   3.098   8.925
12312SOL     OW36961   3.476   3.154   8.737
12312SOL    HW136962   3.536   3.157   8.817
12312SOL    HW236963   3.401   3.218   8.750
12313SOL     OW36964   2.901   2.960   8.144
12313SOL    HW136965   2.831   2.913   8.198
12313SOL    HW236966   2.960   2.892   8.101
12314SOL     OW36967   2.876   2.098   8.419
12314SOL    HW136968   2.868   2.062   8.326
12314SOL    HW236969   2.874   2.022   8.484
12315SOL     OW36970   2.452   3.349   7.939
12315SOL    HW136971   2.494   3.291   7.869
12315SOL    HW236972   2.408   3.428   7.895
12316SOL     OW36973   3.571   2.247   8.829
12316SOL    HW136974   3.644   2.316   8.833
12316SOL    HW236975   3.599   2.172   8.770
12317SOL     OW36976   2.117   3.210   7.738
12317SOL    HW136977   2.021   3.211   7.711
12317SOL    HW236978   2.129   3.263   7.822
12318SOL     OW36979   1.967   2.875   9.174
12318SOL    HW136980   1.890   2.842   9.228
12318SOL    HW236981   2.052   2.845   9.216
12319SOL     OW36982   2.534   2.065   8.937
12319SOL    HW136983   2.624   2.049   8.897
12319SOL    HW236984   2.542   2.070   9.036
12320SOL     OW36985   1.937   2.207   7.481
12320SOL    HW136986   1.845   2.179   7.452
12320SOL    HW236987   1.968   2.284   7.425
12321SOL     OW36988   3.302   2.718   8.846
12321SOL    HW136989   3.245   2.770   8.783
12321SOL    HW236990   3.398   2.730   8.822
12322SOL     OW36991   1.934   2.028   7.766
12322SOL    HW136992   1.917   2.111   7.712
12322SOL    HW236993   2.024   1.991   7.744
12323SOL     OW36994   3.045   3.197   7.567
12323SOL    HW136995   2.946   3.186   7.569
12323SOL    HW236996   3.079   3.212   7.660
12324SOL     OW36997   2.475   2.704   8.879
12324SOL    HW136998   2.531   2.785   8.862
12324SOL    HW236999   2.534   2.624   8.882
12325SOL     OW37000   3.355   3.629   8.407
12325SOL    HW137001   3.388   3.693   8.338
12325SOL    HW237002   3.421   3.623   8.482
12326SOL     OW37003   2.578   2.427   9.156
12326SOL    HW137004   2.597   2.492   9.230
12326SOL    HW237005   2.638   2.347   9.165
12327SOL     OW37006   3.312   3.082   9.081
12327SOL    HW137007   3.303   3.072   9.180
12327SOL    HW237008   3.408   3.075   9.055
12328SOL     OW37009   2.252   3.603   9.008
12328SOL    HW137010   2.161   3.644   9.006
12328SOL    HW237011   2.245   3.509   9.040
12329SOL     OW37012   3.536   2.745   8.702
12329SOL    HW137013   3.509   2.656   8.665
12329SOL    HW237014   3.537   2.813   8.629
12330SOL     OW37015   3.087   2.187   7.897
12330SOL    HW137016   3.152   2.113   7.886
12330SOL    HW237017   3.107   2.237   7.981
12331SOL     OW37018   2.456   2.607   8.100
12331SOL    HW137019   2.506   2.692   8.081
12331SOL    HW237020   2.368   2.609   8.052
12332SOL     OW37021   3.639   2.204   9.090
12332SOL    HW137022   3.622   2.235   8.996
12332SOL    HW237023   3.555   2.167   9.128
12333SOL     OW37024   3.592   2.796   8.965
12333SOL    HW137025   3.630   2.887   8.980
12333SOL    HW237026   3.584   2.779   8.866
12334SOL     OW37027   2.721   3.236   7.464
12334SOL    HW137028   2.675   3.251   7.552
12334SOL    HW237029   2.765   3.321   7.434
12335SOL     OW37030   2.523   3.652   8.401
12335SOL    HW137031   2.477   3.740   8.388
12335SOL    HW237032   2.622   3.664   8.394
12336SOL     OW37033   2.721   2.818   8.309
12336SOL    HW137034   2.775   2.749   8.357
12336SOL    HW237035   2.689   2.887   8.375
12337SOL     OW37036   2.945   2.846   7.535
12337SOL    HW137037   2.922   2.899   7.453
12337SOL    HW237038   3.026   2.790   7.516
12338SOL     OW37039   3.723   3.431   8.299
12338SOL    HW137040   3.652   3.419   8.229
12338SOL    HW237041   3.724   3.352   8.359
12339SOL     OW37042   2.083   3.176   9.292
12339SOL    HW137043   2.018   3.103   9.271
12339SOL    HW237044   2.087   3.190   9.390
12340SOL     OW37045   1.941   3.102   8.101
12340SOL    HW137046   1.940   3.055   8.189
12340SOL    HW237047   2.023   3.074   8.050
12341SOL     OW37048   2.534   3.253   9.072
12341SOL    HW137049   2.456   3.203   9.110
12341SOL    HW237050   2.531   3.348   9.103
12342SOL     OW37051   3.686   2.054   8.675
12342SOL    HW137052   3.682   1.964   8.719
12342SOL    HW237053   3.689   2.043   8.576
12343SOL     OW37054   2.290   2.286   7.968
12343SOL    HW137055   2.320   2.214   7.906
12343SOL    HW237056   2.251   2.246   8.051
12344SOL     OW37057   3.567   3.349   8.552
12344SOL    HW137058   3.474   3.324   8.525
12344SOL    HW237059   3.593   3.299   8.634
12345SOL     OW37060   2.179   2.409   8.728
12345SOL    HW137061   2.217   2.350   8.800
12345SOL    HW237062   2.219   2.383   8.640
12346SOL     OW37063   2.674   3.448   8.135
12346SOL    HW137064   2.706   3.458   8.041
12346SOL    HW237065   2.595   3.386   8.137
12347SOL     OW37066   3.286   2.076   8.560
12347SOL    HW137067   3.338   2.011   8.615
12347SOL    HW237068   3.237   2.139   8.621
12348SOL     OW37069   2.863   1.896   8.602
12348SOL    HW137070   2.800   1.824   8.571
12348SOL    HW237071   2.956   1.860   8.602
12349SOL     OW37072   2.632   3.192   7.749
12349SOL    HW137073   2.586   3.105   7.766
12349SOL    HW237074   2.723   3.189   7.790
12350SOL     OW37075   2.480   3.429   8.732
12350SOL    HW137076   2.475   3.511   8.789
12350SOL    HW237077   2.569   3.426   8.687
12351SOL     OW37078   3.214   1.914   7.616
12351SOL    HW137079   3.249   1.873   7.532
12351SOL    HW237080   3.124   1.876   7.636
12352SOL     OW37081   3.162   2.315   8.139
12352SOL    HW137082   3.103   2.395   8.143
12352SOL    HW237083   3.177   2.280   8.232
12353SOL     OW37084   3.455   2.083   8.330
12353SOL    HW137085   3.371   2.082   8.384
12353SOL    HW237086   3.457   2.166   8.274
12354SOL     OW37087   1.901   2.939   7.748
12354SOL    HW137088   2.000   2.928   7.739
12354SOL    HW237089   1.861   2.853   7.780
12355SOL     OW37090   2.737   3.508   7.785
12355SOL    HW137091   2.660   3.473   7.731
12355SOL    HW237092   2.705   3.579   7.847
12356SOL     OW37093   2.092   2.490   9.423
12356SOL    HW137094   1.999   2.488   9.460
12356SOL    HW237095   2.093   2.451   9.331
12357SOL     OW37096   2.087   2.137  10.306
12357SOL    HW137097   2.122   2.120  10.398
12357SOL    HW237098   1.999   2.092  10.294
12358SOL     OW37099   1.881   2.230   9.957
12358SOL    HW137100   1.799   2.273   9.996
12358SOL    HW237101   1.853   2.157   9.894
12359SOL     OW37102   2.431   3.137  10.475
12359SOL    HW137103   2.338   3.130  10.438
12359SOL    HW237104   2.442   3.226  10.519
12360SOL     OW37105   3.417   3.373  10.013
12360SOL    HW137106   3.360   3.357  10.094
12360SOL    HW237107   3.358   3.383   9.933
12361SOL     OW37108   2.997   2.565  10.027
12361SOL    HW137109   3.054   2.643  10.002
12361SOL    HW237110   2.937   2.591  10.103
12362SOL     OW37111   3.617   2.469   9.541
12362SOL    HW137112   3.605   2.456   9.442
12362SOL    HW237113   3.587   2.388   9.590
12363SOL     OW37114   2.630   3.006  10.333
12363SOL    HW137115   2.552   3.023  10.393
12363SOL    HW237116   2.664   3.093  10.297
12364SOL     OW37117   2.712   2.660  11.133
12364SOL    HW137118   2.708   2.736  11.198
12364SOL    HW237119   2.734   2.696  11.042
12365SOL     OW37120   2.547   2.874   9.975
12365SOL    HW137121   2.616   2.858  10.045
12365SOL    HW237122   2.474   2.931  10.013
12366SOL     OW37123   2.548   3.023  11.113
12366SOL    HW137124   2.608   3.102  11.127
12366SOL    HW237125   2.462   3.054  11.072
12367SOL     OW37126   2.197   3.297  10.371
12367SOL    HW137127   2.119   3.266  10.318
12367SOL    HW237128   2.255   3.355  10.314
12368SOL     OW37129   3.322   3.367  10.649
12368SOL    HW137130   3.346   3.461  10.675
12368SOL    HW237131   3.306   3.313  10.731
12369SOL     OW37132   2.300   2.254  10.809
12369SOL    HW137133   2.382   2.198  10.818
12369SOL    HW237134   2.219   2.196  10.813
12370SOL     OW37135   3.465   2.309  10.047
12370SOL    HW137136   3.391   2.355   9.997
12370SOL    HW237137   3.516   2.377  10.100
12371SOL     OW37138   2.093   3.575   9.793
12371SOL    HW137139   2.127   3.652   9.847
12371SOL    HW237140   2.137   3.575   9.703
12372SOL     OW37141   2.989   3.203  11.000
12372SOL    HW137142   3.036   3.203  11.088
12372SOL    HW237143   2.941   3.116  10.989
12373SOL     OW37144   2.092   3.296   9.848
12373SOL    HW137145   2.066   3.392   9.848
12373SOL    HW237146   2.021   3.242   9.893
12374SOL     OW37147   2.102   2.953  10.196
12374SOL    HW137148   2.116   2.869  10.248
12374SOL    HW237149   2.047   3.017  10.251
12375SOL     OW37150   2.482   3.648  10.749
12375SOL    HW137151   2.390   3.631  10.784
12375SOL    HW237152   2.510   3.740  10.775
12376SOL     OW37153   2.468   2.826   9.433
12376SOL    HW137154   2.475   2.910   9.379
12376SOL    HW237155   2.514   2.839   9.521
12377SOL     OW37156   3.456   1.976  10.790
12377SOL    HW137157   3.438   2.043  10.718
12377SOL    HW237158   3.453   2.022  10.879
12378SOL     OW37159   1.984   2.505   9.873
12378SOL    HW137160   1.939   2.417   9.890
12378SOL    HW237161   1.983   2.559   9.957
12379SOL     OW37162   3.704   3.629   9.669
12379SOL    HW137163   3.758   3.600   9.749
12379SOL    HW237164   3.734   3.719   9.640
12380SOL     OW37165   1.889   3.458   9.427
12380SOL    HW137166   1.870   3.362   9.448
12380SOL    HW237167   1.856   3.516   9.502
12381SOL     OW37168   3.551   2.784   9.922
12381SOL    HW137169   3.646   2.755   9.930
12381SOL    HW237170   3.543   2.849   9.847
12382SOL     OW37171   3.503   2.970   9.742
12382SOL    HW137172   3.589   2.972   9.690
12382SOL    HW237173   3.517   3.017   9.830
12383SOL     OW37174   1.975   2.599  10.907
12383SOL    HW137175   2.063   2.586  10.952
12383SOL    HW237176   1.962   2.696  10.885
12384SOL     OW37177   2.475   3.227  10.036
12384SOL    HW137178   2.426   3.140  10.045
12384SOL    HW237179   2.452   3.270   9.949
12385SOL     OW37180   3.155   3.090  10.733
12385SOL    HW137181   3.192   3.017  10.675
12385SOL    HW237182   3.207   3.095  10.818
12386SOL     OW37183   2.671   1.866   9.812
12386SOL    HW137184   2.711   1.957   9.803
12386SOL    HW237185   2.571   1.874   9.818
12387SOL     OW37186   2.059   2.838  10.574
12387SOL    HW137187   2.148   2.793  10.560
12387SOL    HW237188   1.986   2.773  10.555
12388SOL     OW37189   3.387   2.861   9.500
12388SOL    HW137190   3.324   2.785   9.513
12388SOL    HW237191   3.435   2.879   9.586
12389SOL     OW37192   3.049   3.654  10.926
12389SOL    HW137193   3.073   3.714  10.850
12389SOL    HW237194   3.056   3.559  10.896
12390SOL     OW37195   2.179   2.113  11.111
12390SOL    HW137196   2.250   2.184  11.117
12390SOL    HW237197   2.091   2.152  11.139
12391SOL     OW37198   3.328   3.279  10.263
12391SOL    HW137199   3.269   3.285  10.343
12391SOL    HW237200   3.313   3.191  10.217
12392SOL     OW37201   3.529   3.576   9.882
12392SOL    HW137202   3.488   3.553   9.794
12392SOL    HW237203   3.511   3.502   9.947
12393SOL     OW37204   2.460   2.591   9.580
12393SOL    HW137205   2.484   2.660   9.512
12393SOL    HW237206   2.382   2.624   9.634
12394SOL     OW37207   3.143   2.207  10.254
12394SOL    HW137208   3.057   2.157  10.241
12394SOL    HW237209   3.205   2.153  10.310
12395SOL     OW37210   3.438   3.524   9.617
12395SOL    HW137211   3.527   3.570   9.620
12395SOL    HW237212   3.417   3.500   9.522
12396SOL     OW37213   2.669   2.467  10.775
12396SOL    HW137214   2.622   2.464  10.864
12396SOL    HW237215   2.618   2.412  10.709
12397SOL     OW37216   3.256   2.331  10.984
12397SOL    HW137217   3.236   2.374  11.072
12397SOL    HW237218   3.334   2.269  10.993
12398SOL     OW37219   2.835   2.752  10.882
12398SOL    HW137220   2.881   2.668  10.853
12398SOL    HW237221   2.779   2.786  10.807
12399SOL     OW37222   2.853   2.272  10.552
12399SOL    HW137223   2.776   2.306  10.606
12399SOL    HW237224   2.819   2.221  10.473
12400SOL     OW37225   2.903   2.563   9.739
12400SOL    HW137226   2.929   2.559   9.835
12400SOL    HW237227   2.818   2.512   9.725
12401SOL     OW37228   1.938   2.673  10.099
12401SOL    HW137229   2.037   2.661  10.108
12401SOL    HW237230   1.914   2.768  10.120
12402SOL     OW37231   1.992   3.683  10.881
12402SOL    HW137232   1.982   3.668  10.980
12402SOL    HW237233   1.906   3.719  10.845
12403SOL     OW37234   2.727   2.210   9.505
12403SOL    HW137235   2.786   2.273   9.456
12403SOL    HW237236   2.746   2.116   9.476
12404SOL     OW37237   3.581   2.447  11.141
12404SOL    HW137238   3.555   2.536  11.105
12404SOL    HW237239   3.579   2.379  11.068
12405SOL     OW37240   3.224   3.006   9.855
12405SOL    HW137241   3.307   2.977   9.807
12405SOL    HW237242   3.175   3.073   9.799
12406SOL     OW37243   2.412   2.058  10.195
12406SOL    HW137244   2.407   2.053  10.295
12406SOL    HW237245   2.414   2.154  10.166
12407SOL     OW37246   2.870   3.318   9.787
12407SOL    HW137247   2.824   3.390   9.735
12407SOL    HW237248   2.866   3.338   9.885
12408SOL     OW37249   2.213   3.663  10.163
12408SOL    HW137250   2.263   3.577  10.169
12408SOL    HW237251   2.278   3.740  10.160
12409SOL     OW37252   3.657   2.928  10.183
12409SOL    HW137253   3.595   2.913  10.107
12409SOL    HW237254   3.605   2.939  10.268
12410SOL     OW37255   3.089   3.412  10.816
12410SOL    HW137256   3.095   3.335  10.880
12410SOL    HW237257   3.037   3.386  10.736
12411SOL     OW37258   2.183   2.805   9.552
12411SOL    HW137259   2.265   2.844   9.510
12411SOL    HW237260   2.156   2.723   9.503
12412SOL     OW37261   3.320   2.597  10.038
12412SOL    HW137262   3.315   2.532  10.113
12412SOL    HW237263   3.400   2.656  10.051
12413SOL     OW37264   2.323   3.128  11.037
12413SOL    HW137265   2.273   3.129  10.951
12413SOL    HW237266   2.260   3.110  11.113
12414SOL     OW37267   2.973   3.638   9.547
12414SOL    HW137268   2.913   3.576   9.597
12414SOL    HW237269   3.004   3.594   9.462
12415SOL     OW37270   2.064   2.147  10.808
12415SOL    HW137271   1.984   2.207  10.795
12415SOL    HW237272   2.054   2.098  10.894
12416SOL     OW37273   3.494   3.239   9.391
12416SOL    HW137274   3.462   3.333   9.381
12416SOL    HW237275   3.418   3.176   9.379
12417SOL     OW37276   2.326   3.605   9.633
12417SOL    HW137277   2.359   3.644   9.719
12417SOL    HW237278   2.402   3.598   9.568
12418SOL     OW37279   3.262   1.969   9.736
12418SOL    HW137280   3.238   1.932   9.646
12418SOL    HW237281   3.361   1.985   9.740
12419SOL     OW37282   2.111   3.647  10.551
12419SOL    HW137283   2.168   3.582  10.601
12419SOL    HW237284   2.095   3.614  10.458
12420SOL     OW37285   2.802   3.560  10.214
12420SOL    HW137286   2.882   3.503  10.235
12420SOL    HW237287   2.753   3.520  10.137
12421SOL     OW37288   2.244   2.562   9.790
12421SOL    HW137289   2.289   2.472   9.787
12421SOL    HW237290   2.150   2.551   9.823
12422SOL     OW37291   3.409   2.084  11.039
12422SOL    HW137292   3.404   2.121  11.131
12422SOL    HW237293   3.337   2.015  11.027
12423SOL     OW37294   2.476   1.984   9.427
12423SOL    HW137295   2.574   1.962   9.434
12423SOL    HW237296   2.445   1.967   9.334
12424SOL     OW37297   2.643   2.126  11.059
12424SOL    HW137298   2.710   2.065  11.102
12424SOL    HW237299   2.570   2.145  11.124
12425SOL     OW37300   2.750   3.376  10.505
12425SOL    HW137301   2.727   3.351  10.411
12425SOL    HW237302   2.811   3.307  10.544
12426SOL     OW37303   3.213   2.452  10.743
12426SOL    HW137304   3.241   2.409  10.828
12426SOL    HW237305   3.238   2.548  10.744
12427SOL     OW37306   2.665   3.264  10.234
12427SOL    HW137307   2.755   3.278  10.192
12427SOL    HW237308   2.594   3.266  10.163
12428SOL     OW37309   2.784   2.365  10.209
12428SOL    HW137310   2.759   2.356  10.113
12428SOL    HW237311   2.832   2.283  10.240
12429SOL     OW37312   2.401   1.926   9.822
12429SOL    HW137313   2.320   1.927   9.880
12429SOL    HW237314   2.404   2.009   9.767
12430SOL     OW37315   3.296   3.050   9.351
12430SOL    HW137316   3.328   2.974   9.408
12430SOL    HW237317   3.204   3.077   9.381
12431SOL     OW37318   2.159   1.897   9.481
12431SOL    HW137319   2.208   1.981   9.460
12431SOL    HW237320   2.221   1.832   9.526
12432SOL     OW37321   2.797   2.098   9.790
12432SOL    HW137322   2.749   2.139   9.712
12432SOL    HW237323   2.896   2.096   9.771
12433SOL     OW37324   2.938   2.545  10.774
12433SOL    HW137325   2.858   2.484  10.777
12433SOL    HW237326   3.019   2.492  10.750
12434SOL     OW37327   3.089   3.432  10.103
12434SOL    HW137328   3.110   3.506  10.038
12434SOL    HW237329   3.157   3.432  10.176
12435SOL     OW37330   2.321   3.014  10.051
12435SOL    HW137331   2.250   2.987  10.116
12435SOL    HW237332   2.295   2.986   9.958
12436SOL     OW37333   3.133   3.659   9.901
12436SOL    HW137334   3.177   3.723   9.837
12436SOL    HW237335   3.083   3.711   9.971
12437SOL     OW37336   2.894   2.411   9.326
12437SOL    HW137337   2.853   2.493   9.287
12437SOL    HW237338   2.958   2.437   9.399
12438SOL     OW37339   1.940   2.418  10.696
12438SOL    HW137340   2.032   2.417  10.655
12438SOL    HW237341   1.934   2.492  10.763
12439SOL     OW37342   2.423   2.084  10.457
12439SOL    HW137343   2.461   2.000  10.494
12439SOL    HW237344   2.335   2.103  10.501
12440SOL     OW37345   2.728   2.316   9.952
12440SOL    HW137346   2.696   2.388   9.890
12440SOL    HW237347   2.752   2.235   9.899
12441SOL     OW37348   2.879   1.901  10.063
12441SOL    HW137349   2.807   1.906   9.994
12441SOL    HW237350   2.855   1.832  10.132
12442SOL     OW37351   3.291   3.035  10.177
12442SOL    HW137352   3.236   2.951  10.170
12442SOL    HW237353   3.317   3.064  10.085
12443SOL     OW37354   3.328   2.452  10.302
12443SOL    HW137355   3.298   2.357  10.309
12443SOL    HW237356   3.401   2.468  10.368
12444SOL     OW37357   3.719   2.695   9.687
12444SOL    HW137358   3.761   2.631   9.751
12444SOL    HW237359   3.681   2.644   9.609
12445SOL     OW37360   2.350   3.247   9.484
12445SOL    HW137361   2.263   3.232   9.531
12445SOL    HW237362   2.333   3.273   9.389
12446SOL     OW37363   3.526   3.142   9.967
12446SOL    HW137364   3.625   3.150   9.981
12446SOL    HW237365   3.481   3.226   9.998
12447SOL     OW37366   3.252   2.437   9.388
12447SOL    HW137367   3.198   2.416   9.469
12447SOL    HW237368   3.343   2.396   9.397
12448SOL     OW37369   2.389   2.118   9.638
12448SOL    HW137370   2.416   2.059   9.563
12448SOL    HW237371   2.389   2.213   9.607
12449SOL     OW37372   3.616   3.085  10.898
12449SOL    HW137373   3.707   3.046  10.885
12449SOL    HW237374   3.624   3.181  10.922
12450SOL     OW37375   2.926   3.209  10.650
12450SOL    HW137376   2.846   3.186  10.705
12450SOL    HW237377   3.009   3.183  10.699
12451SOL     OW37378   3.454   3.491  10.935
12451SOL    HW137379   3.481   3.525  10.845
12451SOL    HW237380   3.533   3.453  10.981
12452SOL     OW37381   2.973   3.057  10.410
12452SOL    HW137382   2.933   3.101  10.491
12452SOL    HW237383   2.932   3.094  10.327
12453SOL     OW37384   3.500   2.961  10.389
12453SOL    HW137385   3.505   3.042  10.448
12453SOL    HW237386   3.414   2.963  10.338
12454SOL     OW37387   2.777   1.951  10.712
12454SOL    HW137388   2.802   1.931  10.617
12454SOL    HW237389   2.849   2.007  10.754
12455SOL     OW37390   2.842   2.978  11.029
12455SOL    HW137391   2.743   2.984  11.039
12455SOL    HW237392   2.865   2.898  10.973
12456SOL     OW37393   2.567   2.912   9.678
12456SOL    HW137394   2.553   2.919   9.777
12456SOL    HW237395   2.651   2.861   9.660
12457SOL     OW37396   2.272   2.675  10.561
12457SOL    HW137397   2.358   2.687  10.611
12457SOL    HW237398   2.230   2.588  10.588
12458SOL     OW37399   3.136   2.248  10.572
12458SOL    HW137400   3.157   2.322  10.636
12458SOL    HW237401   3.047   2.265  10.529
12459SOL     OW37402   1.926   3.426  10.641
12459SOL    HW137403   1.880   3.508  10.607
12459SOL    HW237404   2.024   3.445  10.650
12460SOL     OW37405   2.229   2.962   9.811
12460SOL    HW137406   2.222   3.045   9.755
12460SOL    HW237407   2.233   2.882   9.751
12461SOL     OW37408   2.428   2.399  10.175
12461SOL    HW137409   2.440   2.465  10.101
12461SOL    HW237410   2.474   2.433  10.258
12462SOL     OW37411   3.114   3.210   9.698
12462SOL    HW137412   3.164   3.287   9.738
12462SOL    HW237413   3.019   3.212   9.730
12463SOL     OW37414   3.134   3.307  10.452
12463SOL    HW137415   3.181   3.320  10.539
12463SOL    HW237416   3.068   3.233  10.461
12464SOL     OW37417   3.444   2.501   9.782
12464SOL    HW137418   3.413   2.562   9.855
12464SOL    HW237419   3.494   2.553   9.713
12465SOL     OW37420   2.216   3.372  10.639
12465SOL    HW137421   2.195   3.328  10.552
12465SOL    HW237422   2.313   3.398  10.642
12466SOL     OW37423   2.264   2.613  10.908
12466SOL    HW137424   2.332   2.668  10.861
12466SOL    HW237425   2.304   2.525  10.935
12467SOL     OW37426   3.449   2.641  10.980
12467SOL    HW137427   3.357   2.679  10.975
12467SOL    HW237428   3.509   2.688  10.915
12468SOL     OW37429   2.875   1.967  11.080
12468SOL    HW137430   2.881   2.052  11.028
12468SOL    HW237431   2.907   1.891  11.023
12469SOL     OW37432   2.366   1.912  11.050
12469SOL    HW137433   2.324   1.855  10.980
12469SOL    HW237434   2.300   1.981  11.082
12470SOL     OW37435   2.435   2.732  10.339
12470SOL    HW137436   2.479   2.821  10.330
12470SOL    HW237437   2.372   2.732  10.416
12471SOL     OW37438   3.222   2.724  10.355
12471SOL    HW137439   3.147   2.724  10.289
12471SOL    HW237440   3.259   2.632  10.364
12472SOL     OW37441   3.071   2.387   9.585
12472SOL    HW137442   3.084   2.303   9.639
12472SOL    HW237443   3.042   2.461   9.645
12473SOL     OW37444   2.169   2.075  10.541
12473SOL    HW137445   2.146   2.112  10.631
12473SOL    HW237446   2.139   1.980  10.535
12474SOL     OW37447   1.899   3.172  10.592
12474SOL    HW137448   1.952   3.123  10.660
12474SOL    HW237449   1.921   3.270  10.597
12475SOL     OW37450   2.594   2.496  10.374
12475SOL    HW137451   2.653   2.470  10.298
12475SOL    HW237452   2.566   2.592  10.363
12476SOL     OW37453   3.590   2.797  11.164
12476SOL    HW137454   3.544   2.790  11.075
12476SOL    HW237455   3.528   2.841  11.230
12477SOL     OW37456   2.169   1.925   9.928
12477SOL    HW137457   2.158   2.019   9.961
12477SOL    HW237458   2.164   1.862  10.005
12478SOL     OW37459   3.484   2.229   9.684
12478SOL    HW137460   3.486   2.153   9.748
12478SOL    HW237461   3.436   2.306   9.724
12479SOL     OW37462   2.885   2.628  10.276
12479SOL    HW137463   2.900   2.649  10.372
12479SOL    HW237464   2.855   2.533  10.267
12480SOL     OW37465   2.842   3.435  11.010
12480SOL    HW137466   2.822   3.479  10.922
12480SOL    HW237467   2.881   3.344  10.994
12481SOL     OW37468   3.721   3.380  10.915
12481SOL    HW137469   3.735   3.407  10.820
12481SOL    HW237470   3.804   3.402  10.968
12482SOL     OW37471   2.212   2.760  11.114
12482SOL    HW137472   2.288   2.804  11.162
12482SOL    HW237473   2.247   2.713  11.032
12483SOL     OW37474   3.402   2.136   9.435
12483SOL    HW137475   3.341   2.061   9.458
12483SOL    HW237476   3.424   2.188   9.518
12484SOL     OW37477   3.165   2.700   9.352
12484SOL    HW137478   3.199   2.607   9.367
12484SOL    HW237479   3.183   2.727   9.257
12485SOL     OW37480   2.930   3.195  10.159
12485SOL    HW137481   2.937   3.111  10.104
12485SOL    HW237482   2.992   3.264  10.123
12486SOL     OW37483   2.181   2.672  10.259
12486SOL    HW137484   2.274   2.708  10.264
12486SOL    HW237485   2.175   2.587  10.311
12487SOL     OW37486   2.201   2.371  10.316
12487SOL    HW137487   2.149   2.288  10.299
12487SOL    HW237488   2.278   2.376  10.252
12488SOL     OW37489   3.000   2.242  10.988
12488SOL    HW137490   2.955   2.305  11.052
12488SOL    HW237491   3.093   2.273  10.971
12489SOL     OW37492   3.022   2.069  10.787
12489SOL    HW137493   3.022   2.133  10.864
12489SOL    HW237494   3.050   2.117  10.704
12490SOL     OW37495   1.870   3.188   9.510
12490SOL    HW137496   1.777   3.209   9.479
12490SOL    HW237497   1.880   3.089   9.523
12491SOL     OW37498   1.950   3.663  10.237
12491SOL    HW137499   1.908   3.577  10.210
12491SOL    HW237500   2.044   3.666  10.203
12492SOL     OW37501   2.366   3.430  10.220
12492SOL    HW137502   2.432   3.504  10.229
12492SOL    HW237503   2.410   3.351  10.178
12493SOL     OW37504   2.864   2.658  10.548
12493SOL    HW137505   2.905   2.626  10.634
12493SOL    HW237506   2.768   2.631  10.545
12494SOL     OW37507   1.902   2.406  10.424
12494SOL    HW137508   1.987   2.373  10.383
12494SOL    HW237509   1.915   2.421  10.522
12495SOL     OW37510   2.051   2.382  11.032
12495SOL    HW137511   2.110   2.342  10.962
12495SOL    HW237512   1.993   2.453  10.991
12496SOL     OW37513   3.231   2.812  10.970
12496SOL    HW137514   3.270   2.901  10.990
12496SOL    HW237515   3.241   2.792  10.873
12497SOL     OW37516   2.677   2.434   9.635
12497SOL    HW137517   2.684   2.345   9.589
12497SOL    HW237518   2.583   2.468   9.627
12498SOL     OW37519   3.519   2.466  10.516
12498SOL    HW137520   3.481   2.397  10.578
12498SOL    HW237521   3.601   2.430  10.472
12499SOL     OW37522   2.114   3.426  11.054
12499SOL    HW137523   2.084   3.483  11.130
12499SOL    HW237524   2.107   3.329  11.080
12500SOL     OW37525   2.533   2.326  10.579
12500SOL    HW137526   2.499   2.237  10.549
12500SOL    HW237527   2.559   2.380  10.499
12501SOL     OW37528   2.792   3.540  10.775
12501SOL    HW137529   2.768   3.522  10.680
12501SOL    HW237530   2.822   3.634  10.785
12502SOL     OW37531   2.335   2.362   9.501
12502SOL    HW137532   2.396   2.442   9.505
12502SOL    HW237533   2.240   2.393   9.508
12503SOL     OW37534   2.021   2.999  10.776
12503SOL    HW137535   2.043   2.938  10.852
12503SOL    HW237536   2.031   2.950  10.690
12504SOL     OW37537   3.209   2.921  10.544
12504SOL    HW137538   3.233   2.858  10.470
12504SOL    HW237539   3.119   2.961  10.526
12505SOL     OW37540   3.164   2.717   9.619
12505SOL    HW137541   3.078   2.686   9.661
12505SOL    HW237542   3.160   2.703   9.520
12506SOL     OW37543   3.621   3.609  10.464
12506SOL    HW137544   3.682   3.639  10.391
12506SOL    HW237545   3.583   3.520  10.442
12507SOL     OW37546   3.114   3.593  10.438
12507SOL    HW137547   3.198   3.598  10.384
12507SOL    HW237548   3.091   3.497  10.456
12508SOL     OW37549   1.945   3.120  10.332
12508SOL    HW137550   1.940   3.119  10.432
12508SOL    HW237551   1.862   3.079  10.294
12509SOL     OW37552   2.550   3.524  11.026
12509SOL    HW137553   2.494   3.605  11.035
12509SOL    HW237554   2.602   3.528  10.940
12510SOL     OW37555   3.588   1.997   9.833
12510SOL    HW137556   3.661   1.980   9.766
12510SOL    HW237557   3.557   1.910   9.871
12511SOL     OW37558   3.250   3.435   9.787
12511SOL    HW137559   3.317   3.447   9.713
12511SOL    HW237560   3.210   3.524   9.810
12512SOL     OW37561   1.992   3.656  11.161
12512SOL    HW137562   1.951   3.582  11.214
12512SOL    HW237563   2.056   3.707  11.219
12513SOL     OW37564   3.142   2.789   9.982
12513SOL    HW137565   3.202   2.708   9.984
12513SOL    HW237566   3.182   2.858   9.922
12514SOL     OW37567   2.692   3.135  10.732
12514SOL    HW137568   2.687   3.168  10.827
12514SOL    HW237569   2.606   3.154  10.686
12515SOL     OW37570   2.534   3.478   9.464
12515SOL    HW137571   2.543   3.488   9.365
12515SOL    HW237572   2.494   3.389   9.485
12516SOL     OW37573   3.703   2.037  10.273
12516SOL    HW137574   3.742   1.952  10.237
12516SOL    HW237575   3.605   2.039  10.254
12517SOL     OW37576   2.125   2.188  10.030
12517SOL    HW137577   2.046   2.239   9.996
12517SOL    HW237578   2.116   2.173  10.128
12518SOL     OW37579   3.056   3.474   9.341
12518SOL    HW137580   3.062   3.381   9.378
12518SOL    HW237581   2.997   3.474   9.261
12519SOL     OW37582   2.684   2.864  10.682
12519SOL    HW137583   2.724   2.863  10.590
12519SOL    HW237584   2.694   2.956  10.722
12520SOL     OW37585   2.778   2.772   9.601
12520SOL    HW137586   2.841   2.810   9.533
12520SOL    HW237587   2.818   2.689   9.640
12521SOL     OW37588   3.366   3.469   9.354
12521SOL    HW137589   3.274   3.506   9.361
12521SOL    HW237590   3.404   3.489   9.264
12522SOL     OW37591   2.234   3.150  10.800
12522SOL    HW137592   2.221   3.243  10.766
12522SOL    HW237593   2.150   3.098  10.787
12523SOL     OW37594   3.476   3.154  10.599
12523SOL    HW137595   3.536   3.157  10.679
12523SOL    HW237596   3.401   3.218  10.612
12524SOL     OW37597   2.901   2.960  10.006
12524SOL    HW137598   2.831   2.913  10.060
12524SOL    HW237599   2.960   2.892   9.963
12525SOL     OW37600   2.876   2.098  10.281
12525SOL    HW137601   2.868   2.062  10.188
12525SOL    HW237602   2.874   2.022  10.346
12526SOL     OW37603   2.452   3.349   9.801
12526SOL    HW137604   2.494   3.291   9.731
12526SOL    HW237605   2.408   3.428   9.757
12527SOL     OW37606   3.571   2.247  10.691
12527SOL    HW137607   3.644   2.316  10.695
12527SOL    HW237608   3.599   2.172  10.632
12528SOL     OW37609   2.117   3.210   9.600
12528SOL    HW137610   2.021   3.211   9.573
12528SOL    HW237611   2.129   3.263   9.684
12529SOL     OW37612   1.967   2.875  11.036
12529SOL    HW137613   1.890   2.842  11.090
12529SOL    HW237614   2.052   2.845  11.078
12530SOL     OW37615   2.534   2.065  10.799
12530SOL    HW137616   2.624   2.049  10.759
12530SOL    HW237617   2.542   2.070  10.898
12531SOL     OW37618   1.937   2.207   9.343
12531SOL    HW137619   1.845   2.179   9.314
12531SOL    HW237620   1.968   2.284   9.287
12532SOL     OW37621   3.302   2.718  10.708
12532SOL    HW137622   3.245   2.770  10.645
12532SOL    HW237623   3.398   2.730  10.684
12533SOL     OW37624   1.934   2.028   9.628
12533SOL    HW137625   1.917   2.111   9.574
12533SOL    HW237626   2.024   1.991   9.606
12534SOL     OW37627   3.045   3.197   9.429
12534SOL    HW137628   2.946   3.186   9.431
12534SOL    HW237629   3.079   3.212   9.522
12535SOL     OW37630   2.475   2.704  10.741
12535SOL    HW137631   2.531   2.785  10.724
12535SOL    HW237632   2.534   2.624  10.744
12536SOL     OW37633   3.355   3.629  10.269
12536SOL    HW137634   3.388   3.693  10.200
12536SOL    HW237635   3.421   3.623  10.344
12537SOL     OW37636   2.578   2.427  11.018
12537SOL    HW137637   2.597   2.492  11.092
12537SOL    HW237638   2.638   2.347  11.027
12538SOL     OW37639   3.312   3.082  10.943
12538SOL    HW137640   3.303   3.072  11.042
12538SOL    HW237641   3.408   3.075  10.917
12539SOL     OW37642   2.252   3.603  10.870
12539SOL    HW137643   2.161   3.644  10.868
12539SOL    HW237644   2.245   3.509  10.902
12540SOL     OW37645   3.536   2.745  10.564
12540SOL    HW137646   3.509   2.656  10.527
12540SOL    HW237647   3.537   2.813  10.491
12541SOL     OW37648   3.087   2.187   9.759
12541SOL    HW137649   3.152   2.113   9.748
12541SOL    HW237650   3.107   2.237   9.843
12542SOL     OW37651   2.456   2.607   9.962
12542SOL    HW137652   2.506   2.692   9.943
12542SOL    HW237653   2.368   2.609   9.914
12543SOL     OW37654   3.639   2.204  10.952
12543SOL    HW137655   3.622   2.235  10.858
12543SOL    HW237656   3.555   2.167  10.990
12544SOL     OW37657   3.592   2.796  10.827
12544SOL    HW137658   3.630   2.887  10.842
12544SOL    HW237659   3.584   2.779  10.728
12545SOL     OW37660   2.721   3.236   9.326
12545SOL    HW137661   2.675   3.251   9.414
12545SOL    HW237662   2.765   3.321   9.296
12546SOL     OW37663   2.523   3.652  10.263
12546SOL    HW137664   2.477   3.740  10.250
12546SOL    HW237665   2.622   3.664  10.256
12547SOL     OW37666   2.721   2.818  10.171
12547SOL    HW137667   2.775   2.749  10.219
12547SOL    HW237668   2.689   2.887  10.237
12548SOL     OW37669   2.945   2.846   9.397
12548SOL    HW137670   2.922   2.899   9.315
12548SOL    HW237671   3.026   2.790   9.378
12549SOL     OW37672   3.723   3.431  10.161
12549SOL    HW137673   3.652   3.419  10.091
12549SOL    HW237674   3.724   3.352  10.221
12550SOL     OW37675   2.083   3.176  11.154
12550SOL    HW137676   2.018   3.103  11.133
12550SOL    HW237677   2.087   3.190  11.252
12551SOL     OW37678   1.941   3.102   9.963
12551SOL    HW137679   1.940   3.055  10.051
12551SOL    HW237680   2.023   3.074   9.912
12552SOL     OW37681   2.534   3.253  10.934
12552SOL    HW137682   2.456   3.203  10.972
12552SOL    HW237683   2.531   3.348  10.965
12553SOL     OW37684   3.686   2.054  10.537
12553SOL    HW137685   3.682   1.964  10.581
12553SOL    HW237686   3.689   2.043  10.438
12554SOL     OW37687   2.290   2.286   9.830
12554SOL    HW137688   2.320   2.214   9.768
12554SOL    HW237689   2.251   2.246   9.913
12555SOL     OW37690   3.567   3.349  10.414
12555SOL    HW137691   3.474   3.324  10.387
12555SOL    HW237692   3.593   3.299  10.496
12556SOL     OW37693   2.179   2.409  10.590
12556SOL    HW137694   2.217   2.350  10.662
12556SOL    HW237695   2.219   2.383  10.502
12557SOL     OW37696   2.674   3.448   9.997
12557SOL    HW137697   2.706   3.458   9.903
12557SOL    HW237698   2.595   3.386   9.999
12558SOL     OW37699   3.286   2.076  10.422
12558SOL    HW137700   3.338   2.011  10.477
12558SOL    HW237701   3.237   2.139  10.483
12559SOL     OW37702   2.863   1.896  10.464
12559SOL    HW137703   2.800   1.824  10.433
12559SOL    HW237704   2.956   1.860  10.464
12560SOL     OW37705   2.632   3.192   9.611
12560SOL    HW137706   2.586   3.105   9.628
12560SOL    HW237707   2.723   3.189   9.652
12561SOL     OW37708   2.480   3.429  10.594
12561SOL    HW137709   2.475   3.511  10.651
12561SOL    HW237710   2.569   3.426  10.549
12562SOL     OW37711   3.214   1.914   9.478
12562SOL    HW137712   3.249   1.873   9.394
12562SOL    HW237713   3.124   1.876   9.498
12563SOL     OW37714   3.162   2.315  10.001
12563SOL    HW137715   3.103   2.395  10.005
12563SOL    HW237716   3.177   2.280  10.094
12564SOL     OW37717   3.455   2.083  10.192
12564SOL    HW137718   3.371   2.082  10.246
12564SOL    HW237719   3.457   2.166  10.136
12565SOL     OW37720   1.901   2.939   9.610
12565SOL    HW137721   2.000   2.928   9.601
12565SOL    HW237722   1.861   2.853   9.642
12566SOL     OW37723   2.737   3.508   9.647
12566SOL    HW137724   2.660   3.473   9.593
12566SOL    HW237725   2.705   3.579   9.709
12567SOL     OW37726   2.092   2.490  11.285
12567SOL    HW137727   1.999   2.488  11.322
12567SOL    HW237728   2.093   2.451  11.193
12568SOL     OW37729   2.087   2.137  12.168
12568SOL    HW137730   2.122   2.120  12.260
12568SOL    HW237731   1.999   2.092  12.156
12569SOL     OW37732   1.881   2.230  11.819
12569SOL    HW137733   1.799   2.273  11.858
12569SOL    HW237734   1.853   2.157  11.756
12570SOL     OW37735   2.431   3.137  12.337
12570SOL    HW137736   2.338   3.130  12.300
12570SOL    HW237737   2.442   3.226  12.381
12571SOL     OW37738   2.997   2.565  11.889
12571SOL    HW137739   3.054   2.643  11.864
12571SOL    HW237740   2.937   2.591  11.965
12572SOL     OW37741   3.617   2.469  11.403
12572SOL    HW137742   3.605   2.456  11.304
12572SOL    HW237743   3.587   2.388  11.452
12573SOL     OW37744   2.630   3.006  12.195
12573SOL    HW137745   2.552   3.023  12.255
12573SOL    HW237746   2.664   3.093  12.159
12574SOL     OW37747   2.547   2.874  11.837
12574SOL    HW137748   2.616   2.858  11.907
12574SOL    HW237749   2.474   2.931  11.875
12575SOL     OW37750   2.197   3.297  12.233
12575SOL    HW137751   2.119   3.266  12.180
12575SOL    HW237752   2.255   3.355  12.176
12576SOL     OW37753   3.322   3.367  12.511
12576SOL    HW137754   3.346   3.461  12.537
12576SOL    HW237755   3.306   3.313  12.593
12577SOL     OW37756   2.300   2.254  12.671
12577SOL    HW137757   2.382   2.198  12.680
12577SOL    HW237758   2.219   2.196  12.675
12578SOL     OW37759   3.465   2.309  11.909
12578SOL    HW137760   3.391   2.355  11.859
12578SOL    HW237761   3.516   2.377  11.962
12579SOL     OW37762   2.093   3.575  11.655
12579SOL    HW137763   2.127   3.652  11.709
12579SOL    HW237764   2.137   3.575  11.565
12580SOL     OW37765   2.092   3.296  11.710
12580SOL    HW137766   2.066   3.392  11.710
12580SOL    HW237767   2.021   3.242  11.755
12581SOL     OW37768   2.102   2.953  12.058
12581SOL    HW137769   2.116   2.869  12.110
12581SOL    HW237770   2.047   3.017  12.113
12582SOL     OW37771   2.482   3.648  12.611
12582SOL    HW137772   2.390   3.631  12.646
12582SOL    HW237773   2.510   3.740  12.637
12583SOL     OW37774   2.468   2.826  11.295
12583SOL    HW137775   2.475   2.910  11.241
12583SOL    HW237776   2.514   2.839  11.383
12584SOL     OW37777   3.456   1.976  12.652
12584SOL    HW137778   3.438   2.043  12.580
12584SOL    HW237779   3.453   2.022  12.741
12585SOL     OW37780   1.984   2.505  11.735
12585SOL    HW137781   1.939   2.417  11.752
12585SOL    HW237782   1.983   2.559  11.819
12586SOL     OW37783   3.704   3.629  11.531
12586SOL    HW137784   3.758   3.600  11.611
12586SOL    HW237785   3.734   3.719  11.502
12587SOL     OW37786   1.889   3.458  11.289
12587SOL    HW137787   1.870   3.362  11.310
12587SOL    HW237788   1.856   3.516  11.364
12588SOL     OW37789   3.551   2.784  11.784
12588SOL    HW137790   3.646   2.755  11.792
12588SOL    HW237791   3.543   2.849  11.709
12589SOL     OW37792   3.503   2.970  11.604
12589SOL    HW137793   3.589   2.972  11.552
12589SOL    HW237794   3.517   3.017  11.692
12590SOL     OW37795   2.671   1.866  11.674
12590SOL    HW137796   2.711   1.957  11.665
12590SOL    HW237797   2.571   1.874  11.680
12591SOL     OW37798   2.059   2.838  12.436
12591SOL    HW137799   2.148   2.793  12.422
12591SOL    HW237800   1.986   2.773  12.417
12592SOL     OW37801   3.387   2.861  11.362
12592SOL    HW137802   3.324   2.785  11.375
12592SOL    HW237803   3.435   2.879  11.448
12593SOL     OW37804   2.179   2.113  12.973
12593SOL    HW137805   2.250   2.184  12.979
12593SOL    HW237806   2.091   2.152  13.001
12594SOL     OW37807   3.328   3.279  12.125
12594SOL    HW137808   3.269   3.285  12.205
12594SOL    HW237809   3.313   3.191  12.079
12595SOL     OW37810   3.529   3.576  11.744
12595SOL    HW137811   3.488   3.553  11.656
12595SOL    HW237812   3.511   3.502  11.809
12596SOL     OW37813   2.460   2.591  11.442
12596SOL    HW137814   2.484   2.660  11.374
12596SOL    HW237815   2.382   2.624  11.496
12597SOL     OW37816   3.143   2.207  12.116
12597SOL    HW137817   3.057   2.157  12.103
12597SOL    HW237818   3.205   2.153  12.172
12598SOL     OW37819   3.438   3.524  11.479
12598SOL    HW137820   3.527   3.570  11.482
12598SOL    HW237821   3.417   3.500  11.384
12599SOL     OW37822   2.669   2.467  12.637
12599SOL    HW137823   2.622   2.464  12.726
12599SOL    HW237824   2.618   2.412  12.571
12600SOL     OW37825   2.853   2.272  12.414
12600SOL    HW137826   2.776   2.306  12.468
12600SOL    HW237827   2.819   2.221  12.335
12601SOL     OW37828   2.903   2.563  11.601
12601SOL    HW137829   2.929   2.559  11.697
12601SOL    HW237830   2.818   2.512  11.587
12602SOL     OW37831   1.938   2.673  11.961
12602SOL    HW137832   2.037   2.661  11.970
12602SOL    HW237833   1.914   2.768  11.982
12603SOL     OW37834   1.992   3.683  12.743
12603SOL    HW137835   1.982   3.668  12.842
12603SOL    HW237836   1.906   3.719  12.707
12604SOL     OW37837   2.727   2.210  11.367
12604SOL    HW137838   2.786   2.273  11.318
12604SOL    HW237839   2.746   2.116  11.338
12605SOL     OW37840   3.224   3.006  11.717
12605SOL    HW137841   3.307   2.977  11.669
12605SOL    HW237842   3.175   3.073  11.661
12606SOL     OW37843   2.412   2.058  12.057
12606SOL    HW137844   2.407   2.053  12.157
12606SOL    HW237845   2.414   2.154  12.028
12607SOL     OW37846   2.870   3.318  11.649
12607SOL    HW137847   2.824   3.390  11.597
12607SOL    HW237848   2.866   3.338  11.747
12608SOL     OW37849   2.213   3.663  12.025
12608SOL    HW137850   2.263   3.577  12.031
12608SOL    HW237851   2.278   3.740  12.022
12609SOL     OW37852   3.657   2.928  12.045
12609SOL    HW137853   3.595   2.913  11.969
12609SOL    HW237854   3.605   2.939  12.130
12610SOL     OW37855   2.183   2.805  11.414
12610SOL    HW137856   2.265   2.844  11.372
12610SOL    HW237857   2.156   2.723  11.365
12611SOL     OW37858   3.320   2.597  11.900
12611SOL    HW137859   3.315   2.532  11.975
12611SOL    HW237860   3.400   2.656  11.913
12612SOL     OW37861   2.973   3.638  11.409
12612SOL    HW137862   2.913   3.576  11.459
12612SOL    HW237863   3.004   3.594  11.324
12613SOL     OW37864   2.064   2.147  12.670
12613SOL    HW137865   1.984   2.207  12.657
12613SOL    HW237866   2.054   2.098  12.756
12614SOL     OW37867   3.494   3.239  11.253
12614SOL    HW137868   3.462   3.333  11.243
12614SOL    HW237869   3.418   3.176  11.241
12615SOL     OW37870   2.326   3.605  11.495
12615SOL    HW137871   2.359   3.644  11.581
12615SOL    HW237872   2.402   3.598  11.430
12616SOL     OW37873   3.262   1.969  11.598
12616SOL    HW137874   3.238   1.932  11.508
12616SOL    HW237875   3.361   1.985  11.602
12617SOL     OW37876   2.111   3.647  12.413
12617SOL    HW137877   2.168   3.582  12.463
12617SOL    HW237878   2.095   3.614  12.320
12618SOL     OW37879   2.802   3.560  12.076
12618SOL    HW137880   2.882   3.503  12.097
12618SOL    HW237881   2.753   3.520  11.999
12619SOL     OW37882   2.244   2.562  11.652
12619SOL    HW137883   2.289   2.472  11.649
12619SOL    HW237884   2.150   2.551  11.685
12620SOL     OW37885   2.476   1.984  11.289
12620SOL    HW137886   2.574   1.962  11.296
12620SOL    HW237887   2.445   1.967  11.196
12621SOL     OW37888   2.750   3.376  12.367
12621SOL    HW137889   2.727   3.351  12.273
12621SOL    HW237890   2.811   3.307  12.406
12622SOL     OW37891   2.665   3.264  12.096
12622SOL    HW137892   2.755   3.278  12.054
12622SOL    HW237893   2.594   3.266  12.025
12623SOL     OW37894   2.784   2.365  12.071
12623SOL    HW137895   2.759   2.356  11.975
12623SOL    HW237896   2.832   2.283  12.102
12624SOL     OW37897   2.401   1.926  11.684
12624SOL    HW137898   2.320   1.927  11.742
12624SOL    HW237899   2.404   2.009  11.629
12625SOL     OW37900   3.296   3.050  11.213
12625SOL    HW137901   3.328   2.974  11.270
12625SOL    HW237902   3.204   3.077  11.243
12626SOL     OW37903   2.159   1.897  11.343
12626SOL    HW137904   2.208   1.981  11.322
12626SOL    HW237905   2.221   1.832  11.388
12627SOL     OW37906   2.797   2.098  11.652
12627SOL    HW137907   2.749   2.139  11.574
12627SOL    HW237908   2.896   2.096  11.633
12628SOL     OW37909   3.089   3.432  11.965
12628SOL    HW137910   3.110   3.506  11.900
12628SOL    HW237911   3.157   3.432  12.038
12629SOL     OW37912   2.321   3.014  11.913
12629SOL    HW137913   2.250   2.987  11.978
12629SOL    HW237914   2.295   2.986  11.820
12630SOL     OW37915   3.133   3.659  11.763
12630SOL    HW137916   3.177   3.723  11.699
12630SOL    HW237917   3.083   3.711  11.833
12631SOL     OW37918   2.894   2.411  11.188
12631SOL    HW137919   2.853   2.493  11.149
12631SOL    HW237920   2.958   2.437  11.261
12632SOL     OW37921   1.940   2.418  12.558
12632SOL    HW137922   2.032   2.417  12.517
12632SOL    HW237923   1.934   2.492  12.625
12633SOL     OW37924   2.423   2.084  12.319
12633SOL    HW137925   2.461   2.000  12.356
12633SOL    HW237926   2.335   2.103  12.363
12634SOL     OW37927   2.728   2.316  11.814
12634SOL    HW137928   2.696   2.388  11.752
12634SOL    HW237929   2.752   2.235  11.761
12635SOL     OW37930   2.879   1.901  11.925
12635SOL    HW137931   2.807   1.906  11.856
12635SOL    HW237932   2.855   1.832  11.994
12636SOL     OW37933   3.291   3.035  12.039
12636SOL    HW137934   3.236   2.951  12.032
12636SOL    HW237935   3.317   3.064  11.947
12637SOL     OW37936   3.328   2.452  12.164
12637SOL    HW137937   3.298   2.357  12.171
12637SOL    HW237938   3.401   2.468  12.230
12638SOL     OW37939   3.719   2.695  11.549
12638SOL    HW137940   3.761   2.631  11.613
12638SOL    HW237941   3.681   2.644  11.471
12639SOL     OW37942   2.350   3.247  11.346
12639SOL    HW137943   2.263   3.232  11.393
12639SOL    HW237944   2.333   3.273  11.251
12640SOL     OW37945   3.526   3.142  11.829
12640SOL    HW137946   3.625   3.150  11.843
12640SOL    HW237947   3.481   3.226  11.860
12641SOL     OW37948   3.252   2.437  11.250
12641SOL    HW137949   3.198   2.416  11.331
12641SOL    HW237950   3.343   2.396  11.259
12642SOL     OW37951   2.389   2.118  11.500
12642SOL    HW137952   2.416   2.059  11.425
12642SOL    HW237953   2.389   2.213  11.469
12643SOL     OW37954   2.926   3.209  12.512
12643SOL    HW137955   2.846   3.186  12.567
12643SOL    HW237956   3.009   3.183  12.561
12644SOL     OW37957   2.973   3.057  12.272
12644SOL    HW137958   2.933   3.101  12.353
12644SOL    HW237959   2.932   3.094  12.189
12645SOL     OW37960   3.500   2.961  12.251
12645SOL    HW137961   3.505   3.042  12.310
12645SOL    HW237962   3.414   2.963  12.200
12646SOL     OW37963   2.777   1.951  12.574
12646SOL    HW137964   2.802   1.931  12.479
12646SOL    HW237965   2.849   2.007  12.616
12647SOL     OW37966   2.567   2.912  11.540
12647SOL    HW137967   2.553   2.919  11.639
12647SOL    HW237968   2.651   2.861  11.522
12648SOL     OW37969   2.272   2.675  12.423
12648SOL    HW137970   2.358   2.687  12.473
12648SOL    HW237971   2.230   2.588  12.450
12649SOL     OW37972   3.136   2.248  12.434
12649SOL    HW137973   3.157   2.322  12.498
12649SOL    HW237974   3.047   2.265  12.391
12650SOL     OW37975   1.926   3.426  12.503
12650SOL    HW137976   1.880   3.508  12.469
12650SOL    HW237977   2.024   3.445  12.512
12651SOL     OW37978   2.229   2.962  11.673
12651SOL    HW137979   2.222   3.045  11.617
12651SOL    HW237980   2.233   2.882  11.613
12652SOL     OW37981   2.428   2.399  12.037
12652SOL    HW137982   2.440   2.465  11.963
12652SOL    HW237983   2.474   2.433  12.120
12653SOL     OW37984   3.114   3.210  11.560
12653SOL    HW137985   3.164   3.287  11.600
12653SOL    HW237986   3.019   3.212  11.592
12654SOL     OW37987   3.134   3.307  12.314
12654SOL    HW137988   3.181   3.320  12.401
12654SOL    HW237989   3.068   3.233  12.323
12655SOL     OW37990   3.444   2.501  11.644
12655SOL    HW137991   3.413   2.562  11.717
12655SOL    HW237992   3.494   2.553  11.575
12656SOL     OW37993   2.216   3.372  12.501
12656SOL    HW137994   2.195   3.328  12.414
12656SOL    HW237995   2.313   3.398  12.504
12657SOL     OW37996   2.264   2.613  12.770
12657SOL    HW137997   2.332   2.668  12.723
12657SOL    HW237998   2.304   2.525  12.797
12658SOL     OW37999   3.449   2.641  12.842
12658SOL    HW138000   3.357   2.679  12.837
12658SOL    HW238001   3.509   2.688  12.777
12659SOL     OW38002   2.435   2.732  12.201
12659SOL    HW138003   2.479   2.821  12.192
12659SOL    HW238004   2.372   2.732  12.278
12660SOL     OW38005   3.222   2.724  12.217
12660SOL    HW138006   3.147   2.724  12.151
12660SOL    HW238007   3.259   2.632  12.226
12661SOL     OW38008   3.071   2.387  11.447
12661SOL    HW138009   3.084   2.303  11.501
12661SOL    HW238010   3.042   2.461  11.507
12662SOL     OW38011   2.169   2.075  12.403
12662SOL    HW138012   2.146   2.112  12.493
12662SOL    HW238013   2.139   1.980  12.397
12663SOL     OW38014   1.899   3.172  12.454
12663SOL    HW138015   1.952   3.123  12.522
12663SOL    HW238016   1.921   3.270  12.459
12664SOL     OW38017   2.594   2.496  12.236
12664SOL    HW138018   2.653   2.470  12.160
12664SOL    HW238019   2.566   2.592  12.225
12665SOL     OW38020   2.169   1.925  11.790
12665SOL    HW138021   2.158   2.019  11.823
12665SOL    HW238022   2.164   1.862  11.867
12666SOL     OW38023   3.484   2.229  11.546
12666SOL    HW138024   3.486   2.153  11.610
12666SOL    HW238025   3.436   2.306  11.586
12667SOL     OW38026   2.885   2.628  12.138
12667SOL    HW138027   2.900   2.649  12.234
12667SOL    HW238028   2.855   2.533  12.129
12668SOL     OW38029   2.842   3.435  12.872
12668SOL    HW138030   2.822   3.479  12.784
12668SOL    HW238031   2.881   3.344  12.856
12669SOL     OW38032   3.402   2.136  11.297
12669SOL    HW138033   3.341   2.061  11.320
12669SOL    HW238034   3.424   2.188  11.380
12670SOL     OW38035   3.165   2.700  11.214
12670SOL    HW138036   3.199   2.607  11.229
12670SOL    HW238037   3.183   2.727  11.119
12671SOL     OW38038   2.930   3.195  12.021
12671SOL    HW138039   2.937   3.111  11.966
12671SOL    HW238040   2.992   3.264  11.985
12672SOL     OW38041   2.181   2.672  12.121
12672SOL    HW138042   2.274   2.708  12.126
12672SOL    HW238043   2.175   2.587  12.173
12673SOL     OW38044   2.201   2.371  12.178
12673SOL    HW138045   2.149   2.288  12.161
12673SOL    HW238046   2.278   2.376  12.114
12674SOL     OW38047   3.000   2.242  12.850
12674SOL    HW138048   2.955   2.305  12.914
12674SOL    HW238049   3.093   2.273  12.833
12675SOL     OW38050   3.022   2.069  12.649
12675SOL    HW138051   3.022   2.133  12.726
12675SOL    HW238052   3.050   2.117  12.566
12676SOL     OW38053   1.870   3.188  11.372
12676SOL    HW138054   1.777   3.209  11.341
12676SOL    HW238055   1.880   3.089  11.385
12677SOL     OW38056   1.950   3.663  12.099
12677SOL    HW138057   1.908   3.577  12.072
12677SOL    HW238058   2.044   3.666  12.065
12678SOL     OW38059   2.366   3.430  12.082
12678SOL    HW138060   2.432   3.504  12.091
12678SOL    HW238061   2.410   3.351  12.040
12679SOL     OW38062   2.864   2.658  12.410
12679SOL    HW138063   2.905   2.626  12.496
12679SOL    HW238064   2.768   2.631  12.407
12680SOL     OW38065   1.902   2.406  12.286
12680SOL    HW138066   1.987   2.373  12.245
12680SOL    HW238067   1.915   2.421  12.384
12681SOL     OW38068   2.677   2.434  11.497
12681SOL    HW138069   2.684   2.345  11.451
12681SOL    HW238070   2.583   2.468  11.489
12682SOL     OW38071   3.519   2.466  12.378
12682SOL    HW138072   3.481   2.397  12.440
12682SOL    HW238073   3.601   2.430  12.334
12683SOL     OW38074   2.533   2.326  12.441
12683SOL    HW138075   2.499   2.237  12.411
12683SOL    HW238076   2.559   2.380  12.361
12684SOL     OW38077   2.792   3.540  12.637
12684SOL    HW138078   2.768   3.522  12.542
12684SOL    HW238079   2.822   3.634  12.647
12685SOL     OW38080   2.335   2.362  11.363
12685SOL    HW138081   2.396   2.442  11.367
12685SOL    HW238082   2.240   2.393  11.370
12686SOL     OW38083   2.021   2.999  12.638
12686SOL    HW138084   2.043   2.938  12.714
12686SOL    HW238085   2.031   2.950  12.552
12687SOL     OW38086   3.209   2.921  12.406
12687SOL    HW138087   3.233   2.858  12.332
12687SOL    HW238088   3.119   2.961  12.388
12688SOL     OW38089   3.164   2.717  11.481
12688SOL    HW138090   3.078   2.686  11.523
12688SOL    HW238091   3.160   2.703  11.382
12689SOL     OW38092   3.621   3.609  12.326
12689SOL    HW138093   3.682   3.639  12.253
12689SOL    HW238094   3.583   3.520  12.304
12690SOL     OW38095   3.114   3.593  12.300
12690SOL    HW138096   3.198   3.598  12.246
12690SOL    HW238097   3.091   3.497  12.318
12691SOL     OW38098   1.945   3.120  12.194
12691SOL    HW138099   1.940   3.119  12.294
12691SOL    HW238100   1.862   3.079  12.156
12692SOL     OW38101   3.588   1.997  11.695
12692SOL    HW138102   3.661   1.980  11.628
12692SOL    HW238103   3.557   1.910  11.733
12693SOL     OW38104   3.250   3.435  11.649
12693SOL    HW138105   3.317   3.447  11.575
12693SOL    HW238106   3.210   3.524  11.672
12694SOL     OW38107   3.142   2.789  11.844
12694SOL    HW138108   3.202   2.708  11.846
12694SOL    HW238109   3.182   2.858  11.784
12695SOL     OW38110   2.534   3.478  11.326
12695SOL    HW138111   2.543   3.488  11.227
12695SOL    HW238112   2.494   3.389  11.347
12696SOL     OW38113   3.512   3.582  12.566
12696SOL    HW138114   3.565   3.592  12.482
12696SOL    HW238115   3.485   3.672  12.600
12697SOL     OW38116   3.703   2.037  12.135
12697SOL    HW138117   3.742   1.952  12.099
12697SOL    HW238118   3.605   2.039  12.116
12698SOL     OW38119   2.125   2.188  11.892
12698SOL    HW138120   2.046   2.239  11.858
12698SOL    HW238121   2.116   2.173  11.990
12699SOL     OW38122   3.056   3.474  11.203
12699SOL    HW138123   3.062   3.381  11.240
12699SOL    HW238124   2.997   3.474  11.123
12700SOL     OW38125   2.684   2.864  12.544
12700SOL    HW138126   2.724   2.863  12.452
12700SOL    HW238127   2.694   2.956  12.584
12701SOL     OW38128   2.778   2.772  11.463
12701SOL    HW138129   2.841   2.810  11.395
12701SOL    HW238130   2.818   2.689  11.502
12702SOL     OW38131   3.366   3.469  11.216
12702SOL    HW138132   3.274   3.506  11.223
12702SOL    HW238133   3.404   3.489  11.126
12703SOL     OW38134   2.234   3.150  12.662
12703SOL    HW138135   2.221   3.243  12.628
12703SOL    HW238136   2.150   3.098  12.649
12704SOL     OW38137   3.476   3.154  12.461
12704SOL    HW138138   3.536   3.157  12.541
12704SOL    HW238139   3.401   3.218  12.474
12705SOL     OW38140   2.901   2.960  11.868
12705SOL    HW138141   2.831   2.913  11.922
12705SOL    HW238142   2.960   2.892  11.825
12706SOL     OW38143   2.876   2.098  12.143
12706SOL    HW138144   2.868   2.062  12.050
12706SOL    HW238145   2.874   2.022  12.208
12707SOL     OW38146   2.452   3.349  11.663
12707SOL    HW138147   2.494   3.291  11.593
12707SOL    HW238148   2.408   3.428  11.619
12708SOL     OW38149   3.571   2.247  12.553
12708SOL    HW138150   3.644   2.316  12.557
12708SOL    HW238151   3.599   2.172  12.494
12709SOL     OW38152   2.117   3.210  11.462
12709SOL    HW138153   2.021   3.211  11.435
12709SOL    HW238154   2.129   3.263  11.546
12710SOL     OW38155   1.937   2.207  11.205
12710SOL    HW138156   1.845   2.179  11.176
12710SOL    HW238157   1.968   2.284  11.149
12711SOL     OW38158   3.302   2.718  12.570
12711SOL    HW138159   3.245   2.770  12.507
12711SOL    HW238160   3.398   2.730  12.546
12712SOL     OW38161   1.934   2.028  11.490
12712SOL    HW138162   1.917   2.111  11.436
12712SOL    HW238163   2.024   1.991  11.468
12713SOL     OW38164   3.045   3.197  11.291
12713SOL    HW138165   2.946   3.186  11.293
12713SOL    HW238166   3.079   3.212  11.384
12714SOL     OW38167   2.475   2.704  12.603
12714SOL    HW138168   2.531   2.785  12.586
12714SOL    HW238169   2.534   2.624  12.606
12715SOL     OW38170   3.355   3.629  12.131
12715SOL    HW138171   3.388   3.693  12.062
12715SOL    HW238172   3.421   3.623  12.206
12716SOL     OW38173   2.252   3.603  12.732
12716SOL    HW138174   2.161   3.644  12.730
12716SOL    HW238175   2.245   3.509  12.764
12717SOL     OW38176   3.536   2.745  12.426
12717SOL    HW138177   3.509   2.656  12.389
12717SOL    HW238178   3.537   2.813  12.353
12718SOL     OW38179   3.087   2.187  11.621
12718SOL    HW138180   3.152   2.113  11.610
12718SOL    HW238181   3.107   2.237  11.705
12719SOL     OW38182   2.456   2.607  11.824
12719SOL    HW138183   2.506   2.692  11.805
12719SOL    HW238184   2.368   2.609  11.776
12720SOL     OW38185   3.639   2.204  12.814
12720SOL    HW138186   3.622   2.235  12.720
12720SOL    HW238187   3.555   2.167  12.852
12721SOL     OW38188   3.592   2.796  12.689
12721SOL    HW138189   3.630   2.887  12.704
12721SOL    HW238190   3.584   2.779  12.590
12722SOL     OW38191   2.721   3.236  11.188
12722SOL    HW138192   2.675   3.251  11.276
12722SOL    HW238193   2.765   3.321  11.158
12723SOL     OW38194   2.523   3.652  12.125
12723SOL    HW138195   2.477   3.740  12.112
12723SOL    HW238196   2.622   3.664  12.118
12724SOL     OW38197   2.721   2.818  12.033
12724SOL    HW138198   2.775   2.749  12.081
12724SOL    HW238199   2.689   2.887  12.099
12725SOL     OW38200   2.945   2.846  11.259
12725SOL    HW138201   2.922   2.899  11.177
12725SOL    HW238202   3.026   2.790  11.240
12726SOL     OW38203   3.723   3.431  12.023
12726SOL    HW138204   3.652   3.419  11.953
12726SOL    HW238205   3.724   3.352  12.083
12727SOL     OW38206   1.941   3.102  11.825
12727SOL    HW138207   1.940   3.055  11.913
12727SOL    HW238208   2.023   3.074  11.774
12728SOL     OW38209   3.686   2.054  12.399
12728SOL    HW138210   3.682   1.964  12.443
12728SOL    HW238211   3.689   2.043  12.300
12729SOL     OW38212   2.290   2.286  11.692
12729SOL    HW138213   2.320   2.214  11.630
12729SOL    HW238214   2.251   2.246  11.775
12730SOL     OW38215   3.567   3.349  12.276
12730SOL    HW138216   3.474   3.324  12.249
12730SOL    HW238217   3.593   3.299  12.358
12731SOL     OW38218   2.179   2.409  12.452
12731SOL    HW138219   2.217   2.350  12.524
12731SOL    HW238220   2.219   2.383  12.364
12732SOL     OW38221   2.674   3.448  11.859
12732SOL    HW138222   2.706   3.458  11.765
12732SOL    HW238223   2.595   3.386  11.861
12733SOL     OW38224   3.286   2.076  12.284
12733SOL    HW138225   3.338   2.011  12.339
12733SOL    HW238226   3.237   2.139  12.345
12734SOL     OW38227   2.863   1.896  12.326
12734SOL    HW138228   2.800   1.824  12.295
12734SOL    HW238229   2.956   1.860  12.326
12735SOL     OW38230   2.632   3.192  11.473
12735SOL    HW138231   2.586   3.105  11.490
12735SOL    HW238232   2.723   3.189  11.514
12736SOL     OW38233   2.480   3.429  12.456
12736SOL    HW138234   2.475   3.511  12.513
12736SOL    HW238235   2.569   3.426  12.411
12737SOL     OW38236   3.214   1.914  11.340
12737SOL    HW138237   3.249   1.873  11.256
12737SOL    HW238238   3.124   1.876  11.360
12738SOL     OW38239   3.162   2.315  11.863
12738SOL    HW138240   3.103   2.395  11.867
12738SOL    HW238241   3.177   2.280  11.956
12739SOL     OW38242   3.455   2.083  12.054
12739SOL    HW138243   3.371   2.082  12.108
12739SOL    HW238244   3.457   2.166  11.998
12740SOL     OW38245   1.901   2.939  11.472
12740SOL    HW138246   2.000   2.928  11.463
12740SOL    HW238247   1.861   2.853  11.504
12741SOL     OW38248   2.737   3.508  11.509
12741SOL    HW138249   2.660   3.473  11.455
12741SOL    HW238250   2.705   3.579  11.571
12742SOL     OW38251   2.092   4.352   0.113
12742SOL    HW138252   1.999   4.350   0.150
12742SOL    HW238253   2.093   4.313   0.021
12743SOL     OW38254   2.087   3.999   0.996
12743SOL    HW138255   2.122   3.982   1.088
12743SOL    HW238256   1.999   3.954   0.984
12744SOL     OW38257   1.881   4.092   0.647
12744SOL    HW138258   1.799   4.135   0.686
12744SOL    HW238259   1.853   4.019   0.584
12745SOL     OW38260   2.431   4.999   1.165
12745SOL    HW138261   2.338   4.992   1.128
12745SOL    HW238262   2.442   5.088   1.209
12746SOL     OW38263   3.417   5.235   0.703
12746SOL    HW138264   3.360   5.219   0.784
12746SOL    HW238265   3.358   5.245   0.623
12747SOL     OW38266   2.997   4.427   0.717
12747SOL    HW138267   3.054   4.505   0.692
12747SOL    HW238268   2.937   4.453   0.793
12748SOL     OW38269   3.617   4.331   0.231
12748SOL    HW138270   3.605   4.318   0.132
12748SOL    HW238271   3.587   4.250   0.280
12749SOL     OW38272   2.630   4.868   1.023
12749SOL    HW138273   2.552   4.885   1.083
12749SOL    HW238274   2.664   4.955   0.987
12750SOL     OW38275   2.712   4.522   1.823
12750SOL    HW138276   2.708   4.598   1.888
12750SOL    HW238277   2.734   4.558   1.732
12751SOL     OW38278   2.547   4.736   0.665
12751SOL    HW138279   2.616   4.720   0.735
12751SOL    HW238280   2.474   4.793   0.703
12752SOL     OW38281   2.548   4.885   1.803
12752SOL    HW138282   2.608   4.964   1.817
12752SOL    HW238283   2.462   4.916   1.762
12753SOL     OW38284   2.197   5.159   1.061
12753SOL    HW138285   2.119   5.128   1.008
12753SOL    HW238286   2.255   5.217   1.004
12754SOL     OW38287   3.322   5.229   1.339
12754SOL    HW138288   3.346   5.323   1.365
12754SOL    HW238289   3.306   5.175   1.421
12755SOL     OW38290   2.300   4.116   1.499
12755SOL    HW138291   2.382   4.060   1.508
12755SOL    HW238292   2.219   4.058   1.503
12756SOL     OW38293   3.465   4.171   0.737
12756SOL    HW138294   3.391   4.217   0.687
12756SOL    HW238295   3.516   4.239   0.790
12757SOL     OW38296   2.093   5.437   0.483
12757SOL    HW138297   2.127   5.514   0.537
12757SOL    HW238298   2.137   5.437   0.393
12758SOL     OW38299   2.989   5.065   1.690
12758SOL    HW138300   3.036   5.065   1.778
12758SOL    HW238301   2.941   4.978   1.679
12759SOL     OW38302   2.092   5.158   0.538
12759SOL    HW138303   2.066   5.254   0.538
12759SOL    HW238304   2.021   5.104   0.583
12760SOL     OW38305   2.102   4.815   0.886
12760SOL    HW138306   2.116   4.731   0.938
12760SOL    HW238307   2.047   4.879   0.941
12761SOL     OW38308   2.482   5.510   1.439
12761SOL    HW138309   2.390   5.493   1.474
12761SOL    HW238310   2.510   5.602   1.465
12762SOL     OW38311   2.468   4.688   0.123
12762SOL    HW138312   2.475   4.772   0.069
12762SOL    HW238313   2.514   4.701   0.211
12763SOL     OW38314   3.456   3.838   1.480
12763SOL    HW138315   3.438   3.905   1.408
12763SOL    HW238316   3.453   3.884   1.569
12764SOL     OW38317   1.984   4.367   0.563
12764SOL    HW138318   1.939   4.279   0.580
12764SOL    HW238319   1.983   4.421   0.647
12765SOL     OW38320   3.704   5.491   0.359
12765SOL    HW138321   3.758   5.462   0.439
12765SOL    HW238322   3.734   5.581   0.330
12766SOL     OW38323   1.889   5.320   0.117
12766SOL    HW138324   1.870   5.224   0.138
12766SOL    HW238325   1.856   5.378   0.192
12767SOL     OW38326   3.551   4.646   0.612
12767SOL    HW138327   3.646   4.617   0.620
12767SOL    HW238328   3.543   4.711   0.537
12768SOL     OW38329   3.503   4.832   0.432
12768SOL    HW138330   3.589   4.834   0.380
12768SOL    HW238331   3.517   4.879   0.520
12769SOL     OW38332   1.975   4.461   1.597
12769SOL    HW138333   2.063   4.448   1.642
12769SOL    HW238334   1.962   4.558   1.575
12770SOL     OW38335   2.475   5.089   0.726
12770SOL    HW138336   2.426   5.002   0.735
12770SOL    HW238337   2.452   5.132   0.639
12771SOL     OW38338   3.155   4.952   1.423
12771SOL    HW138339   3.192   4.879   1.365
12771SOL    HW238340   3.207   4.957   1.508
12772SOL     OW38341   2.671   3.728   0.502
12772SOL    HW138342   2.711   3.819   0.493
12772SOL    HW238343   2.571   3.736   0.508
12773SOL     OW38344   2.059   4.700   1.264
12773SOL    HW138345   2.148   4.655   1.250
12773SOL    HW238346   1.986   4.635   1.245
12774SOL     OW38347   3.387   4.723   0.190
12774SOL    HW138348   3.324   4.647   0.203
12774SOL    HW238349   3.435   4.741   0.276
12775SOL     OW38350   3.049   5.516   1.616
12775SOL    HW138351   3.073   5.576   1.540
12775SOL    HW238352   3.056   5.421   1.586
12776SOL     OW38353   2.179   3.975   1.801
12776SOL    HW138354   2.250   4.046   1.807
12776SOL    HW238355   2.091   4.014   1.829
12777SOL     OW38356   3.328   5.141   0.953
12777SOL    HW138357   3.269   5.147   1.033
12777SOL    HW238358   3.313   5.053   0.907
12778SOL     OW38359   3.529   5.438   0.572
12778SOL    HW138360   3.488   5.415   0.484
12778SOL    HW238361   3.511   5.364   0.637
12779SOL     OW38362   2.460   4.453   0.270
12779SOL    HW138363   2.484   4.522   0.202
12779SOL    HW238364   2.382   4.486   0.324
12780SOL     OW38365   3.143   4.069   0.944
12780SOL    HW138366   3.057   4.019   0.931
12780SOL    HW238367   3.205   4.015   1.000
12781SOL     OW38368   3.438   5.386   0.307
12781SOL    HW138369   3.527   5.432   0.310
12781SOL    HW238370   3.417   5.362   0.212
12782SOL     OW38371   2.669   4.329   1.465
12782SOL    HW138372   2.622   4.326   1.554
12782SOL    HW238373   2.618   4.274   1.399
12783SOL     OW38374   3.256   4.193   1.674
12783SOL    HW138375   3.236   4.236   1.762
12783SOL    HW238376   3.334   4.131   1.683
12784SOL     OW38377   2.835   4.614   1.572
12784SOL    HW138378   2.881   4.530   1.543
12784SOL    HW238379   2.779   4.648   1.497
12785SOL     OW38380   2.853   4.134   1.242
12785SOL    HW138381   2.776   4.168   1.296
12785SOL    HW238382   2.819   4.083   1.163
12786SOL     OW38383   2.903   4.425   0.429
12786SOL    HW138384   2.929   4.421   0.525
12786SOL    HW238385   2.818   4.374   0.415
12787SOL     OW38386   1.938   4.535   0.789
12787SOL    HW138387   2.037   4.523   0.798
12787SOL    HW238388   1.914   4.630   0.810
12788SOL     OW38389   1.992   5.545   1.571
12788SOL    HW138390   1.982   5.530   1.670
12788SOL    HW238391   1.906   5.581   1.535
12789SOL     OW38392   2.727   4.072   0.195
12789SOL    HW138393   2.786   4.135   0.146
12789SOL    HW238394   2.746   3.978   0.166
12790SOL     OW38395   3.581   4.309   1.831
12790SOL    HW138396   3.555   4.398   1.795
12790SOL    HW238397   3.579   4.241   1.758
12791SOL     OW38398   3.224   4.868   0.545
12791SOL    HW138399   3.307   4.839   0.497
12791SOL    HW238400   3.175   4.935   0.489
12792SOL     OW38401   2.412   3.920   0.885
12792SOL    HW138402   2.407   3.915   0.985
12792SOL    HW238403   2.414   4.016   0.856
12793SOL     OW38404   2.870   5.180   0.477
12793SOL    HW138405   2.824   5.252   0.425
12793SOL    HW238406   2.866   5.200   0.575
12794SOL     OW38407   2.213   5.525   0.853
12794SOL    HW138408   2.263   5.439   0.859
12794SOL    HW238409   2.278   5.602   0.850
12795SOL     OW38410   3.657   4.790   0.873
12795SOL    HW138411   3.595   4.775   0.797
12795SOL    HW238412   3.605   4.801   0.958
12796SOL     OW38413   3.089   5.274   1.506
12796SOL    HW138414   3.095   5.197   1.570
12796SOL    HW238415   3.037   5.248   1.426
12797SOL     OW38416   2.183   4.667   0.242
12797SOL    HW138417   2.265   4.706   0.200
12797SOL    HW238418   2.156   4.585   0.193
12798SOL     OW38419   3.320   4.459   0.728
12798SOL    HW138420   3.315   4.394   0.803
12798SOL    HW238421   3.400   4.518   0.741
12799SOL     OW38422   2.323   4.990   1.727
12799SOL    HW138423   2.273   4.991   1.641
12799SOL    HW238424   2.260   4.972   1.803
12800SOL     OW38425   2.973   5.500   0.237
12800SOL    HW138426   2.913   5.438   0.287
12800SOL    HW238427   3.004   5.456   0.152
12801SOL     OW38428   2.064   4.009   1.498
12801SOL    HW138429   1.984   4.069   1.485
12801SOL    HW238430   2.054   3.960   1.584
12802SOL     OW38431   3.494   5.101   0.081
12802SOL    HW138432   3.462   5.195   0.071
12802SOL    HW238433   3.418   5.038   0.069
12803SOL     OW38434   2.326   5.467   0.323
12803SOL    HW138435   2.359   5.506   0.409
12803SOL    HW238436   2.402   5.460   0.258
12804SOL     OW38437   3.262   3.831   0.426
12804SOL    HW138438   3.238   3.794   0.336
12804SOL    HW238439   3.361   3.847   0.430
12805SOL     OW38440   2.111   5.509   1.241
12805SOL    HW138441   2.168   5.444   1.291
12805SOL    HW238442   2.095   5.476   1.148
12806SOL     OW38443   2.802   5.422   0.904
12806SOL    HW138444   2.882   5.365   0.925
12806SOL    HW238445   2.753   5.382   0.827
12807SOL     OW38446   2.244   4.424   0.480
12807SOL    HW138447   2.289   4.334   0.477
12807SOL    HW238448   2.150   4.413   0.513
12808SOL     OW38449   3.409   3.946   1.729
12808SOL    HW138450   3.404   3.983   1.821
12808SOL    HW238451   3.337   3.877   1.717
12809SOL     OW38452   2.476   3.846   0.117
12809SOL    HW138453   2.574   3.824   0.124
12809SOL    HW238454   2.445   3.829   0.024
12810SOL     OW38455   2.643   3.988   1.749
12810SOL    HW138456   2.710   3.927   1.792
12810SOL    HW238457   2.570   4.007   1.814
12811SOL     OW38458   2.750   5.238   1.195
12811SOL    HW138459   2.727   5.213   1.101
12811SOL    HW238460   2.811   5.169   1.234
12812SOL     OW38461   3.213   4.314   1.433
12812SOL    HW138462   3.241   4.271   1.518
12812SOL    HW238463   3.238   4.410   1.434
12813SOL     OW38464   2.665   5.126   0.924
12813SOL    HW138465   2.755   5.140   0.882
12813SOL    HW238466   2.594   5.128   0.853
12814SOL     OW38467   2.784   4.227   0.899
12814SOL    HW138468   2.759   4.218   0.803
12814SOL    HW238469   2.832   4.145   0.930
12815SOL     OW38470   2.401   3.788   0.512
12815SOL    HW138471   2.320   3.789   0.570
12815SOL    HW238472   2.404   3.871   0.457
12816SOL     OW38473   3.296   4.912   0.041
12816SOL    HW138474   3.328   4.836   0.098
12816SOL    HW238475   3.204   4.939   0.071
12817SOL     OW38476   2.159   3.759   0.171
12817SOL    HW138477   2.208   3.843   0.150
12817SOL    HW238478   2.221   3.694   0.216
12818SOL     OW38479   2.797   3.960   0.480
12818SOL    HW138480   2.749   4.001   0.402
12818SOL    HW238481   2.896   3.958   0.461
12819SOL     OW38482   2.938   4.407   1.464
12819SOL    HW138483   2.858   4.346   1.467
12819SOL    HW238484   3.019   4.354   1.440
12820SOL     OW38485   3.089   5.294   0.793
12820SOL    HW138486   3.110   5.368   0.728
12820SOL    HW238487   3.157   5.294   0.866
12821SOL     OW38488   2.321   4.876   0.741
12821SOL    HW138489   2.250   4.849   0.806
12821SOL    HW238490   2.295   4.848   0.648
12822SOL     OW38491   3.133   5.521   0.591
12822SOL    HW138492   3.177   5.585   0.527
12822SOL    HW238493   3.083   5.573   0.661
12823SOL     OW38494   2.894   4.273   0.016
12823SOL    HW138495   2.853   4.355  -0.023
12823SOL    HW238496   2.958   4.299   0.089
12824SOL     OW38497   1.940   4.280   1.386
12824SOL    HW138498   2.032   4.279   1.345
12824SOL    HW238499   1.934   4.354   1.453
12825SOL     OW38500   2.423   3.946   1.147
12825SOL    HW138501   2.461   3.862   1.184
12825SOL    HW238502   2.335   3.965   1.191
12826SOL     OW38503   2.728   4.178   0.642
12826SOL    HW138504   2.696   4.250   0.580
12826SOL    HW238505   2.752   4.097   0.589
12827SOL     OW38506   2.879   3.763   0.753
12827SOL    HW138507   2.807   3.768   0.684
12827SOL    HW238508   2.855   3.694   0.822
12828SOL     OW38509   3.291   4.897   0.867
12828SOL    HW138510   3.236   4.813   0.860
12828SOL    HW238511   3.317   4.926   0.775
12829SOL     OW38512   3.328   4.314   0.992
12829SOL    HW138513   3.298   4.219   0.999
12829SOL    HW238514   3.401   4.330   1.058
12830SOL     OW38515   3.719   4.557   0.377
12830SOL    HW138516   3.761   4.493   0.441
12830SOL    HW238517   3.681   4.506   0.299
12831SOL     OW38518   2.350   5.109   0.174
12831SOL    HW138519   2.263   5.094   0.221
12831SOL    HW238520   2.333   5.135   0.079
12832SOL     OW38521   3.526   5.004   0.657
12832SOL    HW138522   3.625   5.012   0.671
12832SOL    HW238523   3.481   5.088   0.688
12833SOL     OW38524   3.252   4.299   0.078
12833SOL    HW138525   3.198   4.278   0.159
12833SOL    HW238526   3.343   4.258   0.087
12834SOL     OW38527   2.389   3.980   0.328
12834SOL    HW138528   2.416   3.921   0.253
12834SOL    HW238529   2.389   4.075   0.297
12835SOL     OW38530   3.616   4.947   1.588
12835SOL    HW138531   3.707   4.908   1.575
12835SOL    HW238532   3.624   5.043   1.612
12836SOL     OW38533   2.926   5.071   1.340
12836SOL    HW138534   2.846   5.048   1.395
12836SOL    HW238535   3.009   5.045   1.389
12837SOL     OW38536   3.454   5.353   1.625
12837SOL    HW138537   3.481   5.387   1.535
12837SOL    HW238538   3.533   5.315   1.671
12838SOL     OW38539   2.973   4.919   1.100
12838SOL    HW138540   2.933   4.963   1.181
12838SOL    HW238541   2.932   4.956   1.017
12839SOL     OW38542   2.777   3.813   1.402
12839SOL    HW138543   2.802   3.793   1.307
12839SOL    HW238544   2.849   3.869   1.444
12840SOL     OW38545   2.842   4.840   1.719
12840SOL    HW138546   2.743   4.846   1.729
12840SOL    HW238547   2.865   4.760   1.663
12841SOL     OW38548   2.567   4.774   0.368
12841SOL    HW138549   2.553   4.781   0.467
12841SOL    HW238550   2.651   4.723   0.350
12842SOL     OW38551   2.272   4.537   1.251
12842SOL    HW138552   2.358   4.549   1.301
12842SOL    HW238553   2.230   4.450   1.278
12843SOL     OW38554   3.136   4.110   1.262
12843SOL    HW138555   3.157   4.184   1.326
12843SOL    HW238556   3.047   4.127   1.219
12844SOL     OW38557   1.926   5.288   1.331
12844SOL    HW138558   1.880   5.370   1.297
12844SOL    HW238559   2.024   5.307   1.340
12845SOL     OW38560   2.229   4.824   0.501
12845SOL    HW138561   2.222   4.907   0.445
12845SOL    HW238562   2.233   4.744   0.441
12846SOL     OW38563   2.428   4.261   0.865
12846SOL    HW138564   2.440   4.327   0.791
12846SOL    HW238565   2.474   4.295   0.948
12847SOL     OW38566   3.114   5.072   0.388
12847SOL    HW138567   3.164   5.149   0.428
12847SOL    HW238568   3.019   5.074   0.420
12848SOL     OW38569   3.134   5.169   1.142
12848SOL    HW138570   3.181   5.182   1.229
12848SOL    HW238571   3.068   5.095   1.151
12849SOL     OW38572   3.444   4.363   0.472
12849SOL    HW138573   3.413   4.424   0.545
12849SOL    HW238574   3.494   4.415   0.403
12850SOL     OW38575   2.216   5.234   1.329
12850SOL    HW138576   2.195   5.190   1.242
12850SOL    HW238577   2.313   5.260   1.332
12851SOL     OW38578   2.264   4.475   1.598
12851SOL    HW138579   2.332   4.530   1.551
12851SOL    HW238580   2.304   4.387   1.625
12852SOL     OW38581   3.449   4.503   1.670
12852SOL    HW138582   3.357   4.541   1.665
12852SOL    HW238583   3.509   4.550   1.605
12853SOL     OW38584   2.875   3.829   1.770
12853SOL    HW138585   2.881   3.914   1.718
12853SOL    HW238586   2.907   3.753   1.713
12854SOL     OW38587   2.366   3.774   1.740
12854SOL    HW138588   2.324   3.717   1.670
12854SOL    HW238589   2.300   3.843   1.772
12855SOL     OW38590   2.435   4.594   1.029
12855SOL    HW138591   2.479   4.683   1.020
12855SOL    HW238592   2.372   4.594   1.106
12856SOL     OW38593   3.222   4.586   1.045
12856SOL    HW138594   3.147   4.586   0.979
12856SOL    HW238595   3.259   4.494   1.054
12857SOL     OW38596   3.071   4.249   0.275
12857SOL    HW138597   3.084   4.165   0.329
12857SOL    HW238598   3.042   4.323   0.335
12858SOL     OW38599   2.169   3.937   1.231
12858SOL    HW138600   2.146   3.974   1.321
12858SOL    HW238601   2.139   3.842   1.225
12859SOL     OW38602   1.899   5.034   1.282
12859SOL    HW138603   1.952   4.985   1.350
12859SOL    HW238604   1.921   5.132   1.287
12860SOL     OW38605   2.594   4.358   1.064
12860SOL    HW138606   2.653   4.332   0.988
12860SOL    HW238607   2.566   4.454   1.053
12861SOL     OW38608   3.590   4.659   1.854
12861SOL    HW138609   3.544   4.652   1.765
12861SOL    HW238610   3.528   4.703   1.920
12862SOL     OW38611   2.169   3.787   0.618
12862SOL    HW138612   2.158   3.881   0.651
12862SOL    HW238613   2.164   3.724   0.695
12863SOL     OW38614   3.484   4.091   0.374
12863SOL    HW138615   3.486   4.015   0.438
12863SOL    HW238616   3.436   4.168   0.414
12864SOL     OW38617   2.885   4.490   0.966
12864SOL    HW138618   2.900   4.511   1.062
12864SOL    HW238619   2.855   4.395   0.957
12865SOL     OW38620   2.842   5.297   1.700
12865SOL    HW138621   2.822   5.341   1.612
12865SOL    HW238622   2.881   5.206   1.684
12866SOL     OW38623   3.721   5.242   1.605
12866SOL    HW138624   3.735   5.269   1.510
12866SOL    HW238625   3.804   5.264   1.658
12867SOL     OW38626   2.212   4.622   1.804
12867SOL    HW138627   2.288   4.666   1.852
12867SOL    HW238628   2.247   4.575   1.722
12868SOL     OW38629   3.165   4.562   0.042
12868SOL    HW138630   3.199   4.469   0.057
12868SOL    HW238631   3.183   4.589  -0.053
12869SOL     OW38632   2.930   5.057   0.849
12869SOL    HW138633   2.937   4.973   0.794
12869SOL    HW238634   2.992   5.126   0.813
12870SOL     OW38635   2.181   4.534   0.949
12870SOL    HW138636   2.274   4.570   0.954
12870SOL    HW238637   2.175   4.449   1.001
12871SOL     OW38638   2.201   4.233   1.006
12871SOL    HW138639   2.149   4.150   0.989
12871SOL    HW238640   2.278   4.238   0.942
12872SOL     OW38641   3.000   4.104   1.678
12872SOL    HW138642   2.955   4.167   1.742
12872SOL    HW238643   3.093   4.135   1.661
12873SOL     OW38644   3.022   3.931   1.477
12873SOL    HW138645   3.022   3.995   1.554
12873SOL    HW238646   3.050   3.979   1.394
12874SOL     OW38647   1.870   5.050   0.200
12874SOL    HW138648   1.777   5.071   0.169
12874SOL    HW238649   1.880   4.951   0.213
12875SOL     OW38650   1.950   5.525   0.927
12875SOL    HW138651   1.908   5.439   0.900
12875SOL    HW238652   2.044   5.528   0.893
12876SOL     OW38653   2.366   5.292   0.910
12876SOL    HW138654   2.432   5.366   0.919
12876SOL    HW238655   2.410   5.213   0.868
12877SOL     OW38656   2.864   4.520   1.238
12877SOL    HW138657   2.905   4.488   1.324
12877SOL    HW238658   2.768   4.493   1.235
12878SOL     OW38659   1.902   4.268   1.114
12878SOL    HW138660   1.987   4.235   1.073
12878SOL    HW238661   1.915   4.283   1.212
12879SOL     OW38662   2.051   4.244   1.722
12879SOL    HW138663   2.110   4.204   1.652
12879SOL    HW238664   1.993   4.315   1.681
12880SOL     OW38665   3.231   4.674   1.660
12880SOL    HW138666   3.270   4.763   1.680
12880SOL    HW238667   3.241   4.654   1.563
12881SOL     OW38668   2.677   4.296   0.325
12881SOL    HW138669   2.684   4.207   0.279
12881SOL    HW238670   2.583   4.330   0.317
12882SOL     OW38671   3.519   4.328   1.206
12882SOL    HW138672   3.481   4.259   1.268
12882SOL    HW238673   3.601   4.292   1.162
12883SOL     OW38674   2.114   5.288   1.744
12883SOL    HW138675   2.084   5.345   1.820
12883SOL    HW238676   2.107   5.191   1.770
12884SOL     OW38677   2.533   4.188   1.269
12884SOL    HW138678   2.499   4.099   1.239
12884SOL    HW238679   2.559   4.242   1.189
12885SOL     OW38680   2.792   5.402   1.465
12885SOL    HW138681   2.768   5.384   1.370
12885SOL    HW238682   2.822   5.496   1.475
12886SOL     OW38683   2.335   4.224   0.191
12886SOL    HW138684   2.396   4.304   0.195
12886SOL    HW238685   2.240   4.255   0.198
12887SOL     OW38686   2.021   4.861   1.466
12887SOL    HW138687   2.043   4.800   1.542
12887SOL    HW238688   2.031   4.812   1.380
12888SOL     OW38689   3.209   4.783   1.234
12888SOL    HW138690   3.233   4.720   1.160
12888SOL    HW238691   3.119   4.823   1.216
12889SOL     OW38692   3.164   4.579   0.309
12889SOL    HW138693   3.078   4.548   0.351
12889SOL    HW238694   3.160   4.565   0.210
12890SOL     OW38695   3.621   5.471   1.154
12890SOL    HW138696   3.682   5.501   1.081
12890SOL    HW238697   3.583   5.382   1.132
12891SOL     OW38698   3.114   5.455   1.128
12891SOL    HW138699   3.198   5.460   1.074
12891SOL    HW238700   3.091   5.359   1.146
12892SOL     OW38701   1.945   4.982   1.022
12892SOL    HW138702   1.940   4.981   1.122
12892SOL    HW238703   1.862   4.941   0.984
12893SOL     OW38704   2.550   5.386   1.716
12893SOL    HW138705   2.494   5.467   1.725
12893SOL    HW238706   2.602   5.390   1.630
12894SOL     OW38707   2.765   3.810   0.133
12894SOL    HW138708   2.816   3.811   0.047
12894SOL    HW238709   2.821   3.768   0.204
12895SOL     OW38710   3.588   3.859   0.523
12895SOL    HW138711   3.661   3.842   0.456
12895SOL    HW238712   3.557   3.772   0.561
12896SOL     OW38713   3.250   5.297   0.477
12896SOL    HW138714   3.317   5.309   0.403
12896SOL    HW238715   3.210   5.386   0.500
12897SOL     OW38716   1.992   5.518   1.851
12897SOL    HW138717   1.951   5.444   1.904
12897SOL    HW238718   2.056   5.569   1.909
12898SOL     OW38719   3.142   4.651   0.672
12898SOL    HW138720   3.202   4.570   0.674
12898SOL    HW238721   3.182   4.720   0.612
12899SOL     OW38722   2.692   4.997   1.422
12899SOL    HW138723   2.687   5.030   1.517
12899SOL    HW238724   2.606   5.016   1.376
12900SOL     OW38725   2.534   5.340   0.154
12900SOL    HW138726   2.543   5.350   0.055
12900SOL    HW238727   2.494   5.251   0.175
12901SOL     OW38728   3.512   5.444   1.394
12901SOL    HW138729   3.565   5.454   1.310
12901SOL    HW238730   3.485   5.534   1.428
12902SOL     OW38731   3.703   3.899   0.963
12902SOL    HW138732   3.742   3.814   0.927
12902SOL    HW238733   3.605   3.901   0.944
12903SOL     OW38734   2.125   4.050   0.720
12903SOL    HW138735   2.046   4.101   0.686
12903SOL    HW238736   2.116   4.035   0.818
12904SOL     OW38737   3.056   5.336   0.031
12904SOL    HW138738   3.062   5.243   0.068
12904SOL    HW238739   2.997   5.336  -0.049
12905SOL     OW38740   2.684   4.726   1.372
12905SOL    HW138741   2.724   4.725   1.280
12905SOL    HW238742   2.694   4.818   1.412
12906SOL     OW38743   2.778   4.634   0.291
12906SOL    HW138744   2.841   4.672   0.223
12906SOL    HW238745   2.818   4.551   0.330
12907SOL     OW38746   3.366   5.331   0.044
12907SOL    HW138747   3.274   5.368   0.051
12907SOL    HW238748   3.404   5.351  -0.046
12908SOL     OW38749   2.234   5.012   1.490
12908SOL    HW138750   2.221   5.105   1.456
12908SOL    HW238751   2.150   4.960   1.477
12909SOL     OW38752   3.476   5.016   1.289
12909SOL    HW138753   3.536   5.019   1.369
12909SOL    HW238754   3.401   5.080   1.302
12910SOL     OW38755   2.901   4.822   0.696
12910SOL    HW138756   2.831   4.775   0.750
12910SOL    HW238757   2.960   4.754   0.653
12911SOL     OW38758   2.876   3.960   0.971
12911SOL    HW138759   2.868   3.924   0.878
12911SOL    HW238760   2.874   3.884   1.036
12912SOL     OW38761   2.452   5.211   0.491
12912SOL    HW138762   2.494   5.153   0.421
12912SOL    HW238763   2.408   5.290   0.447
12913SOL     OW38764   3.571   4.109   1.381
12913SOL    HW138765   3.644   4.178   1.385
12913SOL    HW238766   3.599   4.034   1.322
12914SOL     OW38767   2.117   5.072   0.290
12914SOL    HW138768   2.021   5.073   0.263
12914SOL    HW238769   2.129   5.125   0.374
12915SOL     OW38770   1.967   4.737   1.726
12915SOL    HW138771   1.890   4.704   1.780
12915SOL    HW238772   2.052   4.707   1.768
12916SOL     OW38773   2.534   3.927   1.489
12916SOL    HW138774   2.624   3.911   1.449
12916SOL    HW238775   2.542   3.932   1.588
12917SOL     OW38776   3.302   4.580   1.398
12917SOL    HW138777   3.245   4.632   1.335
12917SOL    HW238778   3.398   4.592   1.374
12918SOL     OW38779   1.934   3.890   0.318
12918SOL    HW138780   1.917   3.973   0.264
12918SOL    HW238781   2.024   3.853   0.296
12919SOL     OW38782   3.045   5.059   0.119
12919SOL    HW138783   2.946   5.048   0.121
12919SOL    HW238784   3.079   5.074   0.212
12920SOL     OW38785   2.475   4.566   1.431
12920SOL    HW138786   2.531   4.647   1.414
12920SOL    HW238787   2.534   4.486   1.434
12921SOL     OW38788   3.355   5.491   0.959
12921SOL    HW138789   3.388   5.555   0.890
12921SOL    HW238790   3.421   5.485   1.034
12922SOL     OW38791   2.578   4.289   1.708
12922SOL    HW138792   2.597   4.354   1.782
12922SOL    HW238793   2.638   4.209   1.717
12923SOL     OW38794   3.312   4.944   1.633
12923SOL    HW138795   3.303   4.934   1.732
12923SOL    HW238796   3.408   4.937   1.607
12924SOL     OW38797   2.252   5.465   1.560
12924SOL    HW138798   2.161   5.506   1.558
12924SOL    HW238799   2.245   5.371   1.592
12925SOL     OW38800   3.536   4.607   1.254
12925SOL    HW138801   3.509   4.518   1.217
12925SOL    HW238802   3.537   4.675   1.181
12926SOL     OW38803   3.087   4.049   0.449
12926SOL    HW138804   3.152   3.975   0.438
12926SOL    HW238805   3.107   4.099   0.533
12927SOL     OW38806   2.456   4.469   0.652
12927SOL    HW138807   2.506   4.554   0.633
12927SOL    HW238808   2.368   4.471   0.604
12928SOL     OW38809   3.639   4.066   1.642
12928SOL    HW138810   3.622   4.097   1.548
12928SOL    HW238811   3.555   4.029   1.680
12929SOL     OW38812   3.592   4.658   1.517
12929SOL    HW138813   3.630   4.749   1.532
12929SOL    HW238814   3.584   4.641   1.418
12930SOL     OW38815   2.721   5.098   0.016
12930SOL    HW138816   2.675   5.113   0.104
12930SOL    HW238817   2.765   5.183  -0.014
12931SOL     OW38818   2.523   5.514   0.953
12931SOL    HW138819   2.477   5.602   0.940
12931SOL    HW238820   2.622   5.526   0.946
12932SOL     OW38821   2.721   4.680   0.861
12932SOL    HW138822   2.775   4.611   0.909
12932SOL    HW238823   2.689   4.749   0.927
12933SOL     OW38824   2.945   4.708   0.087
12933SOL    HW138825   2.922   4.761   0.005
12933SOL    HW238826   3.026   4.652   0.068
12934SOL     OW38827   3.723   5.293   0.851
12934SOL    HW138828   3.652   5.281   0.781
12934SOL    HW238829   3.724   5.214   0.911
12935SOL     OW38830   2.083   5.038   1.844
12935SOL    HW138831   2.018   4.965   1.823
12935SOL    HW238832   2.087   5.052   1.942
12936SOL     OW38833   1.941   4.964   0.653
12936SOL    HW138834   1.940   4.917   0.741
12936SOL    HW238835   2.023   4.936   0.602
12937SOL     OW38836   2.534   5.115   1.624
12937SOL    HW138837   2.456   5.065   1.662
12937SOL    HW238838   2.531   5.210   1.655
12938SOL     OW38839   3.686   3.916   1.227
12938SOL    HW138840   3.682   3.826   1.271
12938SOL    HW238841   3.689   3.905   1.128
12939SOL     OW38842   2.290   4.148   0.520
12939SOL    HW138843   2.320   4.076   0.458
12939SOL    HW238844   2.251   4.108   0.603
12940SOL     OW38845   3.567   5.211   1.104
12940SOL    HW138846   3.474   5.186   1.077
12940SOL    HW238847   3.593   5.161   1.186
12941SOL     OW38848   2.179   4.271   1.280
12941SOL    HW138849   2.217   4.212   1.352
12941SOL    HW238850   2.219   4.245   1.192
12942SOL     OW38851   2.674   5.310   0.687
12942SOL    HW138852   2.706   5.320   0.593
12942SOL    HW238853   2.595   5.248   0.689
12943SOL     OW38854   3.286   3.938   1.112
12943SOL    HW138855   3.338   3.873   1.167
12943SOL    HW238856   3.237   4.001   1.173
12944SOL     OW38857   2.863   3.758   1.154
12944SOL    HW138858   2.800   3.686   1.123
12944SOL    HW238859   2.956   3.722   1.154
12945SOL     OW38860   2.632   5.054   0.301
12945SOL    HW138861   2.586   4.967   0.318
12945SOL    HW238862   2.723   5.051   0.342
12946SOL     OW38863   2.480   5.291   1.284
12946SOL    HW138864   2.475   5.373   1.341
12946SOL    HW238865   2.569   5.288   1.239
12947SOL     OW38866   3.214   3.776   0.168
12947SOL    HW138867   3.249   3.735   0.084
12947SOL    HW238868   3.124   3.738   0.188
12948SOL     OW38869   3.162   4.177   0.691
12948SOL    HW138870   3.103   4.257   0.695
12948SOL    HW238871   3.177   4.142   0.784
12949SOL     OW38872   3.455   3.945   0.882
12949SOL    HW138873   3.371   3.944   0.936
12949SOL    HW238874   3.457   4.028   0.826
12950SOL     OW38875   1.901   4.801   0.300
12950SOL    HW138876   2.000   4.790   0.291
12950SOL    HW238877   1.861   4.715   0.332
12951SOL     OW38878   2.737   5.370   0.337
12951SOL    HW138879   2.660   5.335   0.283
12951SOL    HW238880   2.705   5.441   0.399
12952SOL     OW38881   2.092   4.352   1.975
12952SOL    HW138882   1.999   4.350   2.012
12952SOL    HW238883   2.093   4.313   1.883
12953SOL     OW38884   2.087   3.999   2.858
12953SOL    HW138885   2.122   3.982   2.950
12953SOL    HW238886   1.999   3.954   2.846
12954SOL     OW38887   1.881   4.092   2.509
12954SOL    HW138888   1.799   4.135   2.548
12954SOL    HW238889   1.853   4.019   2.446
12955SOL     OW38890   2.431   4.999   3.027
12955SOL    HW138891   2.338   4.992   2.990
12955SOL    HW238892   2.442   5.088   3.071
12956SOL     OW38893   3.417   5.235   2.565
12956SOL    HW138894   3.360   5.219   2.646
12956SOL    HW238895   3.358   5.245   2.485
12957SOL     OW38896   2.997   4.427   2.579
12957SOL    HW138897   3.054   4.505   2.554
12957SOL    HW238898   2.937   4.453   2.655
12958SOL     OW38899   3.617   4.331   2.093
12958SOL    HW138900   3.605   4.318   1.994
12958SOL    HW238901   3.587   4.250   2.142
12959SOL     OW38902   2.630   4.868   2.885
12959SOL    HW138903   2.552   4.885   2.945
12959SOL    HW238904   2.664   4.955   2.849
12960SOL     OW38905   2.712   4.522   3.685
12960SOL    HW138906   2.708   4.598   3.750
12960SOL    HW238907   2.734   4.558   3.594
12961SOL     OW38908   2.547   4.736   2.527
12961SOL    HW138909   2.616   4.720   2.597
12961SOL    HW238910   2.474   4.793   2.565
12962SOL     OW38911   2.548   4.885   3.665
12962SOL    HW138912   2.608   4.964   3.679
12962SOL    HW238913   2.462   4.916   3.624
12963SOL     OW38914   2.197   5.159   2.923
12963SOL    HW138915   2.119   5.128   2.870
12963SOL    HW238916   2.255   5.217   2.866
12964SOL     OW38917   3.322   5.229   3.201
12964SOL    HW138918   3.346   5.323   3.227
12964SOL    HW238919   3.306   5.175   3.283
12965SOL     OW38920   2.300   4.116   3.361
12965SOL    HW138921   2.382   4.060   3.370
12965SOL    HW238922   2.219   4.058   3.365
12966SOL     OW38923   3.465   4.171   2.599
12966SOL    HW138924   3.391   4.217   2.549
12966SOL    HW238925   3.516   4.239   2.652
12967SOL     OW38926   2.093   5.437   2.345
12967SOL    HW138927   2.127   5.514   2.399
12967SOL    HW238928   2.137   5.437   2.255
12968SOL     OW38929   2.989   5.065   3.552
12968SOL    HW138930   3.036   5.065   3.640
12968SOL    HW238931   2.941   4.978   3.541
12969SOL     OW38932   2.092   5.158   2.400
12969SOL    HW138933   2.066   5.254   2.400
12969SOL    HW238934   2.021   5.104   2.445
12970SOL     OW38935   2.102   4.815   2.748
12970SOL    HW138936   2.116   4.731   2.800
12970SOL    HW238937   2.047   4.879   2.803
12971SOL     OW38938   2.482   5.510   3.301
12971SOL    HW138939   2.390   5.493   3.336
12971SOL    HW238940   2.510   5.602   3.327
12972SOL     OW38941   2.468   4.688   1.985
12972SOL    HW138942   2.475   4.772   1.931
12972SOL    HW238943   2.514   4.701   2.073
12973SOL     OW38944   3.456   3.838   3.342
12973SOL    HW138945   3.438   3.905   3.270
12973SOL    HW238946   3.453   3.884   3.431
12974SOL     OW38947   1.984   4.367   2.425
12974SOL    HW138948   1.939   4.279   2.442
12974SOL    HW238949   1.983   4.421   2.509
12975SOL     OW38950   3.704   5.491   2.221
12975SOL    HW138951   3.758   5.462   2.301
12975SOL    HW238952   3.734   5.581   2.192
12976SOL     OW38953   1.889   5.320   1.979
12976SOL    HW138954   1.870   5.224   2.000
12976SOL    HW238955   1.856   5.378   2.054
12977SOL     OW38956   3.551   4.646   2.474
12977SOL    HW138957   3.646   4.617   2.482
12977SOL    HW238958   3.543   4.711   2.399
12978SOL     OW38959   3.503   4.832   2.294
12978SOL    HW138960   3.589   4.834   2.242
12978SOL    HW238961   3.517   4.879   2.382
12979SOL     OW38962   1.975   4.461   3.459
12979SOL    HW138963   2.063   4.448   3.504
12979SOL    HW238964   1.962   4.558   3.437
12980SOL     OW38965   2.475   5.089   2.588
12980SOL    HW138966   2.426   5.002   2.597
12980SOL    HW238967   2.452   5.132   2.501
12981SOL     OW38968   3.155   4.952   3.285
12981SOL    HW138969   3.192   4.879   3.227
12981SOL    HW238970   3.207   4.957   3.370
12982SOL     OW38971   2.671   3.728   2.364
12982SOL    HW138972   2.711   3.819   2.355
12982SOL    HW238973   2.571   3.736   2.370
12983SOL     OW38974   2.059   4.700   3.126
12983SOL    HW138975   2.148   4.655   3.112
12983SOL    HW238976   1.986   4.635   3.107
12984SOL     OW38977   3.387   4.723   2.052
12984SOL    HW138978   3.324   4.647   2.065
12984SOL    HW238979   3.435   4.741   2.138
12985SOL     OW38980   3.049   5.516   3.478
12985SOL    HW138981   3.073   5.576   3.402
12985SOL    HW238982   3.056   5.421   3.448
12986SOL     OW38983   2.179   3.975   3.663
12986SOL    HW138984   2.250   4.046   3.669
12986SOL    HW238985   2.091   4.014   3.691
12987SOL     OW38986   3.328   5.141   2.815
12987SOL    HW138987   3.269   5.147   2.895
12987SOL    HW238988   3.313   5.053   2.769
12988SOL     OW38989   3.529   5.438   2.434
12988SOL    HW138990   3.488   5.415   2.346
12988SOL    HW238991   3.511   5.364   2.499
12989SOL     OW38992   2.460   4.453   2.132
12989SOL    HW138993   2.484   4.522   2.064
12989SOL    HW238994   2.382   4.486   2.186
12990SOL     OW38995   3.143   4.069   2.806
12990SOL    HW138996   3.057   4.019   2.793
12990SOL    HW238997   3.205   4.015   2.862
12991SOL     OW38998   3.438   5.386   2.169
12991SOL    HW138999   3.527   5.432   2.172
12991SOL    HW239000   3.417   5.362   2.074
12992SOL     OW39001   2.669   4.329   3.327
12992SOL    HW139002   2.622   4.326   3.416
12992SOL    HW239003   2.618   4.274   3.261
12993SOL     OW39004   3.256   4.193   3.536
12993SOL    HW139005   3.236   4.236   3.624
12993SOL    HW239006   3.334   4.131   3.545
12994SOL     OW39007   2.835   4.614   3.434
12994SOL    HW139008   2.881   4.530   3.405
12994SOL    HW239009   2.779   4.648   3.359
12995SOL     OW39010   2.853   4.134   3.104
12995SOL    HW139011   2.776   4.168   3.158
12995SOL    HW239012   2.819   4.083   3.025
12996SOL     OW39013   2.903   4.425   2.291
12996SOL    HW139014   2.929   4.421   2.387
12996SOL    HW239015   2.818   4.374   2.277
12997SOL     OW39016   1.938   4.535   2.651
12997SOL    HW139017   2.037   4.523   2.660
12997SOL    HW239018   1.914   4.630   2.672
12998SOL     OW39019   1.992   5.545   3.433
12998SOL    HW139020   1.982   5.530   3.532
12998SOL    HW239021   1.906   5.581   3.397
12999SOL     OW39022   2.727   4.072   2.057
12999SOL    HW139023   2.786   4.135   2.008
12999SOL    HW239024   2.746   3.978   2.028
13000SOL     OW39025   3.581   4.309   3.693
13000SOL    HW139026   3.555   4.398   3.657
13000SOL    HW239027   3.579   4.241   3.620
13001SOL     OW39028   3.224   4.868   2.407
13001SOL    HW139029   3.307   4.839   2.359
13001SOL    HW239030   3.175   4.935   2.351
13002SOL     OW39031   2.412   3.920   2.747
13002SOL    HW139032   2.407   3.915   2.847
13002SOL    HW239033   2.414   4.016   2.718
13003SOL     OW39034   2.870   5.180   2.339
13003SOL    HW139035   2.824   5.252   2.287
13003SOL    HW239036   2.866   5.200   2.437
13004SOL     OW39037   2.213   5.525   2.715
13004SOL    HW139038   2.263   5.439   2.721
13004SOL    HW239039   2.278   5.602   2.712
13005SOL     OW39040   3.657   4.790   2.735
13005SOL    HW139041   3.595   4.775   2.659
13005SOL    HW239042   3.605   4.801   2.820
13006SOL     OW39043   3.089   5.274   3.368
13006SOL    HW139044   3.095   5.197   3.432
13006SOL    HW239045   3.037   5.248   3.288
13007SOL     OW39046   2.183   4.667   2.104
13007SOL    HW139047   2.265   4.706   2.062
13007SOL    HW239048   2.156   4.585   2.055
13008SOL     OW39049   3.320   4.459   2.590
13008SOL    HW139050   3.315   4.394   2.665
13008SOL    HW239051   3.400   4.518   2.603
13009SOL     OW39052   2.323   4.990   3.589
13009SOL    HW139053   2.273   4.991   3.503
13009SOL    HW239054   2.260   4.972   3.665
13010SOL     OW39055   2.973   5.500   2.099
13010SOL    HW139056   2.913   5.438   2.149
13010SOL    HW239057   3.004   5.456   2.014
13011SOL     OW39058   2.064   4.009   3.360
13011SOL    HW139059   1.984   4.069   3.347
13011SOL    HW239060   2.054   3.960   3.446
13012SOL     OW39061   3.494   5.101   1.943
13012SOL    HW139062   3.462   5.195   1.933
13012SOL    HW239063   3.418   5.038   1.931
13013SOL     OW39064   2.326   5.467   2.185
13013SOL    HW139065   2.359   5.506   2.271
13013SOL    HW239066   2.402   5.460   2.120
13014SOL     OW39067   3.262   3.831   2.288
13014SOL    HW139068   3.238   3.794   2.198
13014SOL    HW239069   3.361   3.847   2.292
13015SOL     OW39070   2.111   5.509   3.103
13015SOL    HW139071   2.168   5.444   3.153
13015SOL    HW239072   2.095   5.476   3.010
13016SOL     OW39073   2.802   5.422   2.766
13016SOL    HW139074   2.882   5.365   2.787
13016SOL    HW239075   2.753   5.382   2.689
13017SOL     OW39076   2.244   4.424   2.342
13017SOL    HW139077   2.289   4.334   2.339
13017SOL    HW239078   2.150   4.413   2.375
13018SOL     OW39079   3.409   3.946   3.591
13018SOL    HW139080   3.404   3.983   3.683
13018SOL    HW239081   3.337   3.877   3.579
13019SOL     OW39082   2.476   3.846   1.979
13019SOL    HW139083   2.574   3.824   1.986
13019SOL    HW239084   2.445   3.829   1.886
13020SOL     OW39085   2.643   3.988   3.611
13020SOL    HW139086   2.710   3.927   3.654
13020SOL    HW239087   2.570   4.007   3.676
13021SOL     OW39088   2.750   5.238   3.057
13021SOL    HW139089   2.727   5.213   2.963
13021SOL    HW239090   2.811   5.169   3.096
13022SOL     OW39091   3.213   4.314   3.295
13022SOL    HW139092   3.241   4.271   3.380
13022SOL    HW239093   3.238   4.410   3.296
13023SOL     OW39094   2.665   5.126   2.786
13023SOL    HW139095   2.755   5.140   2.744
13023SOL    HW239096   2.594   5.128   2.715
13024SOL     OW39097   2.784   4.227   2.761
13024SOL    HW139098   2.759   4.218   2.665
13024SOL    HW239099   2.832   4.145   2.792
13025SOL     OW39100   2.401   3.788   2.374
13025SOL    HW139101   2.320   3.789   2.432
13025SOL    HW239102   2.404   3.871   2.319
13026SOL     OW39103   3.296   4.912   1.903
13026SOL    HW139104   3.328   4.836   1.960
13026SOL    HW239105   3.204   4.939   1.933
13027SOL     OW39106   2.159   3.759   2.033
13027SOL    HW139107   2.208   3.843   2.012
13027SOL    HW239108   2.221   3.694   2.078
13028SOL     OW39109   2.797   3.960   2.342
13028SOL    HW139110   2.749   4.001   2.264
13028SOL    HW239111   2.896   3.958   2.323
13029SOL     OW39112   2.938   4.407   3.326
13029SOL    HW139113   2.858   4.346   3.329
13029SOL    HW239114   3.019   4.354   3.302
13030SOL     OW39115   3.089   5.294   2.655
13030SOL    HW139116   3.110   5.368   2.590
13030SOL    HW239117   3.157   5.294   2.728
13031SOL     OW39118   2.321   4.876   2.603
13031SOL    HW139119   2.250   4.849   2.668
13031SOL    HW239120   2.295   4.848   2.510
13032SOL     OW39121   3.133   5.521   2.453
13032SOL    HW139122   3.177   5.585   2.389
13032SOL    HW239123   3.083   5.573   2.523
13033SOL     OW39124   2.894   4.273   1.878
13033SOL    HW139125   2.853   4.355   1.839
13033SOL    HW239126   2.958   4.299   1.951
13034SOL     OW39127   1.940   4.280   3.248
13034SOL    HW139128   2.032   4.279   3.207
13034SOL    HW239129   1.934   4.354   3.315
13035SOL     OW39130   2.423   3.946   3.009
13035SOL    HW139131   2.461   3.862   3.046
13035SOL    HW239132   2.335   3.965   3.053
13036SOL     OW39133   2.728   4.178   2.504
13036SOL    HW139134   2.696   4.250   2.442
13036SOL    HW239135   2.752   4.097   2.451
13037SOL     OW39136   2.879   3.763   2.615
13037SOL    HW139137   2.807   3.768   2.546
13037SOL    HW239138   2.855   3.694   2.684
13038SOL     OW39139   3.291   4.897   2.729
13038SOL    HW139140   3.236   4.813   2.722
13038SOL    HW239141   3.317   4.926   2.637
13039SOL     OW39142   3.328   4.314   2.854
13039SOL    HW139143   3.298   4.219   2.861
13039SOL    HW239144   3.401   4.330   2.920
13040SOL     OW39145   3.719   4.557   2.239
13040SOL    HW139146   3.761   4.493   2.303
13040SOL    HW239147   3.681   4.506   2.161
13041SOL     OW39148   2.350   5.109   2.036
13041SOL    HW139149   2.263   5.094   2.083
13041SOL    HW239150   2.333   5.135   1.941
13042SOL     OW39151   3.526   5.004   2.519
13042SOL    HW139152   3.625   5.012   2.533
13042SOL    HW239153   3.481   5.088   2.550
13043SOL     OW39154   3.252   4.299   1.940
13043SOL    HW139155   3.198   4.278   2.021
13043SOL    HW239156   3.343   4.258   1.949
13044SOL     OW39157   2.389   3.980   2.190
13044SOL    HW139158   2.416   3.921   2.115
13044SOL    HW239159   2.389   4.075   2.159
13045SOL     OW39160   3.616   4.947   3.450
13045SOL    HW139161   3.707   4.908   3.437
13045SOL    HW239162   3.624   5.043   3.474
13046SOL     OW39163   2.926   5.071   3.202
13046SOL    HW139164   2.846   5.048   3.257
13046SOL    HW239165   3.009   5.045   3.251
13047SOL     OW39166   3.454   5.353   3.487
13047SOL    HW139167   3.481   5.387   3.397
13047SOL    HW239168   3.533   5.315   3.533
13048SOL     OW39169   2.973   4.919   2.962
13048SOL    HW139170   2.933   4.963   3.043
13048SOL    HW239171   2.932   4.956   2.879
13049SOL     OW39172   3.500   4.823   2.941
13049SOL    HW139173   3.505   4.904   3.000
13049SOL    HW239174   3.414   4.825   2.890
13050SOL     OW39175   2.777   3.813   3.264
13050SOL    HW139176   2.802   3.793   3.169
13050SOL    HW239177   2.849   3.869   3.306
13051SOL     OW39178   2.842   4.840   3.581
13051SOL    HW139179   2.743   4.846   3.591
13051SOL    HW239180   2.865   4.760   3.525
13052SOL     OW39181   2.567   4.774   2.230
13052SOL    HW139182   2.553   4.781   2.329
13052SOL    HW239183   2.651   4.723   2.212
13053SOL     OW39184   2.272   4.537   3.113
13053SOL    HW139185   2.358   4.549   3.163
13053SOL    HW239186   2.230   4.450   3.140
13054SOL     OW39187   3.136   4.110   3.124
13054SOL    HW139188   3.157   4.184   3.188
13054SOL    HW239189   3.047   4.127   3.081
13055SOL     OW39190   1.926   5.288   3.193
13055SOL    HW139191   1.880   5.370   3.159
13055SOL    HW239192   2.024   5.307   3.202
13056SOL     OW39193   2.229   4.824   2.363
13056SOL    HW139194   2.222   4.907   2.307
13056SOL    HW239195   2.233   4.744   2.303
13057SOL     OW39196   2.428   4.261   2.727
13057SOL    HW139197   2.440   4.327   2.653
13057SOL    HW239198   2.474   4.295   2.810
13058SOL     OW39199   3.114   5.072   2.250
13058SOL    HW139200   3.164   5.149   2.290
13058SOL    HW239201   3.019   5.074   2.282
13059SOL     OW39202   3.134   5.169   3.004
13059SOL    HW139203   3.181   5.182   3.091
13059SOL    HW239204   3.068   5.095   3.013
13060SOL     OW39205   3.444   4.363   2.334
13060SOL    HW139206   3.413   4.424   2.407
13060SOL    HW239207   3.494   4.415   2.265
13061SOL     OW39208   2.216   5.234   3.191
13061SOL    HW139209   2.195   5.190   3.104
13061SOL    HW239210   2.313   5.260   3.194
13062SOL     OW39211   2.264   4.475   3.460
13062SOL    HW139212   2.332   4.530   3.413
13062SOL    HW239213   2.304   4.387   3.487
13063SOL     OW39214   3.449   4.503   3.532
13063SOL    HW139215   3.357   4.541   3.527
13063SOL    HW239216   3.509   4.550   3.467
13064SOL     OW39217   2.875   3.829   3.632
13064SOL    HW139218   2.881   3.914   3.580
13064SOL    HW239219   2.907   3.753   3.575
13065SOL     OW39220   2.366   3.774   3.602
13065SOL    HW139221   2.324   3.717   3.532
13065SOL    HW239222   2.300   3.843   3.634
13066SOL     OW39223   2.435   4.594   2.891
13066SOL    HW139224   2.479   4.683   2.882
13066SOL    HW239225   2.372   4.594   2.968
13067SOL     OW39226   3.222   4.586   2.907
13067SOL    HW139227   3.147   4.586   2.841
13067SOL    HW239228   3.259   4.494   2.916
13068SOL     OW39229   3.071   4.249   2.137
13068SOL    HW139230   3.084   4.165   2.191
13068SOL    HW239231   3.042   4.323   2.197
13069SOL     OW39232   2.169   3.937   3.093
13069SOL    HW139233   2.146   3.974   3.183
13069SOL    HW239234   2.139   3.842   3.087
13070SOL     OW39235   1.899   5.034   3.144
13070SOL    HW139236   1.952   4.985   3.212
13070SOL    HW239237   1.921   5.132   3.149
13071SOL     OW39238   2.594   4.358   2.926
13071SOL    HW139239   2.653   4.332   2.850
13071SOL    HW239240   2.566   4.454   2.915
13072SOL     OW39241   3.590   4.659   3.716
13072SOL    HW139242   3.544   4.652   3.627
13072SOL    HW239243   3.528   4.703   3.782
13073SOL     OW39244   2.169   3.787   2.480
13073SOL    HW139245   2.158   3.881   2.513
13073SOL    HW239246   2.164   3.724   2.557
13074SOL     OW39247   3.484   4.091   2.236
13074SOL    HW139248   3.486   4.015   2.300
13074SOL    HW239249   3.436   4.168   2.276
13075SOL     OW39250   2.885   4.490   2.828
13075SOL    HW139251   2.900   4.511   2.924
13075SOL    HW239252   2.855   4.395   2.819
13076SOL     OW39253   2.842   5.297   3.562
13076SOL    HW139254   2.822   5.341   3.474
13076SOL    HW239255   2.881   5.206   3.546
13077SOL     OW39256   3.721   5.242   3.467
13077SOL    HW139257   3.735   5.269   3.372
13077SOL    HW239258   3.804   5.264   3.520
13078SOL     OW39259   2.212   4.622   3.666
13078SOL    HW139260   2.288   4.666   3.714
13078SOL    HW239261   2.247   4.575   3.584
13079SOL     OW39262   3.402   3.998   1.987
13079SOL    HW139263   3.341   3.923   2.010
13079SOL    HW239264   3.424   4.050   2.070
13080SOL     OW39265   3.165   4.562   1.904
13080SOL    HW139266   3.199   4.469   1.919
13080SOL    HW239267   3.183   4.589   1.809
13081SOL     OW39268   2.930   5.057   2.711
13081SOL    HW139269   2.937   4.973   2.656
13081SOL    HW239270   2.992   5.126   2.675
13082SOL     OW39271   2.181   4.534   2.811
13082SOL    HW139272   2.274   4.570   2.816
13082SOL    HW239273   2.175   4.449   2.863
13083SOL     OW39274   2.201   4.233   2.868
13083SOL    HW139275   2.149   4.150   2.851
13083SOL    HW239276   2.278   4.238   2.804
13084SOL     OW39277   3.000   4.104   3.540
13084SOL    HW139278   2.955   4.167   3.604
13084SOL    HW239279   3.093   4.135   3.523
13085SOL     OW39280   3.022   3.931   3.339
13085SOL    HW139281   3.022   3.995   3.416
13085SOL    HW239282   3.050   3.979   3.256
13086SOL     OW39283   1.870   5.050   2.062
13086SOL    HW139284   1.777   5.071   2.031
13086SOL    HW239285   1.880   4.951   2.075
13087SOL     OW39286   1.950   5.525   2.789
13087SOL    HW139287   1.908   5.439   2.762
13087SOL    HW239288   2.044   5.528   2.755
13088SOL     OW39289   2.366   5.292   2.772
13088SOL    HW139290   2.432   5.366   2.781
13088SOL    HW239291   2.410   5.213   2.730
13089SOL     OW39292   2.864   4.520   3.100
13089SOL    HW139293   2.905   4.488   3.186
13089SOL    HW239294   2.768   4.493   3.097
13090SOL     OW39295   1.902   4.268   2.976
13090SOL    HW139296   1.987   4.235   2.935
13090SOL    HW239297   1.915   4.283   3.074
13091SOL     OW39298   2.051   4.244   3.584
13091SOL    HW139299   2.110   4.204   3.514
13091SOL    HW239300   1.993   4.315   3.543
13092SOL     OW39301   3.231   4.674   3.522
13092SOL    HW139302   3.270   4.763   3.542
13092SOL    HW239303   3.241   4.654   3.425
13093SOL     OW39304   2.677   4.296   2.187
13093SOL    HW139305   2.684   4.207   2.141
13093SOL    HW239306   2.583   4.330   2.179
13094SOL     OW39307   3.519   4.328   3.068
13094SOL    HW139308   3.481   4.259   3.130
13094SOL    HW239309   3.601   4.292   3.024
13095SOL     OW39310   2.114   5.288   3.606
13095SOL    HW139311   2.084   5.345   3.682
13095SOL    HW239312   2.107   5.191   3.632
13096SOL     OW39313   2.533   4.188   3.131
13096SOL    HW139314   2.499   4.099   3.101
13096SOL    HW239315   2.559   4.242   3.051
13097SOL     OW39316   2.792   5.402   3.327
13097SOL    HW139317   2.768   5.384   3.232
13097SOL    HW239318   2.822   5.496   3.337
13098SOL     OW39319   2.335   4.224   2.053
13098SOL    HW139320   2.396   4.304   2.057
13098SOL    HW239321   2.240   4.255   2.060
13099SOL     OW39322   2.021   4.861   3.328
13099SOL    HW139323   2.043   4.800   3.404
13099SOL    HW239324   2.031   4.812   3.242
13100SOL     OW39325   3.209   4.783   3.096
13100SOL    HW139326   3.233   4.720   3.022
13100SOL    HW239327   3.119   4.823   3.078
13101SOL     OW39328   3.164   4.579   2.171
13101SOL    HW139329   3.078   4.548   2.213
13101SOL    HW239330   3.160   4.565   2.072
13102SOL     OW39331   3.621   5.471   3.016
13102SOL    HW139332   3.682   5.501   2.943
13102SOL    HW239333   3.583   5.382   2.994
13103SOL     OW39334   3.114   5.455   2.990
13103SOL    HW139335   3.198   5.460   2.936
13103SOL    HW239336   3.091   5.359   3.008
13104SOL     OW39337   1.945   4.982   2.884
13104SOL    HW139338   1.940   4.981   2.984
13104SOL    HW239339   1.862   4.941   2.846
13105SOL     OW39340   2.550   5.386   3.578
13105SOL    HW139341   2.494   5.467   3.587
13105SOL    HW239342   2.602   5.390   3.492
13106SOL     OW39343   3.588   3.859   2.385
13106SOL    HW139344   3.661   3.842   2.318
13106SOL    HW239345   3.557   3.772   2.423
13107SOL     OW39346   3.250   5.297   2.339
13107SOL    HW139347   3.317   5.309   2.265
13107SOL    HW239348   3.210   5.386   2.362
13108SOL     OW39349   1.992   5.518   3.713
13108SOL    HW139350   1.951   5.444   3.766
13108SOL    HW239351   2.056   5.569   3.771
13109SOL     OW39352   3.142   4.651   2.534
13109SOL    HW139353   3.202   4.570   2.536
13109SOL    HW239354   3.182   4.720   2.474
13110SOL     OW39355   2.692   4.997   3.284
13110SOL    HW139356   2.687   5.030   3.379
13110SOL    HW239357   2.606   5.016   3.238
13111SOL     OW39358   2.534   5.340   2.016
13111SOL    HW139359   2.543   5.350   1.917
13111SOL    HW239360   2.494   5.251   2.037
13112SOL     OW39361   3.512   5.444   3.256
13112SOL    HW139362   3.565   5.454   3.172
13112SOL    HW239363   3.485   5.534   3.290
13113SOL     OW39364   3.703   3.899   2.825
13113SOL    HW139365   3.742   3.814   2.789
13113SOL    HW239366   3.605   3.901   2.806
13114SOL     OW39367   2.125   4.050   2.582
13114SOL    HW139368   2.046   4.101   2.548
13114SOL    HW239369   2.116   4.035   2.680
13115SOL     OW39370   3.056   5.336   1.893
13115SOL    HW139371   3.062   5.243   1.930
13115SOL    HW239372   2.997   5.336   1.813
13116SOL     OW39373   2.684   4.726   3.234
13116SOL    HW139374   2.724   4.725   3.142
13116SOL    HW239375   2.694   4.818   3.274
13117SOL     OW39376   2.778   4.634   2.153
13117SOL    HW139377   2.841   4.672   2.085
13117SOL    HW239378   2.818   4.551   2.192
13118SOL     OW39379   3.366   5.331   1.906
13118SOL    HW139380   3.274   5.368   1.913
13118SOL    HW239381   3.404   5.351   1.816
13119SOL     OW39382   2.234   5.012   3.352
13119SOL    HW139383   2.221   5.105   3.318
13119SOL    HW239384   2.150   4.960   3.339
13120SOL     OW39385   3.476   5.016   3.151
13120SOL    HW139386   3.536   5.019   3.231
13120SOL    HW239387   3.401   5.080   3.164
13121SOL     OW39388   2.876   3.960   2.833
13121SOL    HW139389   2.868   3.924   2.740
13121SOL    HW239390   2.874   3.884   2.898
13122SOL     OW39391   2.452   5.211   2.353
13122SOL    HW139392   2.494   5.153   2.283
13122SOL    HW239393   2.408   5.290   2.309
13123SOL     OW39394   3.571   4.109   3.243
13123SOL    HW139395   3.644   4.178   3.247
13123SOL    HW239396   3.599   4.034   3.184
13124SOL     OW39397   2.117   5.072   2.152
13124SOL    HW139398   2.021   5.073   2.125
13124SOL    HW239399   2.129   5.125   2.236
13125SOL     OW39400   1.967   4.737   3.588
13125SOL    HW139401   1.890   4.704   3.642
13125SOL    HW239402   2.052   4.707   3.630
13126SOL     OW39403   2.534   3.927   3.351
13126SOL    HW139404   2.624   3.911   3.311
13126SOL    HW239405   2.542   3.932   3.450
13127SOL     OW39406   1.937   4.069   1.895
13127SOL    HW139407   1.845   4.041   1.866
13127SOL    HW239408   1.968   4.146   1.839
13128SOL     OW39409   3.302   4.580   3.260
13128SOL    HW139410   3.245   4.632   3.197
13128SOL    HW239411   3.398   4.592   3.236
13129SOL     OW39412   1.934   3.890   2.180
13129SOL    HW139413   1.917   3.973   2.126
13129SOL    HW239414   2.024   3.853   2.158
13130SOL     OW39415   3.045   5.059   1.981
13130SOL    HW139416   2.946   5.048   1.983
13130SOL    HW239417   3.079   5.074   2.074
13131SOL     OW39418   2.475   4.566   3.293
13131SOL    HW139419   2.531   4.647   3.276
13131SOL    HW239420   2.534   4.486   3.296
13132SOL     OW39421   3.355   5.491   2.821
13132SOL    HW139422   3.388   5.555   2.752
13132SOL    HW239423   3.421   5.485   2.896
13133SOL     OW39424   2.578   4.289   3.570
13133SOL    HW139425   2.597   4.354   3.644
13133SOL    HW239426   2.638   4.209   3.579
13134SOL     OW39427   3.312   4.944   3.495
13134SOL    HW139428   3.303   4.934   3.594
13134SOL    HW239429   3.408   4.937   3.469
13135SOL     OW39430   2.252   5.465   3.422
13135SOL    HW139431   2.161   5.506   3.420
13135SOL    HW239432   2.245   5.371   3.454
13136SOL     OW39433   3.536   4.607   3.116
13136SOL    HW139434   3.509   4.518   3.079
13136SOL    HW239435   3.537   4.675   3.043
13137SOL     OW39436   3.087   4.049   2.311
13137SOL    HW139437   3.152   3.975   2.300
13137SOL    HW239438   3.107   4.099   2.395
13138SOL     OW39439   2.456   4.469   2.514
13138SOL    HW139440   2.506   4.554   2.495
13138SOL    HW239441   2.368   4.471   2.466
13139SOL     OW39442   3.639   4.066   3.504
13139SOL    HW139443   3.622   4.097   3.410
13139SOL    HW239444   3.555   4.029   3.542
13140SOL     OW39445   3.592   4.658   3.379
13140SOL    HW139446   3.630   4.749   3.394
13140SOL    HW239447   3.584   4.641   3.280
13141SOL     OW39448   2.721   5.098   1.878
13141SOL    HW139449   2.675   5.113   1.966
13141SOL    HW239450   2.765   5.183   1.848
13142SOL     OW39451   2.523   5.514   2.815
13142SOL    HW139452   2.477   5.602   2.802
13142SOL    HW239453   2.622   5.526   2.808
13143SOL     OW39454   2.721   4.680   2.723
13143SOL    HW139455   2.775   4.611   2.771
13143SOL    HW239456   2.689   4.749   2.789
13144SOL     OW39457   2.945   4.708   1.949
13144SOL    HW139458   2.922   4.761   1.867
13144SOL    HW239459   3.026   4.652   1.930
13145SOL     OW39460   3.723   5.293   2.713
13145SOL    HW139461   3.652   5.281   2.643
13145SOL    HW239462   3.724   5.214   2.773
13146SOL     OW39463   2.083   5.038   3.706
13146SOL    HW139464   2.018   4.965   3.685
13146SOL    HW239465   2.087   5.052   3.804
13147SOL     OW39466   1.941   4.964   2.515
13147SOL    HW139467   1.940   4.917   2.603
13147SOL    HW239468   2.023   4.936   2.464
13148SOL     OW39469   2.534   5.115   3.486
13148SOL    HW139470   2.456   5.065   3.524
13148SOL    HW239471   2.531   5.210   3.517
13149SOL     OW39472   3.686   3.916   3.089
13149SOL    HW139473   3.682   3.826   3.133
13149SOL    HW239474   3.689   3.905   2.990
13150SOL     OW39475   2.290   4.148   2.382
13150SOL    HW139476   2.320   4.076   2.320
13150SOL    HW239477   2.251   4.108   2.465
13151SOL     OW39478   3.567   5.211   2.966
13151SOL    HW139479   3.474   5.186   2.939
13151SOL    HW239480   3.593   5.161   3.048
13152SOL     OW39481   2.179   4.271   3.142
13152SOL    HW139482   2.217   4.212   3.214
13152SOL    HW239483   2.219   4.245   3.054
13153SOL     OW39484   2.674   5.310   2.549
13153SOL    HW139485   2.706   5.320   2.455
13153SOL    HW239486   2.595   5.248   2.551
13154SOL     OW39487   3.286   3.938   2.974
13154SOL    HW139488   3.338   3.873   3.029
13154SOL    HW239489   3.237   4.001   3.035
13155SOL     OW39490   2.863   3.758   3.016
13155SOL    HW139491   2.800   3.686   2.985
13155SOL    HW239492   2.956   3.722   3.016
13156SOL     OW39493   2.632   5.054   2.163
13156SOL    HW139494   2.586   4.967   2.180
13156SOL    HW239495   2.723   5.051   2.204
13157SOL     OW39496   2.480   5.291   3.146
13157SOL    HW139497   2.475   5.373   3.203
13157SOL    HW239498   2.569   5.288   3.101
13158SOL     OW39499   3.214   3.776   2.030
13158SOL    HW139500   3.249   3.735   1.946
13158SOL    HW239501   3.124   3.738   2.050
13159SOL     OW39502   3.162   4.177   2.553
13159SOL    HW139503   3.103   4.257   2.557
13159SOL    HW239504   3.177   4.142   2.646
13160SOL     OW39505   3.455   3.945   2.744
13160SOL    HW139506   3.371   3.944   2.798
13160SOL    HW239507   3.457   4.028   2.688
13161SOL     OW39508   1.901   4.801   2.162
13161SOL    HW139509   2.000   4.790   2.153
13161SOL    HW239510   1.861   4.715   2.194
13162SOL     OW39511   2.737   5.370   2.199
13162SOL    HW139512   2.660   5.335   2.145
13162SOL    HW239513   2.705   5.441   2.261
13163SOL     OW39514   2.092   4.352   3.837
13163SOL    HW139515   1.999   4.350   3.874
13163SOL    HW239516   2.093   4.313   3.745
13164SOL     OW39517   2.087   3.999   4.720
13164SOL    HW139518   2.122   3.982   4.812
13164SOL    HW239519   1.999   3.954   4.708
13165SOL     OW39520   1.881   4.092   4.371
13165SOL    HW139521   1.799   4.135   4.410
13165SOL    HW239522   1.853   4.019   4.308
13166SOL     OW39523   2.431   4.999   4.889
13166SOL    HW139524   2.338   4.992   4.852
13166SOL    HW239525   2.442   5.088   4.933
13167SOL     OW39526   3.417   5.235   4.427
13167SOL    HW139527   3.360   5.219   4.508
13167SOL    HW239528   3.358   5.245   4.347
13168SOL     OW39529   3.617   4.331   3.955
13168SOL    HW139530   3.605   4.318   3.856
13168SOL    HW239531   3.587   4.250   4.004
13169SOL     OW39532   2.630   4.868   4.747
13169SOL    HW139533   2.552   4.885   4.807
13169SOL    HW239534   2.664   4.955   4.711
13170SOL     OW39535   2.712   4.522   5.547
13170SOL    HW139536   2.708   4.598   5.612
13170SOL    HW239537   2.734   4.558   5.456
13171SOL     OW39538   2.547   4.736   4.389
13171SOL    HW139539   2.616   4.720   4.459
13171SOL    HW239540   2.474   4.793   4.427
13172SOL     OW39541   2.548   4.885   5.527
13172SOL    HW139542   2.608   4.964   5.541
13172SOL    HW239543   2.462   4.916   5.486
13173SOL     OW39544   2.197   5.159   4.785
13173SOL    HW139545   2.119   5.128   4.732
13173SOL    HW239546   2.255   5.217   4.728
13174SOL     OW39547   3.322   5.229   5.063
13174SOL    HW139548   3.346   5.323   5.089
13174SOL    HW239549   3.306   5.175   5.145
13175SOL     OW39550   2.300   4.116   5.223
13175SOL    HW139551   2.382   4.060   5.232
13175SOL    HW239552   2.219   4.058   5.227
13176SOL     OW39553   3.465   4.171   4.461
13176SOL    HW139554   3.391   4.217   4.411
13176SOL    HW239555   3.516   4.239   4.514
13177SOL     OW39556   2.093   5.437   4.207
13177SOL    HW139557   2.127   5.514   4.261
13177SOL    HW239558   2.137   5.437   4.117
13178SOL     OW39559   2.989   5.065   5.414
13178SOL    HW139560   3.036   5.065   5.502
13178SOL    HW239561   2.941   4.978   5.403
13179SOL     OW39562   2.092   5.158   4.262
13179SOL    HW139563   2.066   5.254   4.262
13179SOL    HW239564   2.021   5.104   4.307
13180SOL     OW39565   2.102   4.815   4.610
13180SOL    HW139566   2.116   4.731   4.662
13180SOL    HW239567   2.047   4.879   4.665
13181SOL     OW39568   2.482   5.510   5.163
13181SOL    HW139569   2.390   5.493   5.198
13181SOL    HW239570   2.510   5.602   5.189
13182SOL     OW39571   2.468   4.688   3.847
13182SOL    HW139572   2.475   4.772   3.793
13182SOL    HW239573   2.514   4.701   3.935
13183SOL     OW39574   3.456   3.838   5.204
13183SOL    HW139575   3.438   3.905   5.132
13183SOL    HW239576   3.453   3.884   5.293
13184SOL     OW39577   1.984   4.367   4.287
13184SOL    HW139578   1.939   4.279   4.304
13184SOL    HW239579   1.983   4.421   4.371
13185SOL     OW39580   3.704   5.491   4.083
13185SOL    HW139581   3.758   5.462   4.163
13185SOL    HW239582   3.734   5.581   4.054
13186SOL     OW39583   1.889   5.320   3.841
13186SOL    HW139584   1.870   5.224   3.862
13186SOL    HW239585   1.856   5.378   3.916
13187SOL     OW39586   3.551   4.646   4.336
13187SOL    HW139587   3.646   4.617   4.344
13187SOL    HW239588   3.543   4.711   4.261
13188SOL     OW39589   3.503   4.832   4.156
13188SOL    HW139590   3.589   4.834   4.104
13188SOL    HW239591   3.517   4.879   4.244
13189SOL     OW39592   1.975   4.461   5.321
13189SOL    HW139593   2.063   4.448   5.366
13189SOL    HW239594   1.962   4.558   5.299
13190SOL     OW39595   2.475   5.089   4.450
13190SOL    HW139596   2.426   5.002   4.459
13190SOL    HW239597   2.452   5.132   4.363
13191SOL     OW39598   3.155   4.952   5.147
13191SOL    HW139599   3.192   4.879   5.089
13191SOL    HW239600   3.207   4.957   5.232
13192SOL     OW39601   2.671   3.728   4.226
13192SOL    HW139602   2.711   3.819   4.217
13192SOL    HW239603   2.571   3.736   4.232
13193SOL     OW39604   2.059   4.700   4.988
13193SOL    HW139605   2.148   4.655   4.974
13193SOL    HW239606   1.986   4.635   4.969
13194SOL     OW39607   3.387   4.723   3.914
13194SOL    HW139608   3.324   4.647   3.927
13194SOL    HW239609   3.435   4.741   4.000
13195SOL     OW39610   3.049   5.516   5.340
13195SOL    HW139611   3.073   5.576   5.264
13195SOL    HW239612   3.056   5.421   5.310
13196SOL     OW39613   2.179   3.975   5.525
13196SOL    HW139614   2.250   4.046   5.531
13196SOL    HW239615   2.091   4.014   5.553
13197SOL     OW39616   3.328   5.141   4.677
13197SOL    HW139617   3.269   5.147   4.757
13197SOL    HW239618   3.313   5.053   4.631
13198SOL     OW39619   3.529   5.438   4.296
13198SOL    HW139620   3.488   5.415   4.208
13198SOL    HW239621   3.511   5.364   4.361
13199SOL     OW39622   2.460   4.453   3.994
13199SOL    HW139623   2.484   4.522   3.926
13199SOL    HW239624   2.382   4.486   4.048
13200SOL     OW39625   3.143   4.069   4.668
13200SOL    HW139626   3.057   4.019   4.655
13200SOL    HW239627   3.205   4.015   4.724
13201SOL     OW39628   3.438   5.386   4.031
13201SOL    HW139629   3.527   5.432   4.034
13201SOL    HW239630   3.417   5.362   3.936
13202SOL     OW39631   2.669   4.329   5.189
13202SOL    HW139632   2.622   4.326   5.278
13202SOL    HW239633   2.618   4.274   5.123
13203SOL     OW39634   3.256   4.193   5.398
13203SOL    HW139635   3.236   4.236   5.486
13203SOL    HW239636   3.334   4.131   5.407
13204SOL     OW39637   2.835   4.614   5.296
13204SOL    HW139638   2.881   4.530   5.267
13204SOL    HW239639   2.779   4.648   5.221
13205SOL     OW39640   2.853   4.134   4.966
13205SOL    HW139641   2.776   4.168   5.020
13205SOL    HW239642   2.819   4.083   4.887
13206SOL     OW39643   2.903   4.425   4.153
13206SOL    HW139644   2.929   4.421   4.249
13206SOL    HW239645   2.818   4.374   4.139
13207SOL     OW39646   1.938   4.535   4.513
13207SOL    HW139647   2.037   4.523   4.522
13207SOL    HW239648   1.914   4.630   4.534
13208SOL     OW39649   1.992   5.545   5.295
13208SOL    HW139650   1.982   5.530   5.394
13208SOL    HW239651   1.906   5.581   5.259
13209SOL     OW39652   2.727   4.072   3.919
13209SOL    HW139653   2.786   4.135   3.870
13209SOL    HW239654   2.746   3.978   3.890
13210SOL     OW39655   3.581   4.309   5.555
13210SOL    HW139656   3.555   4.398   5.519
13210SOL    HW239657   3.579   4.241   5.482
13211SOL     OW39658   3.224   4.868   4.269
13211SOL    HW139659   3.307   4.839   4.221
13211SOL    HW239660   3.175   4.935   4.213
13212SOL     OW39661   2.412   3.920   4.609
13212SOL    HW139662   2.407   3.915   4.709
13212SOL    HW239663   2.414   4.016   4.580
13213SOL     OW39664   2.870   5.180   4.201
13213SOL    HW139665   2.824   5.252   4.149
13213SOL    HW239666   2.866   5.200   4.299
13214SOL     OW39667   2.213   5.525   4.577
13214SOL    HW139668   2.263   5.439   4.583
13214SOL    HW239669   2.278   5.602   4.574
13215SOL     OW39670   3.657   4.790   4.597
13215SOL    HW139671   3.595   4.775   4.521
13215SOL    HW239672   3.605   4.801   4.682
13216SOL     OW39673   3.089   5.274   5.230
13216SOL    HW139674   3.095   5.197   5.294
13216SOL    HW239675   3.037   5.248   5.150
13217SOL     OW39676   2.183   4.667   3.966
13217SOL    HW139677   2.265   4.706   3.924
13217SOL    HW239678   2.156   4.585   3.917
13218SOL     OW39679   3.320   4.459   4.452
13218SOL    HW139680   3.315   4.394   4.527
13218SOL    HW239681   3.400   4.518   4.465
13219SOL     OW39682   2.323   4.990   5.451
13219SOL    HW139683   2.273   4.991   5.365
13219SOL    HW239684   2.260   4.972   5.527
13220SOL     OW39685   2.973   5.500   3.961
13220SOL    HW139686   2.913   5.438   4.011
13220SOL    HW239687   3.004   5.456   3.876
13221SOL     OW39688   2.064   4.009   5.222
13221SOL    HW139689   1.984   4.069   5.209
13221SOL    HW239690   2.054   3.960   5.308
13222SOL     OW39691   3.494   5.101   3.805
13222SOL    HW139692   3.462   5.195   3.795
13222SOL    HW239693   3.418   5.038   3.793
13223SOL     OW39694   2.326   5.467   4.047
13223SOL    HW139695   2.359   5.506   4.133
13223SOL    HW239696   2.402   5.460   3.982
13224SOL     OW39697   3.262   3.831   4.150
13224SOL    HW139698   3.238   3.794   4.060
13224SOL    HW239699   3.361   3.847   4.154
13225SOL     OW39700   2.111   5.509   4.965
13225SOL    HW139701   2.168   5.444   5.015
13225SOL    HW239702   2.095   5.476   4.872
13226SOL     OW39703   2.802   5.422   4.628
13226SOL    HW139704   2.882   5.365   4.649
13226SOL    HW239705   2.753   5.382   4.551
13227SOL     OW39706   2.244   4.424   4.204
13227SOL    HW139707   2.289   4.334   4.201
13227SOL    HW239708   2.150   4.413   4.237
13228SOL     OW39709   3.409   3.946   5.453
13228SOL    HW139710   3.404   3.983   5.545
13228SOL    HW239711   3.337   3.877   5.441
13229SOL     OW39712   2.476   3.846   3.841
13229SOL    HW139713   2.574   3.824   3.848
13229SOL    HW239714   2.445   3.829   3.748
13230SOL     OW39715   2.643   3.988   5.473
13230SOL    HW139716   2.710   3.927   5.516
13230SOL    HW239717   2.570   4.007   5.538
13231SOL     OW39718   2.750   5.238   4.919
13231SOL    HW139719   2.727   5.213   4.825
13231SOL    HW239720   2.811   5.169   4.958
13232SOL     OW39721   3.213   4.314   5.157
13232SOL    HW139722   3.241   4.271   5.242
13232SOL    HW239723   3.238   4.410   5.158
13233SOL     OW39724   2.665   5.126   4.648
13233SOL    HW139725   2.755   5.140   4.606
13233SOL    HW239726   2.594   5.128   4.577
13234SOL     OW39727   2.784   4.227   4.623
13234SOL    HW139728   2.759   4.218   4.527
13234SOL    HW239729   2.832   4.145   4.654
13235SOL     OW39730   2.401   3.788   4.236
13235SOL    HW139731   2.320   3.789   4.294
13235SOL    HW239732   2.404   3.871   4.181
13236SOL     OW39733   3.296   4.912   3.765
13236SOL    HW139734   3.328   4.836   3.822
13236SOL    HW239735   3.204   4.939   3.795
13237SOL     OW39736   2.159   3.759   3.895
13237SOL    HW139737   2.208   3.843   3.874
13237SOL    HW239738   2.221   3.694   3.940
13238SOL     OW39739   2.797   3.960   4.204
13238SOL    HW139740   2.749   4.001   4.126
13238SOL    HW239741   2.896   3.958   4.185
13239SOL     OW39742   2.938   4.407   5.188
13239SOL    HW139743   2.858   4.346   5.191
13239SOL    HW239744   3.019   4.354   5.164
13240SOL     OW39745   3.089   5.294   4.517
13240SOL    HW139746   3.110   5.368   4.452
13240SOL    HW239747   3.157   5.294   4.590
13241SOL     OW39748   2.321   4.876   4.465
13241SOL    HW139749   2.250   4.849   4.530
13241SOL    HW239750   2.295   4.848   4.372
13242SOL     OW39751   3.133   5.521   4.315
13242SOL    HW139752   3.177   5.585   4.251
13242SOL    HW239753   3.083   5.573   4.385
13243SOL     OW39754   2.894   4.273   3.740
13243SOL    HW139755   2.853   4.355   3.701
13243SOL    HW239756   2.958   4.299   3.813
13244SOL     OW39757   1.940   4.280   5.110
13244SOL    HW139758   2.032   4.279   5.069
13244SOL    HW239759   1.934   4.354   5.177
13245SOL     OW39760   2.423   3.946   4.871
13245SOL    HW139761   2.461   3.862   4.908
13245SOL    HW239762   2.335   3.965   4.915
13246SOL     OW39763   2.728   4.178   4.366
13246SOL    HW139764   2.696   4.250   4.304
13246SOL    HW239765   2.752   4.097   4.313
13247SOL     OW39766   2.879   3.763   4.477
13247SOL    HW139767   2.807   3.768   4.408
13247SOL    HW239768   2.855   3.694   4.546
13248SOL     OW39769   3.291   4.897   4.591
13248SOL    HW139770   3.236   4.813   4.584
13248SOL    HW239771   3.317   4.926   4.499
13249SOL     OW39772   3.328   4.314   4.716
13249SOL    HW139773   3.298   4.219   4.723
13249SOL    HW239774   3.401   4.330   4.782
13250SOL     OW39775   3.719   4.557   4.101
13250SOL    HW139776   3.761   4.493   4.165
13250SOL    HW239777   3.681   4.506   4.023
13251SOL     OW39778   2.350   5.109   3.898
13251SOL    HW139779   2.263   5.094   3.945
13251SOL    HW239780   2.333   5.135   3.803
13252SOL     OW39781   3.526   5.004   4.381
13252SOL    HW139782   3.625   5.012   4.395
13252SOL    HW239783   3.481   5.088   4.412
13253SOL     OW39784   3.252   4.299   3.802
13253SOL    HW139785   3.198   4.278   3.883
13253SOL    HW239786   3.343   4.258   3.811
13254SOL     OW39787   2.389   3.980   4.052
13254SOL    HW139788   2.416   3.921   3.977
13254SOL    HW239789   2.389   4.075   4.021
13255SOL     OW39790   3.616   4.947   5.312
13255SOL    HW139791   3.707   4.908   5.299
13255SOL    HW239792   3.624   5.043   5.336
13256SOL     OW39793   2.926   5.071   5.064
13256SOL    HW139794   2.846   5.048   5.119
13256SOL    HW239795   3.009   5.045   5.113
13257SOL     OW39796   3.454   5.353   5.349
13257SOL    HW139797   3.481   5.387   5.259
13257SOL    HW239798   3.533   5.315   5.395
13258SOL     OW39799   2.973   4.919   4.824
13258SOL    HW139800   2.933   4.963   4.905
13258SOL    HW239801   2.932   4.956   4.741
13259SOL     OW39802   3.500   4.823   4.803
13259SOL    HW139803   3.505   4.904   4.862
13259SOL    HW239804   3.414   4.825   4.752
13260SOL     OW39805   2.777   3.813   5.126
13260SOL    HW139806   2.802   3.793   5.031
13260SOL    HW239807   2.849   3.869   5.168
13261SOL     OW39808   2.842   4.840   5.443
13261SOL    HW139809   2.743   4.846   5.453
13261SOL    HW239810   2.865   4.760   5.387
13262SOL     OW39811   2.567   4.774   4.092
13262SOL    HW139812   2.553   4.781   4.191
13262SOL    HW239813   2.651   4.723   4.074
13263SOL     OW39814   2.272   4.537   4.975
13263SOL    HW139815   2.358   4.549   5.025
13263SOL    HW239816   2.230   4.450   5.002
13264SOL     OW39817   3.136   4.110   4.986
13264SOL    HW139818   3.157   4.184   5.050
13264SOL    HW239819   3.047   4.127   4.943
13265SOL     OW39820   1.926   5.288   5.055
13265SOL    HW139821   1.880   5.370   5.021
13265SOL    HW239822   2.024   5.307   5.064
13266SOL     OW39823   2.229   4.824   4.225
13266SOL    HW139824   2.222   4.907   4.169
13266SOL    HW239825   2.233   4.744   4.165
13267SOL     OW39826   2.428   4.261   4.589
13267SOL    HW139827   2.440   4.327   4.515
13267SOL    HW239828   2.474   4.295   4.672
13268SOL     OW39829   3.114   5.072   4.112
13268SOL    HW139830   3.164   5.149   4.152
13268SOL    HW239831   3.019   5.074   4.144
13269SOL     OW39832   3.134   5.169   4.866
13269SOL    HW139833   3.181   5.182   4.953
13269SOL    HW239834   3.068   5.095   4.875
13270SOL     OW39835   3.444   4.363   4.196
13270SOL    HW139836   3.413   4.424   4.269
13270SOL    HW239837   3.494   4.415   4.127
13271SOL     OW39838   2.216   5.234   5.053
13271SOL    HW139839   2.195   5.190   4.966
13271SOL    HW239840   2.313   5.260   5.056
13272SOL     OW39841   2.264   4.475   5.322
13272SOL    HW139842   2.332   4.530   5.275
13272SOL    HW239843   2.304   4.387   5.349
13273SOL     OW39844   3.449   4.503   5.394
13273SOL    HW139845   3.357   4.541   5.389
13273SOL    HW239846   3.509   4.550   5.329
13274SOL     OW39847   2.875   3.829   5.494
13274SOL    HW139848   2.881   3.914   5.442
13274SOL    HW239849   2.907   3.753   5.437
13275SOL     OW39850   2.366   3.774   5.464
13275SOL    HW139851   2.324   3.717   5.394
13275SOL    HW239852   2.300   3.843   5.496
13276SOL     OW39853   2.435   4.594   4.753
13276SOL    HW139854   2.479   4.683   4.744
13276SOL    HW239855   2.372   4.594   4.830
13277SOL     OW39856   3.222   4.586   4.769
13277SOL    HW139857   3.147   4.586   4.703
13277SOL    HW239858   3.259   4.494   4.778
13278SOL     OW39859   3.071   4.249   3.999
13278SOL    HW139860   3.084   4.165   4.053
13278SOL    HW239861   3.042   4.323   4.059
13279SOL     OW39862   2.169   3.937   4.955
13279SOL    HW139863   2.146   3.974   5.045
13279SOL    HW239864   2.139   3.842   4.949
13280SOL     OW39865   1.899   5.034   5.006
13280SOL    HW139866   1.952   4.985   5.074
13280SOL    HW239867   1.921   5.132   5.011
13281SOL     OW39868   2.594   4.358   4.788
13281SOL    HW139869   2.653   4.332   4.712
13281SOL    HW239870   2.566   4.454   4.777
13282SOL     OW39871   3.590   4.659   5.578
13282SOL    HW139872   3.544   4.652   5.489
13282SOL    HW239873   3.528   4.703   5.644
13283SOL     OW39874   2.169   3.787   4.342
13283SOL    HW139875   2.158   3.881   4.375
13283SOL    HW239876   2.164   3.724   4.419
13284SOL     OW39877   3.484   4.091   4.098
13284SOL    HW139878   3.486   4.015   4.162
13284SOL    HW239879   3.436   4.168   4.138
13285SOL     OW39880   2.885   4.490   4.690
13285SOL    HW139881   2.900   4.511   4.786
13285SOL    HW239882   2.855   4.395   4.681
13286SOL     OW39883   2.842   5.297   5.424
13286SOL    HW139884   2.822   5.341   5.336
13286SOL    HW239885   2.881   5.206   5.408
13287SOL     OW39886   3.721   5.242   5.329
13287SOL    HW139887   3.735   5.269   5.234
13287SOL    HW239888   3.804   5.264   5.382
13288SOL     OW39889   2.212   4.622   5.528
13288SOL    HW139890   2.288   4.666   5.576
13288SOL    HW239891   2.247   4.575   5.446
13289SOL     OW39892   3.402   3.998   3.849
13289SOL    HW139893   3.341   3.923   3.872
13289SOL    HW239894   3.424   4.050   3.932
13290SOL     OW39895   3.165   4.562   3.766
13290SOL    HW139896   3.199   4.469   3.781
13290SOL    HW239897   3.183   4.589   3.671
13291SOL     OW39898   2.930   5.057   4.573
13291SOL    HW139899   2.937   4.973   4.518
13291SOL    HW239900   2.992   5.126   4.537
13292SOL     OW39901   2.181   4.534   4.673
13292SOL    HW139902   2.274   4.570   4.678
13292SOL    HW239903   2.175   4.449   4.725
13293SOL     OW39904   2.201   4.233   4.730
13293SOL    HW139905   2.149   4.150   4.713
13293SOL    HW239906   2.278   4.238   4.666
13294SOL     OW39907   3.000   4.104   5.402
13294SOL    HW139908   2.955   4.167   5.466
13294SOL    HW239909   3.093   4.135   5.385
13295SOL     OW39910   3.022   3.931   5.201
13295SOL    HW139911   3.022   3.995   5.278
13295SOL    HW239912   3.050   3.979   5.118
13296SOL     OW39913   1.870   5.050   3.924
13296SOL    HW139914   1.777   5.071   3.893
13296SOL    HW239915   1.880   4.951   3.937
13297SOL     OW39916   1.950   5.525   4.651
13297SOL    HW139917   1.908   5.439   4.624
13297SOL    HW239918   2.044   5.528   4.617
13298SOL     OW39919   2.366   5.292   4.634
13298SOL    HW139920   2.432   5.366   4.643
13298SOL    HW239921   2.410   5.213   4.592
13299SOL     OW39922   2.864   4.520   4.962
13299SOL    HW139923   2.905   4.488   5.048
13299SOL    HW239924   2.768   4.493   4.959
13300SOL     OW39925   1.902   4.268   4.838
13300SOL    HW139926   1.987   4.235   4.797
13300SOL    HW239927   1.915   4.283   4.936
13301SOL     OW39928   2.051   4.244   5.446
13301SOL    HW139929   2.110   4.204   5.376
13301SOL    HW239930   1.993   4.315   5.405
13302SOL     OW39931   3.231   4.674   5.384
13302SOL    HW139932   3.270   4.763   5.404
13302SOL    HW239933   3.241   4.654   5.287
13303SOL     OW39934   2.677   4.296   4.049
13303SOL    HW139935   2.684   4.207   4.003
13303SOL    HW239936   2.583   4.330   4.041
13304SOL     OW39937   3.519   4.328   4.930
13304SOL    HW139938   3.481   4.259   4.992
13304SOL    HW239939   3.601   4.292   4.886
13305SOL     OW39940   2.114   5.288   5.468
13305SOL    HW139941   2.084   5.345   5.544
13305SOL    HW239942   2.107   5.191   5.494
13306SOL     OW39943   2.533   4.188   4.993
13306SOL    HW139944   2.499   4.099   4.963
13306SOL    HW239945   2.559   4.242   4.913
13307SOL     OW39946   2.792   5.402   5.189
13307SOL    HW139947   2.768   5.384   5.094
13307SOL    HW239948   2.822   5.496   5.199
13308SOL     OW39949   2.335   4.224   3.915
13308SOL    HW139950   2.396   4.304   3.919
13308SOL    HW239951   2.240   4.255   3.922
13309SOL     OW39952   2.021   4.861   5.190
13309SOL    HW139953   2.043   4.800   5.266
13309SOL    HW239954   2.031   4.812   5.104
13310SOL     OW39955   3.209   4.783   4.958
13310SOL    HW139956   3.233   4.720   4.884
13310SOL    HW239957   3.119   4.823   4.940
13311SOL     OW39958   3.164   4.579   4.033
13311SOL    HW139959   3.078   4.548   4.075
13311SOL    HW239960   3.160   4.565   3.934
13312SOL     OW39961   3.621   5.471   4.878
13312SOL    HW139962   3.682   5.501   4.805
13312SOL    HW239963   3.583   5.382   4.856
13313SOL     OW39964   3.114   5.455   4.852
13313SOL    HW139965   3.198   5.460   4.798
13313SOL    HW239966   3.091   5.359   4.870
13314SOL     OW39967   1.945   4.982   4.746
13314SOL    HW139968   1.940   4.981   4.846
13314SOL    HW239969   1.862   4.941   4.708
13315SOL     OW39970   2.550   5.386   5.440
13315SOL    HW139971   2.494   5.467   5.449
13315SOL    HW239972   2.602   5.390   5.354
13316SOL     OW39973   3.588   3.859   4.247
13316SOL    HW139974   3.661   3.842   4.180
13316SOL    HW239975   3.557   3.772   4.285
13317SOL     OW39976   3.250   5.297   4.201
13317SOL    HW139977   3.317   5.309   4.127
13317SOL    HW239978   3.210   5.386   4.224
13318SOL     OW39979   1.992   5.518   5.575
13318SOL    HW139980   1.951   5.444   5.628
13318SOL    HW239981   2.056   5.569   5.633
13319SOL     OW39982   3.142   4.651   4.396
13319SOL    HW139983   3.202   4.570   4.398
13319SOL    HW239984   3.182   4.720   4.336
13320SOL     OW39985   2.692   4.997   5.146
13320SOL    HW139986   2.687   5.030   5.241
13320SOL    HW239987   2.606   5.016   5.100
13321SOL     OW39988   2.534   5.340   3.878
13321SOL    HW139989   2.543   5.350   3.779
13321SOL    HW239990   2.494   5.251   3.899
13322SOL     OW39991   3.512   5.444   5.118
13322SOL    HW139992   3.565   5.454   5.034
13322SOL    HW239993   3.485   5.534   5.152
13323SOL     OW39994   3.703   3.899   4.687
13323SOL    HW139995   3.742   3.814   4.651
13323SOL    HW239996   3.605   3.901   4.668
13324SOL     OW39997   2.125   4.050   4.444
13324SOL    HW139998   2.046   4.101   4.410
13324SOL    HW239999   2.116   4.035   4.542
13325SOL     OW40000   3.056   5.336   3.755
13325SOL    HW140001   3.062   5.243   3.792
13325SOL    HW240002   2.997   5.336   3.675
13326SOL     OW40003   2.684   4.726   5.096
13326SOL    HW140004   2.724   4.725   5.004
13326SOL    HW240005   2.694   4.818   5.136
13327SOL     OW40006   2.778   4.634   4.015
13327SOL    HW140007   2.841   4.672   3.947
13327SOL    HW240008   2.818   4.551   4.054
13328SOL     OW40009   3.366   5.331   3.768
13328SOL    HW140010   3.274   5.368   3.775
13328SOL    HW240011   3.404   5.351   3.678
13329SOL     OW40012   2.234   5.012   5.214
13329SOL    HW140013   2.221   5.105   5.180
13329SOL    HW240014   2.150   4.960   5.201
13330SOL     OW40015   3.476   5.016   5.013
13330SOL    HW140016   3.536   5.019   5.093
13330SOL    HW240017   3.401   5.080   5.026
13331SOL     OW40018   2.901   4.822   4.420
13331SOL    HW140019   2.831   4.775   4.474
13331SOL    HW240020   2.960   4.754   4.377
13332SOL     OW40021   2.876   3.960   4.695
13332SOL    HW140022   2.868   3.924   4.602
13332SOL    HW240023   2.874   3.884   4.760
13333SOL     OW40024   2.452   5.211   4.215
13333SOL    HW140025   2.494   5.153   4.145
13333SOL    HW240026   2.408   5.290   4.171
13334SOL     OW40027   3.571   4.109   5.105
13334SOL    HW140028   3.644   4.178   5.109
13334SOL    HW240029   3.599   4.034   5.046
13335SOL     OW40030   2.117   5.072   4.014
13335SOL    HW140031   2.021   5.073   3.987
13335SOL    HW240032   2.129   5.125   4.098
13336SOL     OW40033   1.967   4.737   5.450
13336SOL    HW140034   1.890   4.704   5.504
13336SOL    HW240035   2.052   4.707   5.492
13337SOL     OW40036   2.534   3.927   5.213
13337SOL    HW140037   2.624   3.911   5.173
13337SOL    HW240038   2.542   3.932   5.312
13338SOL     OW40039   1.937   4.069   3.757
13338SOL    HW140040   1.845   4.041   3.728
13338SOL    HW240041   1.968   4.146   3.701
13339SOL     OW40042   3.302   4.580   5.122
13339SOL    HW140043   3.245   4.632   5.059
13339SOL    HW240044   3.398   4.592   5.098
13340SOL     OW40045   1.934   3.890   4.042
13340SOL    HW140046   1.917   3.973   3.988
13340SOL    HW240047   2.024   3.853   4.020
13341SOL     OW40048   3.045   5.059   3.843
13341SOL    HW140049   2.946   5.048   3.845
13341SOL    HW240050   3.079   5.074   3.936
13342SOL     OW40051   2.475   4.566   5.155
13342SOL    HW140052   2.531   4.647   5.138
13342SOL    HW240053   2.534   4.486   5.158
13343SOL     OW40054   3.355   5.491   4.683
13343SOL    HW140055   3.388   5.555   4.614
13343SOL    HW240056   3.421   5.485   4.758
13344SOL     OW40057   2.578   4.289   5.432
13344SOL    HW140058   2.597   4.354   5.506
13344SOL    HW240059   2.638   4.209   5.441
13345SOL     OW40060   3.312   4.944   5.357
13345SOL    HW140061   3.303   4.934   5.456
13345SOL    HW240062   3.408   4.937   5.331
13346SOL     OW40063   2.252   5.465   5.284
13346SOL    HW140064   2.161   5.506   5.282
13346SOL    HW240065   2.245   5.371   5.316
13347SOL     OW40066   3.536   4.607   4.978
13347SOL    HW140067   3.509   4.518   4.941
13347SOL    HW240068   3.537   4.675   4.905
13348SOL     OW40069   3.087   4.049   4.173
13348SOL    HW140070   3.152   3.975   4.162
13348SOL    HW240071   3.107   4.099   4.257
13349SOL     OW40072   2.456   4.469   4.376
13349SOL    HW140073   2.506   4.554   4.357
13349SOL    HW240074   2.368   4.471   4.328
13350SOL     OW40075   3.639   4.066   5.366
13350SOL    HW140076   3.622   4.097   5.272
13350SOL    HW240077   3.555   4.029   5.404
13351SOL     OW40078   3.592   4.658   5.241
13351SOL    HW140079   3.630   4.749   5.256
13351SOL    HW240080   3.584   4.641   5.142
13352SOL     OW40081   2.721   5.098   3.740
13352SOL    HW140082   2.675   5.113   3.828
13352SOL    HW240083   2.765   5.183   3.710
13353SOL     OW40084   2.523   5.514   4.677
13353SOL    HW140085   2.477   5.602   4.664
13353SOL    HW240086   2.622   5.526   4.670
13354SOL     OW40087   2.721   4.680   4.585
13354SOL    HW140088   2.775   4.611   4.633
13354SOL    HW240089   2.689   4.749   4.651
13355SOL     OW40090   2.945   4.708   3.811
13355SOL    HW140091   2.922   4.761   3.729
13355SOL    HW240092   3.026   4.652   3.792
13356SOL     OW40093   3.723   5.293   4.575
13356SOL    HW140094   3.652   5.281   4.505
13356SOL    HW240095   3.724   5.214   4.635
13357SOL     OW40096   2.083   5.038   5.568
13357SOL    HW140097   2.018   4.965   5.547
13357SOL    HW240098   2.087   5.052   5.666
13358SOL     OW40099   1.941   4.964   4.377
13358SOL    HW140100   1.940   4.917   4.465
13358SOL    HW240101   2.023   4.936   4.326
13359SOL     OW40102   2.534   5.115   5.348
13359SOL    HW140103   2.456   5.065   5.386
13359SOL    HW240104   2.531   5.210   5.379
13360SOL     OW40105   3.686   3.916   4.951
13360SOL    HW140106   3.682   3.826   4.995
13360SOL    HW240107   3.689   3.905   4.852
13361SOL     OW40108   2.290   4.148   4.244
13361SOL    HW140109   2.320   4.076   4.182
13361SOL    HW240110   2.251   4.108   4.327
13362SOL     OW40111   3.567   5.211   4.828
13362SOL    HW140112   3.474   5.186   4.801
13362SOL    HW240113   3.593   5.161   4.910
13363SOL     OW40114   2.179   4.271   5.004
13363SOL    HW140115   2.217   4.212   5.076
13363SOL    HW240116   2.219   4.245   4.916
13364SOL     OW40117   2.674   5.310   4.411
13364SOL    HW140118   2.706   5.320   4.317
13364SOL    HW240119   2.595   5.248   4.413
13365SOL     OW40120   3.286   3.938   4.836
13365SOL    HW140121   3.338   3.873   4.891
13365SOL    HW240122   3.237   4.001   4.897
13366SOL     OW40123   2.863   3.758   4.878
13366SOL    HW140124   2.800   3.686   4.847
13366SOL    HW240125   2.956   3.722   4.878
13367SOL     OW40126   2.632   5.054   4.025
13367SOL    HW140127   2.586   4.967   4.042
13367SOL    HW240128   2.723   5.051   4.066
13368SOL     OW40129   2.480   5.291   5.008
13368SOL    HW140130   2.475   5.373   5.065
13368SOL    HW240131   2.569   5.288   4.963
13369SOL     OW40132   3.214   3.776   3.892
13369SOL    HW140133   3.249   3.735   3.808
13369SOL    HW240134   3.124   3.738   3.912
13370SOL     OW40135   3.162   4.177   4.415
13370SOL    HW140136   3.103   4.257   4.419
13370SOL    HW240137   3.177   4.142   4.508
13371SOL     OW40138   3.455   3.945   4.606
13371SOL    HW140139   3.371   3.944   4.660
13371SOL    HW240140   3.457   4.028   4.550
13372SOL     OW40141   1.901   4.801   4.024
13372SOL    HW140142   2.000   4.790   4.015
13372SOL    HW240143   1.861   4.715   4.056
13373SOL     OW40144   2.737   5.370   4.061
13373SOL    HW140145   2.660   5.335   4.007
13373SOL    HW240146   2.705   5.441   4.123
13374SOL     OW40147   2.092   4.352   5.699
13374SOL    HW140148   1.999   4.350   5.736
13374SOL    HW240149   2.093   4.313   5.607
13375SOL     OW40150   2.087   3.999   6.582
13375SOL    HW140151   2.122   3.982   6.674
13375SOL    HW240152   1.999   3.954   6.570
13376SOL     OW40153   1.881   4.092   6.233
13376SOL    HW140154   1.799   4.135   6.272
13376SOL    HW240155   1.853   4.019   6.170
13377SOL     OW40156   2.431   4.999   6.751
13377SOL    HW140157   2.338   4.992   6.714
13377SOL    HW240158   2.442   5.088   6.795
13378SOL     OW40159   3.417   5.235   6.289
13378SOL    HW140160   3.360   5.219   6.370
13378SOL    HW240161   3.358   5.245   6.209
13379SOL     OW40162   2.997   4.427   6.303
13379SOL    HW140163   3.054   4.505   6.278
13379SOL    HW240164   2.937   4.453   6.379
13380SOL     OW40165   3.617   4.331   5.817
13380SOL    HW140166   3.605   4.318   5.718
13380SOL    HW240167   3.587   4.250   5.866
13381SOL     OW40168   2.630   4.868   6.609
13381SOL    HW140169   2.552   4.885   6.669
13381SOL    HW240170   2.664   4.955   6.573
13382SOL     OW40171   2.712   4.522   7.409
13382SOL    HW140172   2.708   4.598   7.474
13382SOL    HW240173   2.734   4.558   7.318
13383SOL     OW40174   2.547   4.736   6.251
13383SOL    HW140175   2.616   4.720   6.321
13383SOL    HW240176   2.474   4.793   6.289
13384SOL     OW40177   2.548   4.885   7.389
13384SOL    HW140178   2.608   4.964   7.403
13384SOL    HW240179   2.462   4.916   7.348
13385SOL     OW40180   2.197   5.159   6.647
13385SOL    HW140181   2.119   5.128   6.594
13385SOL    HW240182   2.255   5.217   6.590
13386SOL     OW40183   3.322   5.229   6.925
13386SOL    HW140184   3.346   5.323   6.951
13386SOL    HW240185   3.306   5.175   7.007
13387SOL     OW40186   2.300   4.116   7.085
13387SOL    HW140187   2.382   4.060   7.094
13387SOL    HW240188   2.219   4.058   7.089
13388SOL     OW40189   3.465   4.171   6.323
13388SOL    HW140190   3.391   4.217   6.273
13388SOL    HW240191   3.516   4.239   6.376
13389SOL     OW40192   2.093   5.437   6.069
13389SOL    HW140193   2.127   5.514   6.123
13389SOL    HW240194   2.137   5.437   5.979
13390SOL     OW40195   2.989   5.065   7.276
13390SOL    HW140196   3.036   5.065   7.364
13390SOL    HW240197   2.941   4.978   7.265
13391SOL     OW40198   2.092   5.158   6.124
13391SOL    HW140199   2.066   5.254   6.124
13391SOL    HW240200   2.021   5.104   6.169
13392SOL     OW40201   2.102   4.815   6.472
13392SOL    HW140202   2.116   4.731   6.524
13392SOL    HW240203   2.047   4.879   6.527
13393SOL     OW40204   2.482   5.510   7.025
13393SOL    HW140205   2.390   5.493   7.060
13393SOL    HW240206   2.510   5.602   7.051
13394SOL     OW40207   2.468   4.688   5.709
13394SOL    HW140208   2.475   4.772   5.655
13394SOL    HW240209   2.514   4.701   5.797
13395SOL     OW40210   3.456   3.838   7.066
13395SOL    HW140211   3.438   3.905   6.994
13395SOL    HW240212   3.453   3.884   7.155
13396SOL     OW40213   1.984   4.367   6.149
13396SOL    HW140214   1.939   4.279   6.166
13396SOL    HW240215   1.983   4.421   6.233
13397SOL     OW40216   3.704   5.491   5.945
13397SOL    HW140217   3.758   5.462   6.025
13397SOL    HW240218   3.734   5.581   5.916
13398SOL     OW40219   1.889   5.320   5.703
13398SOL    HW140220   1.870   5.224   5.724
13398SOL    HW240221   1.856   5.378   5.778
13399SOL     OW40222   3.551   4.646   6.198
13399SOL    HW140223   3.646   4.617   6.206
13399SOL    HW240224   3.543   4.711   6.123
13400SOL     OW40225   3.503   4.832   6.018
13400SOL    HW140226   3.589   4.834   5.966
13400SOL    HW240227   3.517   4.879   6.106
13401SOL     OW40228   1.975   4.461   7.183
13401SOL    HW140229   2.063   4.448   7.228
13401SOL    HW240230   1.962   4.558   7.161
13402SOL     OW40231   2.475   5.089   6.312
13402SOL    HW140232   2.426   5.002   6.321
13402SOL    HW240233   2.452   5.132   6.225
13403SOL     OW40234   3.155   4.952   7.009
13403SOL    HW140235   3.192   4.879   6.951
13403SOL    HW240236   3.207   4.957   7.094
13404SOL     OW40237   2.671   3.728   6.088
13404SOL    HW140238   2.711   3.819   6.079
13404SOL    HW240239   2.571   3.736   6.094
13405SOL     OW40240   2.059   4.700   6.850
13405SOL    HW140241   2.148   4.655   6.836
13405SOL    HW240242   1.986   4.635   6.831
13406SOL     OW40243   3.387   4.723   5.776
13406SOL    HW140244   3.324   4.647   5.789
13406SOL    HW240245   3.435   4.741   5.862
13407SOL     OW40246   3.049   5.516   7.202
13407SOL    HW140247   3.073   5.576   7.126
13407SOL    HW240248   3.056   5.421   7.172
13408SOL     OW40249   2.179   3.975   7.387
13408SOL    HW140250   2.250   4.046   7.393
13408SOL    HW240251   2.091   4.014   7.415
13409SOL     OW40252   3.328   5.141   6.539
13409SOL    HW140253   3.269   5.147   6.619
13409SOL    HW240254   3.313   5.053   6.493
13410SOL     OW40255   3.529   5.438   6.158
13410SOL    HW140256   3.488   5.415   6.070
13410SOL    HW240257   3.511   5.364   6.223
13411SOL     OW40258   2.460   4.453   5.856
13411SOL    HW140259   2.484   4.522   5.788
13411SOL    HW240260   2.382   4.486   5.910
13412SOL     OW40261   3.143   4.069   6.530
13412SOL    HW140262   3.057   4.019   6.517
13412SOL    HW240263   3.205   4.015   6.586
13413SOL     OW40264   3.438   5.386   5.893
13413SOL    HW140265   3.527   5.432   5.896
13413SOL    HW240266   3.417   5.362   5.798
13414SOL     OW40267   2.669   4.329   7.051
13414SOL    HW140268   2.622   4.326   7.140
13414SOL    HW240269   2.618   4.274   6.985
13415SOL     OW40270   3.256   4.193   7.260
13415SOL    HW140271   3.236   4.236   7.348
13415SOL    HW240272   3.334   4.131   7.269
13416SOL     OW40273   2.835   4.614   7.158
13416SOL    HW140274   2.881   4.530   7.129
13416SOL    HW240275   2.779   4.648   7.083
13417SOL     OW40276   2.853   4.134   6.828
13417SOL    HW140277   2.776   4.168   6.882
13417SOL    HW240278   2.819   4.083   6.749
13418SOL     OW40279   2.903   4.425   6.015
13418SOL    HW140280   2.929   4.421   6.111
13418SOL    HW240281   2.818   4.374   6.001
13419SOL     OW40282   1.938   4.535   6.375
13419SOL    HW140283   2.037   4.523   6.384
13419SOL    HW240284   1.914   4.630   6.396
13420SOL     OW40285   1.992   5.545   7.157
13420SOL    HW140286   1.982   5.530   7.256
13420SOL    HW240287   1.906   5.581   7.121
13421SOL     OW40288   2.727   4.072   5.781
13421SOL    HW140289   2.786   4.135   5.732
13421SOL    HW240290   2.746   3.978   5.752
13422SOL     OW40291   3.581   4.309   7.417
13422SOL    HW140292   3.555   4.398   7.381
13422SOL    HW240293   3.579   4.241   7.344
13423SOL     OW40294   3.224   4.868   6.131
13423SOL    HW140295   3.307   4.839   6.083
13423SOL    HW240296   3.175   4.935   6.075
13424SOL     OW40297   2.412   3.920   6.471
13424SOL    HW140298   2.407   3.915   6.571
13424SOL    HW240299   2.414   4.016   6.442
13425SOL     OW40300   2.870   5.180   6.063
13425SOL    HW140301   2.824   5.252   6.011
13425SOL    HW240302   2.866   5.200   6.161
13426SOL     OW40303   2.213   5.525   6.439
13426SOL    HW140304   2.263   5.439   6.445
13426SOL    HW240305   2.278   5.602   6.436
13427SOL     OW40306   3.657   4.790   6.459
13427SOL    HW140307   3.595   4.775   6.383
13427SOL    HW240308   3.605   4.801   6.544
13428SOL     OW40309   3.089   5.274   7.092
13428SOL    HW140310   3.095   5.197   7.156
13428SOL    HW240311   3.037   5.248   7.012
13429SOL     OW40312   2.183   4.667   5.828
13429SOL    HW140313   2.265   4.706   5.786
13429SOL    HW240314   2.156   4.585   5.779
13430SOL     OW40315   3.320   4.459   6.314
13430SOL    HW140316   3.315   4.394   6.389
13430SOL    HW240317   3.400   4.518   6.327
13431SOL     OW40318   2.323   4.990   7.313
13431SOL    HW140319   2.273   4.991   7.227
13431SOL    HW240320   2.260   4.972   7.389
13432SOL     OW40321   2.973   5.500   5.823
13432SOL    HW140322   2.913   5.438   5.873
13432SOL    HW240323   3.004   5.456   5.738
13433SOL     OW40324   2.064   4.009   7.084
13433SOL    HW140325   1.984   4.069   7.071
13433SOL    HW240326   2.054   3.960   7.170
13434SOL     OW40327   3.494   5.101   5.667
13434SOL    HW140328   3.462   5.195   5.657
13434SOL    HW240329   3.418   5.038   5.655
13435SOL     OW40330   2.326   5.467   5.909
13435SOL    HW140331   2.359   5.506   5.995
13435SOL    HW240332   2.402   5.460   5.844
13436SOL     OW40333   3.262   3.831   6.012
13436SOL    HW140334   3.238   3.794   5.922
13436SOL    HW240335   3.361   3.847   6.016
13437SOL     OW40336   2.111   5.509   6.827
13437SOL    HW140337   2.168   5.444   6.877
13437SOL    HW240338   2.095   5.476   6.734
13438SOL     OW40339   2.802   5.422   6.490
13438SOL    HW140340   2.882   5.365   6.511
13438SOL    HW240341   2.753   5.382   6.413
13439SOL     OW40342   2.244   4.424   6.066
13439SOL    HW140343   2.289   4.334   6.063
13439SOL    HW240344   2.150   4.413   6.099
13440SOL     OW40345   3.409   3.946   7.315
13440SOL    HW140346   3.404   3.983   7.407
13440SOL    HW240347   3.337   3.877   7.303
13441SOL     OW40348   2.476   3.846   5.703
13441SOL    HW140349   2.574   3.824   5.710
13441SOL    HW240350   2.445   3.829   5.610
13442SOL     OW40351   2.643   3.988   7.335
13442SOL    HW140352   2.710   3.927   7.378
13442SOL    HW240353   2.570   4.007   7.400
13443SOL     OW40354   2.750   5.238   6.781
13443SOL    HW140355   2.727   5.213   6.687
13443SOL    HW240356   2.811   5.169   6.820
13444SOL     OW40357   3.213   4.314   7.019
13444SOL    HW140358   3.241   4.271   7.104
13444SOL    HW240359   3.238   4.410   7.020
13445SOL     OW40360   2.665   5.126   6.510
13445SOL    HW140361   2.755   5.140   6.468
13445SOL    HW240362   2.594   5.128   6.439
13446SOL     OW40363   2.784   4.227   6.485
13446SOL    HW140364   2.759   4.218   6.389
13446SOL    HW240365   2.832   4.145   6.516
13447SOL     OW40366   2.401   3.788   6.098
13447SOL    HW140367   2.320   3.789   6.156
13447SOL    HW240368   2.404   3.871   6.043
13448SOL     OW40369   3.296   4.912   5.627
13448SOL    HW140370   3.328   4.836   5.684
13448SOL    HW240371   3.204   4.939   5.657
13449SOL     OW40372   2.159   3.759   5.757
13449SOL    HW140373   2.208   3.843   5.736
13449SOL    HW240374   2.221   3.694   5.802
13450SOL     OW40375   2.797   3.960   6.066
13450SOL    HW140376   2.749   4.001   5.988
13450SOL    HW240377   2.896   3.958   6.047
13451SOL     OW40378   2.938   4.407   7.050
13451SOL    HW140379   2.858   4.346   7.053
13451SOL    HW240380   3.019   4.354   7.026
13452SOL     OW40381   3.089   5.294   6.379
13452SOL    HW140382   3.110   5.368   6.314
13452SOL    HW240383   3.157   5.294   6.452
13453SOL     OW40384   2.321   4.876   6.327
13453SOL    HW140385   2.250   4.849   6.392
13453SOL    HW240386   2.295   4.848   6.234
13454SOL     OW40387   3.133   5.521   6.177
13454SOL    HW140388   3.177   5.585   6.113
13454SOL    HW240389   3.083   5.573   6.247
13455SOL     OW40390   2.894   4.273   5.602
13455SOL    HW140391   2.853   4.355   5.563
13455SOL    HW240392   2.958   4.299   5.675
13456SOL     OW40393   1.940   4.280   6.972
13456SOL    HW140394   2.032   4.279   6.931
13456SOL    HW240395   1.934   4.354   7.039
13457SOL     OW40396   2.423   3.946   6.733
13457SOL    HW140397   2.461   3.862   6.770
13457SOL    HW240398   2.335   3.965   6.777
13458SOL     OW40399   2.728   4.178   6.228
13458SOL    HW140400   2.696   4.250   6.166
13458SOL    HW240401   2.752   4.097   6.175
13459SOL     OW40402   2.879   3.763   6.339
13459SOL    HW140403   2.807   3.768   6.270
13459SOL    HW240404   2.855   3.694   6.408
13460SOL     OW40405   3.291   4.897   6.453
13460SOL    HW140406   3.236   4.813   6.446
13460SOL    HW240407   3.317   4.926   6.361
13461SOL     OW40408   3.328   4.314   6.578
13461SOL    HW140409   3.298   4.219   6.585
13461SOL    HW240410   3.401   4.330   6.644
13462SOL     OW40411   3.719   4.557   5.963
13462SOL    HW140412   3.761   4.493   6.027
13462SOL    HW240413   3.681   4.506   5.885
13463SOL     OW40414   2.350   5.109   5.760
13463SOL    HW140415   2.263   5.094   5.807
13463SOL    HW240416   2.333   5.135   5.665
13464SOL     OW40417   3.526   5.004   6.243
13464SOL    HW140418   3.625   5.012   6.257
13464SOL    HW240419   3.481   5.088   6.274
13465SOL     OW40420   3.252   4.299   5.664
13465SOL    HW140421   3.198   4.278   5.745
13465SOL    HW240422   3.343   4.258   5.673
13466SOL     OW40423   2.389   3.980   5.914
13466SOL    HW140424   2.416   3.921   5.839
13466SOL    HW240425   2.389   4.075   5.883
13467SOL     OW40426   3.616   4.947   7.174
13467SOL    HW140427   3.707   4.908   7.161
13467SOL    HW240428   3.624   5.043   7.198
13468SOL     OW40429   2.926   5.071   6.926
13468SOL    HW140430   2.846   5.048   6.981
13468SOL    HW240431   3.009   5.045   6.975
13469SOL     OW40432   3.454   5.353   7.211
13469SOL    HW140433   3.481   5.387   7.121
13469SOL    HW240434   3.533   5.315   7.257
13470SOL     OW40435   2.973   4.919   6.686
13470SOL    HW140436   2.933   4.963   6.767
13470SOL    HW240437   2.932   4.956   6.603
13471SOL     OW40438   3.500   4.823   6.665
13471SOL    HW140439   3.505   4.904   6.724
13471SOL    HW240440   3.414   4.825   6.614
13472SOL     OW40441   2.777   3.813   6.988
13472SOL    HW140442   2.802   3.793   6.893
13472SOL    HW240443   2.849   3.869   7.030
13473SOL     OW40444   2.842   4.840   7.305
13473SOL    HW140445   2.743   4.846   7.315
13473SOL    HW240446   2.865   4.760   7.249
13474SOL     OW40447   2.567   4.774   5.954
13474SOL    HW140448   2.553   4.781   6.053
13474SOL    HW240449   2.651   4.723   5.936
13475SOL     OW40450   2.272   4.537   6.837
13475SOL    HW140451   2.358   4.549   6.887
13475SOL    HW240452   2.230   4.450   6.864
13476SOL     OW40453   3.136   4.110   6.848
13476SOL    HW140454   3.157   4.184   6.912
13476SOL    HW240455   3.047   4.127   6.805
13477SOL     OW40456   1.926   5.288   6.917
13477SOL    HW140457   1.880   5.370   6.883
13477SOL    HW240458   2.024   5.307   6.926
13478SOL     OW40459   2.229   4.824   6.087
13478SOL    HW140460   2.222   4.907   6.031
13478SOL    HW240461   2.233   4.744   6.027
13479SOL     OW40462   2.428   4.261   6.451
13479SOL    HW140463   2.440   4.327   6.377
13479SOL    HW240464   2.474   4.295   6.534
13480SOL     OW40465   3.114   5.072   5.974
13480SOL    HW140466   3.164   5.149   6.014
13480SOL    HW240467   3.019   5.074   6.006
13481SOL     OW40468   3.134   5.169   6.728
13481SOL    HW140469   3.181   5.182   6.815
13481SOL    HW240470   3.068   5.095   6.737
13482SOL     OW40471   3.444   4.363   6.058
13482SOL    HW140472   3.413   4.424   6.131
13482SOL    HW240473   3.494   4.415   5.989
13483SOL     OW40474   2.216   5.234   6.915
13483SOL    HW140475   2.195   5.190   6.828
13483SOL    HW240476   2.313   5.260   6.918
13484SOL     OW40477   2.264   4.475   7.184
13484SOL    HW140478   2.332   4.530   7.137
13484SOL    HW240479   2.304   4.387   7.211
13485SOL     OW40480   3.449   4.503   7.256
13485SOL    HW140481   3.357   4.541   7.251
13485SOL    HW240482   3.509   4.550   7.191
13486SOL     OW40483   2.875   3.829   7.356
13486SOL    HW140484   2.881   3.914   7.304
13486SOL    HW240485   2.907   3.753   7.299
13487SOL     OW40486   2.366   3.774   7.326
13487SOL    HW140487   2.324   3.717   7.256
13487SOL    HW240488   2.300   3.843   7.358
13488SOL     OW40489   2.435   4.594   6.615
13488SOL    HW140490   2.479   4.683   6.606
13488SOL    HW240491   2.372   4.594   6.692
13489SOL     OW40492   3.222   4.586   6.631
13489SOL    HW140493   3.147   4.586   6.565
13489SOL    HW240494   3.259   4.494   6.640
13490SOL     OW40495   3.071   4.249   5.861
13490SOL    HW140496   3.084   4.165   5.915
13490SOL    HW240497   3.042   4.323   5.921
13491SOL     OW40498   2.169   3.937   6.817
13491SOL    HW140499   2.146   3.974   6.907
13491SOL    HW240500   2.139   3.842   6.811
13492SOL     OW40501   1.899   5.034   6.868
13492SOL    HW140502   1.952   4.985   6.936
13492SOL    HW240503   1.921   5.132   6.873
13493SOL     OW40504   2.594   4.358   6.650
13493SOL    HW140505   2.653   4.332   6.574
13493SOL    HW240506   2.566   4.454   6.639
13494SOL     OW40507   3.590   4.659   7.440
13494SOL    HW140508   3.544   4.652   7.351
13494SOL    HW240509   3.528   4.703   7.506
13495SOL     OW40510   2.169   3.787   6.204
13495SOL    HW140511   2.158   3.881   6.237
13495SOL    HW240512   2.164   3.724   6.281
13496SOL     OW40513   3.484   4.091   5.960
13496SOL    HW140514   3.486   4.015   6.024
13496SOL    HW240515   3.436   4.168   6.000
13497SOL     OW40516   2.885   4.490   6.552
13497SOL    HW140517   2.900   4.511   6.648
13497SOL    HW240518   2.855   4.395   6.543
13498SOL     OW40519   2.842   5.297   7.286
13498SOL    HW140520   2.822   5.341   7.198
13498SOL    HW240521   2.881   5.206   7.270
13499SOL     OW40522   3.721   5.242   7.191
13499SOL    HW140523   3.735   5.269   7.096
13499SOL    HW240524   3.804   5.264   7.244
13500SOL     OW40525   2.212   4.622   7.390
13500SOL    HW140526   2.288   4.666   7.438
13500SOL    HW240527   2.247   4.575   7.308
13501SOL     OW40528   3.402   3.998   5.711
13501SOL    HW140529   3.341   3.923   5.734
13501SOL    HW240530   3.424   4.050   5.794
13502SOL     OW40531   3.165   4.562   5.628
13502SOL    HW140532   3.199   4.469   5.643
13502SOL    HW240533   3.183   4.589   5.533
13503SOL     OW40534   2.930   5.057   6.435
13503SOL    HW140535   2.937   4.973   6.380
13503SOL    HW240536   2.992   5.126   6.399
13504SOL     OW40537   2.181   4.534   6.535
13504SOL    HW140538   2.274   4.570   6.540
13504SOL    HW240539   2.175   4.449   6.587
13505SOL     OW40540   2.201   4.233   6.592
13505SOL    HW140541   2.149   4.150   6.575
13505SOL    HW240542   2.278   4.238   6.528
13506SOL     OW40543   3.000   4.104   7.264
13506SOL    HW140544   2.955   4.167   7.328
13506SOL    HW240545   3.093   4.135   7.247
13507SOL     OW40546   3.022   3.931   7.063
13507SOL    HW140547   3.022   3.995   7.140
13507SOL    HW240548   3.050   3.979   6.980
13508SOL     OW40549   1.870   5.050   5.786
13508SOL    HW140550   1.777   5.071   5.755
13508SOL    HW240551   1.880   4.951   5.799
13509SOL     OW40552   1.950   5.525   6.513
13509SOL    HW140553   1.908   5.439   6.486
13509SOL    HW240554   2.044   5.528   6.479
13510SOL     OW40555   2.366   5.292   6.496
13510SOL    HW140556   2.432   5.366   6.505
13510SOL    HW240557   2.410   5.213   6.454
13511SOL     OW40558   2.864   4.520   6.824
13511SOL    HW140559   2.905   4.488   6.910
13511SOL    HW240560   2.768   4.493   6.821
13512SOL     OW40561   1.902   4.268   6.700
13512SOL    HW140562   1.987   4.235   6.659
13512SOL    HW240563   1.915   4.283   6.798
13513SOL     OW40564   2.051   4.244   7.308
13513SOL    HW140565   2.110   4.204   7.238
13513SOL    HW240566   1.993   4.315   7.267
13514SOL     OW40567   3.231   4.674   7.246
13514SOL    HW140568   3.270   4.763   7.266
13514SOL    HW240569   3.241   4.654   7.149
13515SOL     OW40570   2.677   4.296   5.911
13515SOL    HW140571   2.684   4.207   5.865
13515SOL    HW240572   2.583   4.330   5.903
13516SOL     OW40573   3.519   4.328   6.792
13516SOL    HW140574   3.481   4.259   6.854
13516SOL    HW240575   3.601   4.292   6.748
13517SOL     OW40576   2.114   5.288   7.330
13517SOL    HW140577   2.084   5.345   7.406
13517SOL    HW240578   2.107   5.191   7.356
13518SOL     OW40579   2.533   4.188   6.855
13518SOL    HW140580   2.499   4.099   6.825
13518SOL    HW240581   2.559   4.242   6.775
13519SOL     OW40582   2.792   5.402   7.051
13519SOL    HW140583   2.768   5.384   6.956
13519SOL    HW240584   2.822   5.496   7.061
13520SOL     OW40585   2.335   4.224   5.777
13520SOL    HW140586   2.396   4.304   5.781
13520SOL    HW240587   2.240   4.255   5.784
13521SOL     OW40588   2.021   4.861   7.052
13521SOL    HW140589   2.043   4.800   7.128
13521SOL    HW240590   2.031   4.812   6.966
13522SOL     OW40591   3.209   4.783   6.820
13522SOL    HW140592   3.233   4.720   6.746
13522SOL    HW240593   3.119   4.823   6.802
13523SOL     OW40594   3.164   4.579   5.895
13523SOL    HW140595   3.078   4.548   5.937
13523SOL    HW240596   3.160   4.565   5.796
13524SOL     OW40597   3.621   5.471   6.740
13524SOL    HW140598   3.682   5.501   6.667
13524SOL    HW240599   3.583   5.382   6.718
13525SOL     OW40600   3.114   5.455   6.714
13525SOL    HW140601   3.198   5.460   6.660
13525SOL    HW240602   3.091   5.359   6.732
13526SOL     OW40603   1.945   4.982   6.608
13526SOL    HW140604   1.940   4.981   6.708
13526SOL    HW240605   1.862   4.941   6.570
13527SOL     OW40606   2.550   5.386   7.302
13527SOL    HW140607   2.494   5.467   7.311
13527SOL    HW240608   2.602   5.390   7.216
13528SOL     OW40609   3.588   3.859   6.109
13528SOL    HW140610   3.661   3.842   6.042
13528SOL    HW240611   3.557   3.772   6.147
13529SOL     OW40612   3.250   5.297   6.063
13529SOL    HW140613   3.317   5.309   5.989
13529SOL    HW240614   3.210   5.386   6.086
13530SOL     OW40615   1.992   5.518   7.437
13530SOL    HW140616   1.951   5.444   7.490
13530SOL    HW240617   2.056   5.569   7.495
13531SOL     OW40618   3.142   4.651   6.258
13531SOL    HW140619   3.202   4.570   6.260
13531SOL    HW240620   3.182   4.720   6.198
13532SOL     OW40621   2.692   4.997   7.008
13532SOL    HW140622   2.687   5.030   7.103
13532SOL    HW240623   2.606   5.016   6.962
13533SOL     OW40624   2.534   5.340   5.740
13533SOL    HW140625   2.543   5.350   5.641
13533SOL    HW240626   2.494   5.251   5.761
13534SOL     OW40627   3.512   5.444   6.980
13534SOL    HW140628   3.565   5.454   6.896
13534SOL    HW240629   3.485   5.534   7.014
13535SOL     OW40630   3.703   3.899   6.549
13535SOL    HW140631   3.742   3.814   6.513
13535SOL    HW240632   3.605   3.901   6.530
13536SOL     OW40633   2.125   4.050   6.306
13536SOL    HW140634   2.046   4.101   6.272
13536SOL    HW240635   2.116   4.035   6.404
13537SOL     OW40636   3.056   5.336   5.617
13537SOL    HW140637   3.062   5.243   5.654
13537SOL    HW240638   2.997   5.336   5.537
13538SOL     OW40639   2.684   4.726   6.958
13538SOL    HW140640   2.724   4.725   6.866
13538SOL    HW240641   2.694   4.818   6.998
13539SOL     OW40642   2.778   4.634   5.877
13539SOL    HW140643   2.841   4.672   5.809
13539SOL    HW240644   2.818   4.551   5.916
13540SOL     OW40645   3.366   5.331   5.630
13540SOL    HW140646   3.274   5.368   5.637
13540SOL    HW240647   3.404   5.351   5.540
13541SOL     OW40648   2.234   5.012   7.076
13541SOL    HW140649   2.221   5.105   7.042
13541SOL    HW240650   2.150   4.960   7.063
13542SOL     OW40651   3.476   5.016   6.875
13542SOL    HW140652   3.536   5.019   6.955
13542SOL    HW240653   3.401   5.080   6.888
13543SOL     OW40654   2.901   4.822   6.282
13543SOL    HW140655   2.831   4.775   6.336
13543SOL    HW240656   2.960   4.754   6.239
13544SOL     OW40657   2.876   3.960   6.557
13544SOL    HW140658   2.868   3.924   6.464
13544SOL    HW240659   2.874   3.884   6.622
13545SOL     OW40660   2.452   5.211   6.077
13545SOL    HW140661   2.494   5.153   6.007
13545SOL    HW240662   2.408   5.290   6.033
13546SOL     OW40663   3.571   4.109   6.967
13546SOL    HW140664   3.644   4.178   6.971
13546SOL    HW240665   3.599   4.034   6.908
13547SOL     OW40666   2.117   5.072   5.876
13547SOL    HW140667   2.021   5.073   5.849
13547SOL    HW240668   2.129   5.125   5.960
13548SOL     OW40669   1.967   4.737   7.312
13548SOL    HW140670   1.890   4.704   7.366
13548SOL    HW240671   2.052   4.707   7.354
13549SOL     OW40672   2.534   3.927   7.075
13549SOL    HW140673   2.624   3.911   7.035
13549SOL    HW240674   2.542   3.932   7.174
13550SOL     OW40675   1.937   4.069   5.619
13550SOL    HW140676   1.845   4.041   5.590
13550SOL    HW240677   1.968   4.146   5.563
13551SOL     OW40678   3.302   4.580   6.984
13551SOL    HW140679   3.245   4.632   6.921
13551SOL    HW240680   3.398   4.592   6.960
13552SOL     OW40681   1.934   3.890   5.904
13552SOL    HW140682   1.917   3.973   5.850
13552SOL    HW240683   2.024   3.853   5.882
13553SOL     OW40684   3.045   5.059   5.705
13553SOL    HW140685   2.946   5.048   5.707
13553SOL    HW240686   3.079   5.074   5.798
13554SOL     OW40687   2.475   4.566   7.017
13554SOL    HW140688   2.531   4.647   7.000
13554SOL    HW240689   2.534   4.486   7.020
13555SOL     OW40690   3.355   5.491   6.545
13555SOL    HW140691   3.388   5.555   6.476
13555SOL    HW240692   3.421   5.485   6.620
13556SOL     OW40693   2.578   4.289   7.294
13556SOL    HW140694   2.597   4.354   7.368
13556SOL    HW240695   2.638   4.209   7.303
13557SOL     OW40696   3.312   4.944   7.219
13557SOL    HW140697   3.303   4.934   7.318
13557SOL    HW240698   3.408   4.937   7.193
13558SOL     OW40699   2.252   5.465   7.146
13558SOL    HW140700   2.161   5.506   7.144
13558SOL    HW240701   2.245   5.371   7.178
13559SOL     OW40702   3.536   4.607   6.840
13559SOL    HW140703   3.509   4.518   6.803
13559SOL    HW240704   3.537   4.675   6.767
13560SOL     OW40705   3.087   4.049   6.035
13560SOL    HW140706   3.152   3.975   6.024
13560SOL    HW240707   3.107   4.099   6.119
13561SOL     OW40708   2.456   4.469   6.238
13561SOL    HW140709   2.506   4.554   6.219
13561SOL    HW240710   2.368   4.471   6.190
13562SOL     OW40711   3.639   4.066   7.228
13562SOL    HW140712   3.622   4.097   7.134
13562SOL    HW240713   3.555   4.029   7.266
13563SOL     OW40714   3.592   4.658   7.103
13563SOL    HW140715   3.630   4.749   7.118
13563SOL    HW240716   3.584   4.641   7.004
13564SOL     OW40717   2.721   5.098   5.602
13564SOL    HW140718   2.675   5.113   5.690
13564SOL    HW240719   2.765   5.183   5.572
13565SOL     OW40720   2.523   5.514   6.539
13565SOL    HW140721   2.477   5.602   6.526
13565SOL    HW240722   2.622   5.526   6.532
13566SOL     OW40723   2.721   4.680   6.447
13566SOL    HW140724   2.775   4.611   6.495
13566SOL    HW240725   2.689   4.749   6.513
13567SOL     OW40726   2.945   4.708   5.673
13567SOL    HW140727   2.922   4.761   5.591
13567SOL    HW240728   3.026   4.652   5.654
13568SOL     OW40729   3.723   5.293   6.437
13568SOL    HW140730   3.652   5.281   6.367
13568SOL    HW240731   3.724   5.214   6.497
13569SOL     OW40732   2.083   5.038   7.430
13569SOL    HW140733   2.018   4.965   7.409
13569SOL    HW240734   2.087   5.052   7.528
13570SOL     OW40735   1.941   4.964   6.239
13570SOL    HW140736   1.940   4.917   6.327
13570SOL    HW240737   2.023   4.936   6.188
13571SOL     OW40738   2.534   5.115   7.210
13571SOL    HW140739   2.456   5.065   7.248
13571SOL    HW240740   2.531   5.210   7.241
13572SOL     OW40741   3.686   3.916   6.813
13572SOL    HW140742   3.682   3.826   6.857
13572SOL    HW240743   3.689   3.905   6.714
13573SOL     OW40744   2.290   4.148   6.106
13573SOL    HW140745   2.320   4.076   6.044
13573SOL    HW240746   2.251   4.108   6.189
13574SOL     OW40747   3.567   5.211   6.690
13574SOL    HW140748   3.474   5.186   6.663
13574SOL    HW240749   3.593   5.161   6.772
13575SOL     OW40750   2.179   4.271   6.866
13575SOL    HW140751   2.217   4.212   6.938
13575SOL    HW240752   2.219   4.245   6.778
13576SOL     OW40753   2.674   5.310   6.273
13576SOL    HW140754   2.706   5.320   6.179
13576SOL    HW240755   2.595   5.248   6.275
13577SOL     OW40756   3.286   3.938   6.698
13577SOL    HW140757   3.338   3.873   6.753
13577SOL    HW240758   3.237   4.001   6.759
13578SOL     OW40759   2.863   3.758   6.740
13578SOL    HW140760   2.800   3.686   6.709
13578SOL    HW240761   2.956   3.722   6.740
13579SOL     OW40762   2.632   5.054   5.887
13579SOL    HW140763   2.586   4.967   5.904
13579SOL    HW240764   2.723   5.051   5.928
13580SOL     OW40765   2.480   5.291   6.870
13580SOL    HW140766   2.475   5.373   6.927
13580SOL    HW240767   2.569   5.288   6.825
13581SOL     OW40768   3.214   3.776   5.754
13581SOL    HW140769   3.249   3.735   5.670
13581SOL    HW240770   3.124   3.738   5.774
13582SOL     OW40771   3.162   4.177   6.277
13582SOL    HW140772   3.103   4.257   6.281
13582SOL    HW240773   3.177   4.142   6.370
13583SOL     OW40774   3.455   3.945   6.468
13583SOL    HW140775   3.371   3.944   6.522
13583SOL    HW240776   3.457   4.028   6.412
13584SOL     OW40777   1.901   4.801   5.886
13584SOL    HW140778   2.000   4.790   5.877
13584SOL    HW240779   1.861   4.715   5.918
13585SOL     OW40780   2.737   5.370   5.923
13585SOL    HW140781   2.660   5.335   5.869
13585SOL    HW240782   2.705   5.441   5.985
13586SOL     OW40783   2.092   4.352   7.561
13586SOL    HW140784   1.999   4.350   7.598
13586SOL    HW240785   2.093   4.313   7.469
13587SOL     OW40786   2.087   3.999   8.444
13587SOL    HW140787   2.122   3.982   8.536
13587SOL    HW240788   1.999   3.954   8.432
13588SOL     OW40789   1.881   4.092   8.095
13588SOL    HW140790   1.799   4.135   8.134
13588SOL    HW240791   1.853   4.019   8.032
13589SOL     OW40792   2.431   4.999   8.613
13589SOL    HW140793   2.338   4.992   8.576
13589SOL    HW240794   2.442   5.088   8.657
13590SOL     OW40795   3.417   5.235   8.151
13590SOL    HW140796   3.360   5.219   8.232
13590SOL    HW240797   3.358   5.245   8.071
13591SOL     OW40798   2.997   4.427   8.165
13591SOL    HW140799   3.054   4.505   8.140
13591SOL    HW240800   2.937   4.453   8.241
13592SOL     OW40801   3.617   4.331   7.679
13592SOL    HW140802   3.605   4.318   7.580
13592SOL    HW240803   3.587   4.250   7.728
13593SOL     OW40804   2.630   4.868   8.471
13593SOL    HW140805   2.552   4.885   8.531
13593SOL    HW240806   2.664   4.955   8.435
13594SOL     OW40807   2.712   4.522   9.271
13594SOL    HW140808   2.708   4.598   9.336
13594SOL    HW240809   2.734   4.558   9.180
13595SOL     OW40810   2.547   4.736   8.113
13595SOL    HW140811   2.616   4.720   8.183
13595SOL    HW240812   2.474   4.793   8.151
13596SOL     OW40813   2.548   4.885   9.251
13596SOL    HW140814   2.608   4.964   9.265
13596SOL    HW240815   2.462   4.916   9.210
13597SOL     OW40816   2.197   5.159   8.509
13597SOL    HW140817   2.119   5.128   8.456
13597SOL    HW240818   2.255   5.217   8.452
13598SOL     OW40819   3.322   5.229   8.787
13598SOL    HW140820   3.346   5.323   8.813
13598SOL    HW240821   3.306   5.175   8.869
13599SOL     OW40822   2.300   4.116   8.947
13599SOL    HW140823   2.382   4.060   8.956
13599SOL    HW240824   2.219   4.058   8.951
13600SOL     OW40825   3.465   4.171   8.185
13600SOL    HW140826   3.391   4.217   8.135
13600SOL    HW240827   3.516   4.239   8.238
13601SOL     OW40828   2.093   5.437   7.931
13601SOL    HW140829   2.127   5.514   7.985
13601SOL    HW240830   2.137   5.437   7.841
13602SOL     OW40831   2.989   5.065   9.138
13602SOL    HW140832   3.036   5.065   9.226
13602SOL    HW240833   2.941   4.978   9.127
13603SOL     OW40834   2.092   5.158   7.986
13603SOL    HW140835   2.066   5.254   7.986
13603SOL    HW240836   2.021   5.104   8.031
13604SOL     OW40837   2.102   4.815   8.334
13604SOL    HW140838   2.116   4.731   8.386
13604SOL    HW240839   2.047   4.879   8.389
13605SOL     OW40840   2.482   5.510   8.887
13605SOL    HW140841   2.390   5.493   8.922
13605SOL    HW240842   2.510   5.602   8.913
13606SOL     OW40843   2.468   4.688   7.571
13606SOL    HW140844   2.475   4.772   7.517
13606SOL    HW240845   2.514   4.701   7.659
13607SOL     OW40846   3.456   3.838   8.928
13607SOL    HW140847   3.438   3.905   8.856
13607SOL    HW240848   3.453   3.884   9.017
13608SOL     OW40849   1.984   4.367   8.011
13608SOL    HW140850   1.939   4.279   8.028
13608SOL    HW240851   1.983   4.421   8.095
13609SOL     OW40852   3.704   5.491   7.807
13609SOL    HW140853   3.758   5.462   7.887
13609SOL    HW240854   3.734   5.581   7.778
13610SOL     OW40855   1.889   5.320   7.565
13610SOL    HW140856   1.870   5.224   7.586
13610SOL    HW240857   1.856   5.378   7.640
13611SOL     OW40858   3.551   4.646   8.060
13611SOL    HW140859   3.646   4.617   8.068
13611SOL    HW240860   3.543   4.711   7.985
13612SOL     OW40861   3.503   4.832   7.880
13612SOL    HW140862   3.589   4.834   7.828
13612SOL    HW240863   3.517   4.879   7.968
13613SOL     OW40864   2.475   5.089   8.174
13613SOL    HW140865   2.426   5.002   8.183
13613SOL    HW240866   2.452   5.132   8.087
13614SOL     OW40867   3.155   4.952   8.871
13614SOL    HW140868   3.192   4.879   8.813
13614SOL    HW240869   3.207   4.957   8.956
13615SOL     OW40870   2.671   3.728   7.950
13615SOL    HW140871   2.711   3.819   7.941
13615SOL    HW240872   2.571   3.736   7.956
13616SOL     OW40873   2.059   4.700   8.712
13616SOL    HW140874   2.148   4.655   8.698
13616SOL    HW240875   1.986   4.635   8.693
13617SOL     OW40876   3.387   4.723   7.638
13617SOL    HW140877   3.324   4.647   7.651
13617SOL    HW240878   3.435   4.741   7.724
13618SOL     OW40879   3.049   5.516   9.064
13618SOL    HW140880   3.073   5.576   8.988
13618SOL    HW240881   3.056   5.421   9.034
13619SOL     OW40882   2.179   3.975   9.249
13619SOL    HW140883   2.250   4.046   9.255
13619SOL    HW240884   2.091   4.014   9.277
13620SOL     OW40885   3.328   5.141   8.401
13620SOL    HW140886   3.269   5.147   8.481
13620SOL    HW240887   3.313   5.053   8.355
13621SOL     OW40888   3.529   5.438   8.020
13621SOL    HW140889   3.488   5.415   7.932
13621SOL    HW240890   3.511   5.364   8.085
13622SOL     OW40891   2.460   4.453   7.718
13622SOL    HW140892   2.484   4.522   7.650
13622SOL    HW240893   2.382   4.486   7.772
13623SOL     OW40894   3.143   4.069   8.392
13623SOL    HW140895   3.057   4.019   8.379
13623SOL    HW240896   3.205   4.015   8.448
13624SOL     OW40897   3.438   5.386   7.755
13624SOL    HW140898   3.527   5.432   7.758
13624SOL    HW240899   3.417   5.362   7.660
13625SOL     OW40900   2.669   4.329   8.913
13625SOL    HW140901   2.622   4.326   9.002
13625SOL    HW240902   2.618   4.274   8.847
13626SOL     OW40903   3.256   4.193   9.122
13626SOL    HW140904   3.236   4.236   9.210
13626SOL    HW240905   3.334   4.131   9.131
13627SOL     OW40906   2.835   4.614   9.020
13627SOL    HW140907   2.881   4.530   8.991
13627SOL    HW240908   2.779   4.648   8.945
13628SOL     OW40909   2.853   4.134   8.690
13628SOL    HW140910   2.776   4.168   8.744
13628SOL    HW240911   2.819   4.083   8.611
13629SOL     OW40912   2.903   4.425   7.877
13629SOL    HW140913   2.929   4.421   7.973
13629SOL    HW240914   2.818   4.374   7.863
13630SOL     OW40915   1.938   4.535   8.237
13630SOL    HW140916   2.037   4.523   8.246
13630SOL    HW240917   1.914   4.630   8.258
13631SOL     OW40918   1.992   5.545   9.019
13631SOL    HW140919   1.982   5.530   9.118
13631SOL    HW240920   1.906   5.581   8.983
13632SOL     OW40921   2.727   4.072   7.643
13632SOL    HW140922   2.786   4.135   7.594
13632SOL    HW240923   2.746   3.978   7.614
13633SOL     OW40924   3.581   4.309   9.279
13633SOL    HW140925   3.555   4.398   9.243
13633SOL    HW240926   3.579   4.241   9.206
13634SOL     OW40927   3.224   4.868   7.993
13634SOL    HW140928   3.307   4.839   7.945
13634SOL    HW240929   3.175   4.935   7.937
13635SOL     OW40930   2.412   3.920   8.333
13635SOL    HW140931   2.407   3.915   8.433
13635SOL    HW240932   2.414   4.016   8.304
13636SOL     OW40933   2.870   5.180   7.925
13636SOL    HW140934   2.824   5.252   7.873
13636SOL    HW240935   2.866   5.200   8.023
13637SOL     OW40936   2.213   5.525   8.301
13637SOL    HW140937   2.263   5.439   8.307
13637SOL    HW240938   2.278   5.602   8.298
13638SOL     OW40939   3.657   4.790   8.321
13638SOL    HW140940   3.595   4.775   8.245
13638SOL    HW240941   3.605   4.801   8.406
13639SOL     OW40942   3.089   5.274   8.954
13639SOL    HW140943   3.095   5.197   9.018
13639SOL    HW240944   3.037   5.248   8.874
13640SOL     OW40945   2.183   4.667   7.690
13640SOL    HW140946   2.265   4.706   7.648
13640SOL    HW240947   2.156   4.585   7.641
13641SOL     OW40948   3.320   4.459   8.176
13641SOL    HW140949   3.315   4.394   8.251
13641SOL    HW240950   3.400   4.518   8.189
13642SOL     OW40951   2.323   4.990   9.175
13642SOL    HW140952   2.273   4.991   9.089
13642SOL    HW240953   2.260   4.972   9.251
13643SOL     OW40954   2.973   5.500   7.685
13643SOL    HW140955   2.913   5.438   7.735
13643SOL    HW240956   3.004   5.456   7.600
13644SOL     OW40957   2.064   4.009   8.946
13644SOL    HW140958   1.984   4.069   8.933
13644SOL    HW240959   2.054   3.960   9.032
13645SOL     OW40960   3.494   5.101   7.529
13645SOL    HW140961   3.462   5.195   7.519
13645SOL    HW240962   3.418   5.038   7.517
13646SOL     OW40963   2.326   5.467   7.771
13646SOL    HW140964   2.359   5.506   7.857
13646SOL    HW240965   2.402   5.460   7.706
13647SOL     OW40966   3.262   3.831   7.874
13647SOL    HW140967   3.238   3.794   7.784
13647SOL    HW240968   3.361   3.847   7.878
13648SOL     OW40969   2.111   5.509   8.689
13648SOL    HW140970   2.168   5.444   8.739
13648SOL    HW240971   2.095   5.476   8.596
13649SOL     OW40972   2.802   5.422   8.352
13649SOL    HW140973   2.882   5.365   8.373
13649SOL    HW240974   2.753   5.382   8.275
13650SOL     OW40975   2.244   4.424   7.928
13650SOL    HW140976   2.289   4.334   7.925
13650SOL    HW240977   2.150   4.413   7.961
13651SOL     OW40978   3.409   3.946   9.177
13651SOL    HW140979   3.404   3.983   9.269
13651SOL    HW240980   3.337   3.877   9.165
13652SOL     OW40981   2.476   3.846   7.565
13652SOL    HW140982   2.574   3.824   7.572
13652SOL    HW240983   2.445   3.829   7.472
13653SOL     OW40984   2.643   3.988   9.197
13653SOL    HW140985   2.710   3.927   9.240
13653SOL    HW240986   2.570   4.007   9.262
13654SOL     OW40987   2.750   5.238   8.643
13654SOL    HW140988   2.727   5.213   8.549
13654SOL    HW240989   2.811   5.169   8.682
13655SOL     OW40990   3.213   4.314   8.881
13655SOL    HW140991   3.241   4.271   8.966
13655SOL    HW240992   3.238   4.410   8.882
13656SOL     OW40993   2.665   5.126   8.372
13656SOL    HW140994   2.755   5.140   8.330
13656SOL    HW240995   2.594   5.128   8.301
13657SOL     OW40996   2.784   4.227   8.347
13657SOL    HW140997   2.759   4.218   8.251
13657SOL    HW240998   2.832   4.145   8.378
13658SOL     OW40999   2.401   3.788   7.960
13658SOL    HW141000   2.320   3.789   8.018
13658SOL    HW241001   2.404   3.871   7.905
13659SOL     OW41002   3.296   4.912   7.489
13659SOL    HW141003   3.328   4.836   7.546
13659SOL    HW241004   3.204   4.939   7.519
13660SOL     OW41005   2.159   3.759   7.619
13660SOL    HW141006   2.208   3.843   7.598
13660SOL    HW241007   2.221   3.694   7.664
13661SOL     OW41008   2.797   3.960   7.928
13661SOL    HW141009   2.749   4.001   7.850
13661SOL    HW241010   2.896   3.958   7.909
13662SOL     OW41011   2.938   4.407   8.912
13662SOL    HW141012   2.858   4.346   8.915
13662SOL    HW241013   3.019   4.354   8.888
13663SOL     OW41014   3.089   5.294   8.241
13663SOL    HW141015   3.110   5.368   8.176
13663SOL    HW241016   3.157   5.294   8.314
13664SOL     OW41017   2.321   4.876   8.189
13664SOL    HW141018   2.250   4.849   8.254
13664SOL    HW241019   2.295   4.848   8.096
13665SOL     OW41020   3.133   5.521   8.039
13665SOL    HW141021   3.177   5.585   7.975
13665SOL    HW241022   3.083   5.573   8.109
13666SOL     OW41023   2.894   4.273   7.464
13666SOL    HW141024   2.853   4.355   7.425
13666SOL    HW241025   2.958   4.299   7.537
13667SOL     OW41026   1.940   4.280   8.834
13667SOL    HW141027   2.032   4.279   8.793
13667SOL    HW241028   1.934   4.354   8.901
13668SOL     OW41029   2.423   3.946   8.595
13668SOL    HW141030   2.461   3.862   8.632
13668SOL    HW241031   2.335   3.965   8.639
13669SOL     OW41032   2.728   4.178   8.090
13669SOL    HW141033   2.696   4.250   8.028
13669SOL    HW241034   2.752   4.097   8.037
13670SOL     OW41035   2.879   3.763   8.201
13670SOL    HW141036   2.807   3.768   8.132
13670SOL    HW241037   2.855   3.694   8.270
13671SOL     OW41038   3.291   4.897   8.315
13671SOL    HW141039   3.236   4.813   8.308
13671SOL    HW241040   3.317   4.926   8.223
13672SOL     OW41041   3.328   4.314   8.440
13672SOL    HW141042   3.298   4.219   8.447
13672SOL    HW241043   3.401   4.330   8.506
13673SOL     OW41044   3.719   4.557   7.825
13673SOL    HW141045   3.761   4.493   7.889
13673SOL    HW241046   3.681   4.506   7.747
13674SOL     OW41047   2.350   5.109   7.622
13674SOL    HW141048   2.263   5.094   7.669
13674SOL    HW241049   2.333   5.135   7.527
13675SOL     OW41050   3.526   5.004   8.105
13675SOL    HW141051   3.625   5.012   8.119
13675SOL    HW241052   3.481   5.088   8.136
13676SOL     OW41053   3.252   4.299   7.526
13676SOL    HW141054   3.198   4.278   7.607
13676SOL    HW241055   3.343   4.258   7.535
13677SOL     OW41056   2.389   3.980   7.776
13677SOL    HW141057   2.416   3.921   7.701
13677SOL    HW241058   2.389   4.075   7.745
13678SOL     OW41059   3.616   4.947   9.036
13678SOL    HW141060   3.707   4.908   9.023
13678SOL    HW241061   3.624   5.043   9.060
13679SOL     OW41062   2.926   5.071   8.788
13679SOL    HW141063   2.846   5.048   8.843
13679SOL    HW241064   3.009   5.045   8.837
13680SOL     OW41065   3.454   5.353   9.073
13680SOL    HW141066   3.481   5.387   8.983
13680SOL    HW241067   3.533   5.315   9.119
13681SOL     OW41068   2.973   4.919   8.548
13681SOL    HW141069   2.933   4.963   8.629
13681SOL    HW241070   2.932   4.956   8.465
13682SOL     OW41071   3.500   4.823   8.527
13682SOL    HW141072   3.505   4.904   8.586
13682SOL    HW241073   3.414   4.825   8.476
13683SOL     OW41074   2.777   3.813   8.850
13683SOL    HW141075   2.802   3.793   8.755
13683SOL    HW241076   2.849   3.869   8.892
13684SOL     OW41077   2.842   4.840   9.167
13684SOL    HW141078   2.743   4.846   9.177
13684SOL    HW241079   2.865   4.760   9.111
13685SOL     OW41080   2.567   4.774   7.816
13685SOL    HW141081   2.553   4.781   7.915
13685SOL    HW241082   2.651   4.723   7.798
13686SOL     OW41083   2.272   4.537   8.699
13686SOL    HW141084   2.358   4.549   8.749
13686SOL    HW241085   2.230   4.450   8.726
13687SOL     OW41086   3.136   4.110   8.710
13687SOL    HW141087   3.157   4.184   8.774
13687SOL    HW241088   3.047   4.127   8.667
13688SOL     OW41089   1.926   5.288   8.779
13688SOL    HW141090   1.880   5.370   8.745
13688SOL    HW241091   2.024   5.307   8.788
13689SOL     OW41092   2.229   4.824   7.949
13689SOL    HW141093   2.222   4.907   7.893
13689SOL    HW241094   2.233   4.744   7.889
13690SOL     OW41095   2.428   4.261   8.313
13690SOL    HW141096   2.440   4.327   8.239
13690SOL    HW241097   2.474   4.295   8.396
13691SOL     OW41098   3.114   5.072   7.836
13691SOL    HW141099   3.164   5.149   7.876
13691SOL    HW241100   3.019   5.074   7.868
13692SOL     OW41101   3.134   5.169   8.590
13692SOL    HW141102   3.181   5.182   8.677
13692SOL    HW241103   3.068   5.095   8.599
13693SOL     OW41104   3.444   4.363   7.920
13693SOL    HW141105   3.413   4.424   7.993
13693SOL    HW241106   3.494   4.415   7.851
13694SOL     OW41107   2.216   5.234   8.777
13694SOL    HW141108   2.195   5.190   8.690
13694SOL    HW241109   2.313   5.260   8.780
13695SOL     OW41110   2.264   4.475   9.046
13695SOL    HW141111   2.332   4.530   8.999
13695SOL    HW241112   2.304   4.387   9.073
13696SOL     OW41113   3.449   4.503   9.118
13696SOL    HW141114   3.357   4.541   9.113
13696SOL    HW241115   3.509   4.550   9.053
13697SOL     OW41116   2.875   3.829   9.218
13697SOL    HW141117   2.881   3.914   9.166
13697SOL    HW241118   2.907   3.753   9.161
13698SOL     OW41119   2.366   3.774   9.188
13698SOL    HW141120   2.324   3.717   9.118
13698SOL    HW241121   2.300   3.843   9.220
13699SOL     OW41122   3.222   4.586   8.493
13699SOL    HW141123   3.147   4.586   8.427
13699SOL    HW241124   3.259   4.494   8.502
13700SOL     OW41125   3.071   4.249   7.723
13700SOL    HW141126   3.084   4.165   7.777
13700SOL    HW241127   3.042   4.323   7.783
13701SOL     OW41128   2.169   3.937   8.679
13701SOL    HW141129   2.146   3.974   8.769
13701SOL    HW241130   2.139   3.842   8.673
13702SOL     OW41131   1.899   5.034   8.730
13702SOL    HW141132   1.952   4.985   8.798
13702SOL    HW241133   1.921   5.132   8.735
13703SOL     OW41134   2.594   4.358   8.512
13703SOL    HW141135   2.653   4.332   8.436
13703SOL    HW241136   2.566   4.454   8.501
13704SOL     OW41137   3.590   4.659   9.302
13704SOL    HW141138   3.544   4.652   9.213
13704SOL    HW241139   3.528   4.703   9.368
13705SOL     OW41140   2.169   3.787   8.066
13705SOL    HW141141   2.158   3.881   8.099
13705SOL    HW241142   2.164   3.724   8.143
13706SOL     OW41143   3.484   4.091   7.822
13706SOL    HW141144   3.486   4.015   7.886
13706SOL    HW241145   3.436   4.168   7.862
13707SOL     OW41146   2.885   4.490   8.414
13707SOL    HW141147   2.900   4.511   8.510
13707SOL    HW241148   2.855   4.395   8.405
13708SOL     OW41149   2.842   5.297   9.148
13708SOL    HW141150   2.822   5.341   9.060
13708SOL    HW241151   2.881   5.206   9.132
13709SOL     OW41152   3.721   5.242   9.053
13709SOL    HW141153   3.735   5.269   8.958
13709SOL    HW241154   3.804   5.264   9.106
13710SOL     OW41155   2.212   4.622   9.252
13710SOL    HW141156   2.288   4.666   9.300
13710SOL    HW241157   2.247   4.575   9.170
13711SOL     OW41158   3.402   3.998   7.573
13711SOL    HW141159   3.341   3.923   7.596
13711SOL    HW241160   3.424   4.050   7.656
13712SOL     OW41161   3.165   4.562   7.490
13712SOL    HW141162   3.199   4.469   7.505
13712SOL    HW241163   3.183   4.589   7.395
13713SOL     OW41164   2.930   5.057   8.297
13713SOL    HW141165   2.937   4.973   8.242
13713SOL    HW241166   2.992   5.126   8.261
13714SOL     OW41167   2.181   4.534   8.397
13714SOL    HW141168   2.274   4.570   8.402
13714SOL    HW241169   2.175   4.449   8.449
13715SOL     OW41170   2.201   4.233   8.454
13715SOL    HW141171   2.149   4.150   8.437
13715SOL    HW241172   2.278   4.238   8.390
13716SOL     OW41173   3.000   4.104   9.126
13716SOL    HW141174   2.955   4.167   9.190
13716SOL    HW241175   3.093   4.135   9.109
13717SOL     OW41176   3.022   3.931   8.925
13717SOL    HW141177   3.022   3.995   9.002
13717SOL    HW241178   3.050   3.979   8.842
13718SOL     OW41179   1.870   5.050   7.648
13718SOL    HW141180   1.777   5.071   7.617
13718SOL    HW241181   1.880   4.951   7.661
13719SOL     OW41182   1.950   5.525   8.375
13719SOL    HW141183   1.908   5.439   8.348
13719SOL    HW241184   2.044   5.528   8.341
13720SOL     OW41185   2.366   5.292   8.358
13720SOL    HW141186   2.432   5.366   8.367
13720SOL    HW241187   2.410   5.213   8.316
13721SOL     OW41188   2.864   4.520   8.686
13721SOL    HW141189   2.905   4.488   8.772
13721SOL    HW241190   2.768   4.493   8.683
13722SOL     OW41191   1.902   4.268   8.562
13722SOL    HW141192   1.987   4.235   8.521
13722SOL    HW241193   1.915   4.283   8.660
13723SOL     OW41194   2.051   4.244   9.170
13723SOL    HW141195   2.110   4.204   9.100
13723SOL    HW241196   1.993   4.315   9.129
13724SOL     OW41197   3.231   4.674   9.108
13724SOL    HW141198   3.270   4.763   9.128
13724SOL    HW241199   3.241   4.654   9.011
13725SOL     OW41200   2.677   4.296   7.773
13725SOL    HW141201   2.684   4.207   7.727
13725SOL    HW241202   2.583   4.330   7.765
13726SOL     OW41203   3.519   4.328   8.654
13726SOL    HW141204   3.481   4.259   8.716
13726SOL    HW241205   3.601   4.292   8.610
13727SOL     OW41206   2.114   5.288   9.192
13727SOL    HW141207   2.084   5.345   9.268
13727SOL    HW241208   2.107   5.191   9.218
13728SOL     OW41209   2.533   4.188   8.717
13728SOL    HW141210   2.499   4.099   8.687
13728SOL    HW241211   2.559   4.242   8.637
13729SOL     OW41212   2.792   5.402   8.913
13729SOL    HW141213   2.768   5.384   8.818
13729SOL    HW241214   2.822   5.496   8.923
13730SOL     OW41215   2.335   4.224   7.639
13730SOL    HW141216   2.396   4.304   7.643
13730SOL    HW241217   2.240   4.255   7.646
13731SOL     OW41218   2.021   4.861   8.914
13731SOL    HW141219   2.043   4.800   8.990
13731SOL    HW241220   2.031   4.812   8.828
13732SOL     OW41221   3.209   4.783   8.682
13732SOL    HW141222   3.233   4.720   8.608
13732SOL    HW241223   3.119   4.823   8.664
13733SOL     OW41224   3.164   4.579   7.757
13733SOL    HW141225   3.078   4.548   7.799
13733SOL    HW241226   3.160   4.565   7.658
13734SOL     OW41227   3.621   5.471   8.602
13734SOL    HW141228   3.682   5.501   8.529
13734SOL    HW241229   3.583   5.382   8.580
13735SOL     OW41230   3.114   5.455   8.576
13735SOL    HW141231   3.198   5.460   8.522
13735SOL    HW241232   3.091   5.359   8.594
13736SOL     OW41233   1.945   4.982   8.470
13736SOL    HW141234   1.940   4.981   8.570
13736SOL    HW241235   1.862   4.941   8.432
13737SOL     OW41236   2.550   5.386   9.164
13737SOL    HW141237   2.494   5.467   9.173
13737SOL    HW241238   2.602   5.390   9.078
13738SOL     OW41239   3.588   3.859   7.971
13738SOL    HW141240   3.661   3.842   7.904
13738SOL    HW241241   3.557   3.772   8.009
13739SOL     OW41242   3.250   5.297   7.925
13739SOL    HW141243   3.317   5.309   7.851
13739SOL    HW241244   3.210   5.386   7.948
13740SOL     OW41245   1.992   5.518   9.299
13740SOL    HW141246   1.951   5.444   9.352
13740SOL    HW241247   2.056   5.569   9.357
13741SOL     OW41248   3.142   4.651   8.120
13741SOL    HW141249   3.202   4.570   8.122
13741SOL    HW241250   3.182   4.720   8.060
13742SOL     OW41251   2.692   4.997   8.870
13742SOL    HW141252   2.687   5.030   8.965
13742SOL    HW241253   2.606   5.016   8.824
13743SOL     OW41254   2.534   5.340   7.602
13743SOL    HW141255   2.543   5.350   7.503
13743SOL    HW241256   2.494   5.251   7.623
13744SOL     OW41257   3.512   5.444   8.842
13744SOL    HW141258   3.565   5.454   8.758
13744SOL    HW241259   3.485   5.534   8.876
13745SOL     OW41260   3.703   3.899   8.411
13745SOL    HW141261   3.742   3.814   8.375
13745SOL    HW241262   3.605   3.901   8.392
13746SOL     OW41263   2.125   4.050   8.168
13746SOL    HW141264   2.046   4.101   8.134
13746SOL    HW241265   2.116   4.035   8.266
13747SOL     OW41266   3.056   5.336   7.479
13747SOL    HW141267   3.062   5.243   7.516
13747SOL    HW241268   2.997   5.336   7.399
13748SOL     OW41269   2.684   4.726   8.820
13748SOL    HW141270   2.724   4.725   8.728
13748SOL    HW241271   2.694   4.818   8.860
13749SOL     OW41272   2.778   4.634   7.739
13749SOL    HW141273   2.841   4.672   7.671
13749SOL    HW241274   2.818   4.551   7.778
13750SOL     OW41275   3.366   5.331   7.492
13750SOL    HW141276   3.274   5.368   7.499
13750SOL    HW241277   3.404   5.351   7.402
13751SOL     OW41278   2.234   5.012   8.938
13751SOL    HW141279   2.221   5.105   8.904
13751SOL    HW241280   2.150   4.960   8.925
13752SOL     OW41281   3.476   5.016   8.737
13752SOL    HW141282   3.536   5.019   8.817
13752SOL    HW241283   3.401   5.080   8.750
13753SOL     OW41284   2.901   4.822   8.144
13753SOL    HW141285   2.831   4.775   8.198
13753SOL    HW241286   2.960   4.754   8.101
13754SOL     OW41287   2.876   3.960   8.419
13754SOL    HW141288   2.868   3.924   8.326
13754SOL    HW241289   2.874   3.884   8.484
13755SOL     OW41290   2.452   5.211   7.939
13755SOL    HW141291   2.494   5.153   7.869
13755SOL    HW241292   2.408   5.290   7.895
13756SOL     OW41293   3.571   4.109   8.829
13756SOL    HW141294   3.644   4.178   8.833
13756SOL    HW241295   3.599   4.034   8.770
13757SOL     OW41296   2.117   5.072   7.738
13757SOL    HW141297   2.021   5.073   7.711
13757SOL    HW241298   2.129   5.125   7.822
13758SOL     OW41299   1.967   4.737   9.174
13758SOL    HW141300   1.890   4.704   9.228
13758SOL    HW241301   2.052   4.707   9.216
13759SOL     OW41302   2.534   3.927   8.937
13759SOL    HW141303   2.624   3.911   8.897
13759SOL    HW241304   2.542   3.932   9.036
13760SOL     OW41305   1.937   4.069   7.481
13760SOL    HW141306   1.845   4.041   7.452
13760SOL    HW241307   1.968   4.146   7.425
13761SOL     OW41308   3.302   4.580   8.846
13761SOL    HW141309   3.245   4.632   8.783
13761SOL    HW241310   3.398   4.592   8.822
13762SOL     OW41311   1.934   3.890   7.766
13762SOL    HW141312   1.917   3.973   7.712
13762SOL    HW241313   2.024   3.853   7.744
13763SOL     OW41314   3.045   5.059   7.567
13763SOL    HW141315   2.946   5.048   7.569
13763SOL    HW241316   3.079   5.074   7.660
13764SOL     OW41317   2.475   4.566   8.879
13764SOL    HW141318   2.531   4.647   8.862
13764SOL    HW241319   2.534   4.486   8.882
13765SOL     OW41320   3.355   5.491   8.407
13765SOL    HW141321   3.388   5.555   8.338
13765SOL    HW241322   3.421   5.485   8.482
13766SOL     OW41323   2.578   4.289   9.156
13766SOL    HW141324   2.597   4.354   9.230
13766SOL    HW241325   2.638   4.209   9.165
13767SOL     OW41326   3.312   4.944   9.081
13767SOL    HW141327   3.303   4.934   9.180
13767SOL    HW241328   3.408   4.937   9.055
13768SOL     OW41329   2.252   5.465   9.008
13768SOL    HW141330   2.161   5.506   9.006
13768SOL    HW241331   2.245   5.371   9.040
13769SOL     OW41332   3.536   4.607   8.702
13769SOL    HW141333   3.509   4.518   8.665
13769SOL    HW241334   3.537   4.675   8.629
13770SOL     OW41335   3.087   4.049   7.897
13770SOL    HW141336   3.152   3.975   7.886
13770SOL    HW241337   3.107   4.099   7.981
13771SOL     OW41338   2.456   4.469   8.100
13771SOL    HW141339   2.506   4.554   8.081
13771SOL    HW241340   2.368   4.471   8.052
13772SOL     OW41341   3.639   4.066   9.090
13772SOL    HW141342   3.622   4.097   8.996
13772SOL    HW241343   3.555   4.029   9.128
13773SOL     OW41344   3.592   4.658   8.965
13773SOL    HW141345   3.630   4.749   8.980
13773SOL    HW241346   3.584   4.641   8.866
13774SOL     OW41347   2.721   5.098   7.464
13774SOL    HW141348   2.675   5.113   7.552
13774SOL    HW241349   2.765   5.183   7.434
13775SOL     OW41350   2.523   5.514   8.401
13775SOL    HW141351   2.477   5.602   8.388
13775SOL    HW241352   2.622   5.526   8.394
13776SOL     OW41353   2.721   4.680   8.309
13776SOL    HW141354   2.775   4.611   8.357
13776SOL    HW241355   2.689   4.749   8.375
13777SOL     OW41356   2.945   4.708   7.535
13777SOL    HW141357   2.922   4.761   7.453
13777SOL    HW241358   3.026   4.652   7.516
13778SOL     OW41359   3.723   5.293   8.299
13778SOL    HW141360   3.652   5.281   8.229
13778SOL    HW241361   3.724   5.214   8.359
13779SOL     OW41362   2.083   5.038   9.292
13779SOL    HW141363   2.018   4.965   9.271
13779SOL    HW241364   2.087   5.052   9.390
13780SOL     OW41365   1.941   4.964   8.101
13780SOL    HW141366   1.940   4.917   8.189
13780SOL    HW241367   2.023   4.936   8.050
13781SOL     OW41368   2.534   5.115   9.072
13781SOL    HW141369   2.456   5.065   9.110
13781SOL    HW241370   2.531   5.210   9.103
13782SOL     OW41371   3.686   3.916   8.675
13782SOL    HW141372   3.682   3.826   8.719
13782SOL    HW241373   3.689   3.905   8.576
13783SOL     OW41374   2.290   4.148   7.968
13783SOL    HW141375   2.320   4.076   7.906
13783SOL    HW241376   2.251   4.108   8.051
13784SOL     OW41377   3.567   5.211   8.552
13784SOL    HW141378   3.474   5.186   8.525
13784SOL    HW241379   3.593   5.161   8.634
13785SOL     OW41380   2.179   4.271   8.728
13785SOL    HW141381   2.217   4.212   8.800
13785SOL    HW241382   2.219   4.245   8.640
13786SOL     OW41383   2.674   5.310   8.135
13786SOL    HW141384   2.706   5.320   8.041
13786SOL    HW241385   2.595   5.248   8.137
13787SOL     OW41386   3.286   3.938   8.560
13787SOL    HW141387   3.338   3.873   8.615
13787SOL    HW241388   3.237   4.001   8.621
13788SOL     OW41389   2.863   3.758   8.602
13788SOL    HW141390   2.800   3.686   8.571
13788SOL    HW241391   2.956   3.722   8.602
13789SOL     OW41392   2.632   5.054   7.749
13789SOL    HW141393   2.586   4.967   7.766
13789SOL    HW241394   2.723   5.051   7.790
13790SOL     OW41395   2.480   5.291   8.732
13790SOL    HW141396   2.475   5.373   8.789
13790SOL    HW241397   2.569   5.288   8.687
13791SOL     OW41398   3.214   3.776   7.616
13791SOL    HW141399   3.249   3.735   7.532
13791SOL    HW241400   3.124   3.738   7.636
13792SOL     OW41401   3.162   4.177   8.139
13792SOL    HW141402   3.103   4.257   8.143
13792SOL    HW241403   3.177   4.142   8.232
13793SOL     OW41404   3.455   3.945   8.330
13793SOL    HW141405   3.371   3.944   8.384
13793SOL    HW241406   3.457   4.028   8.274
13794SOL     OW41407   1.901   4.801   7.748
13794SOL    HW141408   2.000   4.790   7.739
13794SOL    HW241409   1.861   4.715   7.780
13795SOL     OW41410   2.737   5.370   7.785
13795SOL    HW141411   2.660   5.335   7.731
13795SOL    HW241412   2.705   5.441   7.847
13796SOL     OW41413   2.092   4.352   9.423
13796SOL    HW141414   1.999   4.350   9.460
13796SOL    HW241415   2.093   4.313   9.331
13797SOL     OW41416   2.087   3.999  10.306
13797SOL    HW141417   2.122   3.982  10.398
13797SOL    HW241418   1.999   3.954  10.294
13798SOL     OW41419   1.881   4.092   9.957
13798SOL    HW141420   1.799   4.135   9.996
13798SOL    HW241421   1.853   4.019   9.894
13799SOL     OW41422   2.431   4.999  10.475
13799SOL    HW141423   2.338   4.992  10.438
13799SOL    HW241424   2.442   5.088  10.519
13800SOL     OW41425   3.417   5.235  10.013
13800SOL    HW141426   3.360   5.219  10.094
13800SOL    HW241427   3.358   5.245   9.933
13801SOL     OW41428   2.997   4.427  10.027
13801SOL    HW141429   3.054   4.505  10.002
13801SOL    HW241430   2.937   4.453  10.103
13802SOL     OW41431   3.617   4.331   9.541
13802SOL    HW141432   3.605   4.318   9.442
13802SOL    HW241433   3.587   4.250   9.590
13803SOL     OW41434   2.630   4.868  10.333
13803SOL    HW141435   2.552   4.885  10.393
13803SOL    HW241436   2.664   4.955  10.297
13804SOL     OW41437   2.712   4.522  11.133
13804SOL    HW141438   2.708   4.598  11.198
13804SOL    HW241439   2.734   4.558  11.042
13805SOL     OW41440   2.547   4.736   9.975
13805SOL    HW141441   2.616   4.720  10.045
13805SOL    HW241442   2.474   4.793  10.013
13806SOL     OW41443   2.548   4.885  11.113
13806SOL    HW141444   2.608   4.964  11.127
13806SOL    HW241445   2.462   4.916  11.072
13807SOL     OW41446   2.197   5.159  10.371
13807SOL    HW141447   2.119   5.128  10.318
13807SOL    HW241448   2.255   5.217  10.314
13808SOL     OW41449   3.322   5.229  10.649
13808SOL    HW141450   3.346   5.323  10.675
13808SOL    HW241451   3.306   5.175  10.731
13809SOL     OW41452   2.300   4.116  10.809
13809SOL    HW141453   2.382   4.060  10.818
13809SOL    HW241454   2.219   4.058  10.813
13810SOL     OW41455   3.465   4.171  10.047
13810SOL    HW141456   3.391   4.217   9.997
13810SOL    HW241457   3.516   4.239  10.100
13811SOL     OW41458   2.093   5.437   9.793
13811SOL    HW141459   2.127   5.514   9.847
13811SOL    HW241460   2.137   5.437   9.703
13812SOL     OW41461   2.989   5.065  11.000
13812SOL    HW141462   3.036   5.065  11.088
13812SOL    HW241463   2.941   4.978  10.989
13813SOL     OW41464   2.092   5.158   9.848
13813SOL    HW141465   2.066   5.254   9.848
13813SOL    HW241466   2.021   5.104   9.893
13814SOL     OW41467   2.102   4.815  10.196
13814SOL    HW141468   2.116   4.731  10.248
13814SOL    HW241469   2.047   4.879  10.251
13815SOL     OW41470   2.482   5.510  10.749
13815SOL    HW141471   2.390   5.493  10.784
13815SOL    HW241472   2.510   5.602  10.775
13816SOL     OW41473   2.468   4.688   9.433
13816SOL    HW141474   2.475   4.772   9.379
13816SOL    HW241475   2.514   4.701   9.521
13817SOL     OW41476   3.456   3.838  10.790
13817SOL    HW141477   3.438   3.905  10.718
13817SOL    HW241478   3.453   3.884  10.879
13818SOL     OW41479   1.984   4.367   9.873
13818SOL    HW141480   1.939   4.279   9.890
13818SOL    HW241481   1.983   4.421   9.957
13819SOL     OW41482   3.704   5.491   9.669
13819SOL    HW141483   3.758   5.462   9.749
13819SOL    HW241484   3.734   5.581   9.640
13820SOL     OW41485   1.889   5.320   9.427
13820SOL    HW141486   1.870   5.224   9.448
13820SOL    HW241487   1.856   5.378   9.502
13821SOL     OW41488   3.551   4.646   9.922
13821SOL    HW141489   3.646   4.617   9.930
13821SOL    HW241490   3.543   4.711   9.847
13822SOL     OW41491   3.503   4.832   9.742
13822SOL    HW141492   3.589   4.834   9.690
13822SOL    HW241493   3.517   4.879   9.830
13823SOL     OW41494   1.975   4.461  10.907
13823SOL    HW141495   2.063   4.448  10.952
13823SOL    HW241496   1.962   4.558  10.885
13824SOL     OW41497   2.475   5.089  10.036
13824SOL    HW141498   2.426   5.002  10.045
13824SOL    HW241499   2.452   5.132   9.949
13825SOL     OW41500   3.155   4.952  10.733
13825SOL    HW141501   3.192   4.879  10.675
13825SOL    HW241502   3.207   4.957  10.818
13826SOL     OW41503   2.671   3.728   9.812
13826SOL    HW141504   2.711   3.819   9.803
13826SOL    HW241505   2.571   3.736   9.818
13827SOL     OW41506   2.059   4.700  10.574
13827SOL    HW141507   2.148   4.655  10.560
13827SOL    HW241508   1.986   4.635  10.555
13828SOL     OW41509   3.387   4.723   9.500
13828SOL    HW141510   3.324   4.647   9.513
13828SOL    HW241511   3.435   4.741   9.586
13829SOL     OW41512   3.049   5.516  10.926
13829SOL    HW141513   3.073   5.576  10.850
13829SOL    HW241514   3.056   5.421  10.896
13830SOL     OW41515   2.179   3.975  11.111
13830SOL    HW141516   2.250   4.046  11.117
13830SOL    HW241517   2.091   4.014  11.139
13831SOL     OW41518   3.328   5.141  10.263
13831SOL    HW141519   3.269   5.147  10.343
13831SOL    HW241520   3.313   5.053  10.217
13832SOL     OW41521   3.529   5.438   9.882
13832SOL    HW141522   3.488   5.415   9.794
13832SOL    HW241523   3.511   5.364   9.947
13833SOL     OW41524   2.460   4.453   9.580
13833SOL    HW141525   2.484   4.522   9.512
13833SOL    HW241526   2.382   4.486   9.634
13834SOL     OW41527   3.143   4.069  10.254
13834SOL    HW141528   3.057   4.019  10.241
13834SOL    HW241529   3.205   4.015  10.310
13835SOL     OW41530   3.438   5.386   9.617
13835SOL    HW141531   3.527   5.432   9.620
13835SOL    HW241532   3.417   5.362   9.522
13836SOL     OW41533   2.669   4.329  10.775
13836SOL    HW141534   2.622   4.326  10.864
13836SOL    HW241535   2.618   4.274  10.709
13837SOL     OW41536   3.256   4.193  10.984
13837SOL    HW141537   3.236   4.236  11.072
13837SOL    HW241538   3.334   4.131  10.993
13838SOL     OW41539   2.835   4.614  10.882
13838SOL    HW141540   2.881   4.530  10.853
13838SOL    HW241541   2.779   4.648  10.807
13839SOL     OW41542   2.853   4.134  10.552
13839SOL    HW141543   2.776   4.168  10.606
13839SOL    HW241544   2.819   4.083  10.473
13840SOL     OW41545   2.903   4.425   9.739
13840SOL    HW141546   2.929   4.421   9.835
13840SOL    HW241547   2.818   4.374   9.725
13841SOL     OW41548   1.938   4.535  10.099
13841SOL    HW141549   2.037   4.523  10.108
13841SOL    HW241550   1.914   4.630  10.120
13842SOL     OW41551   1.992   5.545  10.881
13842SOL    HW141552   1.982   5.530  10.980
13842SOL    HW241553   1.906   5.581  10.845
13843SOL     OW41554   2.727   4.072   9.505
13843SOL    HW141555   2.786   4.135   9.456
13843SOL    HW241556   2.746   3.978   9.476
13844SOL     OW41557   3.581   4.309  11.141
13844SOL    HW141558   3.555   4.398  11.105
13844SOL    HW241559   3.579   4.241  11.068
13845SOL     OW41560   3.224   4.868   9.855
13845SOL    HW141561   3.307   4.839   9.807
13845SOL    HW241562   3.175   4.935   9.799
13846SOL     OW41563   2.412   3.920  10.195
13846SOL    HW141564   2.407   3.915  10.295
13846SOL    HW241565   2.414   4.016  10.166
13847SOL     OW41566   2.870   5.180   9.787
13847SOL    HW141567   2.824   5.252   9.735
13847SOL    HW241568   2.866   5.200   9.885
13848SOL     OW41569   2.213   5.525  10.163
13848SOL    HW141570   2.263   5.439  10.169
13848SOL    HW241571   2.278   5.602  10.160
13849SOL     OW41572   3.657   4.790  10.183
13849SOL    HW141573   3.595   4.775  10.107
13849SOL    HW241574   3.605   4.801  10.268
13850SOL     OW41575   3.089   5.274  10.816
13850SOL    HW141576   3.095   5.197  10.880
13850SOL    HW241577   3.037   5.248  10.736
13851SOL     OW41578   2.183   4.667   9.552
13851SOL    HW141579   2.265   4.706   9.510
13851SOL    HW241580   2.156   4.585   9.503
13852SOL     OW41581   3.320   4.459  10.038
13852SOL    HW141582   3.315   4.394  10.113
13852SOL    HW241583   3.400   4.518  10.051
13853SOL     OW41584   2.323   4.990  11.037
13853SOL    HW141585   2.273   4.991  10.951
13853SOL    HW241586   2.260   4.972  11.113
13854SOL     OW41587   2.973   5.500   9.547
13854SOL    HW141588   2.913   5.438   9.597
13854SOL    HW241589   3.004   5.456   9.462
13855SOL     OW41590   2.064   4.009  10.808
13855SOL    HW141591   1.984   4.069  10.795
13855SOL    HW241592   2.054   3.960  10.894
13856SOL     OW41593   3.494   5.101   9.391
13856SOL    HW141594   3.462   5.195   9.381
13856SOL    HW241595   3.418   5.038   9.379
13857SOL     OW41596   2.326   5.467   9.633
13857SOL    HW141597   2.359   5.506   9.719
13857SOL    HW241598   2.402   5.460   9.568
13858SOL     OW41599   3.262   3.831   9.736
13858SOL    HW141600   3.238   3.794   9.646
13858SOL    HW241601   3.361   3.847   9.740
13859SOL     OW41602   2.111   5.509  10.551
13859SOL    HW141603   2.168   5.444  10.601
13859SOL    HW241604   2.095   5.476  10.458
13860SOL     OW41605   2.802   5.422  10.214
13860SOL    HW141606   2.882   5.365  10.235
13860SOL    HW241607   2.753   5.382  10.137
13861SOL     OW41608   2.244   4.424   9.790
13861SOL    HW141609   2.289   4.334   9.787
13861SOL    HW241610   2.150   4.413   9.823
13862SOL     OW41611   3.409   3.946  11.039
13862SOL    HW141612   3.404   3.983  11.131
13862SOL    HW241613   3.337   3.877  11.027
13863SOL     OW41614   2.476   3.846   9.427
13863SOL    HW141615   2.574   3.824   9.434
13863SOL    HW241616   2.445   3.829   9.334
13864SOL     OW41617   2.643   3.988  11.059
13864SOL    HW141618   2.710   3.927  11.102
13864SOL    HW241619   2.570   4.007  11.124
13865SOL     OW41620   2.750   5.238  10.505
13865SOL    HW141621   2.727   5.213  10.411
13865SOL    HW241622   2.811   5.169  10.544
13866SOL     OW41623   3.213   4.314  10.743
13866SOL    HW141624   3.241   4.271  10.828
13866SOL    HW241625   3.238   4.410  10.744
13867SOL     OW41626   2.665   5.126  10.234
13867SOL    HW141627   2.755   5.140  10.192
13867SOL    HW241628   2.594   5.128  10.163
13868SOL     OW41629   2.784   4.227  10.209
13868SOL    HW141630   2.759   4.218  10.113
13868SOL    HW241631   2.832   4.145  10.240
13869SOL     OW41632   2.401   3.788   9.822
13869SOL    HW141633   2.320   3.789   9.880
13869SOL    HW241634   2.404   3.871   9.767
13870SOL     OW41635   3.296   4.912   9.351
13870SOL    HW141636   3.328   4.836   9.408
13870SOL    HW241637   3.204   4.939   9.381
13871SOL     OW41638   2.159   3.759   9.481
13871SOL    HW141639   2.208   3.843   9.460
13871SOL    HW241640   2.221   3.694   9.526
13872SOL     OW41641   2.797   3.960   9.790
13872SOL    HW141642   2.749   4.001   9.712
13872SOL    HW241643   2.896   3.958   9.771
13873SOL     OW41644   2.938   4.407  10.774
13873SOL    HW141645   2.858   4.346  10.777
13873SOL    HW241646   3.019   4.354  10.750
13874SOL     OW41647   3.089   5.294  10.103
13874SOL    HW141648   3.110   5.368  10.038
13874SOL    HW241649   3.157   5.294  10.176
13875SOL     OW41650   2.321   4.876  10.051
13875SOL    HW141651   2.250   4.849  10.116
13875SOL    HW241652   2.295   4.848   9.958
13876SOL     OW41653   3.133   5.521   9.901
13876SOL    HW141654   3.177   5.585   9.837
13876SOL    HW241655   3.083   5.573   9.971
13877SOL     OW41656   2.894   4.273   9.326
13877SOL    HW141657   2.853   4.355   9.287
13877SOL    HW241658   2.958   4.299   9.399
13878SOL     OW41659   1.940   4.280  10.696
13878SOL    HW141660   2.032   4.279  10.655
13878SOL    HW241661   1.934   4.354  10.763
13879SOL     OW41662   2.423   3.946  10.457
13879SOL    HW141663   2.461   3.862  10.494
13879SOL    HW241664   2.335   3.965  10.501
13880SOL     OW41665   2.728   4.178   9.952
13880SOL    HW141666   2.696   4.250   9.890
13880SOL    HW241667   2.752   4.097   9.899
13881SOL     OW41668   2.879   3.763  10.063
13881SOL    HW141669   2.807   3.768   9.994
13881SOL    HW241670   2.855   3.694  10.132
13882SOL     OW41671   3.291   4.897  10.177
13882SOL    HW141672   3.236   4.813  10.170
13882SOL    HW241673   3.317   4.926  10.085
13883SOL     OW41674   3.328   4.314  10.302
13883SOL    HW141675   3.298   4.219  10.309
13883SOL    HW241676   3.401   4.330  10.368
13884SOL     OW41677   3.719   4.557   9.687
13884SOL    HW141678   3.761   4.493   9.751
13884SOL    HW241679   3.681   4.506   9.609
13885SOL     OW41680   2.350   5.109   9.484
13885SOL    HW141681   2.263   5.094   9.531
13885SOL    HW241682   2.333   5.135   9.389
13886SOL     OW41683   3.526   5.004   9.967
13886SOL    HW141684   3.625   5.012   9.981
13886SOL    HW241685   3.481   5.088   9.998
13887SOL     OW41686   3.252   4.299   9.388
13887SOL    HW141687   3.198   4.278   9.469
13887SOL    HW241688   3.343   4.258   9.397
13888SOL     OW41689   2.389   3.980   9.638
13888SOL    HW141690   2.416   3.921   9.563
13888SOL    HW241691   2.389   4.075   9.607
13889SOL     OW41692   3.616   4.947  10.898
13889SOL    HW141693   3.707   4.908  10.885
13889SOL    HW241694   3.624   5.043  10.922
13890SOL     OW41695   2.926   5.071  10.650
13890SOL    HW141696   2.846   5.048  10.705
13890SOL    HW241697   3.009   5.045  10.699
13891SOL     OW41698   3.454   5.353  10.935
13891SOL    HW141699   3.481   5.387  10.845
13891SOL    HW241700   3.533   5.315  10.981
13892SOL     OW41701   2.973   4.919  10.410
13892SOL    HW141702   2.933   4.963  10.491
13892SOL    HW241703   2.932   4.956  10.327
13893SOL     OW41704   3.500   4.823  10.389
13893SOL    HW141705   3.505   4.904  10.448
13893SOL    HW241706   3.414   4.825  10.338
13894SOL     OW41707   2.777   3.813  10.712
13894SOL    HW141708   2.802   3.793  10.617
13894SOL    HW241709   2.849   3.869  10.754
13895SOL     OW41710   2.842   4.840  11.029
13895SOL    HW141711   2.743   4.846  11.039
13895SOL    HW241712   2.865   4.760  10.973
13896SOL     OW41713   2.567   4.774   9.678
13896SOL    HW141714   2.553   4.781   9.777
13896SOL    HW241715   2.651   4.723   9.660
13897SOL     OW41716   2.272   4.537  10.561
13897SOL    HW141717   2.358   4.549  10.611
13897SOL    HW241718   2.230   4.450  10.588
13898SOL     OW41719   3.136   4.110  10.572
13898SOL    HW141720   3.157   4.184  10.636
13898SOL    HW241721   3.047   4.127  10.529
13899SOL     OW41722   1.926   5.288  10.641
13899SOL    HW141723   1.880   5.370  10.607
13899SOL    HW241724   2.024   5.307  10.650
13900SOL     OW41725   2.229   4.824   9.811
13900SOL    HW141726   2.222   4.907   9.755
13900SOL    HW241727   2.233   4.744   9.751
13901SOL     OW41728   2.428   4.261  10.175
13901SOL    HW141729   2.440   4.327  10.101
13901SOL    HW241730   2.474   4.295  10.258
13902SOL     OW41731   3.114   5.072   9.698
13902SOL    HW141732   3.164   5.149   9.738
13902SOL    HW241733   3.019   5.074   9.730
13903SOL     OW41734   3.134   5.169  10.452
13903SOL    HW141735   3.181   5.182  10.539
13903SOL    HW241736   3.068   5.095  10.461
13904SOL     OW41737   3.444   4.363   9.782
13904SOL    HW141738   3.413   4.424   9.855
13904SOL    HW241739   3.494   4.415   9.713
13905SOL     OW41740   2.216   5.234  10.639
13905SOL    HW141741   2.195   5.190  10.552
13905SOL    HW241742   2.313   5.260  10.642
13906SOL     OW41743   2.264   4.475  10.908
13906SOL    HW141744   2.332   4.530  10.861
13906SOL    HW241745   2.304   4.387  10.935
13907SOL     OW41746   3.449   4.503  10.980
13907SOL    HW141747   3.357   4.541  10.975
13907SOL    HW241748   3.509   4.550  10.915
13908SOL     OW41749   2.875   3.829  11.080
13908SOL    HW141750   2.881   3.914  11.028
13908SOL    HW241751   2.907   3.753  11.023
13909SOL     OW41752   2.366   3.774  11.050
13909SOL    HW141753   2.324   3.717  10.980
13909SOL    HW241754   2.300   3.843  11.082
13910SOL     OW41755   2.435   4.594  10.339
13910SOL    HW141756   2.479   4.683  10.330
13910SOL    HW241757   2.372   4.594  10.416
13911SOL     OW41758   3.222   4.586  10.355
13911SOL    HW141759   3.147   4.586  10.289
13911SOL    HW241760   3.259   4.494  10.364
13912SOL     OW41761   3.071   4.249   9.585
13912SOL    HW141762   3.084   4.165   9.639
13912SOL    HW241763   3.042   4.323   9.645
13913SOL     OW41764   2.169   3.937  10.541
13913SOL    HW141765   2.146   3.974  10.631
13913SOL    HW241766   2.139   3.842  10.535
13914SOL     OW41767   1.899   5.034  10.592
13914SOL    HW141768   1.952   4.985  10.660
13914SOL    HW241769   1.921   5.132  10.597
13915SOL     OW41770   2.594   4.358  10.374
13915SOL    HW141771   2.653   4.332  10.298
13915SOL    HW241772   2.566   4.454  10.363
13916SOL     OW41773   3.590   4.659  11.164
13916SOL    HW141774   3.544   4.652  11.075
13916SOL    HW241775   3.528   4.703  11.230
13917SOL     OW41776   2.169   3.787   9.928
13917SOL    HW141777   2.158   3.881   9.961
13917SOL    HW241778   2.164   3.724  10.005
13918SOL     OW41779   3.484   4.091   9.684
13918SOL    HW141780   3.486   4.015   9.748
13918SOL    HW241781   3.436   4.168   9.724
13919SOL     OW41782   2.885   4.490  10.276
13919SOL    HW141783   2.900   4.511  10.372
13919SOL    HW241784   2.855   4.395  10.267
13920SOL     OW41785   2.842   5.297  11.010
13920SOL    HW141786   2.822   5.341  10.922
13920SOL    HW241787   2.881   5.206  10.994
13921SOL     OW41788   3.721   5.242  10.915
13921SOL    HW141789   3.735   5.269  10.820
13921SOL    HW241790   3.804   5.264  10.968
13922SOL     OW41791   2.212   4.622  11.114
13922SOL    HW141792   2.288   4.666  11.162
13922SOL    HW241793   2.247   4.575  11.032
13923SOL     OW41794   3.402   3.998   9.435
13923SOL    HW141795   3.341   3.923   9.458
13923SOL    HW241796   3.424   4.050   9.518
13924SOL     OW41797   3.165   4.562   9.352
13924SOL    HW141798   3.199   4.469   9.367
13924SOL    HW241799   3.183   4.589   9.257
13925SOL     OW41800   2.930   5.057  10.159
13925SOL    HW141801   2.937   4.973  10.104
13925SOL    HW241802   2.992   5.126  10.123
13926SOL     OW41803   2.181   4.534  10.259
13926SOL    HW141804   2.274   4.570  10.264
13926SOL    HW241805   2.175   4.449  10.311
13927SOL     OW41806   2.201   4.233  10.316
13927SOL    HW141807   2.149   4.150  10.299
13927SOL    HW241808   2.278   4.238  10.252
13928SOL     OW41809   3.000   4.104  10.988
13928SOL    HW141810   2.955   4.167  11.052
13928SOL    HW241811   3.093   4.135  10.971
13929SOL     OW41812   3.022   3.931  10.787
13929SOL    HW141813   3.022   3.995  10.864
13929SOL    HW241814   3.050   3.979  10.704
13930SOL     OW41815   1.870   5.050   9.510
13930SOL    HW141816   1.777   5.071   9.479
13930SOL    HW241817   1.880   4.951   9.523
13931SOL     OW41818   1.950   5.525  10.237
13931SOL    HW141819   1.908   5.439  10.210
13931SOL    HW241820   2.044   5.528  10.203
13932SOL     OW41821   2.366   5.292  10.220
13932SOL    HW141822   2.432   5.366  10.229
13932SOL    HW241823   2.410   5.213  10.178
13933SOL     OW41824   2.864   4.520  10.548
13933SOL    HW141825   2.905   4.488  10.634
13933SOL    HW241826   2.768   4.493  10.545
13934SOL     OW41827   1.902   4.268  10.424
13934SOL    HW141828   1.987   4.235  10.383
13934SOL    HW241829   1.915   4.283  10.522
13935SOL     OW41830   2.051   4.244  11.032
13935SOL    HW141831   2.110   4.204  10.962
13935SOL    HW241832   1.993   4.315  10.991
13936SOL     OW41833   3.231   4.674  10.970
13936SOL    HW141834   3.270   4.763  10.990
13936SOL    HW241835   3.241   4.654  10.873
13937SOL     OW41836   2.677   4.296   9.635
13937SOL    HW141837   2.684   4.207   9.589
13937SOL    HW241838   2.583   4.330   9.627
13938SOL     OW41839   3.519   4.328  10.516
13938SOL    HW141840   3.481   4.259  10.578
13938SOL    HW241841   3.601   4.292  10.472
13939SOL     OW41842   2.114   5.288  11.054
13939SOL    HW141843   2.084   5.345  11.130
13939SOL    HW241844   2.107   5.191  11.080
13940SOL     OW41845   2.533   4.188  10.579
13940SOL    HW141846   2.499   4.099  10.549
13940SOL    HW241847   2.559   4.242  10.499
13941SOL     OW41848   2.792   5.402  10.775
13941SOL    HW141849   2.768   5.384  10.680
13941SOL    HW241850   2.822   5.496  10.785
13942SOL     OW41851   2.335   4.224   9.501
13942SOL    HW141852   2.396   4.304   9.505
13942SOL    HW241853   2.240   4.255   9.508
13943SOL     OW41854   2.021   4.861  10.776
13943SOL    HW141855   2.043   4.800  10.852
13943SOL    HW241856   2.031   4.812  10.690
13944SOL     OW41857   3.209   4.783  10.544
13944SOL    HW141858   3.233   4.720  10.470
13944SOL    HW241859   3.119   4.823  10.526
13945SOL     OW41860   3.164   4.579   9.619
13945SOL    HW141861   3.078   4.548   9.661
13945SOL    HW241862   3.160   4.565   9.520
13946SOL     OW41863   3.621   5.471  10.464
13946SOL    HW141864   3.682   5.501  10.391
13946SOL    HW241865   3.583   5.382  10.442
13947SOL     OW41866   3.114   5.455  10.438
13947SOL    HW141867   3.198   5.460  10.384
13947SOL    HW241868   3.091   5.359  10.456
13948SOL     OW41869   1.945   4.982  10.332
13948SOL    HW141870   1.940   4.981  10.432
13948SOL    HW241871   1.862   4.941  10.294
13949SOL     OW41872   2.550   5.386  11.026
13949SOL    HW141873   2.494   5.467  11.035
13949SOL    HW241874   2.602   5.390  10.940
13950SOL     OW41875   3.588   3.859   9.833
13950SOL    HW141876   3.661   3.842   9.766
13950SOL    HW241877   3.557   3.772   9.871
13951SOL     OW41878   3.250   5.297   9.787
13951SOL    HW141879   3.317   5.309   9.713
13951SOL    HW241880   3.210   5.386   9.810
13952SOL     OW41881   1.992   5.518  11.161
13952SOL    HW141882   1.951   5.444  11.214
13952SOL    HW241883   2.056   5.569  11.219
13953SOL     OW41884   3.142   4.651   9.982
13953SOL    HW141885   3.202   4.570   9.984
13953SOL    HW241886   3.182   4.720   9.922
13954SOL     OW41887   2.692   4.997  10.732
13954SOL    HW141888   2.687   5.030  10.827
13954SOL    HW241889   2.606   5.016  10.686
13955SOL     OW41890   2.534   5.340   9.464
13955SOL    HW141891   2.543   5.350   9.365
13955SOL    HW241892   2.494   5.251   9.485
13956SOL     OW41893   3.512   5.444  10.704
13956SOL    HW141894   3.565   5.454  10.620
13956SOL    HW241895   3.485   5.534  10.738
13957SOL     OW41896   3.703   3.899  10.273
13957SOL    HW141897   3.742   3.814  10.237
13957SOL    HW241898   3.605   3.901  10.254
13958SOL     OW41899   2.125   4.050  10.030
13958SOL    HW141900   2.046   4.101   9.996
13958SOL    HW241901   2.116   4.035  10.128
13959SOL     OW41902   3.056   5.336   9.341
13959SOL    HW141903   3.062   5.243   9.378
13959SOL    HW241904   2.997   5.336   9.261
13960SOL     OW41905   2.684   4.726  10.682
13960SOL    HW141906   2.724   4.725  10.590
13960SOL    HW241907   2.694   4.818  10.722
13961SOL     OW41908   2.778   4.634   9.601
13961SOL    HW141909   2.841   4.672   9.533
13961SOL    HW241910   2.818   4.551   9.640
13962SOL     OW41911   3.366   5.331   9.354
13962SOL    HW141912   3.274   5.368   9.361
13962SOL    HW241913   3.404   5.351   9.264
13963SOL     OW41914   2.234   5.012  10.800
13963SOL    HW141915   2.221   5.105  10.766
13963SOL    HW241916   2.150   4.960  10.787
13964SOL     OW41917   3.476   5.016  10.599
13964SOL    HW141918   3.536   5.019  10.679
13964SOL    HW241919   3.401   5.080  10.612
13965SOL     OW41920   2.901   4.822  10.006
13965SOL    HW141921   2.831   4.775  10.060
13965SOL    HW241922   2.960   4.754   9.963
13966SOL     OW41923   2.876   3.960  10.281
13966SOL    HW141924   2.868   3.924  10.188
13966SOL    HW241925   2.874   3.884  10.346
13967SOL     OW41926   2.452   5.211   9.801
13967SOL    HW141927   2.494   5.153   9.731
13967SOL    HW241928   2.408   5.290   9.757
13968SOL     OW41929   3.571   4.109  10.691
13968SOL    HW141930   3.644   4.178  10.695
13968SOL    HW241931   3.599   4.034  10.632
13969SOL     OW41932   2.117   5.072   9.600
13969SOL    HW141933   2.021   5.073   9.573
13969SOL    HW241934   2.129   5.125   9.684
13970SOL     OW41935   1.967   4.737  11.036
13970SOL    HW141936   1.890   4.704  11.090
13970SOL    HW241937   2.052   4.707  11.078
13971SOL     OW41938   2.534   3.927  10.799
13971SOL    HW141939   2.624   3.911  10.759
13971SOL    HW241940   2.542   3.932  10.898
13972SOL     OW41941   1.937   4.069   9.343
13972SOL    HW141942   1.845   4.041   9.314
13972SOL    HW241943   1.968   4.146   9.287
13973SOL     OW41944   3.302   4.580  10.708
13973SOL    HW141945   3.245   4.632  10.645
13973SOL    HW241946   3.398   4.592  10.684
13974SOL     OW41947   1.934   3.890   9.628
13974SOL    HW141948   1.917   3.973   9.574
13974SOL    HW241949   2.024   3.853   9.606
13975SOL     OW41950   3.045   5.059   9.429
13975SOL    HW141951   2.946   5.048   9.431
13975SOL    HW241952   3.079   5.074   9.522
13976SOL     OW41953   2.475   4.566  10.741
13976SOL    HW141954   2.531   4.647  10.724
13976SOL    HW241955   2.534   4.486  10.744
13977SOL     OW41956   3.355   5.491  10.269
13977SOL    HW141957   3.388   5.555  10.200
13977SOL    HW241958   3.421   5.485  10.344
13978SOL     OW41959   2.578   4.289  11.018
13978SOL    HW141960   2.597   4.354  11.092
13978SOL    HW241961   2.638   4.209  11.027
13979SOL     OW41962   3.312   4.944  10.943
13979SOL    HW141963   3.303   4.934  11.042
13979SOL    HW241964   3.408   4.937  10.917
13980SOL     OW41965   2.252   5.465  10.870
13980SOL    HW141966   2.161   5.506  10.868
13980SOL    HW241967   2.245   5.371  10.902
13981SOL     OW41968   3.536   4.607  10.564
13981SOL    HW141969   3.509   4.518  10.527
13981SOL    HW241970   3.537   4.675  10.491
13982SOL     OW41971   3.087   4.049   9.759
13982SOL    HW141972   3.152   3.975   9.748
13982SOL    HW241973   3.107   4.099   9.843
13983SOL     OW41974   2.456   4.469   9.962
13983SOL    HW141975   2.506   4.554   9.943
13983SOL    HW241976   2.368   4.471   9.914
13984SOL     OW41977   3.639   4.066  10.952
13984SOL    HW141978   3.622   4.097  10.858
13984SOL    HW241979   3.555   4.029  10.990
13985SOL     OW41980   3.592   4.658  10.827
13985SOL    HW141981   3.630   4.749  10.842
13985SOL    HW241982   3.584   4.641  10.728
13986SOL     OW41983   2.721   5.098   9.326
13986SOL    HW141984   2.675   5.113   9.414
13986SOL    HW241985   2.765   5.183   9.296
13987SOL     OW41986   2.523   5.514  10.263
13987SOL    HW141987   2.477   5.602  10.250
13987SOL    HW241988   2.622   5.526  10.256
13988SOL     OW41989   2.721   4.680  10.171
13988SOL    HW141990   2.775   4.611  10.219
13988SOL    HW241991   2.689   4.749  10.237
13989SOL     OW41992   2.945   4.708   9.397
13989SOL    HW141993   2.922   4.761   9.315
13989SOL    HW241994   3.026   4.652   9.378
13990SOL     OW41995   3.723   5.293  10.161
13990SOL    HW141996   3.652   5.281  10.091
13990SOL    HW241997   3.724   5.214  10.221
13991SOL     OW41998   2.083   5.038  11.154
13991SOL    HW141999   2.018   4.965  11.133
13991SOL    HW242000   2.087   5.052  11.252
13992SOL     OW42001   1.941   4.964   9.963
13992SOL    HW142002   1.940   4.917  10.051
13992SOL    HW242003   2.023   4.936   9.912
13993SOL     OW42004   2.534   5.115  10.934
13993SOL    HW142005   2.456   5.065  10.972
13993SOL    HW242006   2.531   5.210  10.965
13994SOL     OW42007   3.686   3.916  10.537
13994SOL    HW142008   3.682   3.826  10.581
13994SOL    HW242009   3.689   3.905  10.438
13995SOL     OW42010   2.290   4.148   9.830
13995SOL    HW142011   2.320   4.076   9.768
13995SOL    HW242012   2.251   4.108   9.913
13996SOL     OW42013   3.567   5.211  10.414
13996SOL    HW142014   3.474   5.186  10.387
13996SOL    HW242015   3.593   5.161  10.496
13997SOL     OW42016   2.179   4.271  10.590
13997SOL    HW142017   2.217   4.212  10.662
13997SOL    HW242018   2.219   4.245  10.502
13998SOL     OW42019   2.674   5.310   9.997
13998SOL    HW142020   2.706   5.320   9.903
13998SOL    HW242021   2.595   5.248   9.999
13999SOL     OW42022   3.286   3.938  10.422
13999SOL    HW142023   3.338   3.873  10.477
13999SOL    HW242024   3.237   4.001  10.483
14000SOL     OW42025   2.863   3.758  10.464
14000SOL    HW142026   2.800   3.686  10.433
14000SOL    HW242027   2.956   3.722  10.464
14001SOL     OW42028   2.632   5.054   9.611
14001SOL    HW142029   2.586   4.967   9.628
14001SOL    HW242030   2.723   5.051   9.652
14002SOL     OW42031   2.480   5.291  10.594
14002SOL    HW142032   2.475   5.373  10.651
14002SOL    HW242033   2.569   5.288  10.549
14003SOL     OW42034   3.214   3.776   9.478
14003SOL    HW142035   3.249   3.735   9.394
14003SOL    HW242036   3.124   3.738   9.498
14004SOL     OW42037   3.162   4.177  10.001
14004SOL    HW142038   3.103   4.257  10.005
14004SOL    HW242039   3.177   4.142  10.094
14005SOL     OW42040   3.455   3.945  10.192
14005SOL    HW142041   3.371   3.944  10.246
14005SOL    HW242042   3.457   4.028  10.136
14006SOL     OW42043   1.901   4.801   9.610
14006SOL    HW142044   2.000   4.790   9.601
14006SOL    HW242045   1.861   4.715   9.642
14007SOL     OW42046   2.737   5.370   9.647
14007SOL    HW142047   2.660   5.335   9.593
14007SOL    HW242048   2.705   5.441   9.709
14008SOL     OW42049   2.092   4.352  11.285
14008SOL    HW142050   1.999   4.350  11.322
14008SOL    HW242051   2.093   4.313  11.193
14009SOL     OW42052   2.087   3.999  12.168
14009SOL    HW142053   2.122   3.982  12.260
14009SOL    HW242054   1.999   3.954  12.156
14010SOL     OW42055   1.881   4.092  11.819
14010SOL    HW142056   1.799   4.135  11.858
14010SOL    HW242057   1.853   4.019  11.756
14011SOL     OW42058   2.431   4.999  12.337
14011SOL    HW142059   2.338   4.992  12.300
14011SOL    HW242060   2.442   5.088  12.381
14012SOL     OW42061   3.417   5.235  11.875
14012SOL    HW142062   3.360   5.219  11.956
14012SOL    HW242063   3.358   5.245  11.795
14013SOL     OW42064   2.997   4.427  11.889
14013SOL    HW142065   3.054   4.505  11.864
14013SOL    HW242066   2.937   4.453  11.965
14014SOL     OW42067   3.617   4.331  11.403
14014SOL    HW142068   3.605   4.318  11.304
14014SOL    HW242069   3.587   4.250  11.452
14015SOL     OW42070   2.630   4.868  12.195
14015SOL    HW142071   2.552   4.885  12.255
14015SOL    HW242072   2.664   4.955  12.159
14016SOL     OW42073   2.547   4.736  11.837
14016SOL    HW142074   2.616   4.720  11.907
14016SOL    HW242075   2.474   4.793  11.875
14017SOL     OW42076   2.197   5.159  12.233
14017SOL    HW142077   2.119   5.128  12.180
14017SOL    HW242078   2.255   5.217  12.176
14018SOL     OW42079   3.322   5.229  12.511
14018SOL    HW142080   3.346   5.323  12.537
14018SOL    HW242081   3.306   5.175  12.593
14019SOL     OW42082   2.300   4.116  12.671
14019SOL    HW142083   2.382   4.060  12.680
14019SOL    HW242084   2.219   4.058  12.675
14020SOL     OW42085   3.465   4.171  11.909
14020SOL    HW142086   3.391   4.217  11.859
14020SOL    HW242087   3.516   4.239  11.962
14021SOL     OW42088   2.093   5.437  11.655
14021SOL    HW142089   2.127   5.514  11.709
14021SOL    HW242090   2.137   5.437  11.565
14022SOL     OW42091   2.092   5.158  11.710
14022SOL    HW142092   2.066   5.254  11.710
14022SOL    HW242093   2.021   5.104  11.755
14023SOL     OW42094   2.102   4.815  12.058
14023SOL    HW142095   2.116   4.731  12.110
14023SOL    HW242096   2.047   4.879  12.113
14024SOL     OW42097   2.482   5.510  12.611
14024SOL    HW142098   2.390   5.493  12.646
14024SOL    HW242099   2.510   5.602  12.637
14025SOL     OW42100   2.468   4.688  11.295
14025SOL    HW142101   2.475   4.772  11.241
14025SOL    HW242102   2.514   4.701  11.383
14026SOL     OW42103   3.456   3.838  12.652
14026SOL    HW142104   3.438   3.905  12.580
14026SOL    HW242105   3.453   3.884  12.741
14027SOL     OW42106   1.984   4.367  11.735
14027SOL    HW142107   1.939   4.279  11.752
14027SOL    HW242108   1.983   4.421  11.819
14028SOL     OW42109   3.704   5.491  11.531
14028SOL    HW142110   3.758   5.462  11.611
14028SOL    HW242111   3.734   5.581  11.502
14029SOL     OW42112   1.889   5.320  11.289
14029SOL    HW142113   1.870   5.224  11.310
14029SOL    HW242114   1.856   5.378  11.364
14030SOL     OW42115   3.551   4.646  11.784
14030SOL    HW142116   3.646   4.617  11.792
14030SOL    HW242117   3.543   4.711  11.709
14031SOL     OW42118   3.503   4.832  11.604
14031SOL    HW142119   3.589   4.834  11.552
14031SOL    HW242120   3.517   4.879  11.692
14032SOL     OW42121   2.475   5.089  11.898
14032SOL    HW142122   2.426   5.002  11.907
14032SOL    HW242123   2.452   5.132  11.811
14033SOL     OW42124   2.671   3.728  11.674
14033SOL    HW142125   2.711   3.819  11.665
14033SOL    HW242126   2.571   3.736  11.680
14034SOL     OW42127   2.059   4.700  12.436
14034SOL    HW142128   2.148   4.655  12.422
14034SOL    HW242129   1.986   4.635  12.417
14035SOL     OW42130   3.387   4.723  11.362
14035SOL    HW142131   3.324   4.647  11.375
14035SOL    HW242132   3.435   4.741  11.448
14036SOL     OW42133   2.179   3.975  12.973
14036SOL    HW142134   2.250   4.046  12.979
14036SOL    HW242135   2.091   4.014  13.001
14037SOL     OW42136   3.328   5.141  12.125
14037SOL    HW142137   3.269   5.147  12.205
14037SOL    HW242138   3.313   5.053  12.079
14038SOL     OW42139   3.529   5.438  11.744
14038SOL    HW142140   3.488   5.415  11.656
14038SOL    HW242141   3.511   5.364  11.809
14039SOL     OW42142   2.460   4.453  11.442
14039SOL    HW142143   2.484   4.522  11.374
14039SOL    HW242144   2.382   4.486  11.496
14040SOL     OW42145   3.143   4.069  12.116
14040SOL    HW142146   3.057   4.019  12.103
14040SOL    HW242147   3.205   4.015  12.172
14041SOL     OW42148   3.438   5.386  11.479
14041SOL    HW142149   3.527   5.432  11.482
14041SOL    HW242150   3.417   5.362  11.384
14042SOL     OW42151   2.669   4.329  12.637
14042SOL    HW142152   2.622   4.326  12.726
14042SOL    HW242153   2.618   4.274  12.571
14043SOL     OW42154   2.853   4.134  12.414
14043SOL    HW142155   2.776   4.168  12.468
14043SOL    HW242156   2.819   4.083  12.335
14044SOL     OW42157   2.903   4.425  11.601
14044SOL    HW142158   2.929   4.421  11.697
14044SOL    HW242159   2.818   4.374  11.587
14045SOL     OW42160   1.938   4.535  11.961
14045SOL    HW142161   2.037   4.523  11.970
14045SOL    HW242162   1.914   4.630  11.982
14046SOL     OW42163   1.992   5.545  12.743
14046SOL    HW142164   1.982   5.530  12.842
14046SOL    HW242165   1.906   5.581  12.707
14047SOL     OW42166   2.727   4.072  11.367
14047SOL    HW142167   2.786   4.135  11.318
14047SOL    HW242168   2.746   3.978  11.338
14048SOL     OW42169   3.224   4.868  11.717
14048SOL    HW142170   3.307   4.839  11.669
14048SOL    HW242171   3.175   4.935  11.661
14049SOL     OW42172   2.412   3.920  12.057
14049SOL    HW142173   2.407   3.915  12.157
14049SOL    HW242174   2.414   4.016  12.028
14050SOL     OW42175   2.870   5.180  11.649
14050SOL    HW142176   2.824   5.252  11.597
14050SOL    HW242177   2.866   5.200  11.747
14051SOL     OW42178   2.213   5.525  12.025
14051SOL    HW142179   2.263   5.439  12.031
14051SOL    HW242180   2.278   5.602  12.022
14052SOL     OW42181   3.657   4.790  12.045
14052SOL    HW142182   3.595   4.775  11.969
14052SOL    HW242183   3.605   4.801  12.130
14053SOL     OW42184   2.183   4.667  11.414
14053SOL    HW142185   2.265   4.706  11.372
14053SOL    HW242186   2.156   4.585  11.365
14054SOL     OW42187   3.320   4.459  11.900
14054SOL    HW142188   3.315   4.394  11.975
14054SOL    HW242189   3.400   4.518  11.913
14055SOL     OW42190   2.973   5.500  11.409
14055SOL    HW142191   2.913   5.438  11.459
14055SOL    HW242192   3.004   5.456  11.324
14056SOL     OW42193   2.064   4.009  12.670
14056SOL    HW142194   1.984   4.069  12.657
14056SOL    HW242195   2.054   3.960  12.756
14057SOL     OW42196   3.494   5.101  11.253
14057SOL    HW142197   3.462   5.195  11.243
14057SOL    HW242198   3.418   5.038  11.241
14058SOL     OW42199   2.326   5.467  11.495
14058SOL    HW142200   2.359   5.506  11.581
14058SOL    HW242201   2.402   5.460  11.430
14059SOL     OW42202   3.262   3.831  11.598
14059SOL    HW142203   3.238   3.794  11.508
14059SOL    HW242204   3.361   3.847  11.602
14060SOL     OW42205   2.111   5.509  12.413
14060SOL    HW142206   2.168   5.444  12.463
14060SOL    HW242207   2.095   5.476  12.320
14061SOL     OW42208   2.802   5.422  12.076
14061SOL    HW142209   2.882   5.365  12.097
14061SOL    HW242210   2.753   5.382  11.999
14062SOL     OW42211   2.244   4.424  11.652
14062SOL    HW142212   2.289   4.334  11.649
14062SOL    HW242213   2.150   4.413  11.685
14063SOL     OW42214   2.476   3.846  11.289
14063SOL    HW142215   2.574   3.824  11.296
14063SOL    HW242216   2.445   3.829  11.196
14064SOL     OW42217   2.750   5.238  12.367
14064SOL    HW142218   2.727   5.213  12.273
14064SOL    HW242219   2.811   5.169  12.406
14065SOL     OW42220   2.665   5.126  12.096
14065SOL    HW142221   2.755   5.140  12.054
14065SOL    HW242222   2.594   5.128  12.025
14066SOL     OW42223   2.784   4.227  12.071
14066SOL    HW142224   2.759   4.218  11.975
14066SOL    HW242225   2.832   4.145  12.102
14067SOL     OW42226   2.401   3.788  11.684
14067SOL    HW142227   2.320   3.789  11.742
14067SOL    HW242228   2.404   3.871  11.629
14068SOL     OW42229   3.296   4.912  11.213
14068SOL    HW142230   3.328   4.836  11.270
14068SOL    HW242231   3.204   4.939  11.243
14069SOL     OW42232   2.159   3.759  11.343
14069SOL    HW142233   2.208   3.843  11.322
14069SOL    HW242234   2.221   3.694  11.388
14070SOL     OW42235   2.797   3.960  11.652
14070SOL    HW142236   2.749   4.001  11.574
14070SOL    HW242237   2.896   3.958  11.633
14071SOL     OW42238   3.089   5.294  11.965
14071SOL    HW142239   3.110   5.368  11.900
14071SOL    HW242240   3.157   5.294  12.038
14072SOL     OW42241   2.321   4.876  11.913
14072SOL    HW142242   2.250   4.849  11.978
14072SOL    HW242243   2.295   4.848  11.820
14073SOL     OW42244   3.133   5.521  11.763
14073SOL    HW142245   3.177   5.585  11.699
14073SOL    HW242246   3.083   5.573  11.833
14074SOL     OW42247   2.894   4.273  11.188
14074SOL    HW142248   2.853   4.355  11.149
14074SOL    HW242249   2.958   4.299  11.261
14075SOL     OW42250   1.940   4.280  12.558
14075SOL    HW142251   2.032   4.279  12.517
14075SOL    HW242252   1.934   4.354  12.625
14076SOL     OW42253   2.423   3.946  12.319
14076SOL    HW142254   2.461   3.862  12.356
14076SOL    HW242255   2.335   3.965  12.363
14077SOL     OW42256   2.728   4.178  11.814
14077SOL    HW142257   2.696   4.250  11.752
14077SOL    HW242258   2.752   4.097  11.761
14078SOL     OW42259   2.879   3.763  11.925
14078SOL    HW142260   2.807   3.768  11.856
14078SOL    HW242261   2.855   3.694  11.994
14079SOL     OW42262   3.291   4.897  12.039
14079SOL    HW142263   3.236   4.813  12.032
14079SOL    HW242264   3.317   4.926  11.947
14080SOL     OW42265   3.328   4.314  12.164
14080SOL    HW142266   3.298   4.219  12.171
14080SOL    HW242267   3.401   4.330  12.230
14081SOL     OW42268   3.719   4.557  11.549
14081SOL    HW142269   3.761   4.493  11.613
14081SOL    HW242270   3.681   4.506  11.471
14082SOL     OW42271   2.350   5.109  11.346
14082SOL    HW142272   2.263   5.094  11.393
14082SOL    HW242273   2.333   5.135  11.251
14083SOL     OW42274   3.526   5.004  11.829
14083SOL    HW142275   3.625   5.012  11.843
14083SOL    HW242276   3.481   5.088  11.860
14084SOL     OW42277   3.252   4.299  11.250
14084SOL    HW142278   3.198   4.278  11.331
14084SOL    HW242279   3.343   4.258  11.259
14085SOL     OW42280   2.389   3.980  11.500
14085SOL    HW142281   2.416   3.921  11.425
14085SOL    HW242282   2.389   4.075  11.469
14086SOL     OW42283   2.926   5.071  12.512
14086SOL    HW142284   2.846   5.048  12.567
14086SOL    HW242285   3.009   5.045  12.561
14087SOL     OW42286   2.973   4.919  12.272
14087SOL    HW142287   2.933   4.963  12.353
14087SOL    HW242288   2.932   4.956  12.189
14088SOL     OW42289   3.500   4.823  12.251
14088SOL    HW142290   3.505   4.904  12.310
14088SOL    HW242291   3.414   4.825  12.200
14089SOL     OW42292   2.777   3.813  12.574
14089SOL    HW142293   2.802   3.793  12.479
14089SOL    HW242294   2.849   3.869  12.616
14090SOL     OW42295   2.567   4.774  11.540
14090SOL    HW142296   2.553   4.781  11.639
14090SOL    HW242297   2.651   4.723  11.522
14091SOL     OW42298   2.272   4.537  12.423
14091SOL    HW142299   2.358   4.549  12.473
14091SOL    HW242300   2.230   4.450  12.450
14092SOL     OW42301   3.136   4.110  12.434
14092SOL    HW142302   3.157   4.184  12.498
14092SOL    HW242303   3.047   4.127  12.391
14093SOL     OW42304   1.926   5.288  12.503
14093SOL    HW142305   1.880   5.370  12.469
14093SOL    HW242306   2.024   5.307  12.512
14094SOL     OW42307   2.229   4.824  11.673
14094SOL    HW142308   2.222   4.907  11.617
14094SOL    HW242309   2.233   4.744  11.613
14095SOL     OW42310   2.428   4.261  12.037
14095SOL    HW142311   2.440   4.327  11.963
14095SOL    HW242312   2.474   4.295  12.120
14096SOL     OW42313   3.114   5.072  11.560
14096SOL    HW142314   3.164   5.149  11.600
14096SOL    HW242315   3.019   5.074  11.592
14097SOL     OW42316   3.134   5.169  12.314
14097SOL    HW142317   3.181   5.182  12.401
14097SOL    HW242318   3.068   5.095  12.323
14098SOL     OW42319   3.444   4.363  11.644
14098SOL    HW142320   3.413   4.424  11.717
14098SOL    HW242321   3.494   4.415  11.575
14099SOL     OW42322   2.216   5.234  12.501
14099SOL    HW142323   2.195   5.190  12.414
14099SOL    HW242324   2.313   5.260  12.504
14100SOL     OW42325   2.264   4.475  12.770
14100SOL    HW142326   2.332   4.530  12.723
14100SOL    HW242327   2.304   4.387  12.797
14101SOL     OW42328   3.449   4.503  12.842
14101SOL    HW142329   3.357   4.541  12.837
14101SOL    HW242330   3.509   4.550  12.777
14102SOL     OW42331   2.435   4.594  12.201
14102SOL    HW142332   2.479   4.683  12.192
14102SOL    HW242333   2.372   4.594  12.278
14103SOL     OW42334   3.222   4.586  12.217
14103SOL    HW142335   3.147   4.586  12.151
14103SOL    HW242336   3.259   4.494  12.226
14104SOL     OW42337   3.071   4.249  11.447
14104SOL    HW142338   3.084   4.165  11.501
14104SOL    HW242339   3.042   4.323  11.507
14105SOL     OW42340   2.169   3.937  12.403
14105SOL    HW142341   2.146   3.974  12.493
14105SOL    HW242342   2.139   3.842  12.397
14106SOL     OW42343   1.899   5.034  12.454
14106SOL    HW142344   1.952   4.985  12.522
14106SOL    HW242345   1.921   5.132  12.459
14107SOL     OW42346   2.594   4.358  12.236
14107SOL    HW142347   2.653   4.332  12.160
14107SOL    HW242348   2.566   4.454  12.225
14108SOL     OW42349   2.169   3.787  11.790
14108SOL    HW142350   2.158   3.881  11.823
14108SOL    HW242351   2.164   3.724  11.867
14109SOL     OW42352   3.484   4.091  11.546
14109SOL    HW142353   3.486   4.015  11.610
14109SOL    HW242354   3.436   4.168  11.586
14110SOL     OW42355   2.885   4.490  12.138
14110SOL    HW142356   2.900   4.511  12.234
14110SOL    HW242357   2.855   4.395  12.129
14111SOL     OW42358   2.842   5.297  12.872
14111SOL    HW142359   2.822   5.341  12.784
14111SOL    HW242360   2.881   5.206  12.856
14112SOL     OW42361   3.402   3.998  11.297
14112SOL    HW142362   3.341   3.923  11.320
14112SOL    HW242363   3.424   4.050  11.380
14113SOL     OW42364   3.165   4.562  11.214
14113SOL    HW142365   3.199   4.469  11.229
14113SOL    HW242366   3.183   4.589  11.119
14114SOL     OW42367   2.930   5.057  12.021
14114SOL    HW142368   2.937   4.973  11.966
14114SOL    HW242369   2.992   5.126  11.985
14115SOL     OW42370   2.181   4.534  12.121
14115SOL    HW142371   2.274   4.570  12.126
14115SOL    HW242372   2.175   4.449  12.173
14116SOL     OW42373   2.201   4.233  12.178
14116SOL    HW142374   2.149   4.150  12.161
14116SOL    HW242375   2.278   4.238  12.114
14117SOL     OW42376   3.000   4.104  12.850
14117SOL    HW142377   2.955   4.167  12.914
14117SOL    HW242378   3.093   4.135  12.833
14118SOL     OW42379   3.022   3.931  12.649
14118SOL    HW142380   3.022   3.995  12.726
14118SOL    HW242381   3.050   3.979  12.566
14119SOL     OW42382   1.870   5.050  11.372
14119SOL    HW142383   1.777   5.071  11.341
14119SOL    HW242384   1.880   4.951  11.385
14120SOL     OW42385   1.950   5.525  12.099
14120SOL    HW142386   1.908   5.439  12.072
14120SOL    HW242387   2.044   5.528  12.065
14121SOL     OW42388   2.366   5.292  12.082
14121SOL    HW142389   2.432   5.366  12.091
14121SOL    HW242390   2.410   5.213  12.040
14122SOL     OW42391   2.864   4.520  12.410
14122SOL    HW142392   2.905   4.488  12.496
14122SOL    HW242393   2.768   4.493  12.407
14123SOL     OW42394   1.902   4.268  12.286
14123SOL    HW142395   1.987   4.235  12.245
14123SOL    HW242396   1.915   4.283  12.384
14124SOL     OW42397   2.677   4.296  11.497
14124SOL    HW142398   2.684   4.207  11.451
14124SOL    HW242399   2.583   4.330  11.489
14125SOL     OW42400   3.519   4.328  12.378
14125SOL    HW142401   3.481   4.259  12.440
14125SOL    HW242402   3.601   4.292  12.334
14126SOL     OW42403   2.533   4.188  12.441
14126SOL    HW142404   2.499   4.099  12.411
14126SOL    HW242405   2.559   4.242  12.361
14127SOL     OW42406   2.792   5.402  12.637
14127SOL    HW142407   2.768   5.384  12.542
14127SOL    HW242408   2.822   5.496  12.647
14128SOL     OW42409   2.335   4.224  11.363
14128SOL    HW142410   2.396   4.304  11.367
14128SOL    HW242411   2.240   4.255  11.370
14129SOL     OW42412   2.021   4.861  12.638
14129SOL    HW142413   2.043   4.800  12.714
14129SOL    HW242414   2.031   4.812  12.552
14130SOL     OW42415   3.209   4.783  12.406
14130SOL    HW142416   3.233   4.720  12.332
14130SOL    HW242417   3.119   4.823  12.388
14131SOL     OW42418   3.164   4.579  11.481
14131SOL    HW142419   3.078   4.548  11.523
14131SOL    HW242420   3.160   4.565  11.382
14132SOL     OW42421   3.621   5.471  12.326
14132SOL    HW142422   3.682   5.501  12.253
14132SOL    HW242423   3.583   5.382  12.304
14133SOL     OW42424   3.114   5.455  12.300
14133SOL    HW142425   3.198   5.460  12.246
14133SOL    HW242426   3.091   5.359  12.318
14134SOL     OW42427   1.945   4.982  12.194
14134SOL    HW142428   1.940   4.981  12.294
14134SOL    HW242429   1.862   4.941  12.156
14135SOL     OW42430   3.588   3.859  11.695
14135SOL    HW142431   3.661   3.842  11.628
14135SOL    HW242432   3.557   3.772  11.733
14136SOL     OW42433   3.250   5.297  11.649
14136SOL    HW142434   3.317   5.309  11.575
14136SOL    HW242435   3.210   5.386  11.672
14137SOL     OW42436   3.142   4.651  11.844
14137SOL    HW142437   3.202   4.570  11.846
14137SOL    HW242438   3.182   4.720  11.784
14138SOL     OW42439   2.534   5.340  11.326
14138SOL    HW142440   2.543   5.350  11.227
14138SOL    HW242441   2.494   5.251  11.347
14139SOL     OW42442   3.512   5.444  12.566
14139SOL    HW142443   3.565   5.454  12.482
14139SOL    HW242444   3.485   5.534  12.600
14140SOL     OW42445   3.703   3.899  12.135
14140SOL    HW142446   3.742   3.814  12.099
14140SOL    HW242447   3.605   3.901  12.116
14141SOL     OW42448   2.125   4.050  11.892
14141SOL    HW142449   2.046   4.101  11.858
14141SOL    HW242450   2.116   4.035  11.990
14142SOL     OW42451   3.056   5.336  11.203
14142SOL    HW142452   3.062   5.243  11.240
14142SOL    HW242453   2.997   5.336  11.123
14143SOL     OW42454   2.684   4.726  12.544
14143SOL    HW142455   2.724   4.725  12.452
14143SOL    HW242456   2.694   4.818  12.584
14144SOL     OW42457   2.778   4.634  11.463
14144SOL    HW142458   2.841   4.672  11.395
14144SOL    HW242459   2.818   4.551  11.502
14145SOL     OW42460   3.366   5.331  11.216
14145SOL    HW142461   3.274   5.368  11.223
14145SOL    HW242462   3.404   5.351  11.126
14146SOL     OW42463   2.234   5.012  12.662
14146SOL    HW142464   2.221   5.105  12.628
14146SOL    HW242465   2.150   4.960  12.649
14147SOL     OW42466   3.476   5.016  12.461
14147SOL    HW142467   3.536   5.019  12.541
14147SOL    HW242468   3.401   5.080  12.474
14148SOL     OW42469   2.901   4.822  11.868
14148SOL    HW142470   2.831   4.775  11.922
14148SOL    HW242471   2.960   4.754  11.825
14149SOL     OW42472   2.876   3.960  12.143
14149SOL    HW142473   2.868   3.924  12.050
14149SOL    HW242474   2.874   3.884  12.208
14150SOL     OW42475   2.452   5.211  11.663
14150SOL    HW142476   2.494   5.153  11.593
14150SOL    HW242477   2.408   5.290  11.619
14151SOL     OW42478   3.571   4.109  12.553
14151SOL    HW142479   3.644   4.178  12.557
14151SOL    HW242480   3.599   4.034  12.494
14152SOL     OW42481   2.117   5.072  11.462
14152SOL    HW142482   2.021   5.073  11.435
14152SOL    HW242483   2.129   5.125  11.546
14153SOL     OW42484   1.937   4.069  11.205
14153SOL    HW142485   1.845   4.041  11.176
14153SOL    HW242486   1.968   4.146  11.149
14154SOL     OW42487   3.302   4.580  12.570
14154SOL    HW142488   3.245   4.632  12.507
14154SOL    HW242489   3.398   4.592  12.546
14155SOL     OW42490   1.934   3.890  11.490
14155SOL    HW142491   1.917   3.973  11.436
14155SOL    HW242492   2.024   3.853  11.468
14156SOL     OW42493   3.045   5.059  11.291
14156SOL    HW142494   2.946   5.048  11.293
14156SOL    HW242495   3.079   5.074  11.384
14157SOL     OW42496   2.475   4.566  12.603
14157SOL    HW142497   2.531   4.647  12.586
14157SOL    HW242498   2.534   4.486  12.606
14158SOL     OW42499   3.355   5.491  12.131
14158SOL    HW142500   3.388   5.555  12.062
14158SOL    HW242501   3.421   5.485  12.206
14159SOL     OW42502   2.252   5.465  12.732
14159SOL    HW142503   2.161   5.506  12.730
14159SOL    HW242504   2.245   5.371  12.764
14160SOL     OW42505   3.087   4.049  11.621
14160SOL    HW142506   3.152   3.975  11.610
14160SOL    HW242507   3.107   4.099  11.705
14161SOL     OW42508   2.456   4.469  11.824
14161SOL    HW142509   2.506   4.554  11.805
14161SOL    HW242510   2.368   4.471  11.776
14162SOL     OW42511   3.639   4.066  12.814
14162SOL    HW142512   3.622   4.097  12.720
14162SOL    HW242513   3.555   4.029  12.852
14163SOL     OW42514   3.592   4.658  12.689
14163SOL    HW142515   3.630   4.749  12.704
14163SOL    HW242516   3.584   4.641  12.590
14164SOL     OW42517   2.721   5.098  11.188
14164SOL    HW142518   2.675   5.113  11.276
14164SOL    HW242519   2.765   5.183  11.158
14165SOL     OW42520   2.523   5.514  12.125
14165SOL    HW142521   2.477   5.602  12.112
14165SOL    HW242522   2.622   5.526  12.118
14166SOL     OW42523   2.721   4.680  12.033
14166SOL    HW142524   2.775   4.611  12.081
14166SOL    HW242525   2.689   4.749  12.099
14167SOL     OW42526   2.945   4.708  11.259
14167SOL    HW142527   2.922   4.761  11.177
14167SOL    HW242528   3.026   4.652  11.240
14168SOL     OW42529   3.723   5.293  12.023
14168SOL    HW142530   3.652   5.281  11.953
14168SOL    HW242531   3.724   5.214  12.083
14169SOL     OW42532   1.941   4.964  11.825
14169SOL    HW142533   1.940   4.917  11.913
14169SOL    HW242534   2.023   4.936  11.774
14170SOL     OW42535   3.686   3.916  12.399
14170SOL    HW142536   3.682   3.826  12.443
14170SOL    HW242537   3.689   3.905  12.300
14171SOL     OW42538   2.290   4.148  11.692
14171SOL    HW142539   2.320   4.076  11.630
14171SOL    HW242540   2.251   4.108  11.775
14172SOL     OW42541   3.567   5.211  12.276
14172SOL    HW142542   3.474   5.186  12.249
14172SOL    HW242543   3.593   5.161  12.358
14173SOL     OW42544   2.179   4.271  12.452
14173SOL    HW142545   2.217   4.212  12.524
14173SOL    HW242546   2.219   4.245  12.364
14174SOL     OW42547   2.674   5.310  11.859
14174SOL    HW142548   2.706   5.320  11.765
14174SOL    HW242549   2.595   5.248  11.861
14175SOL     OW42550   3.286   3.938  12.284
14175SOL    HW142551   3.338   3.873  12.339
14175SOL    HW242552   3.237   4.001  12.345
14176SOL     OW42553   2.863   3.758  12.326
14176SOL    HW142554   2.800   3.686  12.295
14176SOL    HW242555   2.956   3.722  12.326
14177SOL     OW42556   2.632   5.054  11.473
14177SOL    HW142557   2.586   4.967  11.490
14177SOL    HW242558   2.723   5.051  11.514
14178SOL     OW42559   2.480   5.291  12.456
14178SOL    HW142560   2.475   5.373  12.513
14178SOL    HW242561   2.569   5.288  12.411
14179SOL     OW42562   3.214   3.776  11.340
14179SOL    HW142563   3.249   3.735  11.256
14179SOL    HW242564   3.124   3.738  11.360
14180SOL     OW42565   3.162   4.177  11.863
14180SOL    HW142566   3.103   4.257  11.867
14180SOL    HW242567   3.177   4.142  11.956
14181SOL     OW42568   3.455   3.945  12.054
14181SOL    HW142569   3.371   3.944  12.108
14181SOL    HW242570   3.457   4.028  11.998
14182SOL     OW42571   1.901   4.801  11.472
14182SOL    HW142572   2.000   4.790  11.463
14182SOL    HW242573   1.861   4.715  11.504
14183SOL     OW42574   2.737   5.370  11.509
14183SOL    HW142575   2.660   5.335  11.455
14183SOL    HW242576   2.705   5.441  11.571
14184SOL     OW42577   2.092   6.214   0.113
14184SOL    HW142578   1.999   6.212   0.150
14184SOL    HW242579   2.093   6.175   0.021
14185SOL     OW42580   2.087   5.861   0.996
14185SOL    HW142581   2.122   5.844   1.088
14185SOL    HW242582   1.999   5.816   0.984
14186SOL     OW42583   1.881   5.954   0.647
14186SOL    HW142584   1.799   5.997   0.686
14186SOL    HW242585   1.853   5.881   0.584
14187SOL     OW42586   2.431   6.861   1.165
14187SOL    HW142587   2.338   6.854   1.128
14187SOL    HW242588   2.442   6.950   1.209
14188SOL     OW42589   3.417   7.097   0.703
14188SOL    HW142590   3.360   7.081   0.784
14188SOL    HW242591   3.358   7.107   0.623
14189SOL     OW42592   2.997   6.289   0.717
14189SOL    HW142593   3.054   6.367   0.692
14189SOL    HW242594   2.937   6.315   0.793
14190SOL     OW42595   3.617   6.193   0.231
14190SOL    HW142596   3.605   6.180   0.132
14190SOL    HW242597   3.587   6.112   0.280
14191SOL     OW42598   2.630   6.730   1.023
14191SOL    HW142599   2.552   6.747   1.083
14191SOL    HW242600   2.664   6.817   0.987
14192SOL     OW42601   2.712   6.384   1.823
14192SOL    HW142602   2.708   6.460   1.888
14192SOL    HW242603   2.734   6.420   1.732
14193SOL     OW42604   2.547   6.598   0.665
14193SOL    HW142605   2.616   6.582   0.735
14193SOL    HW242606   2.474   6.655   0.703
14194SOL     OW42607   2.548   6.747   1.803
14194SOL    HW142608   2.608   6.826   1.817
14194SOL    HW242609   2.462   6.778   1.762
14195SOL     OW42610   2.197   7.021   1.061
14195SOL    HW142611   2.119   6.990   1.008
14195SOL    HW242612   2.255   7.079   1.004
14196SOL     OW42613   3.322   7.091   1.339
14196SOL    HW142614   3.346   7.185   1.365
14196SOL    HW242615   3.306   7.037   1.421
14197SOL     OW42616   2.300   5.978   1.499
14197SOL    HW142617   2.382   5.922   1.508
14197SOL    HW242618   2.219   5.920   1.503
14198SOL     OW42619   3.465   6.033   0.737
14198SOL    HW142620   3.391   6.079   0.687
14198SOL    HW242621   3.516   6.101   0.790
14199SOL     OW42622   2.093   7.299   0.483
14199SOL    HW142623   2.127   7.376   0.537
14199SOL    HW242624   2.137   7.299   0.393
14200SOL     OW42625   2.989   6.927   1.690
14200SOL    HW142626   3.036   6.927   1.778
14200SOL    HW242627   2.941   6.840   1.679
14201SOL     OW42628   2.092   7.020   0.538
14201SOL    HW142629   2.066   7.116   0.538
14201SOL    HW242630   2.021   6.966   0.583
14202SOL     OW42631   2.102   6.677   0.886
14202SOL    HW142632   2.116   6.593   0.938
14202SOL    HW242633   2.047   6.741   0.941
14203SOL     OW42634   2.482   7.372   1.439
14203SOL    HW142635   2.390   7.355   1.474
14203SOL    HW242636   2.510   7.464   1.465
14204SOL     OW42637   2.468   6.550   0.123
14204SOL    HW142638   2.475   6.634   0.069
14204SOL    HW242639   2.514   6.563   0.211
14205SOL     OW42640   3.456   5.700   1.480
14205SOL    HW142641   3.438   5.767   1.408
14205SOL    HW242642   3.453   5.746   1.569
14206SOL     OW42643   1.984   6.229   0.563
14206SOL    HW142644   1.939   6.141   0.580
14206SOL    HW242645   1.983   6.283   0.647
14207SOL     OW42646   3.704   7.353   0.359
14207SOL    HW142647   3.758   7.324   0.439
14207SOL    HW242648   3.734   7.443   0.330
14208SOL     OW42649   1.889   7.182   0.117
14208SOL    HW142650   1.870   7.086   0.138
14208SOL    HW242651   1.856   7.240   0.192
14209SOL     OW42652   3.551   6.508   0.612
14209SOL    HW142653   3.646   6.479   0.620
14209SOL    HW242654   3.543   6.573   0.537
14210SOL     OW42655   3.503   6.694   0.432
14210SOL    HW142656   3.589   6.696   0.380
14210SOL    HW242657   3.517   6.741   0.520
14211SOL     OW42658   1.975   6.323   1.597
14211SOL    HW142659   2.063   6.310   1.642
14211SOL    HW242660   1.962   6.420   1.575
14212SOL     OW42661   2.475   6.951   0.726
14212SOL    HW142662   2.426   6.864   0.735
14212SOL    HW242663   2.452   6.994   0.639
14213SOL     OW42664   3.155   6.814   1.423
14213SOL    HW142665   3.192   6.741   1.365
14213SOL    HW242666   3.207   6.819   1.508
14214SOL     OW42667   2.671   5.590   0.502
14214SOL    HW142668   2.711   5.681   0.493
14214SOL    HW242669   2.571   5.598   0.508
14215SOL     OW42670   2.059   6.562   1.264
14215SOL    HW142671   2.148   6.517   1.250
14215SOL    HW242672   1.986   6.497   1.245
14216SOL     OW42673   3.387   6.585   0.190
14216SOL    HW142674   3.324   6.509   0.203
14216SOL    HW242675   3.435   6.603   0.276
14217SOL     OW42676   3.049   7.378   1.616
14217SOL    HW142677   3.073   7.438   1.540
14217SOL    HW242678   3.056   7.283   1.586
14218SOL     OW42679   2.179   5.837   1.801
14218SOL    HW142680   2.250   5.908   1.807
14218SOL    HW242681   2.091   5.876   1.829
14219SOL     OW42682   3.328   7.003   0.953
14219SOL    HW142683   3.269   7.009   1.033
14219SOL    HW242684   3.313   6.915   0.907
14220SOL     OW42685   3.529   7.300   0.572
14220SOL    HW142686   3.488   7.277   0.484
14220SOL    HW242687   3.511   7.226   0.637
14221SOL     OW42688   2.460   6.315   0.270
14221SOL    HW142689   2.484   6.384   0.202
14221SOL    HW242690   2.382   6.348   0.324
14222SOL     OW42691   3.143   5.931   0.944
14222SOL    HW142692   3.057   5.881   0.931
14222SOL    HW242693   3.205   5.877   1.000
14223SOL     OW42694   3.438   7.248   0.307
14223SOL    HW142695   3.527   7.294   0.310
14223SOL    HW242696   3.417   7.224   0.212
14224SOL     OW42697   2.669   6.191   1.465
14224SOL    HW142698   2.622   6.188   1.554
14224SOL    HW242699   2.618   6.136   1.399
14225SOL     OW42700   3.256   6.055   1.674
14225SOL    HW142701   3.236   6.098   1.762
14225SOL    HW242702   3.334   5.993   1.683
14226SOL     OW42703   2.835   6.476   1.572
14226SOL    HW142704   2.881   6.392   1.543
14226SOL    HW242705   2.779   6.510   1.497
14227SOL     OW42706   2.853   5.996   1.242
14227SOL    HW142707   2.776   6.030   1.296
14227SOL    HW242708   2.819   5.945   1.163
14228SOL     OW42709   2.903   6.287   0.429
14228SOL    HW142710   2.929   6.283   0.525
14228SOL    HW242711   2.818   6.236   0.415
14229SOL     OW42712   1.938   6.397   0.789
14229SOL    HW142713   2.037   6.385   0.798
14229SOL    HW242714   1.914   6.492   0.810
14230SOL     OW42715   1.992   7.407   1.571
14230SOL    HW142716   1.982   7.392   1.670
14230SOL    HW242717   1.906   7.443   1.535
14231SOL     OW42718   2.727   5.934   0.195
14231SOL    HW142719   2.786   5.997   0.146
14231SOL    HW242720   2.746   5.840   0.166
14232SOL     OW42721   3.581   6.171   1.831
14232SOL    HW142722   3.555   6.260   1.795
14232SOL    HW242723   3.579   6.103   1.758
14233SOL     OW42724   3.224   6.730   0.545
14233SOL    HW142725   3.307   6.701   0.497
14233SOL    HW242726   3.175   6.797   0.489
14234SOL     OW42727   2.412   5.782   0.885
14234SOL    HW142728   2.407   5.777   0.985
14234SOL    HW242729   2.414   5.878   0.856
14235SOL     OW42730   2.870   7.042   0.477
14235SOL    HW142731   2.824   7.114   0.425
14235SOL    HW242732   2.866   7.062   0.575
14236SOL     OW42733   2.213   7.387   0.853
14236SOL    HW142734   2.263   7.301   0.859
14236SOL    HW242735   2.278   7.464   0.850
14237SOL     OW42736   3.657   6.652   0.873
14237SOL    HW142737   3.595   6.637   0.797
14237SOL    HW242738   3.605   6.663   0.958
14238SOL     OW42739   3.089   7.136   1.506
14238SOL    HW142740   3.095   7.059   1.570
14238SOL    HW242741   3.037   7.110   1.426
14239SOL     OW42742   2.183   6.529   0.242
14239SOL    HW142743   2.265   6.568   0.200
14239SOL    HW242744   2.156   6.447   0.193
14240SOL     OW42745   3.320   6.321   0.728
14240SOL    HW142746   3.315   6.256   0.803
14240SOL    HW242747   3.400   6.380   0.741
14241SOL     OW42748   2.323   6.852   1.727
14241SOL    HW142749   2.273   6.853   1.641
14241SOL    HW242750   2.260   6.834   1.803
14242SOL     OW42751   2.973   7.362   0.237
14242SOL    HW142752   2.913   7.300   0.287
14242SOL    HW242753   3.004   7.318   0.152
14243SOL     OW42754   2.064   5.871   1.498
14243SOL    HW142755   1.984   5.931   1.485
14243SOL    HW242756   2.054   5.822   1.584
14244SOL     OW42757   3.494   6.963   0.081
14244SOL    HW142758   3.462   7.057   0.071
14244SOL    HW242759   3.418   6.900   0.069
14245SOL     OW42760   2.326   7.329   0.323
14245SOL    HW142761   2.359   7.368   0.409
14245SOL    HW242762   2.402   7.322   0.258
14246SOL     OW42763   3.262   5.693   0.426
14246SOL    HW142764   3.238   5.656   0.336
14246SOL    HW242765   3.361   5.709   0.430
14247SOL     OW42766   2.111   7.371   1.241
14247SOL    HW142767   2.168   7.306   1.291
14247SOL    HW242768   2.095   7.338   1.148
14248SOL     OW42769   2.802   7.284   0.904
14248SOL    HW142770   2.882   7.227   0.925
14248SOL    HW242771   2.753   7.244   0.827
14249SOL     OW42772   2.244   6.286   0.480
14249SOL    HW142773   2.289   6.196   0.477
14249SOL    HW242774   2.150   6.275   0.513
14250SOL     OW42775   3.409   5.808   1.729
14250SOL    HW142776   3.404   5.845   1.821
14250SOL    HW242777   3.337   5.739   1.717
14251SOL     OW42778   2.476   5.708   0.117
14251SOL    HW142779   2.574   5.686   0.124
14251SOL    HW242780   2.445   5.691   0.024
14252SOL     OW42781   2.643   5.850   1.749
14252SOL    HW142782   2.710   5.789   1.792
14252SOL    HW242783   2.570   5.869   1.814
14253SOL     OW42784   2.750   7.100   1.195
14253SOL    HW142785   2.727   7.075   1.101
14253SOL    HW242786   2.811   7.031   1.234
14254SOL     OW42787   3.213   6.176   1.433
14254SOL    HW142788   3.241   6.133   1.518
14254SOL    HW242789   3.238   6.272   1.434
14255SOL     OW42790   2.665   6.988   0.924
14255SOL    HW142791   2.755   7.002   0.882
14255SOL    HW242792   2.594   6.990   0.853
14256SOL     OW42793   2.784   6.089   0.899
14256SOL    HW142794   2.759   6.080   0.803
14256SOL    HW242795   2.832   6.007   0.930
14257SOL     OW42796   2.401   5.650   0.512
14257SOL    HW142797   2.320   5.651   0.570
14257SOL    HW242798   2.404   5.733   0.457
14258SOL     OW42799   3.296   6.774   0.041
14258SOL    HW142800   3.328   6.698   0.098
14258SOL    HW242801   3.204   6.801   0.071
14259SOL     OW42802   2.159   5.621   0.171
14259SOL    HW142803   2.208   5.705   0.150
14259SOL    HW242804   2.221   5.556   0.216
14260SOL     OW42805   2.797   5.822   0.480
14260SOL    HW142806   2.749   5.863   0.402
14260SOL    HW242807   2.896   5.820   0.461
14261SOL     OW42808   2.938   6.269   1.464
14261SOL    HW142809   2.858   6.208   1.467
14261SOL    HW242810   3.019   6.216   1.440
14262SOL     OW42811   3.089   7.156   0.793
14262SOL    HW142812   3.110   7.230   0.728
14262SOL    HW242813   3.157   7.156   0.866
14263SOL     OW42814   2.321   6.738   0.741
14263SOL    HW142815   2.250   6.711   0.806
14263SOL    HW242816   2.295   6.710   0.648
14264SOL     OW42817   3.133   7.383   0.591
14264SOL    HW142818   3.177   7.447   0.527
14264SOL    HW242819   3.083   7.435   0.661
14265SOL     OW42820   2.894   6.135   0.016
14265SOL    HW142821   2.853   6.217  -0.023
14265SOL    HW242822   2.958   6.161   0.089
14266SOL     OW42823   1.940   6.142   1.386
14266SOL    HW142824   2.032   6.141   1.345
14266SOL    HW242825   1.934   6.216   1.453
14267SOL     OW42826   2.423   5.808   1.147
14267SOL    HW142827   2.461   5.724   1.184
14267SOL    HW242828   2.335   5.827   1.191
14268SOL     OW42829   2.728   6.040   0.642
14268SOL    HW142830   2.696   6.112   0.580
14268SOL    HW242831   2.752   5.959   0.589
14269SOL     OW42832   2.879   5.625   0.753
14269SOL    HW142833   2.807   5.630   0.684
14269SOL    HW242834   2.855   5.556   0.822
14270SOL     OW42835   3.291   6.759   0.867
14270SOL    HW142836   3.236   6.675   0.860
14270SOL    HW242837   3.317   6.788   0.775
14271SOL     OW42838   3.328   6.176   0.992
14271SOL    HW142839   3.298   6.081   0.999
14271SOL    HW242840   3.401   6.192   1.058
14272SOL     OW42841   3.719   6.419   0.377
14272SOL    HW142842   3.761   6.355   0.441
14272SOL    HW242843   3.681   6.368   0.299
14273SOL     OW42844   2.350   6.971   0.174
14273SOL    HW142845   2.263   6.956   0.221
14273SOL    HW242846   2.333   6.997   0.079
14274SOL     OW42847   3.526   6.866   0.657
14274SOL    HW142848   3.625   6.874   0.671
14274SOL    HW242849   3.481   6.950   0.688
14275SOL     OW42850   3.252   6.161   0.078
14275SOL    HW142851   3.198   6.140   0.159
14275SOL    HW242852   3.343   6.120   0.087
14276SOL     OW42853   2.389   5.842   0.328
14276SOL    HW142854   2.416   5.783   0.253
14276SOL    HW242855   2.389   5.937   0.297
14277SOL     OW42856   3.616   6.809   1.588
14277SOL    HW142857   3.707   6.770   1.575
14277SOL    HW242858   3.624   6.905   1.612
14278SOL     OW42859   2.926   6.933   1.340
14278SOL    HW142860   2.846   6.910   1.395
14278SOL    HW242861   3.009   6.907   1.389
14279SOL     OW42862   3.454   7.215   1.625
14279SOL    HW142863   3.481   7.249   1.535
14279SOL    HW242864   3.533   7.177   1.671
14280SOL     OW42865   2.973   6.781   1.100
14280SOL    HW142866   2.933   6.825   1.181
14280SOL    HW242867   2.932   6.818   1.017
14281SOL     OW42868   3.500   6.685   1.079
14281SOL    HW142869   3.505   6.766   1.138
14281SOL    HW242870   3.414   6.687   1.028
14282SOL     OW42871   2.777   5.675   1.402
14282SOL    HW142872   2.802   5.655   1.307
14282SOL    HW242873   2.849   5.731   1.444
14283SOL     OW42874   2.842   6.702   1.719
14283SOL    HW142875   2.743   6.708   1.729
14283SOL    HW242876   2.865   6.622   1.663
14284SOL     OW42877   2.567   6.636   0.368
14284SOL    HW142878   2.553   6.643   0.467
14284SOL    HW242879   2.651   6.585   0.350
14285SOL     OW42880   2.272   6.399   1.251
14285SOL    HW142881   2.358   6.411   1.301
14285SOL    HW242882   2.230   6.312   1.278
14286SOL     OW42883   1.926   7.150   1.331
14286SOL    HW142884   1.880   7.232   1.297
14286SOL    HW242885   2.024   7.169   1.340
14287SOL     OW42886   2.229   6.686   0.501
14287SOL    HW142887   2.222   6.769   0.445
14287SOL    HW242888   2.233   6.606   0.441
14288SOL     OW42889   2.428   6.123   0.865
14288SOL    HW142890   2.440   6.189   0.791
14288SOL    HW242891   2.474   6.157   0.948
14289SOL     OW42892   3.114   6.934   0.388
14289SOL    HW142893   3.164   7.011   0.428
14289SOL    HW242894   3.019   6.936   0.420
14290SOL     OW42895   3.134   7.031   1.142
14290SOL    HW142896   3.181   7.044   1.229
14290SOL    HW242897   3.068   6.957   1.151
14291SOL     OW42898   3.444   6.225   0.472
14291SOL    HW142899   3.413   6.286   0.545
14291SOL    HW242900   3.494   6.277   0.403
14292SOL     OW42901   2.216   7.096   1.329
14292SOL    HW142902   2.195   7.052   1.242
14292SOL    HW242903   2.313   7.122   1.332
14293SOL     OW42904   2.264   6.337   1.598
14293SOL    HW142905   2.332   6.392   1.551
14293SOL    HW242906   2.304   6.249   1.625
14294SOL     OW42907   3.449   6.365   1.670
14294SOL    HW142908   3.357   6.403   1.665
14294SOL    HW242909   3.509   6.412   1.605
14295SOL     OW42910   2.875   5.691   1.770
14295SOL    HW142911   2.881   5.776   1.718
14295SOL    HW242912   2.907   5.615   1.713
14296SOL     OW42913   2.366   5.636   1.740
14296SOL    HW142914   2.324   5.579   1.670
14296SOL    HW242915   2.300   5.705   1.772
14297SOL     OW42916   2.435   6.456   1.029
14297SOL    HW142917   2.479   6.545   1.020
14297SOL    HW242918   2.372   6.456   1.106
14298SOL     OW42919   3.222   6.448   1.045
14298SOL    HW142920   3.147   6.448   0.979
14298SOL    HW242921   3.259   6.356   1.054
14299SOL     OW42922   3.071   6.111   0.275
14299SOL    HW142923   3.084   6.027   0.329
14299SOL    HW242924   3.042   6.185   0.335
14300SOL     OW42925   2.169   5.799   1.231
14300SOL    HW142926   2.146   5.836   1.321
14300SOL    HW242927   2.139   5.704   1.225
14301SOL     OW42928   1.899   6.896   1.282
14301SOL    HW142929   1.952   6.847   1.350
14301SOL    HW242930   1.921   6.994   1.287
14302SOL     OW42931   2.594   6.220   1.064
14302SOL    HW142932   2.653   6.194   0.988
14302SOL    HW242933   2.566   6.316   1.053
14303SOL     OW42934   3.590   6.521   1.854
14303SOL    HW142935   3.544   6.514   1.765
14303SOL    HW242936   3.528   6.565   1.920
14304SOL     OW42937   2.169   5.649   0.618
14304SOL    HW142938   2.158   5.743   0.651
14304SOL    HW242939   2.164   5.586   0.695
14305SOL     OW42940   3.484   5.953   0.374
14305SOL    HW142941   3.486   5.877   0.438
14305SOL    HW242942   3.436   6.030   0.414
14306SOL     OW42943   2.885   6.352   0.966
14306SOL    HW142944   2.900   6.373   1.062
14306SOL    HW242945   2.855   6.257   0.957
14307SOL     OW42946   2.842   7.159   1.700
14307SOL    HW142947   2.822   7.203   1.612
14307SOL    HW242948   2.881   7.068   1.684
14308SOL     OW42949   3.721   7.104   1.605
14308SOL    HW142950   3.735   7.131   1.510
14308SOL    HW242951   3.804   7.126   1.658
14309SOL     OW42952   2.212   6.484   1.804
14309SOL    HW142953   2.288   6.528   1.852
14309SOL    HW242954   2.247   6.437   1.722
14310SOL     OW42955   3.402   5.860   0.125
14310SOL    HW142956   3.341   5.785   0.148
14310SOL    HW242957   3.424   5.912   0.208
14311SOL     OW42958   3.165   6.424   0.042
14311SOL    HW142959   3.199   6.331   0.057
14311SOL    HW242960   3.183   6.451  -0.053
14312SOL     OW42961   2.181   6.396   0.949
14312SOL    HW142962   2.274   6.432   0.954
14312SOL    HW242963   2.175   6.311   1.001
14313SOL     OW42964   2.201   6.095   1.006
14313SOL    HW142965   2.149   6.012   0.989
14313SOL    HW242966   2.278   6.100   0.942
14314SOL     OW42967   3.000   5.966   1.678
14314SOL    HW142968   2.955   6.029   1.742
14314SOL    HW242969   3.093   5.997   1.661
14315SOL     OW42970   3.022   5.793   1.477
14315SOL    HW142971   3.022   5.857   1.554
14315SOL    HW242972   3.050   5.841   1.394
14316SOL     OW42973   1.870   6.912   0.200
14316SOL    HW142974   1.777   6.933   0.169
14316SOL    HW242975   1.880   6.813   0.213
14317SOL     OW42976   1.950   7.387   0.927
14317SOL    HW142977   1.908   7.301   0.900
14317SOL    HW242978   2.044   7.390   0.893
14318SOL     OW42979   2.366   7.154   0.910
14318SOL    HW142980   2.432   7.228   0.919
14318SOL    HW242981   2.410   7.075   0.868
14319SOL     OW42982   2.864   6.382   1.238
14319SOL    HW142983   2.905   6.350   1.324
14319SOL    HW242984   2.768   6.355   1.235
14320SOL     OW42985   1.902   6.130   1.114
14320SOL    HW142986   1.987   6.097   1.073
14320SOL    HW242987   1.915   6.145   1.212
14321SOL     OW42988   2.051   6.106   1.722
14321SOL    HW142989   2.110   6.066   1.652
14321SOL    HW242990   1.993   6.177   1.681
14322SOL     OW42991   3.231   6.536   1.660
14322SOL    HW142992   3.270   6.625   1.680
14322SOL    HW242993   3.241   6.516   1.563
14323SOL     OW42994   2.677   6.158   0.325
14323SOL    HW142995   2.684   6.069   0.279
14323SOL    HW242996   2.583   6.192   0.317
14324SOL     OW42997   3.519   6.190   1.206
14324SOL    HW142998   3.481   6.121   1.268
14324SOL    HW242999   3.601   6.154   1.162
14325SOL     OW43000   2.114   7.150   1.744
14325SOL    HW143001   2.084   7.207   1.820
14325SOL    HW243002   2.107   7.053   1.770
14326SOL     OW43003   2.533   6.050   1.269
14326SOL    HW143004   2.499   5.961   1.239
14326SOL    HW243005   2.559   6.104   1.189
14327SOL     OW43006   2.792   7.264   1.465
14327SOL    HW143007   2.768   7.246   1.370
14327SOL    HW243008   2.822   7.358   1.475
14328SOL     OW43009   2.335   6.086   0.191
14328SOL    HW143010   2.396   6.166   0.195
14328SOL    HW243011   2.240   6.117   0.198
14329SOL     OW43012   2.021   6.723   1.466
14329SOL    HW143013   2.043   6.662   1.542
14329SOL    HW243014   2.031   6.674   1.380
14330SOL     OW43015   3.209   6.645   1.234
14330SOL    HW143016   3.233   6.582   1.160
14330SOL    HW243017   3.119   6.685   1.216
14331SOL     OW43018   3.164   6.441   0.309
14331SOL    HW143019   3.078   6.410   0.351
14331SOL    HW243020   3.160   6.427   0.210
14332SOL     OW43021   3.621   7.333   1.154
14332SOL    HW143022   3.682   7.363   1.081
14332SOL    HW243023   3.583   7.244   1.132
14333SOL     OW43024   3.114   7.317   1.128
14333SOL    HW143025   3.198   7.322   1.074
14333SOL    HW243026   3.091   7.221   1.146
14334SOL     OW43027   1.945   6.844   1.022
14334SOL    HW143028   1.940   6.843   1.122
14334SOL    HW243029   1.862   6.803   0.984
14335SOL     OW43030   2.550   7.248   1.716
14335SOL    HW143031   2.494   7.329   1.725
14335SOL    HW243032   2.602   7.252   1.630
14336SOL     OW43033   2.765   5.672   0.133
14336SOL    HW143034   2.816   5.673   0.047
14336SOL    HW243035   2.821   5.630   0.204
14337SOL     OW43036   3.588   5.721   0.523
14337SOL    HW143037   3.661   5.704   0.456
14337SOL    HW243038   3.557   5.634   0.561
14338SOL     OW43039   3.250   7.159   0.477
14338SOL    HW143040   3.317   7.171   0.403
14338SOL    HW243041   3.210   7.248   0.500
14339SOL     OW43042   1.992   7.380   1.851
14339SOL    HW143043   1.951   7.306   1.904
14339SOL    HW243044   2.056   7.431   1.909
14340SOL     OW43045   3.142   6.513   0.672
14340SOL    HW143046   3.202   6.432   0.674
14340SOL    HW243047   3.182   6.582   0.612
14341SOL     OW43048   2.692   6.859   1.422
14341SOL    HW143049   2.687   6.892   1.517
14341SOL    HW243050   2.606   6.878   1.376
14342SOL     OW43051   2.534   7.202   0.154
14342SOL    HW143052   2.543   7.212   0.055
14342SOL    HW243053   2.494   7.113   0.175
14343SOL     OW43054   3.512   7.306   1.394
14343SOL    HW143055   3.565   7.316   1.310
14343SOL    HW243056   3.485   7.396   1.428
14344SOL     OW43057   3.703   5.761   0.963
14344SOL    HW143058   3.742   5.676   0.927
14344SOL    HW243059   3.605   5.763   0.944
14345SOL     OW43060   2.125   5.912   0.720
14345SOL    HW143061   2.046   5.963   0.686
14345SOL    HW243062   2.116   5.897   0.818
14346SOL     OW43063   3.056   7.198   0.031
14346SOL    HW143064   3.062   7.105   0.068
14346SOL    HW243065   2.997   7.198  -0.049
14347SOL     OW43066   2.684   6.588   1.372
14347SOL    HW143067   2.724   6.587   1.280
14347SOL    HW243068   2.694   6.680   1.412
14348SOL     OW43069   2.778   6.496   0.291
14348SOL    HW143070   2.841   6.534   0.223
14348SOL    HW243071   2.818   6.413   0.330
14349SOL     OW43072   3.366   7.193   0.044
14349SOL    HW143073   3.274   7.230   0.051
14349SOL    HW243074   3.404   7.213  -0.046
14350SOL     OW43075   2.234   6.874   1.490
14350SOL    HW143076   2.221   6.967   1.456
14350SOL    HW243077   2.150   6.822   1.477
14351SOL     OW43078   3.476   6.878   1.289
14351SOL    HW143079   3.536   6.881   1.369
14351SOL    HW243080   3.401   6.942   1.302
14352SOL     OW43081   2.901   6.684   0.696
14352SOL    HW143082   2.831   6.637   0.750
14352SOL    HW243083   2.960   6.616   0.653
14353SOL     OW43084   2.876   5.822   0.971
14353SOL    HW143085   2.868   5.786   0.878
14353SOL    HW243086   2.874   5.746   1.036
14354SOL     OW43087   2.452   7.073   0.491
14354SOL    HW143088   2.494   7.015   0.421
14354SOL    HW243089   2.408   7.152   0.447
14355SOL     OW43090   3.571   5.971   1.381
14355SOL    HW143091   3.644   6.040   1.385
14355SOL    HW243092   3.599   5.896   1.322
14356SOL     OW43093   2.117   6.934   0.290
14356SOL    HW143094   2.021   6.935   0.263
14356SOL    HW243095   2.129   6.987   0.374
14357SOL     OW43096   1.967   6.599   1.726
14357SOL    HW143097   1.890   6.566   1.780
14357SOL    HW243098   2.052   6.569   1.768
14358SOL     OW43099   2.534   5.789   1.489
14358SOL    HW143100   2.624   5.773   1.449
14358SOL    HW243101   2.542   5.794   1.588
14359SOL     OW43102   1.937   5.931   0.033
14359SOL    HW143103   1.845   5.903   0.004
14359SOL    HW243104   1.968   6.008  -0.023
14360SOL     OW43105   3.302   6.442   1.398
14360SOL    HW143106   3.245   6.494   1.335
14360SOL    HW243107   3.398   6.454   1.374
14361SOL     OW43108   1.934   5.752   0.318
14361SOL    HW143109   1.917   5.835   0.264
14361SOL    HW243110   2.024   5.715   0.296
14362SOL     OW43111   3.045   6.921   0.119
14362SOL    HW143112   2.946   6.910   0.121
14362SOL    HW243113   3.079   6.936   0.212
14363SOL     OW43114   2.475   6.428   1.431
14363SOL    HW143115   2.531   6.509   1.414
14363SOL    HW243116   2.534   6.348   1.434
14364SOL     OW43117   3.355   7.353   0.959
14364SOL    HW143118   3.388   7.417   0.890
14364SOL    HW243119   3.421   7.347   1.034
14365SOL     OW43120   2.578   6.151   1.708
14365SOL    HW143121   2.597   6.216   1.782
14365SOL    HW243122   2.638   6.071   1.717
14366SOL     OW43123   3.312   6.806   1.633
14366SOL    HW143124   3.303   6.796   1.732
14366SOL    HW243125   3.408   6.799   1.607
14367SOL     OW43126   2.252   7.327   1.560
14367SOL    HW143127   2.161   7.368   1.558
14367SOL    HW243128   2.245   7.233   1.592
14368SOL     OW43129   3.536   6.469   1.254
14368SOL    HW143130   3.509   6.380   1.217
14368SOL    HW243131   3.537   6.537   1.181
14369SOL     OW43132   3.087   5.911   0.449
14369SOL    HW143133   3.152   5.837   0.438
14369SOL    HW243134   3.107   5.961   0.533
14370SOL     OW43135   2.456   6.331   0.652
14370SOL    HW143136   2.506   6.416   0.633
14370SOL    HW243137   2.368   6.333   0.604
14371SOL     OW43138   3.639   5.928   1.642
14371SOL    HW143139   3.622   5.959   1.548
14371SOL    HW243140   3.555   5.891   1.680
14372SOL     OW43141   3.592   6.520   1.517
14372SOL    HW143142   3.630   6.611   1.532
14372SOL    HW243143   3.584   6.503   1.418
14373SOL     OW43144   2.721   6.960   0.016
14373SOL    HW143145   2.675   6.975   0.104
14373SOL    HW243146   2.765   7.045  -0.014
14374SOL     OW43147   2.523   7.376   0.953
14374SOL    HW143148   2.477   7.464   0.940
14374SOL    HW243149   2.622   7.388   0.946
14375SOL     OW43150   2.721   6.542   0.861
14375SOL    HW143151   2.775   6.473   0.909
14375SOL    HW243152   2.689   6.611   0.927
14376SOL     OW43153   2.945   6.570   0.087
14376SOL    HW143154   2.922   6.623   0.005
14376SOL    HW243155   3.026   6.514   0.068
14377SOL     OW43156   3.723   7.155   0.851
14377SOL    HW143157   3.652   7.143   0.781
14377SOL    HW243158   3.724   7.076   0.911
14378SOL     OW43159   2.083   6.900   1.844
14378SOL    HW143160   2.018   6.827   1.823
14378SOL    HW243161   2.087   6.914   1.942
14379SOL     OW43162   2.534   6.977   1.624
14379SOL    HW143163   2.456   6.927   1.662
14379SOL    HW243164   2.531   7.072   1.655
14380SOL     OW43165   3.686   5.778   1.227
14380SOL    HW143166   3.682   5.688   1.271
14380SOL    HW243167   3.689   5.767   1.128
14381SOL     OW43168   2.290   6.010   0.520
14381SOL    HW143169   2.320   5.938   0.458
14381SOL    HW243170   2.251   5.970   0.603
14382SOL     OW43171   3.567   7.073   1.104
14382SOL    HW143172   3.474   7.048   1.077
14382SOL    HW243173   3.593   7.023   1.186
14383SOL     OW43174   2.179   6.133   1.280
14383SOL    HW143175   2.217   6.074   1.352
14383SOL    HW243176   2.219   6.107   1.192
14384SOL     OW43177   2.674   7.172   0.687
14384SOL    HW143178   2.706   7.182   0.593
14384SOL    HW243179   2.595   7.110   0.689
14385SOL     OW43180   3.286   5.800   1.112
14385SOL    HW143181   3.338   5.735   1.167
14385SOL    HW243182   3.237   5.863   1.173
14386SOL     OW43183   2.863   5.620   1.154
14386SOL    HW143184   2.800   5.548   1.123
14386SOL    HW243185   2.956   5.584   1.154
14387SOL     OW43186   2.632   6.916   0.301
14387SOL    HW143187   2.586   6.829   0.318
14387SOL    HW243188   2.723   6.913   0.342
14388SOL     OW43189   2.480   7.153   1.284
14388SOL    HW143190   2.475   7.235   1.341
14388SOL    HW243191   2.569   7.150   1.239
14389SOL     OW43192   3.214   5.638   0.168
14389SOL    HW143193   3.249   5.597   0.084
14389SOL    HW243194   3.124   5.600   0.188
14390SOL     OW43195   3.162   6.039   0.691
14390SOL    HW143196   3.103   6.119   0.695
14390SOL    HW243197   3.177   6.004   0.784
14391SOL     OW43198   3.455   5.807   0.882
14391SOL    HW143199   3.371   5.806   0.936
14391SOL    HW243200   3.457   5.890   0.826
14392SOL     OW43201   1.901   6.663   0.300
14392SOL    HW143202   2.000   6.652   0.291
14392SOL    HW243203   1.861   6.577   0.332
14393SOL     OW43204   2.737   7.232   0.337
14393SOL    HW143205   2.660   7.197   0.283
14393SOL    HW243206   2.705   7.303   0.399
14394SOL     OW43207   2.092   6.214   1.975
14394SOL    HW143208   1.999   6.212   2.012
14394SOL    HW243209   2.093   6.175   1.883
14395SOL     OW43210   2.087   5.861   2.858
14395SOL    HW143211   2.122   5.844   2.950
14395SOL    HW243212   1.999   5.816   2.846
14396SOL     OW43213   1.881   5.954   2.509
14396SOL    HW143214   1.799   5.997   2.548
14396SOL    HW243215   1.853   5.881   2.446
14397SOL     OW43216   2.431   6.861   3.027
14397SOL    HW143217   2.338   6.854   2.990
14397SOL    HW243218   2.442   6.950   3.071
14398SOL     OW43219   3.417   7.097   2.565
14398SOL    HW143220   3.360   7.081   2.646
14398SOL    HW243221   3.358   7.107   2.485
14399SOL     OW43222   2.997   6.289   2.579
14399SOL    HW143223   3.054   6.367   2.554
14399SOL    HW243224   2.937   6.315   2.655
14400SOL     OW43225   3.617   6.193   2.093
14400SOL    HW143226   3.605   6.180   1.994
14400SOL    HW243227   3.587   6.112   2.142
14401SOL     OW43228   2.630   6.730   2.885
14401SOL    HW143229   2.552   6.747   2.945
14401SOL    HW243230   2.664   6.817   2.849
14402SOL     OW43231   2.712   6.384   3.685
14402SOL    HW143232   2.708   6.460   3.750
14402SOL    HW243233   2.734   6.420   3.594
14403SOL     OW43234   2.547   6.598   2.527
14403SOL    HW143235   2.616   6.582   2.597
14403SOL    HW243236   2.474   6.655   2.565
14404SOL     OW43237   2.548   6.747   3.665
14404SOL    HW143238   2.608   6.826   3.679
14404SOL    HW243239   2.462   6.778   3.624
14405SOL     OW43240   2.197   7.021   2.923
14405SOL    HW143241   2.119   6.990   2.870
14405SOL    HW243242   2.255   7.079   2.866
14406SOL     OW43243   3.322   7.091   3.201
14406SOL    HW143244   3.346   7.185   3.227
14406SOL    HW243245   3.306   7.037   3.283
14407SOL     OW43246   2.300   5.978   3.361
14407SOL    HW143247   2.382   5.922   3.370
14407SOL    HW243248   2.219   5.920   3.365
14408SOL     OW43249   3.465   6.033   2.599
14408SOL    HW143250   3.391   6.079   2.549
14408SOL    HW243251   3.516   6.101   2.652
14409SOL     OW43252   2.093   7.299   2.345
14409SOL    HW143253   2.127   7.376   2.399
14409SOL    HW243254   2.137   7.299   2.255
14410SOL     OW43255   2.989   6.927   3.552
14410SOL    HW143256   3.036   6.927   3.640
14410SOL    HW243257   2.941   6.840   3.541
14411SOL     OW43258   2.092   7.020   2.400
14411SOL    HW143259   2.066   7.116   2.400
14411SOL    HW243260   2.021   6.966   2.445
14412SOL     OW43261   2.102   6.677   2.748
14412SOL    HW143262   2.116   6.593   2.800
14412SOL    HW243263   2.047   6.741   2.803
14413SOL     OW43264   2.482   7.372   3.301
14413SOL    HW143265   2.390   7.355   3.336
14413SOL    HW243266   2.510   7.464   3.327
14414SOL     OW43267   2.468   6.550   1.985
14414SOL    HW143268   2.475   6.634   1.931
14414SOL    HW243269   2.514   6.563   2.073
14415SOL     OW43270   3.456   5.700   3.342
14415SOL    HW143271   3.438   5.767   3.270
14415SOL    HW243272   3.453   5.746   3.431
14416SOL     OW43273   1.984   6.229   2.425
14416SOL    HW143274   1.939   6.141   2.442
14416SOL    HW243275   1.983   6.283   2.509
14417SOL     OW43276   3.704   7.353   2.221
14417SOL    HW143277   3.758   7.324   2.301
14417SOL    HW243278   3.734   7.443   2.192
14418SOL     OW43279   1.889   7.182   1.979
14418SOL    HW143280   1.870   7.086   2.000
14418SOL    HW243281   1.856   7.240   2.054
14419SOL     OW43282   3.551   6.508   2.474
14419SOL    HW143283   3.646   6.479   2.482
14419SOL    HW243284   3.543   6.573   2.399
14420SOL     OW43285   3.503   6.694   2.294
14420SOL    HW143286   3.589   6.696   2.242
14420SOL    HW243287   3.517   6.741   2.382
14421SOL     OW43288   1.975   6.323   3.459
14421SOL    HW143289   2.063   6.310   3.504
14421SOL    HW243290   1.962   6.420   3.437
14422SOL     OW43291   2.475   6.951   2.588
14422SOL    HW143292   2.426   6.864   2.597
14422SOL    HW243293   2.452   6.994   2.501
14423SOL     OW43294   3.155   6.814   3.285
14423SOL    HW143295   3.192   6.741   3.227
14423SOL    HW243296   3.207   6.819   3.370
14424SOL     OW43297   2.671   5.590   2.364
14424SOL    HW143298   2.711   5.681   2.355
14424SOL    HW243299   2.571   5.598   2.370
14425SOL     OW43300   2.059   6.562   3.126
14425SOL    HW143301   2.148   6.517   3.112
14425SOL    HW243302   1.986   6.497   3.107
14426SOL     OW43303   3.387   6.585   2.052
14426SOL    HW143304   3.324   6.509   2.065
14426SOL    HW243305   3.435   6.603   2.138
14427SOL     OW43306   3.049   7.378   3.478
14427SOL    HW143307   3.073   7.438   3.402
14427SOL    HW243308   3.056   7.283   3.448
14428SOL     OW43309   2.179   5.837   3.663
14428SOL    HW143310   2.250   5.908   3.669
14428SOL    HW243311   2.091   5.876   3.691
14429SOL     OW43312   3.328   7.003   2.815
14429SOL    HW143313   3.269   7.009   2.895
14429SOL    HW243314   3.313   6.915   2.769
14430SOL     OW43315   3.529   7.300   2.434
14430SOL    HW143316   3.488   7.277   2.346
14430SOL    HW243317   3.511   7.226   2.499
14431SOL     OW43318   2.460   6.315   2.132
14431SOL    HW143319   2.484   6.384   2.064
14431SOL    HW243320   2.382   6.348   2.186
14432SOL     OW43321   3.143   5.931   2.806
14432SOL    HW143322   3.057   5.881   2.793
14432SOL    HW243323   3.205   5.877   2.862
14433SOL     OW43324   3.438   7.248   2.169
14433SOL    HW143325   3.527   7.294   2.172
14433SOL    HW243326   3.417   7.224   2.074
14434SOL     OW43327   2.669   6.191   3.327
14434SOL    HW143328   2.622   6.188   3.416
14434SOL    HW243329   2.618   6.136   3.261
14435SOL     OW43330   3.256   6.055   3.536
14435SOL    HW143331   3.236   6.098   3.624
14435SOL    HW243332   3.334   5.993   3.545
14436SOL     OW43333   2.835   6.476   3.434
14436SOL    HW143334   2.881   6.392   3.405
14436SOL    HW243335   2.779   6.510   3.359
14437SOL     OW43336   2.853   5.996   3.104
14437SOL    HW143337   2.776   6.030   3.158
14437SOL    HW243338   2.819   5.945   3.025
14438SOL     OW43339   2.903   6.287   2.291
14438SOL    HW143340   2.929   6.283   2.387
14438SOL    HW243341   2.818   6.236   2.277
14439SOL     OW43342   1.938   6.397   2.651
14439SOL    HW143343   2.037   6.385   2.660
14439SOL    HW243344   1.914   6.492   2.672
14440SOL     OW43345   1.992   7.407   3.433
14440SOL    HW143346   1.982   7.392   3.532
14440SOL    HW243347   1.906   7.443   3.397
14441SOL     OW43348   2.727   5.934   2.057
14441SOL    HW143349   2.786   5.997   2.008
14441SOL    HW243350   2.746   5.840   2.028
14442SOL     OW43351   3.581   6.171   3.693
14442SOL    HW143352   3.555   6.260   3.657
14442SOL    HW243353   3.579   6.103   3.620
14443SOL     OW43354   3.224   6.730   2.407
14443SOL    HW143355   3.307   6.701   2.359
14443SOL    HW243356   3.175   6.797   2.351
14444SOL     OW43357   2.412   5.782   2.747
14444SOL    HW143358   2.407   5.777   2.847
14444SOL    HW243359   2.414   5.878   2.718
14445SOL     OW43360   2.870   7.042   2.339
14445SOL    HW143361   2.824   7.114   2.287
14445SOL    HW243362   2.866   7.062   2.437
14446SOL     OW43363   2.213   7.387   2.715
14446SOL    HW143364   2.263   7.301   2.721
14446SOL    HW243365   2.278   7.464   2.712
14447SOL     OW43366   3.657   6.652   2.735
14447SOL    HW143367   3.595   6.637   2.659
14447SOL    HW243368   3.605   6.663   2.820
14448SOL     OW43369   3.089   7.136   3.368
14448SOL    HW143370   3.095   7.059   3.432
14448SOL    HW243371   3.037   7.110   3.288
14449SOL     OW43372   2.183   6.529   2.104
14449SOL    HW143373   2.265   6.568   2.062
14449SOL    HW243374   2.156   6.447   2.055
14450SOL     OW43375   3.320   6.321   2.590
14450SOL    HW143376   3.315   6.256   2.665
14450SOL    HW243377   3.400   6.380   2.603
14451SOL     OW43378   2.323   6.852   3.589
14451SOL    HW143379   2.273   6.853   3.503
14451SOL    HW243380   2.260   6.834   3.665
14452SOL     OW43381   2.973   7.362   2.099
14452SOL    HW143382   2.913   7.300   2.149
14452SOL    HW243383   3.004   7.318   2.014
14453SOL     OW43384   2.064   5.871   3.360
14453SOL    HW143385   1.984   5.931   3.347
14453SOL    HW243386   2.054   5.822   3.446
14454SOL     OW43387   3.494   6.963   1.943
14454SOL    HW143388   3.462   7.057   1.933
14454SOL    HW243389   3.418   6.900   1.931
14455SOL     OW43390   2.326   7.329   2.185
14455SOL    HW143391   2.359   7.368   2.271
14455SOL    HW243392   2.402   7.322   2.120
14456SOL     OW43393   3.262   5.693   2.288
14456SOL    HW143394   3.238   5.656   2.198
14456SOL    HW243395   3.361   5.709   2.292
14457SOL     OW43396   2.111   7.371   3.103
14457SOL    HW143397   2.168   7.306   3.153
14457SOL    HW243398   2.095   7.338   3.010
14458SOL     OW43399   2.802   7.284   2.766
14458SOL    HW143400   2.882   7.227   2.787
14458SOL    HW243401   2.753   7.244   2.689
14459SOL     OW43402   2.244   6.286   2.342
14459SOL    HW143403   2.289   6.196   2.339
14459SOL    HW243404   2.150   6.275   2.375
14460SOL     OW43405   3.409   5.808   3.591
14460SOL    HW143406   3.404   5.845   3.683
14460SOL    HW243407   3.337   5.739   3.579
14461SOL     OW43408   2.476   5.708   1.979
14461SOL    HW143409   2.574   5.686   1.986
14461SOL    HW243410   2.445   5.691   1.886
14462SOL     OW43411   2.643   5.850   3.611
14462SOL    HW143412   2.710   5.789   3.654
14462SOL    HW243413   2.570   5.869   3.676
14463SOL     OW43414   2.750   7.100   3.057
14463SOL    HW143415   2.727   7.075   2.963
14463SOL    HW243416   2.811   7.031   3.096
14464SOL     OW43417   3.213   6.176   3.295
14464SOL    HW143418   3.241   6.133   3.380
14464SOL    HW243419   3.238   6.272   3.296
14465SOL     OW43420   2.665   6.988   2.786
14465SOL    HW143421   2.755   7.002   2.744
14465SOL    HW243422   2.594   6.990   2.715
14466SOL     OW43423   2.784   6.089   2.761
14466SOL    HW143424   2.759   6.080   2.665
14466SOL    HW243425   2.832   6.007   2.792
14467SOL     OW43426   2.401   5.650   2.374
14467SOL    HW143427   2.320   5.651   2.432
14467SOL    HW243428   2.404   5.733   2.319
14468SOL     OW43429   3.296   6.774   1.903
14468SOL    HW143430   3.328   6.698   1.960
14468SOL    HW243431   3.204   6.801   1.933
14469SOL     OW43432   2.159   5.621   2.033
14469SOL    HW143433   2.208   5.705   2.012
14469SOL    HW243434   2.221   5.556   2.078
14470SOL     OW43435   2.797   5.822   2.342
14470SOL    HW143436   2.749   5.863   2.264
14470SOL    HW243437   2.896   5.820   2.323
14471SOL     OW43438   2.938   6.269   3.326
14471SOL    HW143439   2.858   6.208   3.329
14471SOL    HW243440   3.019   6.216   3.302
14472SOL     OW43441   3.089   7.156   2.655
14472SOL    HW143442   3.110   7.230   2.590
14472SOL    HW243443   3.157   7.156   2.728
14473SOL     OW43444   2.321   6.738   2.603
14473SOL    HW143445   2.250   6.711   2.668
14473SOL    HW243446   2.295   6.710   2.510
14474SOL     OW43447   3.133   7.383   2.453
14474SOL    HW143448   3.177   7.447   2.389
14474SOL    HW243449   3.083   7.435   2.523
14475SOL     OW43450   2.894   6.135   1.878
14475SOL    HW143451   2.853   6.217   1.839
14475SOL    HW243452   2.958   6.161   1.951
14476SOL     OW43453   1.940   6.142   3.248
14476SOL    HW143454   2.032   6.141   3.207
14476SOL    HW243455   1.934   6.216   3.315
14477SOL     OW43456   2.423   5.808   3.009
14477SOL    HW143457   2.461   5.724   3.046
14477SOL    HW243458   2.335   5.827   3.053
14478SOL     OW43459   2.728   6.040   2.504
14478SOL    HW143460   2.696   6.112   2.442
14478SOL    HW243461   2.752   5.959   2.451
14479SOL     OW43462   2.879   5.625   2.615
14479SOL    HW143463   2.807   5.630   2.546
14479SOL    HW243464   2.855   5.556   2.684
14480SOL     OW43465   3.291   6.759   2.729
14480SOL    HW143466   3.236   6.675   2.722
14480SOL    HW243467   3.317   6.788   2.637
14481SOL     OW43468   3.328   6.176   2.854
14481SOL    HW143469   3.298   6.081   2.861
14481SOL    HW243470   3.401   6.192   2.920
14482SOL     OW43471   3.719   6.419   2.239
14482SOL    HW143472   3.761   6.355   2.303
14482SOL    HW243473   3.681   6.368   2.161
14483SOL     OW43474   2.350   6.971   2.036
14483SOL    HW143475   2.263   6.956   2.083
14483SOL    HW243476   2.333   6.997   1.941
14484SOL     OW43477   3.526   6.866   2.519
14484SOL    HW143478   3.625   6.874   2.533
14484SOL    HW243479   3.481   6.950   2.550
14485SOL     OW43480   3.252   6.161   1.940
14485SOL    HW143481   3.198   6.140   2.021
14485SOL    HW243482   3.343   6.120   1.949
14486SOL     OW43483   2.389   5.842   2.190
14486SOL    HW143484   2.416   5.783   2.115
14486SOL    HW243485   2.389   5.937   2.159
14487SOL     OW43486   3.616   6.809   3.450
14487SOL    HW143487   3.707   6.770   3.437
14487SOL    HW243488   3.624   6.905   3.474
14488SOL     OW43489   2.926   6.933   3.202
14488SOL    HW143490   2.846   6.910   3.257
14488SOL    HW243491   3.009   6.907   3.251
14489SOL     OW43492   3.454   7.215   3.487
14489SOL    HW143493   3.481   7.249   3.397
14489SOL    HW243494   3.533   7.177   3.533
14490SOL     OW43495   2.973   6.781   2.962
14490SOL    HW143496   2.933   6.825   3.043
14490SOL    HW243497   2.932   6.818   2.879
14491SOL     OW43498   3.500   6.685   2.941
14491SOL    HW143499   3.505   6.766   3.000
14491SOL    HW243500   3.414   6.687   2.890
14492SOL     OW43501   2.777   5.675   3.264
14492SOL    HW143502   2.802   5.655   3.169
14492SOL    HW243503   2.849   5.731   3.306
14493SOL     OW43504   2.842   6.702   3.581
14493SOL    HW143505   2.743   6.708   3.591
14493SOL    HW243506   2.865   6.622   3.525
14494SOL     OW43507   2.567   6.636   2.230
14494SOL    HW143508   2.553   6.643   2.329
14494SOL    HW243509   2.651   6.585   2.212
14495SOL     OW43510   2.272   6.399   3.113
14495SOL    HW143511   2.358   6.411   3.163
14495SOL    HW243512   2.230   6.312   3.140
14496SOL     OW43513   3.136   5.972   3.124
14496SOL    HW143514   3.157   6.046   3.188
14496SOL    HW243515   3.047   5.989   3.081
14497SOL     OW43516   1.926   7.150   3.193
14497SOL    HW143517   1.880   7.232   3.159
14497SOL    HW243518   2.024   7.169   3.202
14498SOL     OW43519   2.229   6.686   2.363
14498SOL    HW143520   2.222   6.769   2.307
14498SOL    HW243521   2.233   6.606   2.303
14499SOL     OW43522   2.428   6.123   2.727
14499SOL    HW143523   2.440   6.189   2.653
14499SOL    HW243524   2.474   6.157   2.810
14500SOL     OW43525   3.114   6.934   2.250
14500SOL    HW143526   3.164   7.011   2.290
14500SOL    HW243527   3.019   6.936   2.282
14501SOL     OW43528   3.134   7.031   3.004
14501SOL    HW143529   3.181   7.044   3.091
14501SOL    HW243530   3.068   6.957   3.013
14502SOL     OW43531   2.216   7.096   3.191
14502SOL    HW143532   2.195   7.052   3.104
14502SOL    HW243533   2.313   7.122   3.194
14503SOL     OW43534   2.264   6.337   3.460
14503SOL    HW143535   2.332   6.392   3.413
14503SOL    HW243536   2.304   6.249   3.487
14504SOL     OW43537   3.449   6.365   3.532
14504SOL    HW143538   3.357   6.403   3.527
14504SOL    HW243539   3.509   6.412   3.467
14505SOL     OW43540   2.875   5.691   3.632
14505SOL    HW143541   2.881   5.776   3.580
14505SOL    HW243542   2.907   5.615   3.575
14506SOL     OW43543   2.366   5.636   3.602
14506SOL    HW143544   2.324   5.579   3.532
14506SOL    HW243545   2.300   5.705   3.634
14507SOL     OW43546   2.435   6.456   2.891
14507SOL    HW143547   2.479   6.545   2.882
14507SOL    HW243548   2.372   6.456   2.968
14508SOL     OW43549   3.222   6.448   2.907
14508SOL    HW143550   3.147   6.448   2.841
14508SOL    HW243551   3.259   6.356   2.916
14509SOL     OW43552   3.071   6.111   2.137
14509SOL    HW143553   3.084   6.027   2.191
14509SOL    HW243554   3.042   6.185   2.197
14510SOL     OW43555   2.169   5.799   3.093
14510SOL    HW143556   2.146   5.836   3.183
14510SOL    HW243557   2.139   5.704   3.087
14511SOL     OW43558   1.899   6.896   3.144
14511SOL    HW143559   1.952   6.847   3.212
14511SOL    HW243560   1.921   6.994   3.149
14512SOL     OW43561   2.594   6.220   2.926
14512SOL    HW143562   2.653   6.194   2.850
14512SOL    HW243563   2.566   6.316   2.915
14513SOL     OW43564   3.590   6.521   3.716
14513SOL    HW143565   3.544   6.514   3.627
14513SOL    HW243566   3.528   6.565   3.782
14514SOL     OW43567   2.169   5.649   2.480
14514SOL    HW143568   2.158   5.743   2.513
14514SOL    HW243569   2.164   5.586   2.557
14515SOL     OW43570   3.484   5.953   2.236
14515SOL    HW143571   3.486   5.877   2.300
14515SOL    HW243572   3.436   6.030   2.276
14516SOL     OW43573   2.885   6.352   2.828
14516SOL    HW143574   2.900   6.373   2.924
14516SOL    HW243575   2.855   6.257   2.819
14517SOL     OW43576   2.842   7.159   3.562
14517SOL    HW143577   2.822   7.203   3.474
14517SOL    HW243578   2.881   7.068   3.546
14518SOL     OW43579   3.721   7.104   3.467
14518SOL    HW143580   3.735   7.131   3.372
14518SOL    HW243581   3.804   7.126   3.520
14519SOL     OW43582   2.212   6.484   3.666
14519SOL    HW143583   2.288   6.528   3.714
14519SOL    HW243584   2.247   6.437   3.584
14520SOL     OW43585   3.402   5.860   1.987
14520SOL    HW143586   3.341   5.785   2.010
14520SOL    HW243587   3.424   5.912   2.070
14521SOL     OW43588   3.165   6.424   1.904
14521SOL    HW143589   3.199   6.331   1.919
14521SOL    HW243590   3.183   6.451   1.809
14522SOL     OW43591   2.930   6.919   2.711
14522SOL    HW143592   2.937   6.835   2.656
14522SOL    HW243593   2.992   6.988   2.675
14523SOL     OW43594   2.181   6.396   2.811
14523SOL    HW143595   2.274   6.432   2.816
14523SOL    HW243596   2.175   6.311   2.863
14524SOL     OW43597   2.201   6.095   2.868
14524SOL    HW143598   2.149   6.012   2.851
14524SOL    HW243599   2.278   6.100   2.804
14525SOL     OW43600   3.000   5.966   3.540
14525SOL    HW143601   2.955   6.029   3.604
14525SOL    HW243602   3.093   5.997   3.523
14526SOL     OW43603   3.022   5.793   3.339
14526SOL    HW143604   3.022   5.857   3.416
14526SOL    HW243605   3.050   5.841   3.256
14527SOL     OW43606   1.870   6.912   2.062
14527SOL    HW143607   1.777   6.933   2.031
14527SOL    HW243608   1.880   6.813   2.075
14528SOL     OW43609   1.950   7.387   2.789
14528SOL    HW143610   1.908   7.301   2.762
14528SOL    HW243611   2.044   7.390   2.755
14529SOL     OW43612   2.366   7.154   2.772
14529SOL    HW143613   2.432   7.228   2.781
14529SOL    HW243614   2.410   7.075   2.730
14530SOL     OW43615   2.864   6.382   3.100
14530SOL    HW143616   2.905   6.350   3.186
14530SOL    HW243617   2.768   6.355   3.097
14531SOL     OW43618   1.902   6.130   2.976
14531SOL    HW143619   1.987   6.097   2.935
14531SOL    HW243620   1.915   6.145   3.074
14532SOL     OW43621   2.051   6.106   3.584
14532SOL    HW143622   2.110   6.066   3.514
14532SOL    HW243623   1.993   6.177   3.543
14533SOL     OW43624   3.231   6.536   3.522
14533SOL    HW143625   3.270   6.625   3.542
14533SOL    HW243626   3.241   6.516   3.425
14534SOL     OW43627   2.677   6.158   2.187
14534SOL    HW143628   2.684   6.069   2.141
14534SOL    HW243629   2.583   6.192   2.179
14535SOL     OW43630   3.519   6.190   3.068
14535SOL    HW143631   3.481   6.121   3.130
14535SOL    HW243632   3.601   6.154   3.024
14536SOL     OW43633   2.114   7.150   3.606
14536SOL    HW143634   2.084   7.207   3.682
14536SOL    HW243635   2.107   7.053   3.632
14537SOL     OW43636   2.533   6.050   3.131
14537SOL    HW143637   2.499   5.961   3.101
14537SOL    HW243638   2.559   6.104   3.051
14538SOL     OW43639   2.792   7.264   3.327
14538SOL    HW143640   2.768   7.246   3.232
14538SOL    HW243641   2.822   7.358   3.337
14539SOL     OW43642   2.335   6.086   2.053
14539SOL    HW143643   2.396   6.166   2.057
14539SOL    HW243644   2.240   6.117   2.060
14540SOL     OW43645   3.209   6.645   3.096
14540SOL    HW143646   3.233   6.582   3.022
14540SOL    HW243647   3.119   6.685   3.078
14541SOL     OW43648   3.164   6.441   2.171
14541SOL    HW143649   3.078   6.410   2.213
14541SOL    HW243650   3.160   6.427   2.072
14542SOL     OW43651   3.621   7.333   3.016
14542SOL    HW143652   3.682   7.363   2.943
14542SOL    HW243653   3.583   7.244   2.994
14543SOL     OW43654   3.114   7.317   2.990
14543SOL    HW143655   3.198   7.322   2.936
14543SOL    HW243656   3.091   7.221   3.008
14544SOL     OW43657   1.945   6.844   2.884
14544SOL    HW143658   1.940   6.843   2.984
14544SOL    HW243659   1.862   6.803   2.846
14545SOL     OW43660   2.550   7.248   3.578
14545SOL    HW143661   2.494   7.329   3.587
14545SOL    HW243662   2.602   7.252   3.492
14546SOL     OW43663   3.588   5.721   2.385
14546SOL    HW143664   3.661   5.704   2.318
14546SOL    HW243665   3.557   5.634   2.423
14547SOL     OW43666   3.250   7.159   2.339
14547SOL    HW143667   3.317   7.171   2.265
14547SOL    HW243668   3.210   7.248   2.362
14548SOL     OW43669   1.992   7.380   3.713
14548SOL    HW143670   1.951   7.306   3.766
14548SOL    HW243671   2.056   7.431   3.771
14549SOL     OW43672   3.142   6.513   2.534
14549SOL    HW143673   3.202   6.432   2.536
14549SOL    HW243674   3.182   6.582   2.474
14550SOL     OW43675   2.692   6.859   3.284
14550SOL    HW143676   2.687   6.892   3.379
14550SOL    HW243677   2.606   6.878   3.238
14551SOL     OW43678   2.534   7.202   2.016
14551SOL    HW143679   2.543   7.212   1.917
14551SOL    HW243680   2.494   7.113   2.037
14552SOL     OW43681   3.512   7.306   3.256
14552SOL    HW143682   3.565   7.316   3.172
14552SOL    HW243683   3.485   7.396   3.290
14553SOL     OW43684   3.703   5.761   2.825
14553SOL    HW143685   3.742   5.676   2.789
14553SOL    HW243686   3.605   5.763   2.806
14554SOL     OW43687   2.125   5.912   2.582
14554SOL    HW143688   2.046   5.963   2.548
14554SOL    HW243689   2.116   5.897   2.680
14555SOL     OW43690   3.056   7.198   1.893
14555SOL    HW143691   3.062   7.105   1.930
14555SOL    HW243692   2.997   7.198   1.813
14556SOL     OW43693   2.684   6.588   3.234
14556SOL    HW143694   2.724   6.587   3.142
14556SOL    HW243695   2.694   6.680   3.274
14557SOL     OW43696   2.778   6.496   2.153
14557SOL    HW143697   2.841   6.534   2.085
14557SOL    HW243698   2.818   6.413   2.192
14558SOL     OW43699   3.366   7.193   1.906
14558SOL    HW143700   3.274   7.230   1.913
14558SOL    HW243701   3.404   7.213   1.816
14559SOL     OW43702   2.234   6.874   3.352
14559SOL    HW143703   2.221   6.967   3.318
14559SOL    HW243704   2.150   6.822   3.339
14560SOL     OW43705   3.476   6.878   3.151
14560SOL    HW143706   3.536   6.881   3.231
14560SOL    HW243707   3.401   6.942   3.164
14561SOL     OW43708   2.901   6.684   2.558
14561SOL    HW143709   2.831   6.637   2.612
14561SOL    HW243710   2.960   6.616   2.515
14562SOL     OW43711   2.876   5.822   2.833
14562SOL    HW143712   2.868   5.786   2.740
14562SOL    HW243713   2.874   5.746   2.898
14563SOL     OW43714   2.452   7.073   2.353
14563SOL    HW143715   2.494   7.015   2.283
14563SOL    HW243716   2.408   7.152   2.309
14564SOL     OW43717   3.571   5.971   3.243
14564SOL    HW143718   3.644   6.040   3.247
14564SOL    HW243719   3.599   5.896   3.184
14565SOL     OW43720   2.117   6.934   2.152
14565SOL    HW143721   2.021   6.935   2.125
14565SOL    HW243722   2.129   6.987   2.236
14566SOL     OW43723   1.967   6.599   3.588
14566SOL    HW143724   1.890   6.566   3.642
14566SOL    HW243725   2.052   6.569   3.630
14567SOL     OW43726   2.534   5.789   3.351
14567SOL    HW143727   2.624   5.773   3.311
14567SOL    HW243728   2.542   5.794   3.450
14568SOL     OW43729   1.937   5.931   1.895
14568SOL    HW143730   1.845   5.903   1.866
14568SOL    HW243731   1.968   6.008   1.839
14569SOL     OW43732   3.302   6.442   3.260
14569SOL    HW143733   3.245   6.494   3.197
14569SOL    HW243734   3.398   6.454   3.236
14570SOL     OW43735   1.934   5.752   2.180
14570SOL    HW143736   1.917   5.835   2.126
14570SOL    HW243737   2.024   5.715   2.158
14571SOL     OW43738   3.045   6.921   1.981
14571SOL    HW143739   2.946   6.910   1.983
14571SOL    HW243740   3.079   6.936   2.074
14572SOL     OW43741   2.475   6.428   3.293
14572SOL    HW143742   2.531   6.509   3.276
14572SOL    HW243743   2.534   6.348   3.296
14573SOL     OW43744   3.355   7.353   2.821
14573SOL    HW143745   3.388   7.417   2.752
14573SOL    HW243746   3.421   7.347   2.896
14574SOL     OW43747   2.578   6.151   3.570
14574SOL    HW143748   2.597   6.216   3.644
14574SOL    HW243749   2.638   6.071   3.579
14575SOL     OW43750   3.312   6.806   3.495
14575SOL    HW143751   3.303   6.796   3.594
14575SOL    HW243752   3.408   6.799   3.469
14576SOL     OW43753   2.252   7.327   3.422
14576SOL    HW143754   2.161   7.368   3.420
14576SOL    HW243755   2.245   7.233   3.454
14577SOL     OW43756   3.536   6.469   3.116
14577SOL    HW143757   3.509   6.380   3.079
14577SOL    HW243758   3.537   6.537   3.043
14578SOL     OW43759   3.087   5.911   2.311
14578SOL    HW143760   3.152   5.837   2.300
14578SOL    HW243761   3.107   5.961   2.395
14579SOL     OW43762   2.456   6.331   2.514
14579SOL    HW143763   2.506   6.416   2.495
14579SOL    HW243764   2.368   6.333   2.466
14580SOL     OW43765   3.639   5.928   3.504
14580SOL    HW143766   3.622   5.959   3.410
14580SOL    HW243767   3.555   5.891   3.542
14581SOL     OW43768   3.592   6.520   3.379
14581SOL    HW143769   3.630   6.611   3.394
14581SOL    HW243770   3.584   6.503   3.280
14582SOL     OW43771   2.721   6.960   1.878
14582SOL    HW143772   2.675   6.975   1.966
14582SOL    HW243773   2.765   7.045   1.848
14583SOL     OW43774   2.523   7.376   2.815
14583SOL    HW143775   2.477   7.464   2.802
14583SOL    HW243776   2.622   7.388   2.808
14584SOL     OW43777   2.721   6.542   2.723
14584SOL    HW143778   2.775   6.473   2.771
14584SOL    HW243779   2.689   6.611   2.789
14585SOL     OW43780   2.945   6.570   1.949
14585SOL    HW143781   2.922   6.623   1.867
14585SOL    HW243782   3.026   6.514   1.930
14586SOL     OW43783   3.723   7.155   2.713
14586SOL    HW143784   3.652   7.143   2.643
14586SOL    HW243785   3.724   7.076   2.773
14587SOL     OW43786   2.083   6.900   3.706
14587SOL    HW143787   2.018   6.827   3.685
14587SOL    HW243788   2.087   6.914   3.804
14588SOL     OW43789   1.941   6.826   2.515
14588SOL    HW143790   1.940   6.779   2.603
14588SOL    HW243791   2.023   6.798   2.464
14589SOL     OW43792   2.534   6.977   3.486
14589SOL    HW143793   2.456   6.927   3.524
14589SOL    HW243794   2.531   7.072   3.517
14590SOL     OW43795   3.686   5.778   3.089
14590SOL    HW143796   3.682   5.688   3.133
14590SOL    HW243797   3.689   5.767   2.990
14591SOL     OW43798   2.290   6.010   2.382
14591SOL    HW143799   2.320   5.938   2.320
14591SOL    HW243800   2.251   5.970   2.465
14592SOL     OW43801   3.567   7.073   2.966
14592SOL    HW143802   3.474   7.048   2.939
14592SOL    HW243803   3.593   7.023   3.048
14593SOL     OW43804   2.179   6.133   3.142
14593SOL    HW143805   2.217   6.074   3.214
14593SOL    HW243806   2.219   6.107   3.054
14594SOL     OW43807   2.674   7.172   2.549
14594SOL    HW143808   2.706   7.182   2.455
14594SOL    HW243809   2.595   7.110   2.551
14595SOL     OW43810   3.286   5.800   2.974
14595SOL    HW143811   3.338   5.735   3.029
14595SOL    HW243812   3.237   5.863   3.035
14596SOL     OW43813   2.863   5.620   3.016
14596SOL    HW143814   2.800   5.548   2.985
14596SOL    HW243815   2.956   5.584   3.016
14597SOL     OW43816   2.632   6.916   2.163
14597SOL    HW143817   2.586   6.829   2.180
14597SOL    HW243818   2.723   6.913   2.204
14598SOL     OW43819   2.480   7.153   3.146
14598SOL    HW143820   2.475   7.235   3.203
14598SOL    HW243821   2.569   7.150   3.101
14599SOL     OW43822   3.214   5.638   2.030
14599SOL    HW143823   3.249   5.597   1.946
14599SOL    HW243824   3.124   5.600   2.050
14600SOL     OW43825   3.162   6.039   2.553
14600SOL    HW143826   3.103   6.119   2.557
14600SOL    HW243827   3.177   6.004   2.646
14601SOL     OW43828   3.455   5.807   2.744
14601SOL    HW143829   3.371   5.806   2.798
14601SOL    HW243830   3.457   5.890   2.688
14602SOL     OW43831   1.901   6.663   2.162
14602SOL    HW143832   2.000   6.652   2.153
14602SOL    HW243833   1.861   6.577   2.194
14603SOL     OW43834   2.737   7.232   2.199
14603SOL    HW143835   2.660   7.197   2.145
14603SOL    HW243836   2.705   7.303   2.261
14604SOL     OW43837   2.092   6.214   3.837
14604SOL    HW143838   1.999   6.212   3.874
14604SOL    HW243839   2.093   6.175   3.745
14605SOL     OW43840   2.087   5.861   4.720
14605SOL    HW143841   2.122   5.844   4.812
14605SOL    HW243842   1.999   5.816   4.708
14606SOL     OW43843   1.881   5.954   4.371
14606SOL    HW143844   1.799   5.997   4.410
14606SOL    HW243845   1.853   5.881   4.308
14607SOL     OW43846   2.431   6.861   4.889
14607SOL    HW143847   2.338   6.854   4.852
14607SOL    HW243848   2.442   6.950   4.933
14608SOL     OW43849   3.417   7.097   4.427
14608SOL    HW143850   3.360   7.081   4.508
14608SOL    HW243851   3.358   7.107   4.347
14609SOL     OW43852   2.997   6.289   4.441
14609SOL    HW143853   3.054   6.367   4.416
14609SOL    HW243854   2.937   6.315   4.517
14610SOL     OW43855   3.617   6.193   3.955
14610SOL    HW143856   3.605   6.180   3.856
14610SOL    HW243857   3.587   6.112   4.004
14611SOL     OW43858   2.630   6.730   4.747
14611SOL    HW143859   2.552   6.747   4.807
14611SOL    HW243860   2.664   6.817   4.711
14612SOL     OW43861   2.712   6.384   5.547
14612SOL    HW143862   2.708   6.460   5.612
14612SOL    HW243863   2.734   6.420   5.456
14613SOL     OW43864   2.547   6.598   4.389
14613SOL    HW143865   2.616   6.582   4.459
14613SOL    HW243866   2.474   6.655   4.427
14614SOL     OW43867   2.548   6.747   5.527
14614SOL    HW143868   2.608   6.826   5.541
14614SOL    HW243869   2.462   6.778   5.486
14615SOL     OW43870   2.197   7.021   4.785
14615SOL    HW143871   2.119   6.990   4.732
14615SOL    HW243872   2.255   7.079   4.728
14616SOL     OW43873   3.322   7.091   5.063
14616SOL    HW143874   3.346   7.185   5.089
14616SOL    HW243875   3.306   7.037   5.145
14617SOL     OW43876   2.300   5.978   5.223
14617SOL    HW143877   2.382   5.922   5.232
14617SOL    HW243878   2.219   5.920   5.227
14618SOL     OW43879   2.093   7.299   4.207
14618SOL    HW143880   2.127   7.376   4.261
14618SOL    HW243881   2.137   7.299   4.117
14619SOL     OW43882   2.989   6.927   5.414
14619SOL    HW143883   3.036   6.927   5.502
14619SOL    HW243884   2.941   6.840   5.403
14620SOL     OW43885   2.092   7.020   4.262
14620SOL    HW143886   2.066   7.116   4.262
14620SOL    HW243887   2.021   6.966   4.307
14621SOL     OW43888   2.102   6.677   4.610
14621SOL    HW143889   2.116   6.593   4.662
14621SOL    HW243890   2.047   6.741   4.665
14622SOL     OW43891   2.482   7.372   5.163
14622SOL    HW143892   2.390   7.355   5.198
14622SOL    HW243893   2.510   7.464   5.189
14623SOL     OW43894   2.468   6.550   3.847
14623SOL    HW143895   2.475   6.634   3.793
14623SOL    HW243896   2.514   6.563   3.935
14624SOL     OW43897   3.456   5.700   5.204
14624SOL    HW143898   3.438   5.767   5.132
14624SOL    HW243899   3.453   5.746   5.293
14625SOL     OW43900   1.984   6.229   4.287
14625SOL    HW143901   1.939   6.141   4.304
14625SOL    HW243902   1.983   6.283   4.371
14626SOL     OW43903   3.704   7.353   4.083
14626SOL    HW143904   3.758   7.324   4.163
14626SOL    HW243905   3.734   7.443   4.054
14627SOL     OW43906   1.889   7.182   3.841
14627SOL    HW143907   1.870   7.086   3.862
14627SOL    HW243908   1.856   7.240   3.916
14628SOL     OW43909   3.551   6.508   4.336
14628SOL    HW143910   3.646   6.479   4.344
14628SOL    HW243911   3.543   6.573   4.261
14629SOL     OW43912   3.503   6.694   4.156
14629SOL    HW143913   3.589   6.696   4.104
14629SOL    HW243914   3.517   6.741   4.244
14630SOL     OW43915   1.975   6.323   5.321
14630SOL    HW143916   2.063   6.310   5.366
14630SOL    HW243917   1.962   6.420   5.299
14631SOL     OW43918   2.475   6.951   4.450
14631SOL    HW143919   2.426   6.864   4.459
14631SOL    HW243920   2.452   6.994   4.363
14632SOL     OW43921   3.155   6.814   5.147
14632SOL    HW143922   3.192   6.741   5.089
14632SOL    HW243923   3.207   6.819   5.232
14633SOL     OW43924   2.671   5.590   4.226
14633SOL    HW143925   2.711   5.681   4.217
14633SOL    HW243926   2.571   5.598   4.232
14634SOL     OW43927   2.059   6.562   4.988
14634SOL    HW143928   2.148   6.517   4.974
14634SOL    HW243929   1.986   6.497   4.969
14635SOL     OW43930   3.387   6.585   3.914
14635SOL    HW143931   3.324   6.509   3.927
14635SOL    HW243932   3.435   6.603   4.000
14636SOL     OW43933   3.049   7.378   5.340
14636SOL    HW143934   3.073   7.438   5.264
14636SOL    HW243935   3.056   7.283   5.310
14637SOL     OW43936   2.179   5.837   5.525
14637SOL    HW143937   2.250   5.908   5.531
14637SOL    HW243938   2.091   5.876   5.553
14638SOL     OW43939   3.328   7.003   4.677
14638SOL    HW143940   3.269   7.009   4.757
14638SOL    HW243941   3.313   6.915   4.631
14639SOL     OW43942   3.529   7.300   4.296
14639SOL    HW143943   3.488   7.277   4.208
14639SOL    HW243944   3.511   7.226   4.361
14640SOL     OW43945   2.460   6.315   3.994
14640SOL    HW143946   2.484   6.384   3.926
14640SOL    HW243947   2.382   6.348   4.048
14641SOL     OW43948   3.143   5.931   4.668
14641SOL    HW143949   3.057   5.881   4.655
14641SOL    HW243950   3.205   5.877   4.724
14642SOL     OW43951   3.438   7.248   4.031
14642SOL    HW143952   3.527   7.294   4.034
14642SOL    HW243953   3.417   7.224   3.936
14643SOL     OW43954   2.669   6.191   5.189
14643SOL    HW143955   2.622   6.188   5.278
14643SOL    HW243956   2.618   6.136   5.123
14644SOL     OW43957   3.256   6.055   5.398
14644SOL    HW143958   3.236   6.098   5.486
14644SOL    HW243959   3.334   5.993   5.407
14645SOL     OW43960   2.835   6.476   5.296
14645SOL    HW143961   2.881   6.392   5.267
14645SOL    HW243962   2.779   6.510   5.221
14646SOL     OW43963   2.853   5.996   4.966
14646SOL    HW143964   2.776   6.030   5.020
14646SOL    HW243965   2.819   5.945   4.887
14647SOL     OW43966   2.903   6.287   4.153
14647SOL    HW143967   2.929   6.283   4.249
14647SOL    HW243968   2.818   6.236   4.139
14648SOL     OW43969   1.938   6.397   4.513
14648SOL    HW143970   2.037   6.385   4.522
14648SOL    HW243971   1.914   6.492   4.534
14649SOL     OW43972   1.992   7.407   5.295
14649SOL    HW143973   1.982   7.392   5.394
14649SOL    HW243974   1.906   7.443   5.259
14650SOL     OW43975   2.727   5.934   3.919
14650SOL    HW143976   2.786   5.997   3.870
14650SOL    HW243977   2.746   5.840   3.890
14651SOL     OW43978   3.581   6.171   5.555
14651SOL    HW143979   3.555   6.260   5.519
14651SOL    HW243980   3.579   6.103   5.482
14652SOL     OW43981   3.224   6.730   4.269
14652SOL    HW143982   3.307   6.701   4.221
14652SOL    HW243983   3.175   6.797   4.213
14653SOL     OW43984   2.412   5.782   4.609
14653SOL    HW143985   2.407   5.777   4.709
14653SOL    HW243986   2.414   5.878   4.580
14654SOL     OW43987   2.870   7.042   4.201
14654SOL    HW143988   2.824   7.114   4.149
14654SOL    HW243989   2.866   7.062   4.299
14655SOL     OW43990   2.213   7.387   4.577
14655SOL    HW143991   2.263   7.301   4.583
14655SOL    HW243992   2.278   7.464   4.574
14656SOL     OW43993   3.657   6.652   4.597
14656SOL    HW143994   3.595   6.637   4.521
14656SOL    HW243995   3.605   6.663   4.682
14657SOL     OW43996   3.089   7.136   5.230
14657SOL    HW143997   3.095   7.059   5.294
14657SOL    HW243998   3.037   7.110   5.150
14658SOL     OW43999   2.183   6.529   3.966
14658SOL    HW144000   2.265   6.568   3.924
14658SOL    HW244001   2.156   6.447   3.917
14659SOL     OW44002   3.320   6.321   4.452
14659SOL    HW144003   3.315   6.256   4.527
14659SOL    HW244004   3.400   6.380   4.465
14660SOL     OW44005   2.323   6.852   5.451
14660SOL    HW144006   2.273   6.853   5.365
14660SOL    HW244007   2.260   6.834   5.527
14661SOL     OW44008   2.973   7.362   3.961
14661SOL    HW144009   2.913   7.300   4.011
14661SOL    HW244010   3.004   7.318   3.876
14662SOL     OW44011   2.064   5.871   5.222
14662SOL    HW144012   1.984   5.931   5.209
14662SOL    HW244013   2.054   5.822   5.308
14663SOL     OW44014   3.494   6.963   3.805
14663SOL    HW144015   3.462   7.057   3.795
14663SOL    HW244016   3.418   6.900   3.793
14664SOL     OW44017   2.326   7.329   4.047
14664SOL    HW144018   2.359   7.368   4.133
14664SOL    HW244019   2.402   7.322   3.982
14665SOL     OW44020   3.262   5.693   4.150
14665SOL    HW144021   3.238   5.656   4.060
14665SOL    HW244022   3.361   5.709   4.154
14666SOL     OW44023   2.111   7.371   4.965
14666SOL    HW144024   2.168   7.306   5.015
14666SOL    HW244025   2.095   7.338   4.872
14667SOL     OW44026   2.802   7.284   4.628
14667SOL    HW144027   2.882   7.227   4.649
14667SOL    HW244028   2.753   7.244   4.551
14668SOL     OW44029   2.244   6.286   4.204
14668SOL    HW144030   2.289   6.196   4.201
14668SOL    HW244031   2.150   6.275   4.237
14669SOL     OW44032   3.409   5.808   5.453
14669SOL    HW144033   3.404   5.845   5.545
14669SOL    HW244034   3.337   5.739   5.441
14670SOL     OW44035   2.476   5.708   3.841
14670SOL    HW144036   2.574   5.686   3.848
14670SOL    HW244037   2.445   5.691   3.748
14671SOL     OW44038   2.643   5.850   5.473
14671SOL    HW144039   2.710   5.789   5.516
14671SOL    HW244040   2.570   5.869   5.538
14672SOL     OW44041   2.750   7.100   4.919
14672SOL    HW144042   2.727   7.075   4.825
14672SOL    HW244043   2.811   7.031   4.958
14673SOL     OW44044   3.213   6.176   5.157
14673SOL    HW144045   3.241   6.133   5.242
14673SOL    HW244046   3.238   6.272   5.158
14674SOL     OW44047   2.665   6.988   4.648
14674SOL    HW144048   2.755   7.002   4.606
14674SOL    HW244049   2.594   6.990   4.577
14675SOL     OW44050   2.784   6.089   4.623
14675SOL    HW144051   2.759   6.080   4.527
14675SOL    HW244052   2.832   6.007   4.654
14676SOL     OW44053   2.401   5.650   4.236
14676SOL    HW144054   2.320   5.651   4.294
14676SOL    HW244055   2.404   5.733   4.181
14677SOL     OW44056   3.296   6.774   3.765
14677SOL    HW144057   3.328   6.698   3.822
14677SOL    HW244058   3.204   6.801   3.795
14678SOL     OW44059   2.159   5.621   3.895
14678SOL    HW144060   2.208   5.705   3.874
14678SOL    HW244061   2.221   5.556   3.940
14679SOL     OW44062   2.797   5.822   4.204
14679SOL    HW144063   2.749   5.863   4.126
14679SOL    HW244064   2.896   5.820   4.185
14680SOL     OW44065   2.938   6.269   5.188
14680SOL    HW144066   2.858   6.208   5.191
14680SOL    HW244067   3.019   6.216   5.164
14681SOL     OW44068   3.089   7.156   4.517
14681SOL    HW144069   3.110   7.230   4.452
14681SOL    HW244070   3.157   7.156   4.590
14682SOL     OW44071   2.321   6.738   4.465
14682SOL    HW144072   2.250   6.711   4.530
14682SOL    HW244073   2.295   6.710   4.372
14683SOL     OW44074   3.133   7.383   4.315
14683SOL    HW144075   3.177   7.447   4.251
14683SOL    HW244076   3.083   7.435   4.385
14684SOL     OW44077   2.894   6.135   3.740
14684SOL    HW144078   2.853   6.217   3.701
14684SOL    HW244079   2.958   6.161   3.813
14685SOL     OW44080   1.940   6.142   5.110
14685SOL    HW144081   2.032   6.141   5.069
14685SOL    HW244082   1.934   6.216   5.177
14686SOL     OW44083   2.423   5.808   4.871
14686SOL    HW144084   2.461   5.724   4.908
14686SOL    HW244085   2.335   5.827   4.915
14687SOL     OW44086   2.728   6.040   4.366
14687SOL    HW144087   2.696   6.112   4.304
14687SOL    HW244088   2.752   5.959   4.313
14688SOL     OW44089   2.879   5.625   4.477
14688SOL    HW144090   2.807   5.630   4.408
14688SOL    HW244091   2.855   5.556   4.546
14689SOL     OW44092   3.291   6.759   4.591
14689SOL    HW144093   3.236   6.675   4.584
14689SOL    HW244094   3.317   6.788   4.499
14690SOL     OW44095   3.328   6.176   4.716
14690SOL    HW144096   3.298   6.081   4.723
14690SOL    HW244097   3.401   6.192   4.782
14691SOL     OW44098   3.719   6.419   4.101
14691SOL    HW144099   3.761   6.355   4.165
14691SOL    HW244100   3.681   6.368   4.023
14692SOL     OW44101   2.350   6.971   3.898
14692SOL    HW144102   2.263   6.956   3.945
14692SOL    HW244103   2.333   6.997   3.803
14693SOL     OW44104   3.526   6.866   4.381
14693SOL    HW144105   3.625   6.874   4.395
14693SOL    HW244106   3.481   6.950   4.412
14694SOL     OW44107   3.252   6.161   3.802
14694SOL    HW144108   3.198   6.140   3.883
14694SOL    HW244109   3.343   6.120   3.811
14695SOL     OW44110   2.389   5.842   4.052
14695SOL    HW144111   2.416   5.783   3.977
14695SOL    HW244112   2.389   5.937   4.021
14696SOL     OW44113   3.616   6.809   5.312
14696SOL    HW144114   3.707   6.770   5.299
14696SOL    HW244115   3.624   6.905   5.336
14697SOL     OW44116   2.926   6.933   5.064
14697SOL    HW144117   2.846   6.910   5.119
14697SOL    HW244118   3.009   6.907   5.113
14698SOL     OW44119   3.454   7.215   5.349
14698SOL    HW144120   3.481   7.249   5.259
14698SOL    HW244121   3.533   7.177   5.395
14699SOL     OW44122   2.973   6.781   4.824
14699SOL    HW144123   2.933   6.825   4.905
14699SOL    HW244124   2.932   6.818   4.741
14700SOL     OW44125   3.500   6.685   4.803
14700SOL    HW144126   3.505   6.766   4.862
14700SOL    HW244127   3.414   6.687   4.752
14701SOL     OW44128   2.777   5.675   5.126
14701SOL    HW144129   2.802   5.655   5.031
14701SOL    HW244130   2.849   5.731   5.168
14702SOL     OW44131   2.842   6.702   5.443
14702SOL    HW144132   2.743   6.708   5.453
14702SOL    HW244133   2.865   6.622   5.387
14703SOL     OW44134   2.567   6.636   4.092
14703SOL    HW144135   2.553   6.643   4.191
14703SOL    HW244136   2.651   6.585   4.074
14704SOL     OW44137   2.272   6.399   4.975
14704SOL    HW144138   2.358   6.411   5.025
14704SOL    HW244139   2.230   6.312   5.002
14705SOL     OW44140   3.136   5.972   4.986
14705SOL    HW144141   3.157   6.046   5.050
14705SOL    HW244142   3.047   5.989   4.943
14706SOL     OW44143   1.926   7.150   5.055
14706SOL    HW144144   1.880   7.232   5.021
14706SOL    HW244145   2.024   7.169   5.064
14707SOL     OW44146   2.229   6.686   4.225
14707SOL    HW144147   2.222   6.769   4.169
14707SOL    HW244148   2.233   6.606   4.165
14708SOL     OW44149   2.428   6.123   4.589
14708SOL    HW144150   2.440   6.189   4.515
14708SOL    HW244151   2.474   6.157   4.672
14709SOL     OW44152   3.114   6.934   4.112
14709SOL    HW144153   3.164   7.011   4.152
14709SOL    HW244154   3.019   6.936   4.144
14710SOL     OW44155   3.134   7.031   4.866
14710SOL    HW144156   3.181   7.044   4.953
14710SOL    HW244157   3.068   6.957   4.875
14711SOL     OW44158   3.444   6.225   4.196
14711SOL    HW144159   3.413   6.286   4.269
14711SOL    HW244160   3.494   6.277   4.127
14712SOL     OW44161   2.216   7.096   5.053
14712SOL    HW144162   2.195   7.052   4.966
14712SOL    HW244163   2.313   7.122   5.056
14713SOL     OW44164   2.264   6.337   5.322
14713SOL    HW144165   2.332   6.392   5.275
14713SOL    HW244166   2.304   6.249   5.349
14714SOL     OW44167   3.449   6.365   5.394
14714SOL    HW144168   3.357   6.403   5.389
14714SOL    HW244169   3.509   6.412   5.329
14715SOL     OW44170   2.875   5.691   5.494
14715SOL    HW144171   2.881   5.776   5.442
14715SOL    HW244172   2.907   5.615   5.437
14716SOL     OW44173   2.366   5.636   5.464
14716SOL    HW144174   2.324   5.579   5.394
14716SOL    HW244175   2.300   5.705   5.496
14717SOL     OW44176   2.435   6.456   4.753
14717SOL    HW144177   2.479   6.545   4.744
14717SOL    HW244178   2.372   6.456   4.830
14718SOL     OW44179   3.222   6.448   4.769
14718SOL    HW144180   3.147   6.448   4.703
14718SOL    HW244181   3.259   6.356   4.778
14719SOL     OW44182   3.071   6.111   3.999
14719SOL    HW144183   3.084   6.027   4.053
14719SOL    HW244184   3.042   6.185   4.059
14720SOL     OW44185   2.169   5.799   4.955
14720SOL    HW144186   2.146   5.836   5.045
14720SOL    HW244187   2.139   5.704   4.949
14721SOL     OW44188   1.899   6.896   5.006
14721SOL    HW144189   1.952   6.847   5.074
14721SOL    HW244190   1.921   6.994   5.011
14722SOL     OW44191   2.594   6.220   4.788
14722SOL    HW144192   2.653   6.194   4.712
14722SOL    HW244193   2.566   6.316   4.777
14723SOL     OW44194   3.590   6.521   5.578
14723SOL    HW144195   3.544   6.514   5.489
14723SOL    HW244196   3.528   6.565   5.644
14724SOL     OW44197   2.169   5.649   4.342
14724SOL    HW144198   2.158   5.743   4.375
14724SOL    HW244199   2.164   5.586   4.419
14725SOL     OW44200   3.484   5.953   4.098
14725SOL    HW144201   3.486   5.877   4.162
14725SOL    HW244202   3.436   6.030   4.138
14726SOL     OW44203   2.885   6.352   4.690
14726SOL    HW144204   2.900   6.373   4.786
14726SOL    HW244205   2.855   6.257   4.681
14727SOL     OW44206   2.842   7.159   5.424
14727SOL    HW144207   2.822   7.203   5.336
14727SOL    HW244208   2.881   7.068   5.408
14728SOL     OW44209   3.721   7.104   5.329
14728SOL    HW144210   3.735   7.131   5.234
14728SOL    HW244211   3.804   7.126   5.382
14729SOL     OW44212   2.212   6.484   5.528
14729SOL    HW144213   2.288   6.528   5.576
14729SOL    HW244214   2.247   6.437   5.446
14730SOL     OW44215   3.402   5.860   3.849
14730SOL    HW144216   3.341   5.785   3.872
14730SOL    HW244217   3.424   5.912   3.932
14731SOL     OW44218   3.165   6.424   3.766
14731SOL    HW144219   3.199   6.331   3.781
14731SOL    HW244220   3.183   6.451   3.671
14732SOL     OW44221   2.930   6.919   4.573
14732SOL    HW144222   2.937   6.835   4.518
14732SOL    HW244223   2.992   6.988   4.537
14733SOL     OW44224   2.181   6.396   4.673
14733SOL    HW144225   2.274   6.432   4.678
14733SOL    HW244226   2.175   6.311   4.725
14734SOL     OW44227   2.201   6.095   4.730
14734SOL    HW144228   2.149   6.012   4.713
14734SOL    HW244229   2.278   6.100   4.666
14735SOL     OW44230   3.000   5.966   5.402
14735SOL    HW144231   2.955   6.029   5.466
14735SOL    HW244232   3.093   5.997   5.385
14736SOL     OW44233   3.022   5.793   5.201
14736SOL    HW144234   3.022   5.857   5.278
14736SOL    HW244235   3.050   5.841   5.118
14737SOL     OW44236   1.870   6.912   3.924
14737SOL    HW144237   1.777   6.933   3.893
14737SOL    HW244238   1.880   6.813   3.937
14738SOL     OW44239   1.950   7.387   4.651
14738SOL    HW144240   1.908   7.301   4.624
14738SOL    HW244241   2.044   7.390   4.617
14739SOL     OW44242   2.864   6.382   4.962
14739SOL    HW144243   2.905   6.350   5.048
14739SOL    HW244244   2.768   6.355   4.959
14740SOL     OW44245   1.902   6.130   4.838
14740SOL    HW144246   1.987   6.097   4.797
14740SOL    HW244247   1.915   6.145   4.936
14741SOL     OW44248   2.051   6.106   5.446
14741SOL    HW144249   2.110   6.066   5.376
14741SOL    HW244250   1.993   6.177   5.405
14742SOL     OW44251   3.231   6.536   5.384
14742SOL    HW144252   3.270   6.625   5.404
14742SOL    HW244253   3.241   6.516   5.287
14743SOL     OW44254   2.677   6.158   4.049
14743SOL    HW144255   2.684   6.069   4.003
14743SOL    HW244256   2.583   6.192   4.041
14744SOL     OW44257   3.519   6.190   4.930
14744SOL    HW144258   3.481   6.121   4.992
14744SOL    HW244259   3.601   6.154   4.886
14745SOL     OW44260   2.114   7.150   5.468
14745SOL    HW144261   2.084   7.207   5.544
14745SOL    HW244262   2.107   7.053   5.494
14746SOL     OW44263   2.533   6.050   4.993
14746SOL    HW144264   2.499   5.961   4.963
14746SOL    HW244265   2.559   6.104   4.913
14747SOL     OW44266   2.792   7.264   5.189
14747SOL    HW144267   2.768   7.246   5.094
14747SOL    HW244268   2.822   7.358   5.199
14748SOL     OW44269   2.335   6.086   3.915
14748SOL    HW144270   2.396   6.166   3.919
14748SOL    HW244271   2.240   6.117   3.922
14749SOL     OW44272   2.021   6.723   5.190
14749SOL    HW144273   2.043   6.662   5.266
14749SOL    HW244274   2.031   6.674   5.104
14750SOL     OW44275   3.209   6.645   4.958
14750SOL    HW144276   3.233   6.582   4.884
14750SOL    HW244277   3.119   6.685   4.940
14751SOL     OW44278   3.164   6.441   4.033
14751SOL    HW144279   3.078   6.410   4.075
14751SOL    HW244280   3.160   6.427   3.934
14752SOL     OW44281   3.621   7.333   4.878
14752SOL    HW144282   3.682   7.363   4.805
14752SOL    HW244283   3.583   7.244   4.856
14753SOL     OW44284   3.114   7.317   4.852
14753SOL    HW144285   3.198   7.322   4.798
14753SOL    HW244286   3.091   7.221   4.870
14754SOL     OW44287   1.945   6.844   4.746
14754SOL    HW144288   1.940   6.843   4.846
14754SOL    HW244289   1.862   6.803   4.708
14755SOL     OW44290   2.550   7.248   5.440
14755SOL    HW144291   2.494   7.329   5.449
14755SOL    HW244292   2.602   7.252   5.354
14756SOL     OW44293   3.588   5.721   4.247
14756SOL    HW144294   3.661   5.704   4.180
14756SOL    HW244295   3.557   5.634   4.285
14757SOL     OW44296   3.250   7.159   4.201
14757SOL    HW144297   3.317   7.171   4.127
14757SOL    HW244298   3.210   7.248   4.224
14758SOL     OW44299   1.992   7.380   5.575
14758SOL    HW144300   1.951   7.306   5.628
14758SOL    HW244301   2.056   7.431   5.633
14759SOL     OW44302   3.142   6.513   4.396
14759SOL    HW144303   3.202   6.432   4.398
14759SOL    HW244304   3.182   6.582   4.336
14760SOL     OW44305   2.692   6.859   5.146
14760SOL    HW144306   2.687   6.892   5.241
14760SOL    HW244307   2.606   6.878   5.100
14761SOL     OW44308   2.534   7.202   3.878
14761SOL    HW144309   2.543   7.212   3.779
14761SOL    HW244310   2.494   7.113   3.899
14762SOL     OW44311   3.512   7.306   5.118
14762SOL    HW144312   3.565   7.316   5.034
14762SOL    HW244313   3.485   7.396   5.152
14763SOL     OW44314   3.703   5.761   4.687
14763SOL    HW144315   3.742   5.676   4.651
14763SOL    HW244316   3.605   5.763   4.668
14764SOL     OW44317   2.125   5.912   4.444
14764SOL    HW144318   2.046   5.963   4.410
14764SOL    HW244319   2.116   5.897   4.542
14765SOL     OW44320   3.056   7.198   3.755
14765SOL    HW144321   3.062   7.105   3.792
14765SOL    HW244322   2.997   7.198   3.675
14766SOL     OW44323   2.684   6.588   5.096
14766SOL    HW144324   2.724   6.587   5.004
14766SOL    HW244325   2.694   6.680   5.136
14767SOL     OW44326   2.778   6.496   4.015
14767SOL    HW144327   2.841   6.534   3.947
14767SOL    HW244328   2.818   6.413   4.054
14768SOL     OW44329   3.366   7.193   3.768
14768SOL    HW144330   3.274   7.230   3.775
14768SOL    HW244331   3.404   7.213   3.678
14769SOL     OW44332   2.234   6.874   5.214
14769SOL    HW144333   2.221   6.967   5.180
14769SOL    HW244334   2.150   6.822   5.201
14770SOL     OW44335   3.476   6.878   5.013
14770SOL    HW144336   3.536   6.881   5.093
14770SOL    HW244337   3.401   6.942   5.026
14771SOL     OW44338   2.901   6.684   4.420
14771SOL    HW144339   2.831   6.637   4.474
14771SOL    HW244340   2.960   6.616   4.377
14772SOL     OW44341   2.876   5.822   4.695
14772SOL    HW144342   2.868   5.786   4.602
14772SOL    HW244343   2.874   5.746   4.760
14773SOL     OW44344   2.452   7.073   4.215
14773SOL    HW144345   2.494   7.015   4.145
14773SOL    HW244346   2.408   7.152   4.171
14774SOL     OW44347   3.571   5.971   5.105
14774SOL    HW144348   3.644   6.040   5.109
14774SOL    HW244349   3.599   5.896   5.046
14775SOL     OW44350   2.117   6.934   4.014
14775SOL    HW144351   2.021   6.935   3.987
14775SOL    HW244352   2.129   6.987   4.098
14776SOL     OW44353   2.534   5.789   5.213
14776SOL    HW144354   2.624   5.773   5.173
14776SOL    HW244355   2.542   5.794   5.312
14777SOL     OW44356   1.937   5.931   3.757
14777SOL    HW144357   1.845   5.903   3.728
14777SOL    HW244358   1.968   6.008   3.701
14778SOL     OW44359   3.302   6.442   5.122
14778SOL    HW144360   3.245   6.494   5.059
14778SOL    HW244361   3.398   6.454   5.098
14779SOL     OW44362   1.934   5.752   4.042
14779SOL    HW144363   1.917   5.835   3.988
14779SOL    HW244364   2.024   5.715   4.020
14780SOL     OW44365   3.045   6.921   3.843
14780SOL    HW144366   2.946   6.910   3.845
14780SOL    HW244367   3.079   6.936   3.936
14781SOL     OW44368   2.475   6.428   5.155
14781SOL    HW144369   2.531   6.509   5.138
14781SOL    HW244370   2.534   6.348   5.158
14782SOL     OW44371   3.355   7.353   4.683
14782SOL    HW144372   3.388   7.417   4.614
14782SOL    HW244373   3.421   7.347   4.758
14783SOL     OW44374   2.578   6.151   5.432
14783SOL    HW144375   2.597   6.216   5.506
14783SOL    HW244376   2.638   6.071   5.441
14784SOL     OW44377   3.312   6.806   5.357
14784SOL    HW144378   3.303   6.796   5.456
14784SOL    HW244379   3.408   6.799   5.331
14785SOL     OW44380   2.252   7.327   5.284
14785SOL    HW144381   2.161   7.368   5.282
14785SOL    HW244382   2.245   7.233   5.316
14786SOL     OW44383   3.536   6.469   4.978
14786SOL    HW144384   3.509   6.380   4.941
14786SOL    HW244385   3.537   6.537   4.905
14787SOL     OW44386   3.087   5.911   4.173
14787SOL    HW144387   3.152   5.837   4.162
14787SOL    HW244388   3.107   5.961   4.257
14788SOL     OW44389   2.456   6.331   4.376
14788SOL    HW144390   2.506   6.416   4.357
14788SOL    HW244391   2.368   6.333   4.328
14789SOL     OW44392   3.639   5.928   5.366
14789SOL    HW144393   3.622   5.959   5.272
14789SOL    HW244394   3.555   5.891   5.404
14790SOL     OW44395   3.592   6.520   5.241
14790SOL    HW144396   3.630   6.611   5.256
14790SOL    HW244397   3.584   6.503   5.142
14791SOL     OW44398   2.721   6.960   3.740
14791SOL    HW144399   2.675   6.975   3.828
14791SOL    HW244400   2.765   7.045   3.710
14792SOL     OW44401   2.523   7.376   4.677
14792SOL    HW144402   2.477   7.464   4.664
14792SOL    HW244403   2.622   7.388   4.670
14793SOL     OW44404   2.721   6.542   4.585
14793SOL    HW144405   2.775   6.473   4.633
14793SOL    HW244406   2.689   6.611   4.651
14794SOL     OW44407   2.945   6.570   3.811
14794SOL    HW144408   2.922   6.623   3.729
14794SOL    HW244409   3.026   6.514   3.792
14795SOL     OW44410   3.723   7.155   4.575
14795SOL    HW144411   3.652   7.143   4.505
14795SOL    HW244412   3.724   7.076   4.635
14796SOL     OW44413   2.083   6.900   5.568
14796SOL    HW144414   2.018   6.827   5.547
14796SOL    HW244415   2.087   6.914   5.666
14797SOL     OW44416   1.941   6.826   4.377
14797SOL    HW144417   1.940   6.779   4.465
14797SOL    HW244418   2.023   6.798   4.326
14798SOL     OW44419   2.534   6.977   5.348
14798SOL    HW144420   2.456   6.927   5.386
14798SOL    HW244421   2.531   7.072   5.379
14799SOL     OW44422   3.686   5.778   4.951
14799SOL    HW144423   3.682   5.688   4.995
14799SOL    HW244424   3.689   5.767   4.852
14800SOL     OW44425   2.290   6.010   4.244
14800SOL    HW144426   2.320   5.938   4.182
14800SOL    HW244427   2.251   5.970   4.327
14801SOL     OW44428   3.567   7.073   4.828
14801SOL    HW144429   3.474   7.048   4.801
14801SOL    HW244430   3.593   7.023   4.910
14802SOL     OW44431   2.179   6.133   5.004
14802SOL    HW144432   2.217   6.074   5.076
14802SOL    HW244433   2.219   6.107   4.916
14803SOL     OW44434   2.674   7.172   4.411
14803SOL    HW144435   2.706   7.182   4.317
14803SOL    HW244436   2.595   7.110   4.413
14804SOL     OW44437   3.286   5.800   4.836
14804SOL    HW144438   3.338   5.735   4.891
14804SOL    HW244439   3.237   5.863   4.897
14805SOL     OW44440   2.863   5.620   4.878
14805SOL    HW144441   2.800   5.548   4.847
14805SOL    HW244442   2.956   5.584   4.878
14806SOL     OW44443   2.632   6.916   4.025
14806SOL    HW144444   2.586   6.829   4.042
14806SOL    HW244445   2.723   6.913   4.066
14807SOL     OW44446   2.480   7.153   5.008
14807SOL    HW144447   2.475   7.235   5.065
14807SOL    HW244448   2.569   7.150   4.963
14808SOL     OW44449   3.214   5.638   3.892
14808SOL    HW144450   3.249   5.597   3.808
14808SOL    HW244451   3.124   5.600   3.912
14809SOL     OW44452   3.162   6.039   4.415
14809SOL    HW144453   3.103   6.119   4.419
14809SOL    HW244454   3.177   6.004   4.508
14810SOL     OW44455   3.455   5.807   4.606
14810SOL    HW144456   3.371   5.806   4.660
14810SOL    HW244457   3.457   5.890   4.550
14811SOL     OW44458   1.901   6.663   4.024
14811SOL    HW144459   2.000   6.652   4.015
14811SOL    HW244460   1.861   6.577   4.056
14812SOL     OW44461   2.737   7.232   4.061
14812SOL    HW144462   2.660   7.197   4.007
14812SOL    HW244463   2.705   7.303   4.123
14813SOL     OW44464   2.092   6.214   5.699
14813SOL    HW144465   1.999   6.212   5.736
14813SOL    HW244466   2.093   6.175   5.607
14814SOL     OW44467   2.087   5.861   6.582
14814SOL    HW144468   2.122   5.844   6.674
14814SOL    HW244469   1.999   5.816   6.570
14815SOL     OW44470   1.881   5.954   6.233
14815SOL    HW144471   1.799   5.997   6.272
14815SOL    HW244472   1.853   5.881   6.170
14816SOL     OW44473   2.431   6.861   6.751
14816SOL    HW144474   2.338   6.854   6.714
14816SOL    HW244475   2.442   6.950   6.795
14817SOL     OW44476   3.417   7.097   6.289
14817SOL    HW144477   3.360   7.081   6.370
14817SOL    HW244478   3.358   7.107   6.209
14818SOL     OW44479   2.997   6.289   6.303
14818SOL    HW144480   3.054   6.367   6.278
14818SOL    HW244481   2.937   6.315   6.379
14819SOL     OW44482   3.617   6.193   5.817
14819SOL    HW144483   3.605   6.180   5.718
14819SOL    HW244484   3.587   6.112   5.866
14820SOL     OW44485   2.630   6.730   6.609
14820SOL    HW144486   2.552   6.747   6.669
14820SOL    HW244487   2.664   6.817   6.573
14821SOL     OW44488   2.712   6.384   7.409
14821SOL    HW144489   2.708   6.460   7.474
14821SOL    HW244490   2.734   6.420   7.318
14822SOL     OW44491   2.547   6.598   6.251
14822SOL    HW144492   2.616   6.582   6.321
14822SOL    HW244493   2.474   6.655   6.289
14823SOL     OW44494   2.548   6.747   7.389
14823SOL    HW144495   2.608   6.826   7.403
14823SOL    HW244496   2.462   6.778   7.348
14824SOL     OW44497   2.197   7.021   6.647
14824SOL    HW144498   2.119   6.990   6.594
14824SOL    HW244499   2.255   7.079   6.590
14825SOL     OW44500   3.322   7.091   6.925
14825SOL    HW144501   3.346   7.185   6.951
14825SOL    HW244502   3.306   7.037   7.007
14826SOL     OW44503   2.300   5.978   7.085
14826SOL    HW144504   2.382   5.922   7.094
14826SOL    HW244505   2.219   5.920   7.089
14827SOL     OW44506   3.465   6.033   6.323
14827SOL    HW144507   3.391   6.079   6.273
14827SOL    HW244508   3.516   6.101   6.376
14828SOL     OW44509   2.093   7.299   6.069
14828SOL    HW144510   2.127   7.376   6.123
14828SOL    HW244511   2.137   7.299   5.979
14829SOL     OW44512   2.989   6.927   7.276
14829SOL    HW144513   3.036   6.927   7.364
14829SOL    HW244514   2.941   6.840   7.265
14830SOL     OW44515   2.092   7.020   6.124
14830SOL    HW144516   2.066   7.116   6.124
14830SOL    HW244517   2.021   6.966   6.169
14831SOL     OW44518   2.102   6.677   6.472
14831SOL    HW144519   2.116   6.593   6.524
14831SOL    HW244520   2.047   6.741   6.527
14832SOL     OW44521   2.482   7.372   7.025
14832SOL    HW144522   2.390   7.355   7.060
14832SOL    HW244523   2.510   7.464   7.051
14833SOL     OW44524   2.468   6.550   5.709
14833SOL    HW144525   2.475   6.634   5.655
14833SOL    HW244526   2.514   6.563   5.797
14834SOL     OW44527   3.456   5.700   7.066
14834SOL    HW144528   3.438   5.767   6.994
14834SOL    HW244529   3.453   5.746   7.155
14835SOL     OW44530   1.984   6.229   6.149
14835SOL    HW144531   1.939   6.141   6.166
14835SOL    HW244532   1.983   6.283   6.233
14836SOL     OW44533   3.704   7.353   5.945
14836SOL    HW144534   3.758   7.324   6.025
14836SOL    HW244535   3.734   7.443   5.916
14837SOL     OW44536   1.889   7.182   5.703
14837SOL    HW144537   1.870   7.086   5.724
14837SOL    HW244538   1.856   7.240   5.778
14838SOL     OW44539   3.551   6.508   6.198
14838SOL    HW144540   3.646   6.479   6.206
14838SOL    HW244541   3.543   6.573   6.123
14839SOL     OW44542   3.503   6.694   6.018
14839SOL    HW144543   3.589   6.696   5.966
14839SOL    HW244544   3.517   6.741   6.106
14840SOL     OW44545   1.975   6.323   7.183
14840SOL    HW144546   2.063   6.310   7.228
14840SOL    HW244547   1.962   6.420   7.161
14841SOL     OW44548   2.475   6.951   6.312
14841SOL    HW144549   2.426   6.864   6.321
14841SOL    HW244550   2.452   6.994   6.225
14842SOL     OW44551   3.155   6.814   7.009
14842SOL    HW144552   3.192   6.741   6.951
14842SOL    HW244553   3.207   6.819   7.094
14843SOL     OW44554   2.671   5.590   6.088
14843SOL    HW144555   2.711   5.681   6.079
14843SOL    HW244556   2.571   5.598   6.094
14844SOL     OW44557   2.059   6.562   6.850
14844SOL    HW144558   2.148   6.517   6.836
14844SOL    HW244559   1.986   6.497   6.831
14845SOL     OW44560   3.387   6.585   5.776
14845SOL    HW144561   3.324   6.509   5.789
14845SOL    HW244562   3.435   6.603   5.862
14846SOL     OW44563   3.049   7.378   7.202
14846SOL    HW144564   3.073   7.438   7.126
14846SOL    HW244565   3.056   7.283   7.172
14847SOL     OW44566   2.179   5.837   7.387
14847SOL    HW144567   2.250   5.908   7.393
14847SOL    HW244568   2.091   5.876   7.415
14848SOL     OW44569   3.328   7.003   6.539
14848SOL    HW144570   3.269   7.009   6.619
14848SOL    HW244571   3.313   6.915   6.493
14849SOL     OW44572   3.529   7.300   6.158
14849SOL    HW144573   3.488   7.277   6.070
14849SOL    HW244574   3.511   7.226   6.223
14850SOL     OW44575   2.460   6.315   5.856
14850SOL    HW144576   2.484   6.384   5.788
14850SOL    HW244577   2.382   6.348   5.910
14851SOL     OW44578   3.143   5.931   6.530
14851SOL    HW144579   3.057   5.881   6.517
14851SOL    HW244580   3.205   5.877   6.586
14852SOL     OW44581   3.438   7.248   5.893
14852SOL    HW144582   3.527   7.294   5.896
14852SOL    HW244583   3.417   7.224   5.798
14853SOL     OW44584   2.669   6.191   7.051
14853SOL    HW144585   2.622   6.188   7.140
14853SOL    HW244586   2.618   6.136   6.985
14854SOL     OW44587   3.256   6.055   7.260
14854SOL    HW144588   3.236   6.098   7.348
14854SOL    HW244589   3.334   5.993   7.269
14855SOL     OW44590   2.835   6.476   7.158
14855SOL    HW144591   2.881   6.392   7.129
14855SOL    HW244592   2.779   6.510   7.083
14856SOL     OW44593   2.853   5.996   6.828
14856SOL    HW144594   2.776   6.030   6.882
14856SOL    HW244595   2.819   5.945   6.749
14857SOL     OW44596   2.903   6.287   6.015
14857SOL    HW144597   2.929   6.283   6.111
14857SOL    HW244598   2.818   6.236   6.001
14858SOL     OW44599   1.938   6.397   6.375
14858SOL    HW144600   2.037   6.385   6.384
14858SOL    HW244601   1.914   6.492   6.396
14859SOL     OW44602   1.992   7.407   7.157
14859SOL    HW144603   1.982   7.392   7.256
14859SOL    HW244604   1.906   7.443   7.121
14860SOL     OW44605   2.727   5.934   5.781
14860SOL    HW144606   2.786   5.997   5.732
14860SOL    HW244607   2.746   5.840   5.752
14861SOL     OW44608   3.581   6.171   7.417
14861SOL    HW144609   3.555   6.260   7.381
14861SOL    HW244610   3.579   6.103   7.344
14862SOL     OW44611   3.224   6.730   6.131
14862SOL    HW144612   3.307   6.701   6.083
14862SOL    HW244613   3.175   6.797   6.075
14863SOL     OW44614   2.412   5.782   6.471
14863SOL    HW144615   2.407   5.777   6.571
14863SOL    HW244616   2.414   5.878   6.442
14864SOL     OW44617   2.870   7.042   6.063
14864SOL    HW144618   2.824   7.114   6.011
14864SOL    HW244619   2.866   7.062   6.161
14865SOL     OW44620   2.213   7.387   6.439
14865SOL    HW144621   2.263   7.301   6.445
14865SOL    HW244622   2.278   7.464   6.436
14866SOL     OW44623   3.657   6.652   6.459
14866SOL    HW144624   3.595   6.637   6.383
14866SOL    HW244625   3.605   6.663   6.544
14867SOL     OW44626   3.089   7.136   7.092
14867SOL    HW144627   3.095   7.059   7.156
14867SOL    HW244628   3.037   7.110   7.012
14868SOL     OW44629   2.183   6.529   5.828
14868SOL    HW144630   2.265   6.568   5.786
14868SOL    HW244631   2.156   6.447   5.779
14869SOL     OW44632   3.320   6.321   6.314
14869SOL    HW144633   3.315   6.256   6.389
14869SOL    HW244634   3.400   6.380   6.327
14870SOL     OW44635   2.323   6.852   7.313
14870SOL    HW144636   2.273   6.853   7.227
14870SOL    HW244637   2.260   6.834   7.389
14871SOL     OW44638   2.973   7.362   5.823
14871SOL    HW144639   2.913   7.300   5.873
14871SOL    HW244640   3.004   7.318   5.738
14872SOL     OW44641   2.064   5.871   7.084
14872SOL    HW144642   1.984   5.931   7.071
14872SOL    HW244643   2.054   5.822   7.170
14873SOL     OW44644   3.494   6.963   5.667
14873SOL    HW144645   3.462   7.057   5.657
14873SOL    HW244646   3.418   6.900   5.655
14874SOL     OW44647   2.326   7.329   5.909
14874SOL    HW144648   2.359   7.368   5.995
14874SOL    HW244649   2.402   7.322   5.844
14875SOL     OW44650   3.262   5.693   6.012
14875SOL    HW144651   3.238   5.656   5.922
14875SOL    HW244652   3.361   5.709   6.016
14876SOL     OW44653   2.111   7.371   6.827
14876SOL    HW144654   2.168   7.306   6.877
14876SOL    HW244655   2.095   7.338   6.734
14877SOL     OW44656   2.802   7.284   6.490
14877SOL    HW144657   2.882   7.227   6.511
14877SOL    HW244658   2.753   7.244   6.413
14878SOL     OW44659   2.244   6.286   6.066
14878SOL    HW144660   2.289   6.196   6.063
14878SOL    HW244661   2.150   6.275   6.099
14879SOL     OW44662   3.409   5.808   7.315
14879SOL    HW144663   3.404   5.845   7.407
14879SOL    HW244664   3.337   5.739   7.303
14880SOL     OW44665   2.476   5.708   5.703
14880SOL    HW144666   2.574   5.686   5.710
14880SOL    HW244667   2.445   5.691   5.610
14881SOL     OW44668   2.643   5.850   7.335
14881SOL    HW144669   2.710   5.789   7.378
14881SOL    HW244670   2.570   5.869   7.400
14882SOL     OW44671   2.750   7.100   6.781
14882SOL    HW144672   2.727   7.075   6.687
14882SOL    HW244673   2.811   7.031   6.820
14883SOL     OW44674   3.213   6.176   7.019
14883SOL    HW144675   3.241   6.133   7.104
14883SOL    HW244676   3.238   6.272   7.020
14884SOL     OW44677   2.665   6.988   6.510
14884SOL    HW144678   2.755   7.002   6.468
14884SOL    HW244679   2.594   6.990   6.439
14885SOL     OW44680   2.784   6.089   6.485
14885SOL    HW144681   2.759   6.080   6.389
14885SOL    HW244682   2.832   6.007   6.516
14886SOL     OW44683   2.401   5.650   6.098
14886SOL    HW144684   2.320   5.651   6.156
14886SOL    HW244685   2.404   5.733   6.043
14887SOL     OW44686   3.296   6.774   5.627
14887SOL    HW144687   3.328   6.698   5.684
14887SOL    HW244688   3.204   6.801   5.657
14888SOL     OW44689   2.159   5.621   5.757
14888SOL    HW144690   2.208   5.705   5.736
14888SOL    HW244691   2.221   5.556   5.802
14889SOL     OW44692   2.797   5.822   6.066
14889SOL    HW144693   2.749   5.863   5.988
14889SOL    HW244694   2.896   5.820   6.047
14890SOL     OW44695   2.938   6.269   7.050
14890SOL    HW144696   2.858   6.208   7.053
14890SOL    HW244697   3.019   6.216   7.026
14891SOL     OW44698   3.089   7.156   6.379
14891SOL    HW144699   3.110   7.230   6.314
14891SOL    HW244700   3.157   7.156   6.452
14892SOL     OW44701   2.321   6.738   6.327
14892SOL    HW144702   2.250   6.711   6.392
14892SOL    HW244703   2.295   6.710   6.234
14893SOL     OW44704   3.133   7.383   6.177
14893SOL    HW144705   3.177   7.447   6.113
14893SOL    HW244706   3.083   7.435   6.247
14894SOL     OW44707   2.894   6.135   5.602
14894SOL    HW144708   2.853   6.217   5.563
14894SOL    HW244709   2.958   6.161   5.675
14895SOL     OW44710   1.940   6.142   6.972
14895SOL    HW144711   2.032   6.141   6.931
14895SOL    HW244712   1.934   6.216   7.039
14896SOL     OW44713   2.423   5.808   6.733
14896SOL    HW144714   2.461   5.724   6.770
14896SOL    HW244715   2.335   5.827   6.777
14897SOL     OW44716   2.728   6.040   6.228
14897SOL    HW144717   2.696   6.112   6.166
14897SOL    HW244718   2.752   5.959   6.175
14898SOL     OW44719   2.879   5.625   6.339
14898SOL    HW144720   2.807   5.630   6.270
14898SOL    HW244721   2.855   5.556   6.408
14899SOL     OW44722   3.291   6.759   6.453
14899SOL    HW144723   3.236   6.675   6.446
14899SOL    HW244724   3.317   6.788   6.361
14900SOL     OW44725   3.328   6.176   6.578
14900SOL    HW144726   3.298   6.081   6.585
14900SOL    HW244727   3.401   6.192   6.644
14901SOL     OW44728   3.719   6.419   5.963
14901SOL    HW144729   3.761   6.355   6.027
14901SOL    HW244730   3.681   6.368   5.885
14902SOL     OW44731   2.350   6.971   5.760
14902SOL    HW144732   2.263   6.956   5.807
14902SOL    HW244733   2.333   6.997   5.665
14903SOL     OW44734   3.526   6.866   6.243
14903SOL    HW144735   3.625   6.874   6.257
14903SOL    HW244736   3.481   6.950   6.274
14904SOL     OW44737   3.252   6.161   5.664
14904SOL    HW144738   3.198   6.140   5.745
14904SOL    HW244739   3.343   6.120   5.673
14905SOL     OW44740   2.389   5.842   5.914
14905SOL    HW144741   2.416   5.783   5.839
14905SOL    HW244742   2.389   5.937   5.883
14906SOL     OW44743   3.616   6.809   7.174
14906SOL    HW144744   3.707   6.770   7.161
14906SOL    HW244745   3.624   6.905   7.198
14907SOL     OW44746   2.926   6.933   6.926
14907SOL    HW144747   2.846   6.910   6.981
14907SOL    HW244748   3.009   6.907   6.975
14908SOL     OW44749   3.454   7.215   7.211
14908SOL    HW144750   3.481   7.249   7.121
14908SOL    HW244751   3.533   7.177   7.257
14909SOL     OW44752   2.973   6.781   6.686
14909SOL    HW144753   2.933   6.825   6.767
14909SOL    HW244754   2.932   6.818   6.603
14910SOL     OW44755   3.500   6.685   6.665
14910SOL    HW144756   3.505   6.766   6.724
14910SOL    HW244757   3.414   6.687   6.614
14911SOL     OW44758   2.777   5.675   6.988
14911SOL    HW144759   2.802   5.655   6.893
14911SOL    HW244760   2.849   5.731   7.030
14912SOL     OW44761   2.842   6.702   7.305
14912SOL    HW144762   2.743   6.708   7.315
14912SOL    HW244763   2.865   6.622   7.249
14913SOL     OW44764   2.567   6.636   5.954
14913SOL    HW144765   2.553   6.643   6.053
14913SOL    HW244766   2.651   6.585   5.936
14914SOL     OW44767   2.272   6.399   6.837
14914SOL    HW144768   2.358   6.411   6.887
14914SOL    HW244769   2.230   6.312   6.864
14915SOL     OW44770   3.136   5.972   6.848
14915SOL    HW144771   3.157   6.046   6.912
14915SOL    HW244772   3.047   5.989   6.805
14916SOL     OW44773   1.926   7.150   6.917
14916SOL    HW144774   1.880   7.232   6.883
14916SOL    HW244775   2.024   7.169   6.926
14917SOL     OW44776   2.229   6.686   6.087
14917SOL    HW144777   2.222   6.769   6.031
14917SOL    HW244778   2.233   6.606   6.027
14918SOL     OW44779   2.428   6.123   6.451
14918SOL    HW144780   2.440   6.189   6.377
14918SOL    HW244781   2.474   6.157   6.534
14919SOL     OW44782   3.114   6.934   5.974
14919SOL    HW144783   3.164   7.011   6.014
14919SOL    HW244784   3.019   6.936   6.006
14920SOL     OW44785   3.134   7.031   6.728
14920SOL    HW144786   3.181   7.044   6.815
14920SOL    HW244787   3.068   6.957   6.737
14921SOL     OW44788   3.444   6.225   6.058
14921SOL    HW144789   3.413   6.286   6.131
14921SOL    HW244790   3.494   6.277   5.989
14922SOL     OW44791   2.216   7.096   6.915
14922SOL    HW144792   2.195   7.052   6.828
14922SOL    HW244793   2.313   7.122   6.918
14923SOL     OW44794   2.264   6.337   7.184
14923SOL    HW144795   2.332   6.392   7.137
14923SOL    HW244796   2.304   6.249   7.211
14924SOL     OW44797   3.449   6.365   7.256
14924SOL    HW144798   3.357   6.403   7.251
14924SOL    HW244799   3.509   6.412   7.191
14925SOL     OW44800   2.875   5.691   7.356
14925SOL    HW144801   2.881   5.776   7.304
14925SOL    HW244802   2.907   5.615   7.299
14926SOL     OW44803   2.366   5.636   7.326
14926SOL    HW144804   2.324   5.579   7.256
14926SOL    HW244805   2.300   5.705   7.358
14927SOL     OW44806   2.435   6.456   6.615
14927SOL    HW144807   2.479   6.545   6.606
14927SOL    HW244808   2.372   6.456   6.692
14928SOL     OW44809   3.222   6.448   6.631
14928SOL    HW144810   3.147   6.448   6.565
14928SOL    HW244811   3.259   6.356   6.640
14929SOL     OW44812   3.071   6.111   5.861
14929SOL    HW144813   3.084   6.027   5.915
14929SOL    HW244814   3.042   6.185   5.921
14930SOL     OW44815   2.169   5.799   6.817
14930SOL    HW144816   2.146   5.836   6.907
14930SOL    HW244817   2.139   5.704   6.811
14931SOL     OW44818   1.899   6.896   6.868
14931SOL    HW144819   1.952   6.847   6.936
14931SOL    HW244820   1.921   6.994   6.873
14932SOL     OW44821   2.594   6.220   6.650
14932SOL    HW144822   2.653   6.194   6.574
14932SOL    HW244823   2.566   6.316   6.639
14933SOL     OW44824   3.590   6.521   7.440
14933SOL    HW144825   3.544   6.514   7.351
14933SOL    HW244826   3.528   6.565   7.506
14934SOL     OW44827   2.169   5.649   6.204
14934SOL    HW144828   2.158   5.743   6.237
14934SOL    HW244829   2.164   5.586   6.281
14935SOL     OW44830   3.484   5.953   5.960
14935SOL    HW144831   3.486   5.877   6.024
14935SOL    HW244832   3.436   6.030   6.000
14936SOL     OW44833   2.885   6.352   6.552
14936SOL    HW144834   2.900   6.373   6.648
14936SOL    HW244835   2.855   6.257   6.543
14937SOL     OW44836   2.842   7.159   7.286
14937SOL    HW144837   2.822   7.203   7.198
14937SOL    HW244838   2.881   7.068   7.270
14938SOL     OW44839   3.721   7.104   7.191
14938SOL    HW144840   3.735   7.131   7.096
14938SOL    HW244841   3.804   7.126   7.244
14939SOL     OW44842   2.212   6.484   7.390
14939SOL    HW144843   2.288   6.528   7.438
14939SOL    HW244844   2.247   6.437   7.308
14940SOL     OW44845   3.402   5.860   5.711
14940SOL    HW144846   3.341   5.785   5.734
14940SOL    HW244847   3.424   5.912   5.794
14941SOL     OW44848   3.165   6.424   5.628
14941SOL    HW144849   3.199   6.331   5.643
14941SOL    HW244850   3.183   6.451   5.533
14942SOL     OW44851   2.930   6.919   6.435
14942SOL    HW144852   2.937   6.835   6.380
14942SOL    HW244853   2.992   6.988   6.399
14943SOL     OW44854   2.181   6.396   6.535
14943SOL    HW144855   2.274   6.432   6.540
14943SOL    HW244856   2.175   6.311   6.587
14944SOL     OW44857   2.201   6.095   6.592
14944SOL    HW144858   2.149   6.012   6.575
14944SOL    HW244859   2.278   6.100   6.528
14945SOL     OW44860   3.000   5.966   7.264
14945SOL    HW144861   2.955   6.029   7.328
14945SOL    HW244862   3.093   5.997   7.247
14946SOL     OW44863   3.022   5.793   7.063
14946SOL    HW144864   3.022   5.857   7.140
14946SOL    HW244865   3.050   5.841   6.980
14947SOL     OW44866   1.870   6.912   5.786
14947SOL    HW144867   1.777   6.933   5.755
14947SOL    HW244868   1.880   6.813   5.799
14948SOL     OW44869   1.950   7.387   6.513
14948SOL    HW144870   1.908   7.301   6.486
14948SOL    HW244871   2.044   7.390   6.479
14949SOL     OW44872   2.366   7.154   6.496
14949SOL    HW144873   2.432   7.228   6.505
14949SOL    HW244874   2.410   7.075   6.454
14950SOL     OW44875   2.864   6.382   6.824
14950SOL    HW144876   2.905   6.350   6.910
14950SOL    HW244877   2.768   6.355   6.821
14951SOL     OW44878   1.902   6.130   6.700
14951SOL    HW144879   1.987   6.097   6.659
14951SOL    HW244880   1.915   6.145   6.798
14952SOL     OW44881   2.051   6.106   7.308
14952SOL    HW144882   2.110   6.066   7.238
14952SOL    HW244883   1.993   6.177   7.267
14953SOL     OW44884   3.231   6.536   7.246
14953SOL    HW144885   3.270   6.625   7.266
14953SOL    HW244886   3.241   6.516   7.149
14954SOL     OW44887   2.677   6.158   5.911
14954SOL    HW144888   2.684   6.069   5.865
14954SOL    HW244889   2.583   6.192   5.903
14955SOL     OW44890   3.519   6.190   6.792
14955SOL    HW144891   3.481   6.121   6.854
14955SOL    HW244892   3.601   6.154   6.748
14956SOL     OW44893   2.114   7.150   7.330
14956SOL    HW144894   2.084   7.207   7.406
14956SOL    HW244895   2.107   7.053   7.356
14957SOL     OW44896   2.533   6.050   6.855
14957SOL    HW144897   2.499   5.961   6.825
14957SOL    HW244898   2.559   6.104   6.775
14958SOL     OW44899   2.792   7.264   7.051
14958SOL    HW144900   2.768   7.246   6.956
14958SOL    HW244901   2.822   7.358   7.061
14959SOL     OW44902   2.335   6.086   5.777
14959SOL    HW144903   2.396   6.166   5.781
14959SOL    HW244904   2.240   6.117   5.784
14960SOL     OW44905   2.021   6.723   7.052
14960SOL    HW144906   2.043   6.662   7.128
14960SOL    HW244907   2.031   6.674   6.966
14961SOL     OW44908   3.209   6.645   6.820
14961SOL    HW144909   3.233   6.582   6.746
14961SOL    HW244910   3.119   6.685   6.802
14962SOL     OW44911   3.164   6.441   5.895
14962SOL    HW144912   3.078   6.410   5.937
14962SOL    HW244913   3.160   6.427   5.796
14963SOL     OW44914   3.621   7.333   6.740
14963SOL    HW144915   3.682   7.363   6.667
14963SOL    HW244916   3.583   7.244   6.718
14964SOL     OW44917   3.114   7.317   6.714
14964SOL    HW144918   3.198   7.322   6.660
14964SOL    HW244919   3.091   7.221   6.732
14965SOL     OW44920   1.945   6.844   6.608
14965SOL    HW144921   1.940   6.843   6.708
14965SOL    HW244922   1.862   6.803   6.570
14966SOL     OW44923   2.550   7.248   7.302
14966SOL    HW144924   2.494   7.329   7.311
14966SOL    HW244925   2.602   7.252   7.216
14967SOL     OW44926   3.588   5.721   6.109
14967SOL    HW144927   3.661   5.704   6.042
14967SOL    HW244928   3.557   5.634   6.147
14968SOL     OW44929   3.250   7.159   6.063
14968SOL    HW144930   3.317   7.171   5.989
14968SOL    HW244931   3.210   7.248   6.086
14969SOL     OW44932   1.992   7.380   7.437
14969SOL    HW144933   1.951   7.306   7.490
14969SOL    HW244934   2.056   7.431   7.495
14970SOL     OW44935   3.142   6.513   6.258
14970SOL    HW144936   3.202   6.432   6.260
14970SOL    HW244937   3.182   6.582   6.198
14971SOL     OW44938   2.692   6.859   7.008
14971SOL    HW144939   2.687   6.892   7.103
14971SOL    HW244940   2.606   6.878   6.962
14972SOL     OW44941   2.534   7.202   5.740
14972SOL    HW144942   2.543   7.212   5.641
14972SOL    HW244943   2.494   7.113   5.761
14973SOL     OW44944   3.512   7.306   6.980
14973SOL    HW144945   3.565   7.316   6.896
14973SOL    HW244946   3.485   7.396   7.014
14974SOL     OW44947   3.703   5.761   6.549
14974SOL    HW144948   3.742   5.676   6.513
14974SOL    HW244949   3.605   5.763   6.530
14975SOL     OW44950   2.125   5.912   6.306
14975SOL    HW144951   2.046   5.963   6.272
14975SOL    HW244952   2.116   5.897   6.404
14976SOL     OW44953   3.056   7.198   5.617
14976SOL    HW144954   3.062   7.105   5.654
14976SOL    HW244955   2.997   7.198   5.537
14977SOL     OW44956   2.684   6.588   6.958
14977SOL    HW144957   2.724   6.587   6.866
14977SOL    HW244958   2.694   6.680   6.998
14978SOL     OW44959   2.778   6.496   5.877
14978SOL    HW144960   2.841   6.534   5.809
14978SOL    HW244961   2.818   6.413   5.916
14979SOL     OW44962   3.366   7.193   5.630
14979SOL    HW144963   3.274   7.230   5.637
14979SOL    HW244964   3.404   7.213   5.540
14980SOL     OW44965   2.234   6.874   7.076
14980SOL    HW144966   2.221   6.967   7.042
14980SOL    HW244967   2.150   6.822   7.063
14981SOL     OW44968   3.476   6.878   6.875
14981SOL    HW144969   3.536   6.881   6.955
14981SOL    HW244970   3.401   6.942   6.888
14982SOL     OW44971   2.901   6.684   6.282
14982SOL    HW144972   2.831   6.637   6.336
14982SOL    HW244973   2.960   6.616   6.239
14983SOL     OW44974   2.876   5.822   6.557
14983SOL    HW144975   2.868   5.786   6.464
14983SOL    HW244976   2.874   5.746   6.622
14984SOL     OW44977   2.452   7.073   6.077
14984SOL    HW144978   2.494   7.015   6.007
14984SOL    HW244979   2.408   7.152   6.033
14985SOL     OW44980   3.571   5.971   6.967
14985SOL    HW144981   3.644   6.040   6.971
14985SOL    HW244982   3.599   5.896   6.908
14986SOL     OW44983   2.117   6.934   5.876
14986SOL    HW144984   2.021   6.935   5.849
14986SOL    HW244985   2.129   6.987   5.960
14987SOL     OW44986   1.967   6.599   7.312
14987SOL    HW144987   1.890   6.566   7.366
14987SOL    HW244988   2.052   6.569   7.354
14988SOL     OW44989   2.534   5.789   7.075
14988SOL    HW144990   2.624   5.773   7.035
14988SOL    HW244991   2.542   5.794   7.174
14989SOL     OW44992   1.937   5.931   5.619
14989SOL    HW144993   1.845   5.903   5.590
14989SOL    HW244994   1.968   6.008   5.563
14990SOL     OW44995   3.302   6.442   6.984
14990SOL    HW144996   3.245   6.494   6.921
14990SOL    HW244997   3.398   6.454   6.960
14991SOL     OW44998   1.934   5.752   5.904
14991SOL    HW144999   1.917   5.835   5.850
14991SOL    HW245000   2.024   5.715   5.882
14992SOL     OW45001   3.045   6.921   5.705
14992SOL    HW145002   2.946   6.910   5.707
14992SOL    HW245003   3.079   6.936   5.798
14993SOL     OW45004   2.475   6.428   7.017
14993SOL    HW145005   2.531   6.509   7.000
14993SOL    HW245006   2.534   6.348   7.020
14994SOL     OW45007   3.355   7.353   6.545
14994SOL    HW145008   3.388   7.417   6.476
14994SOL    HW245009   3.421   7.347   6.620
14995SOL     OW45010   2.578   6.151   7.294
14995SOL    HW145011   2.597   6.216   7.368
14995SOL    HW245012   2.638   6.071   7.303
14996SOL     OW45013   3.312   6.806   7.219
14996SOL    HW145014   3.303   6.796   7.318
14996SOL    HW245015   3.408   6.799   7.193
14997SOL     OW45016   2.252   7.327   7.146
14997SOL    HW145017   2.161   7.368   7.144
14997SOL    HW245018   2.245   7.233   7.178
14998SOL     OW45019   3.536   6.469   6.840
14998SOL    HW145020   3.509   6.380   6.803
14998SOL    HW245021   3.537   6.537   6.767
14999SOL     OW45022   3.087   5.911   6.035
14999SOL    HW145023   3.152   5.837   6.024
14999SOL    HW245024   3.107   5.961   6.119
15000SOL     OW45025   2.456   6.331   6.238
15000SOL    HW145026   2.506   6.416   6.219
15000SOL    HW245027   2.368   6.333   6.190
15001SOL     OW45028   3.639   5.928   7.228
15001SOL    HW145029   3.622   5.959   7.134
15001SOL    HW245030   3.555   5.891   7.266
15002SOL     OW45031   2.721   6.960   5.602
15002SOL    HW145032   2.675   6.975   5.690
15002SOL    HW245033   2.765   7.045   5.572
15003SOL     OW45034   2.523   7.376   6.539
15003SOL    HW145035   2.477   7.464   6.526
15003SOL    HW245036   2.622   7.388   6.532
15004SOL     OW45037   2.721   6.542   6.447
15004SOL    HW145038   2.775   6.473   6.495
15004SOL    HW245039   2.689   6.611   6.513
15005SOL     OW45040   2.945   6.570   5.673
15005SOL    HW145041   2.922   6.623   5.591
15005SOL    HW245042   3.026   6.514   5.654
15006SOL     OW45043   3.723   7.155   6.437
15006SOL    HW145044   3.652   7.143   6.367
15006SOL    HW245045   3.724   7.076   6.497
15007SOL     OW45046   2.083   6.900   7.430
15007SOL    HW145047   2.018   6.827   7.409
15007SOL    HW245048   2.087   6.914   7.528
15008SOL     OW45049   1.941   6.826   6.239
15008SOL    HW145050   1.940   6.779   6.327
15008SOL    HW245051   2.023   6.798   6.188
15009SOL     OW45052   2.534   6.977   7.210
15009SOL    HW145053   2.456   6.927   7.248
15009SOL    HW245054   2.531   7.072   7.241
15010SOL     OW45055   3.686   5.778   6.813
15010SOL    HW145056   3.682   5.688   6.857
15010SOL    HW245057   3.689   5.767   6.714
15011SOL     OW45058   2.290   6.010   6.106
15011SOL    HW145059   2.320   5.938   6.044
15011SOL    HW245060   2.251   5.970   6.189
15012SOL     OW45061   3.567   7.073   6.690
15012SOL    HW145062   3.474   7.048   6.663
15012SOL    HW245063   3.593   7.023   6.772
15013SOL     OW45064   2.179   6.133   6.866
15013SOL    HW145065   2.217   6.074   6.938
15013SOL    HW245066   2.219   6.107   6.778
15014SOL     OW45067   2.674   7.172   6.273
15014SOL    HW145068   2.706   7.182   6.179
15014SOL    HW245069   2.595   7.110   6.275
15015SOL     OW45070   3.286   5.800   6.698
15015SOL    HW145071   3.338   5.735   6.753
15015SOL    HW245072   3.237   5.863   6.759
15016SOL     OW45073   2.863   5.620   6.740
15016SOL    HW145074   2.800   5.548   6.709
15016SOL    HW245075   2.956   5.584   6.740
15017SOL     OW45076   2.632   6.916   5.887
15017SOL    HW145077   2.586   6.829   5.904
15017SOL    HW245078   2.723   6.913   5.928
15018SOL     OW45079   2.480   7.153   6.870
15018SOL    HW145080   2.475   7.235   6.927
15018SOL    HW245081   2.569   7.150   6.825
15019SOL     OW45082   3.214   5.638   5.754
15019SOL    HW145083   3.249   5.597   5.670
15019SOL    HW245084   3.124   5.600   5.774
15020SOL     OW45085   3.162   6.039   6.277
15020SOL    HW145086   3.103   6.119   6.281
15020SOL    HW245087   3.177   6.004   6.370
15021SOL     OW45088   3.455   5.807   6.468
15021SOL    HW145089   3.371   5.806   6.522
15021SOL    HW245090   3.457   5.890   6.412
15022SOL     OW45091   1.901   6.663   5.886
15022SOL    HW145092   2.000   6.652   5.877
15022SOL    HW245093   1.861   6.577   5.918
15023SOL     OW45094   2.737   7.232   5.923
15023SOL    HW145095   2.660   7.197   5.869
15023SOL    HW245096   2.705   7.303   5.985
15024SOL     OW45097   2.092   6.214   7.561
15024SOL    HW145098   1.999   6.212   7.598
15024SOL    HW245099   2.093   6.175   7.469
15025SOL     OW45100   2.087   5.861   8.444
15025SOL    HW145101   2.122   5.844   8.536
15025SOL    HW245102   1.999   5.816   8.432
15026SOL     OW45103   1.881   5.954   8.095
15026SOL    HW145104   1.799   5.997   8.134
15026SOL    HW245105   1.853   5.881   8.032
15027SOL     OW45106   2.431   6.861   8.613
15027SOL    HW145107   2.338   6.854   8.576
15027SOL    HW245108   2.442   6.950   8.657
15028SOL     OW45109   3.417   7.097   8.151
15028SOL    HW145110   3.360   7.081   8.232
15028SOL    HW245111   3.358   7.107   8.071
15029SOL     OW45112   2.997   6.289   8.165
15029SOL    HW145113   3.054   6.367   8.140
15029SOL    HW245114   2.937   6.315   8.241
15030SOL     OW45115   3.617   6.193   7.679
15030SOL    HW145116   3.605   6.180   7.580
15030SOL    HW245117   3.587   6.112   7.728
15031SOL     OW45118   2.630   6.730   8.471
15031SOL    HW145119   2.552   6.747   8.531
15031SOL    HW245120   2.664   6.817   8.435
15032SOL     OW45121   2.712   6.384   9.271
15032SOL    HW145122   2.708   6.460   9.336
15032SOL    HW245123   2.734   6.420   9.180
15033SOL     OW45124   2.547   6.598   8.113
15033SOL    HW145125   2.616   6.582   8.183
15033SOL    HW245126   2.474   6.655   8.151
15034SOL     OW45127   2.548   6.747   9.251
15034SOL    HW145128   2.608   6.826   9.265
15034SOL    HW245129   2.462   6.778   9.210
15035SOL     OW45130   2.197   7.021   8.509
15035SOL    HW145131   2.119   6.990   8.456
15035SOL    HW245132   2.255   7.079   8.452
15036SOL     OW45133   3.322   7.091   8.787
15036SOL    HW145134   3.346   7.185   8.813
15036SOL    HW245135   3.306   7.037   8.869
15037SOL     OW45136   2.300   5.978   8.947
15037SOL    HW145137   2.382   5.922   8.956
15037SOL    HW245138   2.219   5.920   8.951
15038SOL     OW45139   3.465   6.033   8.185
15038SOL    HW145140   3.391   6.079   8.135
15038SOL    HW245141   3.516   6.101   8.238
15039SOL     OW45142   2.093   7.299   7.931
15039SOL    HW145143   2.127   7.376   7.985
15039SOL    HW245144   2.137   7.299   7.841
15040SOL     OW45145   2.989   6.927   9.138
15040SOL    HW145146   3.036   6.927   9.226
15040SOL    HW245147   2.941   6.840   9.127
15041SOL     OW45148   2.092   7.020   7.986
15041SOL    HW145149   2.066   7.116   7.986
15041SOL    HW245150   2.021   6.966   8.031
15042SOL     OW45151   2.102   6.677   8.334
15042SOL    HW145152   2.116   6.593   8.386
15042SOL    HW245153   2.047   6.741   8.389
15043SOL     OW45154   2.482   7.372   8.887
15043SOL    HW145155   2.390   7.355   8.922
15043SOL    HW245156   2.510   7.464   8.913
15044SOL     OW45157   2.468   6.550   7.571
15044SOL    HW145158   2.475   6.634   7.517
15044SOL    HW245159   2.514   6.563   7.659
15045SOL     OW45160   3.456   5.700   8.928
15045SOL    HW145161   3.438   5.767   8.856
15045SOL    HW245162   3.453   5.746   9.017
15046SOL     OW45163   1.984   6.229   8.011
15046SOL    HW145164   1.939   6.141   8.028
15046SOL    HW245165   1.983   6.283   8.095
15047SOL     OW45166   3.704   7.353   7.807
15047SOL    HW145167   3.758   7.324   7.887
15047SOL    HW245168   3.734   7.443   7.778
15048SOL     OW45169   1.889   7.182   7.565
15048SOL    HW145170   1.870   7.086   7.586
15048SOL    HW245171   1.856   7.240   7.640
15049SOL     OW45172   3.551   6.508   8.060
15049SOL    HW145173   3.646   6.479   8.068
15049SOL    HW245174   3.543   6.573   7.985
15050SOL     OW45175   3.503   6.694   7.880
15050SOL    HW145176   3.589   6.696   7.828
15050SOL    HW245177   3.517   6.741   7.968
15051SOL     OW45178   1.975   6.323   9.045
15051SOL    HW145179   2.063   6.310   9.090
15051SOL    HW245180   1.962   6.420   9.023
15052SOL     OW45181   2.475   6.951   8.174
15052SOL    HW145182   2.426   6.864   8.183
15052SOL    HW245183   2.452   6.994   8.087
15053SOL     OW45184   3.155   6.814   8.871
15053SOL    HW145185   3.192   6.741   8.813
15053SOL    HW245186   3.207   6.819   8.956
15054SOL     OW45187   2.671   5.590   7.950
15054SOL    HW145188   2.711   5.681   7.941
15054SOL    HW245189   2.571   5.598   7.956
15055SOL     OW45190   2.059   6.562   8.712
15055SOL    HW145191   2.148   6.517   8.698
15055SOL    HW245192   1.986   6.497   8.693
15056SOL     OW45193   3.387   6.585   7.638
15056SOL    HW145194   3.324   6.509   7.651
15056SOL    HW245195   3.435   6.603   7.724
15057SOL     OW45196   3.049   7.378   9.064
15057SOL    HW145197   3.073   7.438   8.988
15057SOL    HW245198   3.056   7.283   9.034
15058SOL     OW45199   2.179   5.837   9.249
15058SOL    HW145200   2.250   5.908   9.255
15058SOL    HW245201   2.091   5.876   9.277
15059SOL     OW45202   3.328   7.003   8.401
15059SOL    HW145203   3.269   7.009   8.481
15059SOL    HW245204   3.313   6.915   8.355
15060SOL     OW45205   3.529   7.300   8.020
15060SOL    HW145206   3.488   7.277   7.932
15060SOL    HW245207   3.511   7.226   8.085
15061SOL     OW45208   2.460   6.315   7.718
15061SOL    HW145209   2.484   6.384   7.650
15061SOL    HW245210   2.382   6.348   7.772
15062SOL     OW45211   3.143   5.931   8.392
15062SOL    HW145212   3.057   5.881   8.379
15062SOL    HW245213   3.205   5.877   8.448
15063SOL     OW45214   3.438   7.248   7.755
15063SOL    HW145215   3.527   7.294   7.758
15063SOL    HW245216   3.417   7.224   7.660
15064SOL     OW45217   2.669   6.191   8.913
15064SOL    HW145218   2.622   6.188   9.002
15064SOL    HW245219   2.618   6.136   8.847
15065SOL     OW45220   3.256   6.055   9.122
15065SOL    HW145221   3.236   6.098   9.210
15065SOL    HW245222   3.334   5.993   9.131
15066SOL     OW45223   2.835   6.476   9.020
15066SOL    HW145224   2.881   6.392   8.991
15066SOL    HW245225   2.779   6.510   8.945
15067SOL     OW45226   2.853   5.996   8.690
15067SOL    HW145227   2.776   6.030   8.744
15067SOL    HW245228   2.819   5.945   8.611
15068SOL     OW45229   2.903   6.287   7.877
15068SOL    HW145230   2.929   6.283   7.973
15068SOL    HW245231   2.818   6.236   7.863
15069SOL     OW45232   1.938   6.397   8.237
15069SOL    HW145233   2.037   6.385   8.246
15069SOL    HW245234   1.914   6.492   8.258
15070SOL     OW45235   1.992   7.407   9.019
15070SOL    HW145236   1.982   7.392   9.118
15070SOL    HW245237   1.906   7.443   8.983
15071SOL     OW45238   2.727   5.934   7.643
15071SOL    HW145239   2.786   5.997   7.594
15071SOL    HW245240   2.746   5.840   7.614
15072SOL     OW45241   3.581   6.171   9.279
15072SOL    HW145242   3.555   6.260   9.243
15072SOL    HW245243   3.579   6.103   9.206
15073SOL     OW45244   3.224   6.730   7.993
15073SOL    HW145245   3.307   6.701   7.945
15073SOL    HW245246   3.175   6.797   7.937
15074SOL     OW45247   2.412   5.782   8.333
15074SOL    HW145248   2.407   5.777   8.433
15074SOL    HW245249   2.414   5.878   8.304
15075SOL     OW45250   2.870   7.042   7.925
15075SOL    HW145251   2.824   7.114   7.873
15075SOL    HW245252   2.866   7.062   8.023
15076SOL     OW45253   2.213   7.387   8.301
15076SOL    HW145254   2.263   7.301   8.307
15076SOL    HW245255   2.278   7.464   8.298
15077SOL     OW45256   3.657   6.652   8.321
15077SOL    HW145257   3.595   6.637   8.245
15077SOL    HW245258   3.605   6.663   8.406
15078SOL     OW45259   3.089   7.136   8.954
15078SOL    HW145260   3.095   7.059   9.018
15078SOL    HW245261   3.037   7.110   8.874
15079SOL     OW45262   2.183   6.529   7.690
15079SOL    HW145263   2.265   6.568   7.648
15079SOL    HW245264   2.156   6.447   7.641
15080SOL     OW45265   3.320   6.321   8.176
15080SOL    HW145266   3.315   6.256   8.251
15080SOL    HW245267   3.400   6.380   8.189
15081SOL     OW45268   2.323   6.852   9.175
15081SOL    HW145269   2.273   6.853   9.089
15081SOL    HW245270   2.260   6.834   9.251
15082SOL     OW45271   2.973   7.362   7.685
15082SOL    HW145272   2.913   7.300   7.735
15082SOL    HW245273   3.004   7.318   7.600
15083SOL     OW45274   2.064   5.871   8.946
15083SOL    HW145275   1.984   5.931   8.933
15083SOL    HW245276   2.054   5.822   9.032
15084SOL     OW45277   3.494   6.963   7.529
15084SOL    HW145278   3.462   7.057   7.519
15084SOL    HW245279   3.418   6.900   7.517
15085SOL     OW45280   2.326   7.329   7.771
15085SOL    HW145281   2.359   7.368   7.857
15085SOL    HW245282   2.402   7.322   7.706
15086SOL     OW45283   3.262   5.693   7.874
15086SOL    HW145284   3.238   5.656   7.784
15086SOL    HW245285   3.361   5.709   7.878
15087SOL     OW45286   2.111   7.371   8.689
15087SOL    HW145287   2.168   7.306   8.739
15087SOL    HW245288   2.095   7.338   8.596
15088SOL     OW45289   2.802   7.284   8.352
15088SOL    HW145290   2.882   7.227   8.373
15088SOL    HW245291   2.753   7.244   8.275
15089SOL     OW45292   2.244   6.286   7.928
15089SOL    HW145293   2.289   6.196   7.925
15089SOL    HW245294   2.150   6.275   7.961
15090SOL     OW45295   3.409   5.808   9.177
15090SOL    HW145296   3.404   5.845   9.269
15090SOL    HW245297   3.337   5.739   9.165
15091SOL     OW45298   2.476   5.708   7.565
15091SOL    HW145299   2.574   5.686   7.572
15091SOL    HW245300   2.445   5.691   7.472
15092SOL     OW45301   2.643   5.850   9.197
15092SOL    HW145302   2.710   5.789   9.240
15092SOL    HW245303   2.570   5.869   9.262
15093SOL     OW45304   2.750   7.100   8.643
15093SOL    HW145305   2.727   7.075   8.549
15093SOL    HW245306   2.811   7.031   8.682
15094SOL     OW45307   3.213   6.176   8.881
15094SOL    HW145308   3.241   6.133   8.966
15094SOL    HW245309   3.238   6.272   8.882
15095SOL     OW45310   2.665   6.988   8.372
15095SOL    HW145311   2.755   7.002   8.330
15095SOL    HW245312   2.594   6.990   8.301
15096SOL     OW45313   2.784   6.089   8.347
15096SOL    HW145314   2.759   6.080   8.251
15096SOL    HW245315   2.832   6.007   8.378
15097SOL     OW45316   2.401   5.650   7.960
15097SOL    HW145317   2.320   5.651   8.018
15097SOL    HW245318   2.404   5.733   7.905
15098SOL     OW45319   3.296   6.774   7.489
15098SOL    HW145320   3.328   6.698   7.546
15098SOL    HW245321   3.204   6.801   7.519
15099SOL     OW45322   2.159   5.621   7.619
15099SOL    HW145323   2.208   5.705   7.598
15099SOL    HW245324   2.221   5.556   7.664
15100SOL     OW45325   2.797   5.822   7.928
15100SOL    HW145326   2.749   5.863   7.850
15100SOL    HW245327   2.896   5.820   7.909
15101SOL     OW45328   2.938   6.269   8.912
15101SOL    HW145329   2.858   6.208   8.915
15101SOL    HW245330   3.019   6.216   8.888
15102SOL     OW45331   3.089   7.156   8.241
15102SOL    HW145332   3.110   7.230   8.176
15102SOL    HW245333   3.157   7.156   8.314
15103SOL     OW45334   2.321   6.738   8.189
15103SOL    HW145335   2.250   6.711   8.254
15103SOL    HW245336   2.295   6.710   8.096
15104SOL     OW45337   3.133   7.383   8.039
15104SOL    HW145338   3.177   7.447   7.975
15104SOL    HW245339   3.083   7.435   8.109
15105SOL     OW45340   2.894   6.135   7.464
15105SOL    HW145341   2.853   6.217   7.425
15105SOL    HW245342   2.958   6.161   7.537
15106SOL     OW45343   1.940   6.142   8.834
15106SOL    HW145344   2.032   6.141   8.793
15106SOL    HW245345   1.934   6.216   8.901
15107SOL     OW45346   2.423   5.808   8.595
15107SOL    HW145347   2.461   5.724   8.632
15107SOL    HW245348   2.335   5.827   8.639
15108SOL     OW45349   2.728   6.040   8.090
15108SOL    HW145350   2.696   6.112   8.028
15108SOL    HW245351   2.752   5.959   8.037
15109SOL     OW45352   2.879   5.625   8.201
15109SOL    HW145353   2.807   5.630   8.132
15109SOL    HW245354   2.855   5.556   8.270
15110SOL     OW45355   3.291   6.759   8.315
15110SOL    HW145356   3.236   6.675   8.308
15110SOL    HW245357   3.317   6.788   8.223
15111SOL     OW45358   3.328   6.176   8.440
15111SOL    HW145359   3.298   6.081   8.447
15111SOL    HW245360   3.401   6.192   8.506
15112SOL     OW45361   3.719   6.419   7.825
15112SOL    HW145362   3.761   6.355   7.889
15112SOL    HW245363   3.681   6.368   7.747
15113SOL     OW45364   2.350   6.971   7.622
15113SOL    HW145365   2.263   6.956   7.669
15113SOL    HW245366   2.333   6.997   7.527
15114SOL     OW45367   3.526   6.866   8.105
15114SOL    HW145368   3.625   6.874   8.119
15114SOL    HW245369   3.481   6.950   8.136
15115SOL     OW45370   3.252   6.161   7.526
15115SOL    HW145371   3.198   6.140   7.607
15115SOL    HW245372   3.343   6.120   7.535
15116SOL     OW45373   2.389   5.842   7.776
15116SOL    HW145374   2.416   5.783   7.701
15116SOL    HW245375   2.389   5.937   7.745
15117SOL     OW45376   3.616   6.809   9.036
15117SOL    HW145377   3.707   6.770   9.023
15117SOL    HW245378   3.624   6.905   9.060
15118SOL     OW45379   2.926   6.933   8.788
15118SOL    HW145380   2.846   6.910   8.843
15118SOL    HW245381   3.009   6.907   8.837
15119SOL     OW45382   3.454   7.215   9.073
15119SOL    HW145383   3.481   7.249   8.983
15119SOL    HW245384   3.533   7.177   9.119
15120SOL     OW45385   2.973   6.781   8.548
15120SOL    HW145386   2.933   6.825   8.629
15120SOL    HW245387   2.932   6.818   8.465
15121SOL     OW45388   3.500   6.685   8.527
15121SOL    HW145389   3.505   6.766   8.586
15121SOL    HW245390   3.414   6.687   8.476
15122SOL     OW45391   2.777   5.675   8.850
15122SOL    HW145392   2.802   5.655   8.755
15122SOL    HW245393   2.849   5.731   8.892
15123SOL     OW45394   2.842   6.702   9.167
15123SOL    HW145395   2.743   6.708   9.177
15123SOL    HW245396   2.865   6.622   9.111
15124SOL     OW45397   2.567   6.636   7.816
15124SOL    HW145398   2.553   6.643   7.915
15124SOL    HW245399   2.651   6.585   7.798
15125SOL     OW45400   2.272   6.399   8.699
15125SOL    HW145401   2.358   6.411   8.749
15125SOL    HW245402   2.230   6.312   8.726
15126SOL     OW45403   3.136   5.972   8.710
15126SOL    HW145404   3.157   6.046   8.774
15126SOL    HW245405   3.047   5.989   8.667
15127SOL     OW45406   1.926   7.150   8.779
15127SOL    HW145407   1.880   7.232   8.745
15127SOL    HW245408   2.024   7.169   8.788
15128SOL     OW45409   2.229   6.686   7.949
15128SOL    HW145410   2.222   6.769   7.893
15128SOL    HW245411   2.233   6.606   7.889
15129SOL     OW45412   2.428   6.123   8.313
15129SOL    HW145413   2.440   6.189   8.239
15129SOL    HW245414   2.474   6.157   8.396
15130SOL     OW45415   3.114   6.934   7.836
15130SOL    HW145416   3.164   7.011   7.876
15130SOL    HW245417   3.019   6.936   7.868
15131SOL     OW45418   3.134   7.031   8.590
15131SOL    HW145419   3.181   7.044   8.677
15131SOL    HW245420   3.068   6.957   8.599
15132SOL     OW45421   3.444   6.225   7.920
15132SOL    HW145422   3.413   6.286   7.993
15132SOL    HW245423   3.494   6.277   7.851
15133SOL     OW45424   2.216   7.096   8.777
15133SOL    HW145425   2.195   7.052   8.690
15133SOL    HW245426   2.313   7.122   8.780
15134SOL     OW45427   2.264   6.337   9.046
15134SOL    HW145428   2.332   6.392   8.999
15134SOL    HW245429   2.304   6.249   9.073
15135SOL     OW45430   3.449   6.365   9.118
15135SOL    HW145431   3.357   6.403   9.113
15135SOL    HW245432   3.509   6.412   9.053
15136SOL     OW45433   2.875   5.691   9.218
15136SOL    HW145434   2.881   5.776   9.166
15136SOL    HW245435   2.907   5.615   9.161
15137SOL     OW45436   2.366   5.636   9.188
15137SOL    HW145437   2.324   5.579   9.118
15137SOL    HW245438   2.300   5.705   9.220
15138SOL     OW45439   2.435   6.456   8.477
15138SOL    HW145440   2.479   6.545   8.468
15138SOL    HW245441   2.372   6.456   8.554
15139SOL     OW45442   3.222   6.448   8.493
15139SOL    HW145443   3.147   6.448   8.427
15139SOL    HW245444   3.259   6.356   8.502
15140SOL     OW45445   3.071   6.111   7.723
15140SOL    HW145446   3.084   6.027   7.777
15140SOL    HW245447   3.042   6.185   7.783
15141SOL     OW45448   2.169   5.799   8.679
15141SOL    HW145449   2.146   5.836   8.769
15141SOL    HW245450   2.139   5.704   8.673
15142SOL     OW45451   1.899   6.896   8.730
15142SOL    HW145452   1.952   6.847   8.798
15142SOL    HW245453   1.921   6.994   8.735
15143SOL     OW45454   2.594   6.220   8.512
15143SOL    HW145455   2.653   6.194   8.436
15143SOL    HW245456   2.566   6.316   8.501
15144SOL     OW45457   3.590   6.521   9.302
15144SOL    HW145458   3.544   6.514   9.213
15144SOL    HW245459   3.528   6.565   9.368
15145SOL     OW45460   2.169   5.649   8.066
15145SOL    HW145461   2.158   5.743   8.099
15145SOL    HW245462   2.164   5.586   8.143
15146SOL     OW45463   3.484   5.953   7.822
15146SOL    HW145464   3.486   5.877   7.886
15146SOL    HW245465   3.436   6.030   7.862
15147SOL     OW45466   2.885   6.352   8.414
15147SOL    HW145467   2.900   6.373   8.510
15147SOL    HW245468   2.855   6.257   8.405
15148SOL     OW45469   2.842   7.159   9.148
15148SOL    HW145470   2.822   7.203   9.060
15148SOL    HW245471   2.881   7.068   9.132
15149SOL     OW45472   3.721   7.104   9.053
15149SOL    HW145473   3.735   7.131   8.958
15149SOL    HW245474   3.804   7.126   9.106
15150SOL     OW45475   2.212   6.484   9.252
15150SOL    HW145476   2.288   6.528   9.300
15150SOL    HW245477   2.247   6.437   9.170
15151SOL     OW45478   3.402   5.860   7.573
15151SOL    HW145479   3.341   5.785   7.596
15151SOL    HW245480   3.424   5.912   7.656
15152SOL     OW45481   3.165   6.424   7.490
15152SOL    HW145482   3.199   6.331   7.505
15152SOL    HW245483   3.183   6.451   7.395
15153SOL     OW45484   2.930   6.919   8.297
15153SOL    HW145485   2.937   6.835   8.242
15153SOL    HW245486   2.992   6.988   8.261
15154SOL     OW45487   2.181   6.396   8.397
15154SOL    HW145488   2.274   6.432   8.402
15154SOL    HW245489   2.175   6.311   8.449
15155SOL     OW45490   2.201   6.095   8.454
15155SOL    HW145491   2.149   6.012   8.437
15155SOL    HW245492   2.278   6.100   8.390
15156SOL     OW45493   3.000   5.966   9.126
15156SOL    HW145494   2.955   6.029   9.190
15156SOL    HW245495   3.093   5.997   9.109
15157SOL     OW45496   3.022   5.793   8.925
15157SOL    HW145497   3.022   5.857   9.002
15157SOL    HW245498   3.050   5.841   8.842
15158SOL     OW45499   1.870   6.912   7.648
15158SOL    HW145500   1.777   6.933   7.617
15158SOL    HW245501   1.880   6.813   7.661
15159SOL     OW45502   1.950   7.387   8.375
15159SOL    HW145503   1.908   7.301   8.348
15159SOL    HW245504   2.044   7.390   8.341
15160SOL     OW45505   2.366   7.154   8.358
15160SOL    HW145506   2.432   7.228   8.367
15160SOL    HW245507   2.410   7.075   8.316
15161SOL     OW45508   2.864   6.382   8.686
15161SOL    HW145509   2.905   6.350   8.772
15161SOL    HW245510   2.768   6.355   8.683
15162SOL     OW45511   1.902   6.130   8.562
15162SOL    HW145512   1.987   6.097   8.521
15162SOL    HW245513   1.915   6.145   8.660
15163SOL     OW45514   2.051   6.106   9.170
15163SOL    HW145515   2.110   6.066   9.100
15163SOL    HW245516   1.993   6.177   9.129
15164SOL     OW45517   3.231   6.536   9.108
15164SOL    HW145518   3.270   6.625   9.128
15164SOL    HW245519   3.241   6.516   9.011
15165SOL     OW45520   2.677   6.158   7.773
15165SOL    HW145521   2.684   6.069   7.727
15165SOL    HW245522   2.583   6.192   7.765
15166SOL     OW45523   3.519   6.190   8.654
15166SOL    HW145524   3.481   6.121   8.716
15166SOL    HW245525   3.601   6.154   8.610
15167SOL     OW45526   2.114   7.150   9.192
15167SOL    HW145527   2.084   7.207   9.268
15167SOL    HW245528   2.107   7.053   9.218
15168SOL     OW45529   2.533   6.050   8.717
15168SOL    HW145530   2.499   5.961   8.687
15168SOL    HW245531   2.559   6.104   8.637
15169SOL     OW45532   2.792   7.264   8.913
15169SOL    HW145533   2.768   7.246   8.818
15169SOL    HW245534   2.822   7.358   8.923
15170SOL     OW45535   2.335   6.086   7.639
15170SOL    HW145536   2.396   6.166   7.643
15170SOL    HW245537   2.240   6.117   7.646
15171SOL     OW45538   2.021   6.723   8.914
15171SOL    HW145539   2.043   6.662   8.990
15171SOL    HW245540   2.031   6.674   8.828
15172SOL     OW45541   3.209   6.645   8.682
15172SOL    HW145542   3.233   6.582   8.608
15172SOL    HW245543   3.119   6.685   8.664
15173SOL     OW45544   3.164   6.441   7.757
15173SOL    HW145545   3.078   6.410   7.799
15173SOL    HW245546   3.160   6.427   7.658
15174SOL     OW45547   3.621   7.333   8.602
15174SOL    HW145548   3.682   7.363   8.529
15174SOL    HW245549   3.583   7.244   8.580
15175SOL     OW45550   3.114   7.317   8.576
15175SOL    HW145551   3.198   7.322   8.522
15175SOL    HW245552   3.091   7.221   8.594
15176SOL     OW45553   1.945   6.844   8.470
15176SOL    HW145554   1.940   6.843   8.570
15176SOL    HW245555   1.862   6.803   8.432
15177SOL     OW45556   2.550   7.248   9.164
15177SOL    HW145557   2.494   7.329   9.173
15177SOL    HW245558   2.602   7.252   9.078
15178SOL     OW45559   3.588   5.721   7.971
15178SOL    HW145560   3.661   5.704   7.904
15178SOL    HW245561   3.557   5.634   8.009
15179SOL     OW45562   3.250   7.159   7.925
15179SOL    HW145563   3.317   7.171   7.851
15179SOL    HW245564   3.210   7.248   7.948
15180SOL     OW45565   1.992   7.380   9.299
15180SOL    HW145566   1.951   7.306   9.352
15180SOL    HW245567   2.056   7.431   9.357
15181SOL     OW45568   3.142   6.513   8.120
15181SOL    HW145569   3.202   6.432   8.122
15181SOL    HW245570   3.182   6.582   8.060
15182SOL     OW45571   2.692   6.859   8.870
15182SOL    HW145572   2.687   6.892   8.965
15182SOL    HW245573   2.606   6.878   8.824
15183SOL     OW45574   2.534   7.202   7.602
15183SOL    HW145575   2.543   7.212   7.503
15183SOL    HW245576   2.494   7.113   7.623
15184SOL     OW45577   3.512   7.306   8.842
15184SOL    HW145578   3.565   7.316   8.758
15184SOL    HW245579   3.485   7.396   8.876
15185SOL     OW45580   3.703   5.761   8.411
15185SOL    HW145581   3.742   5.676   8.375
15185SOL    HW245582   3.605   5.763   8.392
15186SOL     OW45583   2.125   5.912   8.168
15186SOL    HW145584   2.046   5.963   8.134
15186SOL    HW245585   2.116   5.897   8.266
15187SOL     OW45586   3.056   7.198   7.479
15187SOL    HW145587   3.062   7.105   7.516
15187SOL    HW245588   2.997   7.198   7.399
15188SOL     OW45589   2.684   6.588   8.820
15188SOL    HW145590   2.724   6.587   8.728
15188SOL    HW245591   2.694   6.680   8.860
15189SOL     OW45592   2.778   6.496   7.739
15189SOL    HW145593   2.841   6.534   7.671
15189SOL    HW245594   2.818   6.413   7.778
15190SOL     OW45595   3.366   7.193   7.492
15190SOL    HW145596   3.274   7.230   7.499
15190SOL    HW245597   3.404   7.213   7.402
15191SOL     OW45598   2.234   6.874   8.938
15191SOL    HW145599   2.221   6.967   8.904
15191SOL    HW245600   2.150   6.822   8.925
15192SOL     OW45601   3.476   6.878   8.737
15192SOL    HW145602   3.536   6.881   8.817
15192SOL    HW245603   3.401   6.942   8.750
15193SOL     OW45604   2.901   6.684   8.144
15193SOL    HW145605   2.831   6.637   8.198
15193SOL    HW245606   2.960   6.616   8.101
15194SOL     OW45607   2.876   5.822   8.419
15194SOL    HW145608   2.868   5.786   8.326
15194SOL    HW245609   2.874   5.746   8.484
15195SOL     OW45610   2.452   7.073   7.939
15195SOL    HW145611   2.494   7.015   7.869
15195SOL    HW245612   2.408   7.152   7.895
15196SOL     OW45613   3.571   5.971   8.829
15196SOL    HW145614   3.644   6.040   8.833
15196SOL    HW245615   3.599   5.896   8.770
15197SOL     OW45616   2.117   6.934   7.738
15197SOL    HW145617   2.021   6.935   7.711
15197SOL    HW245618   2.129   6.987   7.822
15198SOL     OW45619   1.967   6.599   9.174
15198SOL    HW145620   1.890   6.566   9.228
15198SOL    HW245621   2.052   6.569   9.216
15199SOL     OW45622   2.534   5.789   8.937
15199SOL    HW145623   2.624   5.773   8.897
15199SOL    HW245624   2.542   5.794   9.036
15200SOL     OW45625   1.937   5.931   7.481
15200SOL    HW145626   1.845   5.903   7.452
15200SOL    HW245627   1.968   6.008   7.425
15201SOL     OW45628   3.302   6.442   8.846
15201SOL    HW145629   3.245   6.494   8.783
15201SOL    HW245630   3.398   6.454   8.822
15202SOL     OW45631   1.934   5.752   7.766
15202SOL    HW145632   1.917   5.835   7.712
15202SOL    HW245633   2.024   5.715   7.744
15203SOL     OW45634   3.045   6.921   7.567
15203SOL    HW145635   2.946   6.910   7.569
15203SOL    HW245636   3.079   6.936   7.660
15204SOL     OW45637   2.475   6.428   8.879
15204SOL    HW145638   2.531   6.509   8.862
15204SOL    HW245639   2.534   6.348   8.882
15205SOL     OW45640   3.355   7.353   8.407
15205SOL    HW145641   3.388   7.417   8.338
15205SOL    HW245642   3.421   7.347   8.482
15206SOL     OW45643   2.578   6.151   9.156
15206SOL    HW145644   2.597   6.216   9.230
15206SOL    HW245645   2.638   6.071   9.165
15207SOL     OW45646   3.312   6.806   9.081
15207SOL    HW145647   3.303   6.796   9.180
15207SOL    HW245648   3.408   6.799   9.055
15208SOL     OW45649   2.252   7.327   9.008
15208SOL    HW145650   2.161   7.368   9.006
15208SOL    HW245651   2.245   7.233   9.040
15209SOL     OW45652   3.536   6.469   8.702
15209SOL    HW145653   3.509   6.380   8.665
15209SOL    HW245654   3.537   6.537   8.629
15210SOL     OW45655   3.087   5.911   7.897
15210SOL    HW145656   3.152   5.837   7.886
15210SOL    HW245657   3.107   5.961   7.981
15211SOL     OW45658   2.456   6.331   8.100
15211SOL    HW145659   2.506   6.416   8.081
15211SOL    HW245660   2.368   6.333   8.052
15212SOL     OW45661   3.639   5.928   9.090
15212SOL    HW145662   3.622   5.959   8.996
15212SOL    HW245663   3.555   5.891   9.128
15213SOL     OW45664   3.592   6.520   8.965
15213SOL    HW145665   3.630   6.611   8.980
15213SOL    HW245666   3.584   6.503   8.866
15214SOL     OW45667   2.721   6.960   7.464
15214SOL    HW145668   2.675   6.975   7.552
15214SOL    HW245669   2.765   7.045   7.434
15215SOL     OW45670   2.523   7.376   8.401
15215SOL    HW145671   2.477   7.464   8.388
15215SOL    HW245672   2.622   7.388   8.394
15216SOL     OW45673   2.721   6.542   8.309
15216SOL    HW145674   2.775   6.473   8.357
15216SOL    HW245675   2.689   6.611   8.375
15217SOL     OW45676   2.945   6.570   7.535
15217SOL    HW145677   2.922   6.623   7.453
15217SOL    HW245678   3.026   6.514   7.516
15218SOL     OW45679   3.723   7.155   8.299
15218SOL    HW145680   3.652   7.143   8.229
15218SOL    HW245681   3.724   7.076   8.359
15219SOL     OW45682   2.083   6.900   9.292
15219SOL    HW145683   2.018   6.827   9.271
15219SOL    HW245684   2.087   6.914   9.390
15220SOL     OW45685   1.941   6.826   8.101
15220SOL    HW145686   1.940   6.779   8.189
15220SOL    HW245687   2.023   6.798   8.050
15221SOL     OW45688   2.534   6.977   9.072
15221SOL    HW145689   2.456   6.927   9.110
15221SOL    HW245690   2.531   7.072   9.103
15222SOL     OW45691   3.686   5.778   8.675
15222SOL    HW145692   3.682   5.688   8.719
15222SOL    HW245693   3.689   5.767   8.576
15223SOL     OW45694   2.290   6.010   7.968
15223SOL    HW145695   2.320   5.938   7.906
15223SOL    HW245696   2.251   5.970   8.051
15224SOL     OW45697   2.179   6.133   8.728
15224SOL    HW145698   2.217   6.074   8.800
15224SOL    HW245699   2.219   6.107   8.640
15225SOL     OW45700   2.674   7.172   8.135
15225SOL    HW145701   2.706   7.182   8.041
15225SOL    HW245702   2.595   7.110   8.137
15226SOL     OW45703   3.286   5.800   8.560
15226SOL    HW145704   3.338   5.735   8.615
15226SOL    HW245705   3.237   5.863   8.621
15227SOL     OW45706   2.863   5.620   8.602
15227SOL    HW145707   2.800   5.548   8.571
15227SOL    HW245708   2.956   5.584   8.602
15228SOL     OW45709   2.632   6.916   7.749
15228SOL    HW145710   2.586   6.829   7.766
15228SOL    HW245711   2.723   6.913   7.790
15229SOL     OW45712   2.480   7.153   8.732
15229SOL    HW145713   2.475   7.235   8.789
15229SOL    HW245714   2.569   7.150   8.687
15230SOL     OW45715   3.214   5.638   7.616
15230SOL    HW145716   3.249   5.597   7.532
15230SOL    HW245717   3.124   5.600   7.636
15231SOL     OW45718   3.162   6.039   8.139
15231SOL    HW145719   3.103   6.119   8.143
15231SOL    HW245720   3.177   6.004   8.232
15232SOL     OW45721   3.455   5.807   8.330
15232SOL    HW145722   3.371   5.806   8.384
15232SOL    HW245723   3.457   5.890   8.274
15233SOL     OW45724   1.901   6.663   7.748
15233SOL    HW145725   2.000   6.652   7.739
15233SOL    HW245726   1.861   6.577   7.780
15234SOL     OW45727   2.737   7.232   7.785
15234SOL    HW145728   2.660   7.197   7.731
15234SOL    HW245729   2.705   7.303   7.847
15235SOL     OW45730   2.092   6.214   9.423
15235SOL    HW145731   1.999   6.212   9.460
15235SOL    HW245732   2.093   6.175   9.331
15236SOL     OW45733   2.087   5.861  10.306
15236SOL    HW145734   2.122   5.844  10.398
15236SOL    HW245735   1.999   5.816  10.294
15237SOL     OW45736   1.881   5.954   9.957
15237SOL    HW145737   1.799   5.997   9.996
15237SOL    HW245738   1.853   5.881   9.894
15238SOL     OW45739   2.431   6.861  10.475
15238SOL    HW145740   2.338   6.854  10.438
15238SOL    HW245741   2.442   6.950  10.519
15239SOL     OW45742   3.417   7.097  10.013
15239SOL    HW145743   3.360   7.081  10.094
15239SOL    HW245744   3.358   7.107   9.933
15240SOL     OW45745   2.997   6.289  10.027
15240SOL    HW145746   3.054   6.367  10.002
15240SOL    HW245747   2.937   6.315  10.103
15241SOL     OW45748   3.617   6.193   9.541
15241SOL    HW145749   3.605   6.180   9.442
15241SOL    HW245750   3.587   6.112   9.590
15242SOL     OW45751   2.630   6.730  10.333
15242SOL    HW145752   2.552   6.747  10.393
15242SOL    HW245753   2.664   6.817  10.297
15243SOL     OW45754   2.712   6.384  11.133
15243SOL    HW145755   2.708   6.460  11.198
15243SOL    HW245756   2.734   6.420  11.042
15244SOL     OW45757   2.547   6.598   9.975
15244SOL    HW145758   2.616   6.582  10.045
15244SOL    HW245759   2.474   6.655  10.013
15245SOL     OW45760   2.548   6.747  11.113
15245SOL    HW145761   2.608   6.826  11.127
15245SOL    HW245762   2.462   6.778  11.072
15246SOL     OW45763   2.197   7.021  10.371
15246SOL    HW145764   2.119   6.990  10.318
15246SOL    HW245765   2.255   7.079  10.314
15247SOL     OW45766   3.322   7.091  10.649
15247SOL    HW145767   3.346   7.185  10.675
15247SOL    HW245768   3.306   7.037  10.731
15248SOL     OW45769   2.300   5.978  10.809
15248SOL    HW145770   2.382   5.922  10.818
15248SOL    HW245771   2.219   5.920  10.813
15249SOL     OW45772   3.465   6.033  10.047
15249SOL    HW145773   3.391   6.079   9.997
15249SOL    HW245774   3.516   6.101  10.100
15250SOL     OW45775   2.093   7.299   9.793
15250SOL    HW145776   2.127   7.376   9.847
15250SOL    HW245777   2.137   7.299   9.703
15251SOL     OW45778   2.989   6.927  11.000
15251SOL    HW145779   3.036   6.927  11.088
15251SOL    HW245780   2.941   6.840  10.989
15252SOL     OW45781   2.092   7.020   9.848
15252SOL    HW145782   2.066   7.116   9.848
15252SOL    HW245783   2.021   6.966   9.893
15253SOL     OW45784   2.102   6.677  10.196
15253SOL    HW145785   2.116   6.593  10.248
15253SOL    HW245786   2.047   6.741  10.251
15254SOL     OW45787   2.482   7.372  10.749
15254SOL    HW145788   2.390   7.355  10.784
15254SOL    HW245789   2.510   7.464  10.775
15255SOL     OW45790   2.468   6.550   9.433
15255SOL    HW145791   2.475   6.634   9.379
15255SOL    HW245792   2.514   6.563   9.521
15256SOL     OW45793   3.456   5.700  10.790
15256SOL    HW145794   3.438   5.767  10.718
15256SOL    HW245795   3.453   5.746  10.879
15257SOL     OW45796   1.984   6.229   9.873
15257SOL    HW145797   1.939   6.141   9.890
15257SOL    HW245798   1.983   6.283   9.957
15258SOL     OW45799   3.704   7.353   9.669
15258SOL    HW145800   3.758   7.324   9.749
15258SOL    HW245801   3.734   7.443   9.640
15259SOL     OW45802   1.889   7.182   9.427
15259SOL    HW145803   1.870   7.086   9.448
15259SOL    HW245804   1.856   7.240   9.502
15260SOL     OW45805   3.551   6.508   9.922
15260SOL    HW145806   3.646   6.479   9.930
15260SOL    HW245807   3.543   6.573   9.847
15261SOL     OW45808   3.503   6.694   9.742
15261SOL    HW145809   3.589   6.696   9.690
15261SOL    HW245810   3.517   6.741   9.830
15262SOL     OW45811   1.975   6.323  10.907
15262SOL    HW145812   2.063   6.310  10.952
15262SOL    HW245813   1.962   6.420  10.885
15263SOL     OW45814   2.475   6.951  10.036
15263SOL    HW145815   2.426   6.864  10.045
15263SOL    HW245816   2.452   6.994   9.949
15264SOL     OW45817   3.155   6.814  10.733
15264SOL    HW145818   3.192   6.741  10.675
15264SOL    HW245819   3.207   6.819  10.818
15265SOL     OW45820   2.671   5.590   9.812
15265SOL    HW145821   2.711   5.681   9.803
15265SOL    HW245822   2.571   5.598   9.818
15266SOL     OW45823   2.059   6.562  10.574
15266SOL    HW145824   2.148   6.517  10.560
15266SOL    HW245825   1.986   6.497  10.555
15267SOL     OW45826   3.387   6.585   9.500
15267SOL    HW145827   3.324   6.509   9.513
15267SOL    HW245828   3.435   6.603   9.586
15268SOL     OW45829   3.049   7.378  10.926
15268SOL    HW145830   3.073   7.438  10.850
15268SOL    HW245831   3.056   7.283  10.896
15269SOL     OW45832   2.179   5.837  11.111
15269SOL    HW145833   2.250   5.908  11.117
15269SOL    HW245834   2.091   5.876  11.139
15270SOL     OW45835   3.328   7.003  10.263
15270SOL    HW145836   3.269   7.009  10.343
15270SOL    HW245837   3.313   6.915  10.217
15271SOL     OW45838   3.529   7.300   9.882
15271SOL    HW145839   3.488   7.277   9.794
15271SOL    HW245840   3.511   7.226   9.947
15272SOL     OW45841   2.460   6.315   9.580
15272SOL    HW145842   2.484   6.384   9.512
15272SOL    HW245843   2.382   6.348   9.634
15273SOL     OW45844   3.143   5.931  10.254
15273SOL    HW145845   3.057   5.881  10.241
15273SOL    HW245846   3.205   5.877  10.310
15274SOL     OW45847   3.438   7.248   9.617
15274SOL    HW145848   3.527   7.294   9.620
15274SOL    HW245849   3.417   7.224   9.522
15275SOL     OW45850   2.669   6.191  10.775
15275SOL    HW145851   2.622   6.188  10.864
15275SOL    HW245852   2.618   6.136  10.709
15276SOL     OW45853   3.256   6.055  10.984
15276SOL    HW145854   3.236   6.098  11.072
15276SOL    HW245855   3.334   5.993  10.993
15277SOL     OW45856   2.835   6.476  10.882
15277SOL    HW145857   2.881   6.392  10.853
15277SOL    HW245858   2.779   6.510  10.807
15278SOL     OW45859   2.853   5.996  10.552
15278SOL    HW145860   2.776   6.030  10.606
15278SOL    HW245861   2.819   5.945  10.473
15279SOL     OW45862   2.903   6.287   9.739
15279SOL    HW145863   2.929   6.283   9.835
15279SOL    HW245864   2.818   6.236   9.725
15280SOL     OW45865   1.938   6.397  10.099
15280SOL    HW145866   2.037   6.385  10.108
15280SOL    HW245867   1.914   6.492  10.120
15281SOL     OW45868   1.992   7.407  10.881
15281SOL    HW145869   1.982   7.392  10.980
15281SOL    HW245870   1.906   7.443  10.845
15282SOL     OW45871   2.727   5.934   9.505
15282SOL    HW145872   2.786   5.997   9.456
15282SOL    HW245873   2.746   5.840   9.476
15283SOL     OW45874   3.581   6.171  11.141
15283SOL    HW145875   3.555   6.260  11.105
15283SOL    HW245876   3.579   6.103  11.068
15284SOL     OW45877   3.224   6.730   9.855
15284SOL    HW145878   3.307   6.701   9.807
15284SOL    HW245879   3.175   6.797   9.799
15285SOL     OW45880   2.412   5.782  10.195
15285SOL    HW145881   2.407   5.777  10.295
15285SOL    HW245882   2.414   5.878  10.166
15286SOL     OW45883   2.870   7.042   9.787
15286SOL    HW145884   2.824   7.114   9.735
15286SOL    HW245885   2.866   7.062   9.885
15287SOL     OW45886   2.213   7.387  10.163
15287SOL    HW145887   2.263   7.301  10.169
15287SOL    HW245888   2.278   7.464  10.160
15288SOL     OW45889   3.657   6.652  10.183
15288SOL    HW145890   3.595   6.637  10.107
15288SOL    HW245891   3.605   6.663  10.268
15289SOL     OW45892   3.089   7.136  10.816
15289SOL    HW145893   3.095   7.059  10.880
15289SOL    HW245894   3.037   7.110  10.736
15290SOL     OW45895   2.183   6.529   9.552
15290SOL    HW145896   2.265   6.568   9.510
15290SOL    HW245897   2.156   6.447   9.503
15291SOL     OW45898   3.320   6.321  10.038
15291SOL    HW145899   3.315   6.256  10.113
15291SOL    HW245900   3.400   6.380  10.051
15292SOL     OW45901   2.323   6.852  11.037
15292SOL    HW145902   2.273   6.853  10.951
15292SOL    HW245903   2.260   6.834  11.113
15293SOL     OW45904   2.973   7.362   9.547
15293SOL    HW145905   2.913   7.300   9.597
15293SOL    HW245906   3.004   7.318   9.462
15294SOL     OW45907   2.064   5.871  10.808
15294SOL    HW145908   1.984   5.931  10.795
15294SOL    HW245909   2.054   5.822  10.894
15295SOL     OW45910   3.494   6.963   9.391
15295SOL    HW145911   3.462   7.057   9.381
15295SOL    HW245912   3.418   6.900   9.379
15296SOL     OW45913   2.326   7.329   9.633
15296SOL    HW145914   2.359   7.368   9.719
15296SOL    HW245915   2.402   7.322   9.568
15297SOL     OW45916   3.262   5.693   9.736
15297SOL    HW145917   3.238   5.656   9.646
15297SOL    HW245918   3.361   5.709   9.740
15298SOL     OW45919   2.111   7.371  10.551
15298SOL    HW145920   2.168   7.306  10.601
15298SOL    HW245921   2.095   7.338  10.458
15299SOL     OW45922   2.802   7.284  10.214
15299SOL    HW145923   2.882   7.227  10.235
15299SOL    HW245924   2.753   7.244  10.137
15300SOL     OW45925   2.244   6.286   9.790
15300SOL    HW145926   2.289   6.196   9.787
15300SOL    HW245927   2.150   6.275   9.823
15301SOL     OW45928   3.409   5.808  11.039
15301SOL    HW145929   3.404   5.845  11.131
15301SOL    HW245930   3.337   5.739  11.027
15302SOL     OW45931   2.476   5.708   9.427
15302SOL    HW145932   2.574   5.686   9.434
15302SOL    HW245933   2.445   5.691   9.334
15303SOL     OW45934   2.643   5.850  11.059
15303SOL    HW145935   2.710   5.789  11.102
15303SOL    HW245936   2.570   5.869  11.124
15304SOL     OW45937   2.750   7.100  10.505
15304SOL    HW145938   2.727   7.075  10.411
15304SOL    HW245939   2.811   7.031  10.544
15305SOL     OW45940   3.213   6.176  10.743
15305SOL    HW145941   3.241   6.133  10.828
15305SOL    HW245942   3.238   6.272  10.744
15306SOL     OW45943   2.665   6.988  10.234
15306SOL    HW145944   2.755   7.002  10.192
15306SOL    HW245945   2.594   6.990  10.163
15307SOL     OW45946   2.784   6.089  10.209
15307SOL    HW145947   2.759   6.080  10.113
15307SOL    HW245948   2.832   6.007  10.240
15308SOL     OW45949   2.401   5.650   9.822
15308SOL    HW145950   2.320   5.651   9.880
15308SOL    HW245951   2.404   5.733   9.767
15309SOL     OW45952   3.296   6.774   9.351
15309SOL    HW145953   3.328   6.698   9.408
15309SOL    HW245954   3.204   6.801   9.381
15310SOL     OW45955   2.159   5.621   9.481
15310SOL    HW145956   2.208   5.705   9.460
15310SOL    HW245957   2.221   5.556   9.526
15311SOL     OW45958   2.797   5.822   9.790
15311SOL    HW145959   2.749   5.863   9.712
15311SOL    HW245960   2.896   5.820   9.771
15312SOL     OW45961   2.938   6.269  10.774
15312SOL    HW145962   2.858   6.208  10.777
15312SOL    HW245963   3.019   6.216  10.750
15313SOL     OW45964   3.089   7.156  10.103
15313SOL    HW145965   3.110   7.230  10.038
15313SOL    HW245966   3.157   7.156  10.176
15314SOL     OW45967   2.321   6.738  10.051
15314SOL    HW145968   2.250   6.711  10.116
15314SOL    HW245969   2.295   6.710   9.958
15315SOL     OW45970   3.133   7.383   9.901
15315SOL    HW145971   3.177   7.447   9.837
15315SOL    HW245972   3.083   7.435   9.971
15316SOL     OW45973   2.894   6.135   9.326
15316SOL    HW145974   2.853   6.217   9.287
15316SOL    HW245975   2.958   6.161   9.399
15317SOL     OW45976   1.940   6.142  10.696
15317SOL    HW145977   2.032   6.141  10.655
15317SOL    HW245978   1.934   6.216  10.763
15318SOL     OW45979   2.423   5.808  10.457
15318SOL    HW145980   2.461   5.724  10.494
15318SOL    HW245981   2.335   5.827  10.501
15319SOL     OW45982   2.728   6.040   9.952
15319SOL    HW145983   2.696   6.112   9.890
15319SOL    HW245984   2.752   5.959   9.899
15320SOL     OW45985   2.879   5.625  10.063
15320SOL    HW145986   2.807   5.630   9.994
15320SOL    HW245987   2.855   5.556  10.132
15321SOL     OW45988   3.291   6.759  10.177
15321SOL    HW145989   3.236   6.675  10.170
15321SOL    HW245990   3.317   6.788  10.085
15322SOL     OW45991   3.328   6.176  10.302
15322SOL    HW145992   3.298   6.081  10.309
15322SOL    HW245993   3.401   6.192  10.368
15323SOL     OW45994   3.719   6.419   9.687
15323SOL    HW145995   3.761   6.355   9.751
15323SOL    HW245996   3.681   6.368   9.609
15324SOL     OW45997   2.350   6.971   9.484
15324SOL    HW145998   2.263   6.956   9.531
15324SOL    HW245999   2.333   6.997   9.389
15325SOL     OW46000   3.526   6.866   9.967
15325SOL    HW146001   3.625   6.874   9.981
15325SOL    HW246002   3.481   6.950   9.998
15326SOL     OW46003   3.252   6.161   9.388
15326SOL    HW146004   3.198   6.140   9.469
15326SOL    HW246005   3.343   6.120   9.397
15327SOL     OW46006   2.389   5.842   9.638
15327SOL    HW146007   2.416   5.783   9.563
15327SOL    HW246008   2.389   5.937   9.607
15328SOL     OW46009   3.616   6.809  10.898
15328SOL    HW146010   3.707   6.770  10.885
15328SOL    HW246011   3.624   6.905  10.922
15329SOL     OW46012   2.926   6.933  10.650
15329SOL    HW146013   2.846   6.910  10.705
15329SOL    HW246014   3.009   6.907  10.699
15330SOL     OW46015   3.454   7.215  10.935
15330SOL    HW146016   3.481   7.249  10.845
15330SOL    HW246017   3.533   7.177  10.981
15331SOL     OW46018   2.973   6.781  10.410
15331SOL    HW146019   2.933   6.825  10.491
15331SOL    HW246020   2.932   6.818  10.327
15332SOL     OW46021   3.500   6.685  10.389
15332SOL    HW146022   3.505   6.766  10.448
15332SOL    HW246023   3.414   6.687  10.338
15333SOL     OW46024   2.777   5.675  10.712
15333SOL    HW146025   2.802   5.655  10.617
15333SOL    HW246026   2.849   5.731  10.754
15334SOL     OW46027   2.842   6.702  11.029
15334SOL    HW146028   2.743   6.708  11.039
15334SOL    HW246029   2.865   6.622  10.973
15335SOL     OW46030   2.567   6.636   9.678
15335SOL    HW146031   2.553   6.643   9.777
15335SOL    HW246032   2.651   6.585   9.660
15336SOL     OW46033   2.272   6.399  10.561
15336SOL    HW146034   2.358   6.411  10.611
15336SOL    HW246035   2.230   6.312  10.588
15337SOL     OW46036   3.136   5.972  10.572
15337SOL    HW146037   3.157   6.046  10.636
15337SOL    HW246038   3.047   5.989  10.529
15338SOL     OW46039   1.926   7.150  10.641
15338SOL    HW146040   1.880   7.232  10.607
15338SOL    HW246041   2.024   7.169  10.650
15339SOL     OW46042   2.229   6.686   9.811
15339SOL    HW146043   2.222   6.769   9.755
15339SOL    HW246044   2.233   6.606   9.751
15340SOL     OW46045   2.428   6.123  10.175
15340SOL    HW146046   2.440   6.189  10.101
15340SOL    HW246047   2.474   6.157  10.258
15341SOL     OW46048   3.114   6.934   9.698
15341SOL    HW146049   3.164   7.011   9.738
15341SOL    HW246050   3.019   6.936   9.730
15342SOL     OW46051   3.134   7.031  10.452
15342SOL    HW146052   3.181   7.044  10.539
15342SOL    HW246053   3.068   6.957  10.461
15343SOL     OW46054   3.444   6.225   9.782
15343SOL    HW146055   3.413   6.286   9.855
15343SOL    HW246056   3.494   6.277   9.713
15344SOL     OW46057   2.216   7.096  10.639
15344SOL    HW146058   2.195   7.052  10.552
15344SOL    HW246059   2.313   7.122  10.642
15345SOL     OW46060   2.264   6.337  10.908
15345SOL    HW146061   2.332   6.392  10.861
15345SOL    HW246062   2.304   6.249  10.935
15346SOL     OW46063   3.449   6.365  10.980
15346SOL    HW146064   3.357   6.403  10.975
15346SOL    HW246065   3.509   6.412  10.915
15347SOL     OW46066   2.875   5.691  11.080
15347SOL    HW146067   2.881   5.776  11.028
15347SOL    HW246068   2.907   5.615  11.023
15348SOL     OW46069   2.366   5.636  11.050
15348SOL    HW146070   2.324   5.579  10.980
15348SOL    HW246071   2.300   5.705  11.082
15349SOL     OW46072   2.435   6.456  10.339
15349SOL    HW146073   2.479   6.545  10.330
15349SOL    HW246074   2.372   6.456  10.416
15350SOL     OW46075   3.222   6.448  10.355
15350SOL    HW146076   3.147   6.448  10.289
15350SOL    HW246077   3.259   6.356  10.364
15351SOL     OW46078   3.071   6.111   9.585
15351SOL    HW146079   3.084   6.027   9.639
15351SOL    HW246080   3.042   6.185   9.645
15352SOL     OW46081   2.169   5.799  10.541
15352SOL    HW146082   2.146   5.836  10.631
15352SOL    HW246083   2.139   5.704  10.535
15353SOL     OW46084   1.899   6.896  10.592
15353SOL    HW146085   1.952   6.847  10.660
15353SOL    HW246086   1.921   6.994  10.597
15354SOL     OW46087   2.594   6.220  10.374
15354SOL    HW146088   2.653   6.194  10.298
15354SOL    HW246089   2.566   6.316  10.363
15355SOL     OW46090   3.590   6.521  11.164
15355SOL    HW146091   3.544   6.514  11.075
15355SOL    HW246092   3.528   6.565  11.230
15356SOL     OW46093   2.169   5.649   9.928
15356SOL    HW146094   2.158   5.743   9.961
15356SOL    HW246095   2.164   5.586  10.005
15357SOL     OW46096   3.484   5.953   9.684
15357SOL    HW146097   3.486   5.877   9.748
15357SOL    HW246098   3.436   6.030   9.724
15358SOL     OW46099   2.885   6.352  10.276
15358SOL    HW146100   2.900   6.373  10.372
15358SOL    HW246101   2.855   6.257  10.267
15359SOL     OW46102   2.842   7.159  11.010
15359SOL    HW146103   2.822   7.203  10.922
15359SOL    HW246104   2.881   7.068  10.994
15360SOL     OW46105   3.721   7.104  10.915
15360SOL    HW146106   3.735   7.131  10.820
15360SOL    HW246107   3.804   7.126  10.968
15361SOL     OW46108   2.212   6.484  11.114
15361SOL    HW146109   2.288   6.528  11.162
15361SOL    HW246110   2.247   6.437  11.032
15362SOL     OW46111   3.402   5.860   9.435
15362SOL    HW146112   3.341   5.785   9.458
15362SOL    HW246113   3.424   5.912   9.518
15363SOL     OW46114   3.165   6.424   9.352
15363SOL    HW146115   3.199   6.331   9.367
15363SOL    HW246116   3.183   6.451   9.257
15364SOL     OW46117   2.930   6.919  10.159
15364SOL    HW146118   2.937   6.835  10.104
15364SOL    HW246119   2.992   6.988  10.123
15365SOL     OW46120   2.181   6.396  10.259
15365SOL    HW146121   2.274   6.432  10.264
15365SOL    HW246122   2.175   6.311  10.311
15366SOL     OW46123   2.201   6.095  10.316
15366SOL    HW146124   2.149   6.012  10.299
15366SOL    HW246125   2.278   6.100  10.252
15367SOL     OW46126   3.000   5.966  10.988
15367SOL    HW146127   2.955   6.029  11.052
15367SOL    HW246128   3.093   5.997  10.971
15368SOL     OW46129   3.022   5.793  10.787
15368SOL    HW146130   3.022   5.857  10.864
15368SOL    HW246131   3.050   5.841  10.704
15369SOL     OW46132   1.870   6.912   9.510
15369SOL    HW146133   1.777   6.933   9.479
15369SOL    HW246134   1.880   6.813   9.523
15370SOL     OW46135   1.950   7.387  10.237
15370SOL    HW146136   1.908   7.301  10.210
15370SOL    HW246137   2.044   7.390  10.203
15371SOL     OW46138   2.366   7.154  10.220
15371SOL    HW146139   2.432   7.228  10.229
15371SOL    HW246140   2.410   7.075  10.178
15372SOL     OW46141   2.864   6.382  10.548
15372SOL    HW146142   2.905   6.350  10.634
15372SOL    HW246143   2.768   6.355  10.545
15373SOL     OW46144   1.902   6.130  10.424
15373SOL    HW146145   1.987   6.097  10.383
15373SOL    HW246146   1.915   6.145  10.522
15374SOL     OW46147   2.051   6.106  11.032
15374SOL    HW146148   2.110   6.066  10.962
15374SOL    HW246149   1.993   6.177  10.991
15375SOL     OW46150   3.231   6.536  10.970
15375SOL    HW146151   3.270   6.625  10.990
15375SOL    HW246152   3.241   6.516  10.873
15376SOL     OW46153   2.677   6.158   9.635
15376SOL    HW146154   2.684   6.069   9.589
15376SOL    HW246155   2.583   6.192   9.627
15377SOL     OW46156   3.519   6.190  10.516
15377SOL    HW146157   3.481   6.121  10.578
15377SOL    HW246158   3.601   6.154  10.472
15378SOL     OW46159   2.114   7.150  11.054
15378SOL    HW146160   2.084   7.207  11.130
15378SOL    HW246161   2.107   7.053  11.080
15379SOL     OW46162   2.533   6.050  10.579
15379SOL    HW146163   2.499   5.961  10.549
15379SOL    HW246164   2.559   6.104  10.499
15380SOL     OW46165   2.792   7.264  10.775
15380SOL    HW146166   2.768   7.246  10.680
15380SOL    HW246167   2.822   7.358  10.785
15381SOL     OW46168   2.335   6.086   9.501
15381SOL    HW146169   2.396   6.166   9.505
15381SOL    HW246170   2.240   6.117   9.508
15382SOL     OW46171   2.021   6.723  10.776
15382SOL    HW146172   2.043   6.662  10.852
15382SOL    HW246173   2.031   6.674  10.690
15383SOL     OW46174   3.209   6.645  10.544
15383SOL    HW146175   3.233   6.582  10.470
15383SOL    HW246176   3.119   6.685  10.526
15384SOL     OW46177   3.164   6.441   9.619
15384SOL    HW146178   3.078   6.410   9.661
15384SOL    HW246179   3.160   6.427   9.520
15385SOL     OW46180   3.621   7.333  10.464
15385SOL    HW146181   3.682   7.363  10.391
15385SOL    HW246182   3.583   7.244  10.442
15386SOL     OW46183   3.114   7.317  10.438
15386SOL    HW146184   3.198   7.322  10.384
15386SOL    HW246185   3.091   7.221  10.456
15387SOL     OW46186   1.945   6.844  10.332
15387SOL    HW146187   1.940   6.843  10.432
15387SOL    HW246188   1.862   6.803  10.294
15388SOL     OW46189   2.550   7.248  11.026
15388SOL    HW146190   2.494   7.329  11.035
15388SOL    HW246191   2.602   7.252  10.940
15389SOL     OW46192   3.588   5.721   9.833
15389SOL    HW146193   3.661   5.704   9.766
15389SOL    HW246194   3.557   5.634   9.871
15390SOL     OW46195   3.250   7.159   9.787
15390SOL    HW146196   3.317   7.171   9.713
15390SOL    HW246197   3.210   7.248   9.810
15391SOL     OW46198   1.992   7.380  11.161
15391SOL    HW146199   1.951   7.306  11.214
15391SOL    HW246200   2.056   7.431  11.219
15392SOL     OW46201   3.142   6.513   9.982
15392SOL    HW146202   3.202   6.432   9.984
15392SOL    HW246203   3.182   6.582   9.922
15393SOL     OW46204   2.692   6.859  10.732
15393SOL    HW146205   2.687   6.892  10.827
15393SOL    HW246206   2.606   6.878  10.686
15394SOL     OW46207   2.534   7.202   9.464
15394SOL    HW146208   2.543   7.212   9.365
15394SOL    HW246209   2.494   7.113   9.485
15395SOL     OW46210   3.512   7.306  10.704
15395SOL    HW146211   3.565   7.316  10.620
15395SOL    HW246212   3.485   7.396  10.738
15396SOL     OW46213   3.703   5.761  10.273
15396SOL    HW146214   3.742   5.676  10.237
15396SOL    HW246215   3.605   5.763  10.254
15397SOL     OW46216   2.125   5.912  10.030
15397SOL    HW146217   2.046   5.963   9.996
15397SOL    HW246218   2.116   5.897  10.128
15398SOL     OW46219   3.056   7.198   9.341
15398SOL    HW146220   3.062   7.105   9.378
15398SOL    HW246221   2.997   7.198   9.261
15399SOL     OW46222   2.684   6.588  10.682
15399SOL    HW146223   2.724   6.587  10.590
15399SOL    HW246224   2.694   6.680  10.722
15400SOL     OW46225   2.778   6.496   9.601
15400SOL    HW146226   2.841   6.534   9.533
15400SOL    HW246227   2.818   6.413   9.640
15401SOL     OW46228   3.366   7.193   9.354
15401SOL    HW146229   3.274   7.230   9.361
15401SOL    HW246230   3.404   7.213   9.264
15402SOL     OW46231   2.234   6.874  10.800
15402SOL    HW146232   2.221   6.967  10.766
15402SOL    HW246233   2.150   6.822  10.787
15403SOL     OW46234   3.476   6.878  10.599
15403SOL    HW146235   3.536   6.881  10.679
15403SOL    HW246236   3.401   6.942  10.612
15404SOL     OW46237   2.901   6.684  10.006
15404SOL    HW146238   2.831   6.637  10.060
15404SOL    HW246239   2.960   6.616   9.963
15405SOL     OW46240   2.876   5.822  10.281
15405SOL    HW146241   2.868   5.786  10.188
15405SOL    HW246242   2.874   5.746  10.346
15406SOL     OW46243   2.452   7.073   9.801
15406SOL    HW146244   2.494   7.015   9.731
15406SOL    HW246245   2.408   7.152   9.757
15407SOL     OW46246   3.571   5.971  10.691
15407SOL    HW146247   3.644   6.040  10.695
15407SOL    HW246248   3.599   5.896  10.632
15408SOL     OW46249   2.117   6.934   9.600
15408SOL    HW146250   2.021   6.935   9.573
15408SOL    HW246251   2.129   6.987   9.684
15409SOL     OW46252   1.967   6.599  11.036
15409SOL    HW146253   1.890   6.566  11.090
15409SOL    HW246254   2.052   6.569  11.078
15410SOL     OW46255   2.534   5.789  10.799
15410SOL    HW146256   2.624   5.773  10.759
15410SOL    HW246257   2.542   5.794  10.898
15411SOL     OW46258   1.937   5.931   9.343
15411SOL    HW146259   1.845   5.903   9.314
15411SOL    HW246260   1.968   6.008   9.287
15412SOL     OW46261   3.302   6.442  10.708
15412SOL    HW146262   3.245   6.494  10.645
15412SOL    HW246263   3.398   6.454  10.684
15413SOL     OW46264   1.934   5.752   9.628
15413SOL    HW146265   1.917   5.835   9.574
15413SOL    HW246266   2.024   5.715   9.606
15414SOL     OW46267   3.045   6.921   9.429
15414SOL    HW146268   2.946   6.910   9.431
15414SOL    HW246269   3.079   6.936   9.522
15415SOL     OW46270   2.475   6.428  10.741
15415SOL    HW146271   2.531   6.509  10.724
15415SOL    HW246272   2.534   6.348  10.744
15416SOL     OW46273   3.355   7.353  10.269
15416SOL    HW146274   3.388   7.417  10.200
15416SOL    HW246275   3.421   7.347  10.344
15417SOL     OW46276   2.578   6.151  11.018
15417SOL    HW146277   2.597   6.216  11.092
15417SOL    HW246278   2.638   6.071  11.027
15418SOL     OW46279   3.312   6.806  10.943
15418SOL    HW146280   3.303   6.796  11.042
15418SOL    HW246281   3.408   6.799  10.917
15419SOL     OW46282   2.252   7.327  10.870
15419SOL    HW146283   2.161   7.368  10.868
15419SOL    HW246284   2.245   7.233  10.902
15420SOL     OW46285   3.536   6.469  10.564
15420SOL    HW146286   3.509   6.380  10.527
15420SOL    HW246287   3.537   6.537  10.491
15421SOL     OW46288   3.087   5.911   9.759
15421SOL    HW146289   3.152   5.837   9.748
15421SOL    HW246290   3.107   5.961   9.843
15422SOL     OW46291   2.456   6.331   9.962
15422SOL    HW146292   2.506   6.416   9.943
15422SOL    HW246293   2.368   6.333   9.914
15423SOL     OW46294   3.639   5.928  10.952
15423SOL    HW146295   3.622   5.959  10.858
15423SOL    HW246296   3.555   5.891  10.990
15424SOL     OW46297   3.592   6.520  10.827
15424SOL    HW146298   3.630   6.611  10.842
15424SOL    HW246299   3.584   6.503  10.728
15425SOL     OW46300   2.721   6.960   9.326
15425SOL    HW146301   2.675   6.975   9.414
15425SOL    HW246302   2.765   7.045   9.296
15426SOL     OW46303   2.523   7.376  10.263
15426SOL    HW146304   2.477   7.464  10.250
15426SOL    HW246305   2.622   7.388  10.256
15427SOL     OW46306   2.721   6.542  10.171
15427SOL    HW146307   2.775   6.473  10.219
15427SOL    HW246308   2.689   6.611  10.237
15428SOL     OW46309   2.945   6.570   9.397
15428SOL    HW146310   2.922   6.623   9.315
15428SOL    HW246311   3.026   6.514   9.378
15429SOL     OW46312   3.723   7.155  10.161
15429SOL    HW146313   3.652   7.143  10.091
15429SOL    HW246314   3.724   7.076  10.221
15430SOL     OW46315   2.083   6.900  11.154
15430SOL    HW146316   2.018   6.827  11.133
15430SOL    HW246317   2.087   6.914  11.252
15431SOL     OW46318   1.941   6.826   9.963
15431SOL    HW146319   1.940   6.779  10.051
15431SOL    HW246320   2.023   6.798   9.912
15432SOL     OW46321   2.534   6.977  10.934
15432SOL    HW146322   2.456   6.927  10.972
15432SOL    HW246323   2.531   7.072  10.965
15433SOL     OW46324   3.686   5.778  10.537
15433SOL    HW146325   3.682   5.688  10.581
15433SOL    HW246326   3.689   5.767  10.438
15434SOL     OW46327   2.290   6.010   9.830
15434SOL    HW146328   2.320   5.938   9.768
15434SOL    HW246329   2.251   5.970   9.913
15435SOL     OW46330   3.567   7.073  10.414
15435SOL    HW146331   3.474   7.048  10.387
15435SOL    HW246332   3.593   7.023  10.496
15436SOL     OW46333   2.179   6.133  10.590
15436SOL    HW146334   2.217   6.074  10.662
15436SOL    HW246335   2.219   6.107  10.502
15437SOL     OW46336   2.674   7.172   9.997
15437SOL    HW146337   2.706   7.182   9.903
15437SOL    HW246338   2.595   7.110   9.999
15438SOL     OW46339   3.286   5.800  10.422
15438SOL    HW146340   3.338   5.735  10.477
15438SOL    HW246341   3.237   5.863  10.483
15439SOL     OW46342   2.863   5.620  10.464
15439SOL    HW146343   2.800   5.548  10.433
15439SOL    HW246344   2.956   5.584  10.464
15440SOL     OW46345   2.632   6.916   9.611
15440SOL    HW146346   2.586   6.829   9.628
15440SOL    HW246347   2.723   6.913   9.652
15441SOL     OW46348   2.480   7.153  10.594
15441SOL    HW146349   2.475   7.235  10.651
15441SOL    HW246350   2.569   7.150  10.549
15442SOL     OW46351   3.214   5.638   9.478
15442SOL    HW146352   3.249   5.597   9.394
15442SOL    HW246353   3.124   5.600   9.498
15443SOL     OW46354   3.162   6.039  10.001
15443SOL    HW146355   3.103   6.119  10.005
15443SOL    HW246356   3.177   6.004  10.094
15444SOL     OW46357   3.455   5.807  10.192
15444SOL    HW146358   3.371   5.806  10.246
15444SOL    HW246359   3.457   5.890  10.136
15445SOL     OW46360   1.901   6.663   9.610
15445SOL    HW146361   2.000   6.652   9.601
15445SOL    HW246362   1.861   6.577   9.642
15446SOL     OW46363   2.737   7.232   9.647
15446SOL    HW146364   2.660   7.197   9.593
15446SOL    HW246365   2.705   7.303   9.709
15447SOL     OW46366   2.092   6.214  11.285
15447SOL    HW146367   1.999   6.212  11.322
15447SOL    HW246368   2.093   6.175  11.193
15448SOL     OW46369   2.087   5.861  12.168
15448SOL    HW146370   2.122   5.844  12.260
15448SOL    HW246371   1.999   5.816  12.156
15449SOL     OW46372   1.881   5.954  11.819
15449SOL    HW146373   1.799   5.997  11.858
15449SOL    HW246374   1.853   5.881  11.756
15450SOL     OW46375   2.431   6.861  12.337
15450SOL    HW146376   2.338   6.854  12.300
15450SOL    HW246377   2.442   6.950  12.381
15451SOL     OW46378   3.417   7.097  11.875
15451SOL    HW146379   3.360   7.081  11.956
15451SOL    HW246380   3.358   7.107  11.795
15452SOL     OW46381   2.997   6.289  11.889
15452SOL    HW146382   3.054   6.367  11.864
15452SOL    HW246383   2.937   6.315  11.965
15453SOL     OW46384   3.617   6.193  11.403
15453SOL    HW146385   3.605   6.180  11.304
15453SOL    HW246386   3.587   6.112  11.452
15454SOL     OW46387   2.630   6.730  12.195
15454SOL    HW146388   2.552   6.747  12.255
15454SOL    HW246389   2.664   6.817  12.159
15455SOL     OW46390   2.547   6.598  11.837
15455SOL    HW146391   2.616   6.582  11.907
15455SOL    HW246392   2.474   6.655  11.875
15456SOL     OW46393   2.197   7.021  12.233
15456SOL    HW146394   2.119   6.990  12.180
15456SOL    HW246395   2.255   7.079  12.176
15457SOL     OW46396   3.322   7.091  12.511
15457SOL    HW146397   3.346   7.185  12.537
15457SOL    HW246398   3.306   7.037  12.593
15458SOL     OW46399   2.300   5.978  12.671
15458SOL    HW146400   2.382   5.922  12.680
15458SOL    HW246401   2.219   5.920  12.675
15459SOL     OW46402   3.465   6.033  11.909
15459SOL    HW146403   3.391   6.079  11.859
15459SOL    HW246404   3.516   6.101  11.962
15460SOL     OW46405   2.093   7.299  11.655
15460SOL    HW146406   2.127   7.376  11.709
15460SOL    HW246407   2.137   7.299  11.565
15461SOL     OW46408   2.092   7.020  11.710
15461SOL    HW146409   2.066   7.116  11.710
15461SOL    HW246410   2.021   6.966  11.755
15462SOL     OW46411   2.482   7.372  12.611
15462SOL    HW146412   2.390   7.355  12.646
15462SOL    HW246413   2.510   7.464  12.637
15463SOL     OW46414   2.468   6.550  11.295
15463SOL    HW146415   2.475   6.634  11.241
15463SOL    HW246416   2.514   6.563  11.383
15464SOL     OW46417   3.456   5.700  12.652
15464SOL    HW146418   3.438   5.767  12.580
15464SOL    HW246419   3.453   5.746  12.741
15465SOL     OW46420   1.984   6.229  11.735
15465SOL    HW146421   1.939   6.141  11.752
15465SOL    HW246422   1.983   6.283  11.819
15466SOL     OW46423   3.704   7.353  11.531
15466SOL    HW146424   3.758   7.324  11.611
15466SOL    HW246425   3.734   7.443  11.502
15467SOL     OW46426   1.889   7.182  11.289
15467SOL    HW146427   1.870   7.086  11.310
15467SOL    HW246428   1.856   7.240  11.364
15468SOL     OW46429   3.551   6.508  11.784
15468SOL    HW146430   3.646   6.479  11.792
15468SOL    HW246431   3.543   6.573  11.709
15469SOL     OW46432   3.503   6.694  11.604
15469SOL    HW146433   3.589   6.696  11.552
15469SOL    HW246434   3.517   6.741  11.692
15470SOL     OW46435   2.475   6.951  11.898
15470SOL    HW146436   2.426   6.864  11.907
15470SOL    HW246437   2.452   6.994  11.811
15471SOL     OW46438   2.671   5.590  11.674
15471SOL    HW146439   2.711   5.681  11.665
15471SOL    HW246440   2.571   5.598  11.680
15472SOL     OW46441   2.059   6.562  12.436
15472SOL    HW146442   2.148   6.517  12.422
15472SOL    HW246443   1.986   6.497  12.417
15473SOL     OW46444   3.387   6.585  11.362
15473SOL    HW146445   3.324   6.509  11.375
15473SOL    HW246446   3.435   6.603  11.448
15474SOL     OW46447   2.179   5.837  12.973
15474SOL    HW146448   2.250   5.908  12.979
15474SOL    HW246449   2.091   5.876  13.001
15475SOL     OW46450   3.328   7.003  12.125
15475SOL    HW146451   3.269   7.009  12.205
15475SOL    HW246452   3.313   6.915  12.079
15476SOL     OW46453   3.529   7.300  11.744
15476SOL    HW146454   3.488   7.277  11.656
15476SOL    HW246455   3.511   7.226  11.809
15477SOL     OW46456   2.460   6.315  11.442
15477SOL    HW146457   2.484   6.384  11.374
15477SOL    HW246458   2.382   6.348  11.496
15478SOL     OW46459   3.143   5.931  12.116
15478SOL    HW146460   3.057   5.881  12.103
15478SOL    HW246461   3.205   5.877  12.172
15479SOL     OW46462   3.438   7.248  11.479
15479SOL    HW146463   3.527   7.294  11.482
15479SOL    HW246464   3.417   7.224  11.384
15480SOL     OW46465   2.669   6.191  12.637
15480SOL    HW146466   2.622   6.188  12.726
15480SOL    HW246467   2.618   6.136  12.571
15481SOL     OW46468   2.853   5.996  12.414
15481SOL    HW146469   2.776   6.030  12.468
15481SOL    HW246470   2.819   5.945  12.335
15482SOL     OW46471   2.903   6.287  11.601
15482SOL    HW146472   2.929   6.283  11.697
15482SOL    HW246473   2.818   6.236  11.587
15483SOL     OW46474   1.938   6.397  11.961
15483SOL    HW146475   2.037   6.385  11.970
15483SOL    HW246476   1.914   6.492  11.982
15484SOL     OW46477   1.992   7.407  12.743
15484SOL    HW146478   1.982   7.392  12.842
15484SOL    HW246479   1.906   7.443  12.707
15485SOL     OW46480   2.727   5.934  11.367
15485SOL    HW146481   2.786   5.997  11.318
15485SOL    HW246482   2.746   5.840  11.338
15486SOL     OW46483   3.224   6.730  11.717
15486SOL    HW146484   3.307   6.701  11.669
15486SOL    HW246485   3.175   6.797  11.661
15487SOL     OW46486   2.412   5.782  12.057
15487SOL    HW146487   2.407   5.777  12.157
15487SOL    HW246488   2.414   5.878  12.028
15488SOL     OW46489   2.870   7.042  11.649
15488SOL    HW146490   2.824   7.114  11.597
15488SOL    HW246491   2.866   7.062  11.747
15489SOL     OW46492   2.213   7.387  12.025
15489SOL    HW146493   2.263   7.301  12.031
15489SOL    HW246494   2.278   7.464  12.022
15490SOL     OW46495   3.657   6.652  12.045
15490SOL    HW146496   3.595   6.637  11.969
15490SOL    HW246497   3.605   6.663  12.130
15491SOL     OW46498   2.183   6.529  11.414
15491SOL    HW146499   2.265   6.568  11.372
15491SOL    HW246500   2.156   6.447  11.365
15492SOL     OW46501   3.320   6.321  11.900
15492SOL    HW146502   3.315   6.256  11.975
15492SOL    HW246503   3.400   6.380  11.913
15493SOL     OW46504   2.973   7.362  11.409
15493SOL    HW146505   2.913   7.300  11.459
15493SOL    HW246506   3.004   7.318  11.324
15494SOL     OW46507   3.494   6.963  11.253
15494SOL    HW146508   3.462   7.057  11.243
15494SOL    HW246509   3.418   6.900  11.241
15495SOL     OW46510   2.326   7.329  11.495
15495SOL    HW146511   2.359   7.368  11.581
15495SOL    HW246512   2.402   7.322  11.430
15496SOL     OW46513   3.262   5.693  11.598
15496SOL    HW146514   3.238   5.656  11.508
15496SOL    HW246515   3.361   5.709  11.602
15497SOL     OW46516   2.111   7.371  12.413
15497SOL    HW146517   2.168   7.306  12.463
15497SOL    HW246518   2.095   7.338  12.320
15498SOL     OW46519   2.802   7.284  12.076
15498SOL    HW146520   2.882   7.227  12.097
15498SOL    HW246521   2.753   7.244  11.999
15499SOL     OW46522   2.244   6.286  11.652
15499SOL    HW146523   2.289   6.196  11.649
15499SOL    HW246524   2.150   6.275  11.685
15500SOL     OW46525   2.476   5.708  11.289
15500SOL    HW146526   2.574   5.686  11.296
15500SOL    HW246527   2.445   5.691  11.196
15501SOL     OW46528   2.750   7.100  12.367
15501SOL    HW146529   2.727   7.075  12.273
15501SOL    HW246530   2.811   7.031  12.406
15502SOL     OW46531   2.665   6.988  12.096
15502SOL    HW146532   2.755   7.002  12.054
15502SOL    HW246533   2.594   6.990  12.025
15503SOL     OW46534   2.784   6.089  12.071
15503SOL    HW146535   2.759   6.080  11.975
15503SOL    HW246536   2.832   6.007  12.102
15504SOL     OW46537   2.401   5.650  11.684
15504SOL    HW146538   2.320   5.651  11.742
15504SOL    HW246539   2.404   5.733  11.629
15505SOL     OW46540   3.296   6.774  11.213
15505SOL    HW146541   3.328   6.698  11.270
15505SOL    HW246542   3.204   6.801  11.243
15506SOL     OW46543   2.159   5.621  11.343
15506SOL    HW146544   2.208   5.705  11.322
15506SOL    HW246545   2.221   5.556  11.388
15507SOL     OW46546   2.797   5.822  11.652
15507SOL    HW146547   2.749   5.863  11.574
15507SOL    HW246548   2.896   5.820  11.633
15508SOL     OW46549   3.089   7.156  11.965
15508SOL    HW146550   3.110   7.230  11.900
15508SOL    HW246551   3.157   7.156  12.038
15509SOL     OW46552   2.321   6.738  11.913
15509SOL    HW146553   2.250   6.711  11.978
15509SOL    HW246554   2.295   6.710  11.820
15510SOL     OW46555   3.133   7.383  11.763
15510SOL    HW146556   3.177   7.447  11.699
15510SOL    HW246557   3.083   7.435  11.833
15511SOL     OW46558   2.894   6.135  11.188
15511SOL    HW146559   2.853   6.217  11.149
15511SOL    HW246560   2.958   6.161  11.261
15512SOL     OW46561   1.940   6.142  12.558
15512SOL    HW146562   2.032   6.141  12.517
15512SOL    HW246563   1.934   6.216  12.625
15513SOL     OW46564   2.423   5.808  12.319
15513SOL    HW146565   2.461   5.724  12.356
15513SOL    HW246566   2.335   5.827  12.363
15514SOL     OW46567   2.728   6.040  11.814
15514SOL    HW146568   2.696   6.112  11.752
15514SOL    HW246569   2.752   5.959  11.761
15515SOL     OW46570   2.879   5.625  11.925
15515SOL    HW146571   2.807   5.630  11.856
15515SOL    HW246572   2.855   5.556  11.994
15516SOL     OW46573   3.291   6.759  12.039
15516SOL    HW146574   3.236   6.675  12.032
15516SOL    HW246575   3.317   6.788  11.947
15517SOL     OW46576   3.328   6.176  12.164
15517SOL    HW146577   3.298   6.081  12.171
15517SOL    HW246578   3.401   6.192  12.230
15518SOL     OW46579   3.719   6.419  11.549
15518SOL    HW146580   3.761   6.355  11.613
15518SOL    HW246581   3.681   6.368  11.471
15519SOL     OW46582   2.350   6.971  11.346
15519SOL    HW146583   2.263   6.956  11.393
15519SOL    HW246584   2.333   6.997  11.251
15520SOL     OW46585   3.526   6.866  11.829
15520SOL    HW146586   3.625   6.874  11.843
15520SOL    HW246587   3.481   6.950  11.860
15521SOL     OW46588   3.252   6.161  11.250
15521SOL    HW146589   3.198   6.140  11.331
15521SOL    HW246590   3.343   6.120  11.259
15522SOL     OW46591   2.389   5.842  11.500
15522SOL    HW146592   2.416   5.783  11.425
15522SOL    HW246593   2.389   5.937  11.469
15523SOL     OW46594   2.926   6.933  12.512
15523SOL    HW146595   2.846   6.910  12.567
15523SOL    HW246596   3.009   6.907  12.561
15524SOL     OW46597   2.973   6.781  12.272
15524SOL    HW146598   2.933   6.825  12.353
15524SOL    HW246599   2.932   6.818  12.189
15525SOL     OW46600   3.500   6.685  12.251
15525SOL    HW146601   3.505   6.766  12.310
15525SOL    HW246602   3.414   6.687  12.200
15526SOL     OW46603   2.777   5.675  12.574
15526SOL    HW146604   2.802   5.655  12.479
15526SOL    HW246605   2.849   5.731  12.616
15527SOL     OW46606   2.567   6.636  11.540
15527SOL    HW146607   2.553   6.643  11.639
15527SOL    HW246608   2.651   6.585  11.522
15528SOL     OW46609   2.272   6.399  12.423
15528SOL    HW146610   2.358   6.411  12.473
15528SOL    HW246611   2.230   6.312  12.450
15529SOL     OW46612   3.136   5.972  12.434
15529SOL    HW146613   3.157   6.046  12.498
15529SOL    HW246614   3.047   5.989  12.391
15530SOL     OW46615   1.926   7.150  12.503
15530SOL    HW146616   1.880   7.232  12.469
15530SOL    HW246617   2.024   7.169  12.512
15531SOL     OW46618   2.229   6.686  11.673
15531SOL    HW146619   2.222   6.769  11.617
15531SOL    HW246620   2.233   6.606  11.613
15532SOL     OW46621   2.428   6.123  12.037
15532SOL    HW146622   2.440   6.189  11.963
15532SOL    HW246623   2.474   6.157  12.120
15533SOL     OW46624   3.114   6.934  11.560
15533SOL    HW146625   3.164   7.011  11.600
15533SOL    HW246626   3.019   6.936  11.592
15534SOL     OW46627   3.134   7.031  12.314
15534SOL    HW146628   3.181   7.044  12.401
15534SOL    HW246629   3.068   6.957  12.323
15535SOL     OW46630   3.444   6.225  11.644
15535SOL    HW146631   3.413   6.286  11.717
15535SOL    HW246632   3.494   6.277  11.575
15536SOL     OW46633   2.216   7.096  12.501
15536SOL    HW146634   2.195   7.052  12.414
15536SOL    HW246635   2.313   7.122  12.504
15537SOL     OW46636   2.264   6.337  12.770
15537SOL    HW146637   2.332   6.392  12.723
15537SOL    HW246638   2.304   6.249  12.797
15538SOL     OW46639   3.449   6.365  12.842
15538SOL    HW146640   3.357   6.403  12.837
15538SOL    HW246641   3.509   6.412  12.777
15539SOL     OW46642   2.435   6.456  12.201
15539SOL    HW146643   2.479   6.545  12.192
15539SOL    HW246644   2.372   6.456  12.278
15540SOL     OW46645   3.222   6.448  12.217
15540SOL    HW146646   3.147   6.448  12.151
15540SOL    HW246647   3.259   6.356  12.226
15541SOL     OW46648   3.071   6.111  11.447
15541SOL    HW146649   3.084   6.027  11.501
15541SOL    HW246650   3.042   6.185  11.507
15542SOL     OW46651   2.169   5.799  12.403
15542SOL    HW146652   2.146   5.836  12.493
15542SOL    HW246653   2.139   5.704  12.397
15543SOL     OW46654   1.899   6.896  12.454
15543SOL    HW146655   1.952   6.847  12.522
15543SOL    HW246656   1.921   6.994  12.459
15544SOL     OW46657   2.594   6.220  12.236
15544SOL    HW146658   2.653   6.194  12.160
15544SOL    HW246659   2.566   6.316  12.225
15545SOL     OW46660   2.169   5.649  11.790
15545SOL    HW146661   2.158   5.743  11.823
15545SOL    HW246662   2.164   5.586  11.867
15546SOL     OW46663   3.484   5.953  11.546
15546SOL    HW146664   3.486   5.877  11.610
15546SOL    HW246665   3.436   6.030  11.586
15547SOL     OW46666   2.885   6.352  12.138
15547SOL    HW146667   2.900   6.373  12.234
15547SOL    HW246668   2.855   6.257  12.129
15548SOL     OW46669   2.842   7.159  12.872
15548SOL    HW146670   2.822   7.203  12.784
15548SOL    HW246671   2.881   7.068  12.856
15549SOL     OW46672   3.402   5.860  11.297
15549SOL    HW146673   3.341   5.785  11.320
15549SOL    HW246674   3.424   5.912  11.380
15550SOL     OW46675   3.165   6.424  11.214
15550SOL    HW146676   3.199   6.331  11.229
15550SOL    HW246677   3.183   6.451  11.119
15551SOL     OW46678   2.930   6.919  12.021
15551SOL    HW146679   2.937   6.835  11.966
15551SOL    HW246680   2.992   6.988  11.985
15552SOL     OW46681   2.181   6.396  12.121
15552SOL    HW146682   2.274   6.432  12.126
15552SOL    HW246683   2.175   6.311  12.173
15553SOL     OW46684   2.201   6.095  12.178
15553SOL    HW146685   2.149   6.012  12.161
15553SOL    HW246686   2.278   6.100  12.114
15554SOL     OW46687   3.000   5.966  12.850
15554SOL    HW146688   2.955   6.029  12.914
15554SOL    HW246689   3.093   5.997  12.833
15555SOL     OW46690   3.022   5.793  12.649
15555SOL    HW146691   3.022   5.857  12.726
15555SOL    HW246692   3.050   5.841  12.566
15556SOL     OW46693   1.870   6.912  11.372
15556SOL    HW146694   1.777   6.933  11.341
15556SOL    HW246695   1.880   6.813  11.385
15557SOL     OW46696   1.950   7.387  12.099
15557SOL    HW146697   1.908   7.301  12.072
15557SOL    HW246698   2.044   7.390  12.065
15558SOL     OW46699   2.366   7.154  12.082
15558SOL    HW146700   2.432   7.228  12.091
15558SOL    HW246701   2.410   7.075  12.040
15559SOL     OW46702   2.864   6.382  12.410
15559SOL    HW146703   2.905   6.350  12.496
15559SOL    HW246704   2.768   6.355  12.407
15560SOL     OW46705   1.902   6.130  12.286
15560SOL    HW146706   1.987   6.097  12.245
15560SOL    HW246707   1.915   6.145  12.384
15561SOL     OW46708   2.677   6.158  11.497
15561SOL    HW146709   2.684   6.069  11.451
15561SOL    HW246710   2.583   6.192  11.489
15562SOL     OW46711   3.519   6.190  12.378
15562SOL    HW146712   3.481   6.121  12.440
15562SOL    HW246713   3.601   6.154  12.334
15563SOL     OW46714   2.533   6.050  12.441
15563SOL    HW146715   2.499   5.961  12.411
15563SOL    HW246716   2.559   6.104  12.361
15564SOL     OW46717   2.792   7.264  12.637
15564SOL    HW146718   2.768   7.246  12.542
15564SOL    HW246719   2.822   7.358  12.647
15565SOL     OW46720   2.335   6.086  11.363
15565SOL    HW146721   2.396   6.166  11.367
15565SOL    HW246722   2.240   6.117  11.370
15566SOL     OW46723   2.021   6.723  12.638
15566SOL    HW146724   2.043   6.662  12.714
15566SOL    HW246725   2.031   6.674  12.552
15567SOL     OW46726   3.209   6.645  12.406
15567SOL    HW146727   3.233   6.582  12.332
15567SOL    HW246728   3.119   6.685  12.388
15568SOL     OW46729   3.164   6.441  11.481
15568SOL    HW146730   3.078   6.410  11.523
15568SOL    HW246731   3.160   6.427  11.382
15569SOL     OW46732   3.621   7.333  12.326
15569SOL    HW146733   3.682   7.363  12.253
15569SOL    HW246734   3.583   7.244  12.304
15570SOL     OW46735   3.114   7.317  12.300
15570SOL    HW146736   3.198   7.322  12.246
15570SOL    HW246737   3.091   7.221  12.318
15571SOL     OW46738   1.945   6.844  12.194
15571SOL    HW146739   1.940   6.843  12.294
15571SOL    HW246740   1.862   6.803  12.156
15572SOL     OW46741   3.588   5.721  11.695
15572SOL    HW146742   3.661   5.704  11.628
15572SOL    HW246743   3.557   5.634  11.733
15573SOL     OW46744   3.250   7.159  11.649
15573SOL    HW146745   3.317   7.171  11.575
15573SOL    HW246746   3.210   7.248  11.672
15574SOL     OW46747   3.142   6.513  11.844
15574SOL    HW146748   3.202   6.432  11.846
15574SOL    HW246749   3.182   6.582  11.784
15575SOL     OW46750   2.534   7.202  11.326
15575SOL    HW146751   2.543   7.212  11.227
15575SOL    HW246752   2.494   7.113  11.347
15576SOL     OW46753   3.512   7.306  12.566
15576SOL    HW146754   3.565   7.316  12.482
15576SOL    HW246755   3.485   7.396  12.600
15577SOL     OW46756   3.703   5.761  12.135
15577SOL    HW146757   3.742   5.676  12.099
15577SOL    HW246758   3.605   5.763  12.116
15578SOL     OW46759   2.125   5.912  11.892
15578SOL    HW146760   2.046   5.963  11.858
15578SOL    HW246761   2.116   5.897  11.990
15579SOL     OW46762   3.056   7.198  11.203
15579SOL    HW146763   3.062   7.105  11.240
15579SOL    HW246764   2.997   7.198  11.123
15580SOL     OW46765   2.684   6.588  12.544
15580SOL    HW146766   2.724   6.587  12.452
15580SOL    HW246767   2.694   6.680  12.584
15581SOL     OW46768   2.778   6.496  11.463
15581SOL    HW146769   2.841   6.534  11.395
15581SOL    HW246770   2.818   6.413  11.502
15582SOL     OW46771   3.366   7.193  11.216
15582SOL    HW146772   3.274   7.230  11.223
15582SOL    HW246773   3.404   7.213  11.126
15583SOL     OW46774   2.234   6.874  12.662
15583SOL    HW146775   2.221   6.967  12.628
15583SOL    HW246776   2.150   6.822  12.649
15584SOL     OW46777   3.476   6.878  12.461
15584SOL    HW146778   3.536   6.881  12.541
15584SOL    HW246779   3.401   6.942  12.474
15585SOL     OW46780   2.901   6.684  11.868
15585SOL    HW146781   2.831   6.637  11.922
15585SOL    HW246782   2.960   6.616  11.825
15586SOL     OW46783   2.876   5.822  12.143
15586SOL    HW146784   2.868   5.786  12.050
15586SOL    HW246785   2.874   5.746  12.208
15587SOL     OW46786   2.452   7.073  11.663
15587SOL    HW146787   2.494   7.015  11.593
15587SOL    HW246788   2.408   7.152  11.619
15588SOL     OW46789   3.571   5.971  12.553
15588SOL    HW146790   3.644   6.040  12.557
15588SOL    HW246791   3.599   5.896  12.494
15589SOL     OW46792   2.117   6.934  11.462
15589SOL    HW146793   2.021   6.935  11.435
15589SOL    HW246794   2.129   6.987  11.546
15590SOL     OW46795   1.937   5.931  11.205
15590SOL    HW146796   1.845   5.903  11.176
15590SOL    HW246797   1.968   6.008  11.149
15591SOL     OW46798   3.302   6.442  12.570
15591SOL    HW146799   3.245   6.494  12.507
15591SOL    HW246800   3.398   6.454  12.546
15592SOL     OW46801   1.934   5.752  11.490
15592SOL    HW146802   1.917   5.835  11.436
15592SOL    HW246803   2.024   5.715  11.468
15593SOL     OW46804   3.045   6.921  11.291
15593SOL    HW146805   2.946   6.910  11.293
15593SOL    HW246806   3.079   6.936  11.384
15594SOL     OW46807   2.475   6.428  12.603
15594SOL    HW146808   2.531   6.509  12.586
15594SOL    HW246809   2.534   6.348  12.606
15595SOL     OW46810   3.355   7.353  12.131
15595SOL    HW146811   3.388   7.417  12.062
15595SOL    HW246812   3.421   7.347  12.206
15596SOL     OW46813   2.252   7.327  12.732
15596SOL    HW146814   2.161   7.368  12.730
15596SOL    HW246815   2.245   7.233  12.764
15597SOL     OW46816   3.536   6.469  12.426
15597SOL    HW146817   3.509   6.380  12.389
15597SOL    HW246818   3.537   6.537  12.353
15598SOL     OW46819   3.087   5.911  11.621
15598SOL    HW146820   3.152   5.837  11.610
15598SOL    HW246821   3.107   5.961  11.705
15599SOL     OW46822   2.456   6.331  11.824
15599SOL    HW146823   2.506   6.416  11.805
15599SOL    HW246824   2.368   6.333  11.776
15600SOL     OW46825   3.592   6.520  12.689
15600SOL    HW146826   3.630   6.611  12.704
15600SOL    HW246827   3.584   6.503  12.590
15601SOL     OW46828   2.721   6.960  11.188
15601SOL    HW146829   2.675   6.975  11.276
15601SOL    HW246830   2.765   7.045  11.158
15602SOL     OW46831   2.523   7.376  12.125
15602SOL    HW146832   2.477   7.464  12.112
15602SOL    HW246833   2.622   7.388  12.118
15603SOL     OW46834   2.721   6.542  12.033
15603SOL    HW146835   2.775   6.473  12.081
15603SOL    HW246836   2.689   6.611  12.099
15604SOL     OW46837   2.945   6.570  11.259
15604SOL    HW146838   2.922   6.623  11.177
15604SOL    HW246839   3.026   6.514  11.240
15605SOL     OW46840   3.723   7.155  12.023
15605SOL    HW146841   3.652   7.143  11.953
15605SOL    HW246842   3.724   7.076  12.083
15606SOL     OW46843   1.941   6.826  11.825
15606SOL    HW146844   1.940   6.779  11.913
15606SOL    HW246845   2.023   6.798  11.774
15607SOL     OW46846   3.686   5.778  12.399
15607SOL    HW146847   3.682   5.688  12.443
15607SOL    HW246848   3.689   5.767  12.300
15608SOL     OW46849   2.290   6.010  11.692
15608SOL    HW146850   2.320   5.938  11.630
15608SOL    HW246851   2.251   5.970  11.775
15609SOL     OW46852   3.567   7.073  12.276
15609SOL    HW146853   3.474   7.048  12.249
15609SOL    HW246854   3.593   7.023  12.358
15610SOL     OW46855   2.179   6.133  12.452
15610SOL    HW146856   2.217   6.074  12.524
15610SOL    HW246857   2.219   6.107  12.364
15611SOL     OW46858   2.674   7.172  11.859
15611SOL    HW146859   2.706   7.182  11.765
15611SOL    HW246860   2.595   7.110  11.861
15612SOL     OW46861   3.286   5.800  12.284
15612SOL    HW146862   3.338   5.735  12.339
15612SOL    HW246863   3.237   5.863  12.345
15613SOL     OW46864   2.863   5.620  12.326
15613SOL    HW146865   2.800   5.548  12.295
15613SOL    HW246866   2.956   5.584  12.326
15614SOL     OW46867   2.632   6.916  11.473
15614SOL    HW146868   2.586   6.829  11.490
15614SOL    HW246869   2.723   6.913  11.514
15615SOL     OW46870   2.480   7.153  12.456
15615SOL    HW146871   2.475   7.235  12.513
15615SOL    HW246872   2.569   7.150  12.411
15616SOL     OW46873   3.214   5.638  11.340
15616SOL    HW146874   3.249   5.597  11.256
15616SOL    HW246875   3.124   5.600  11.360
15617SOL     OW46876   3.162   6.039  11.863
15617SOL    HW146877   3.103   6.119  11.867
15617SOL    HW246878   3.177   6.004  11.956
15618SOL     OW46879   3.455   5.807  12.054
15618SOL    HW146880   3.371   5.806  12.108
15618SOL    HW246881   3.457   5.890  11.998
15619SOL     OW46882   1.901   6.663  11.472
15619SOL    HW146883   2.000   6.652  11.463
15619SOL    HW246884   1.861   6.577  11.504
15620SOL     OW46885   2.737   7.232  11.509
15620SOL    HW146886   2.660   7.197  11.455
15620SOL    HW246887   2.705   7.303  11.571
15621SOL     OW46888   2.092   8.076   0.113
15621SOL    HW146889   1.999   8.074   0.150
15621SOL    HW246890   2.093   8.037   0.021
15622SOL     OW46891   2.087   7.723   0.996
15622SOL    HW146892   2.122   7.706   1.088
15622SOL    HW246893   1.999   7.678   0.984
15623SOL     OW46894   1.881   7.816   0.647
15623SOL    HW146895   1.799   7.859   0.686
15623SOL    HW246896   1.853   7.743   0.584
15624SOL     OW46897   2.431   8.723   1.165
15624SOL    HW146898   2.338   8.716   1.128
15624SOL    HW246899   2.442   8.812   1.209
15625SOL     OW46900   3.417   8.959   0.703
15625SOL    HW146901   3.360   8.943   0.784
15625SOL    HW246902   3.358   8.969   0.623
15626SOL     OW46903   2.997   8.151   0.717
15626SOL    HW146904   3.054   8.229   0.692
15626SOL    HW246905   2.937   8.177   0.793
15627SOL     OW46906   3.617   8.055   0.231
15627SOL    HW146907   3.605   8.042   0.132
15627SOL    HW246908   3.587   7.974   0.280
15628SOL     OW46909   2.630   8.592   1.023
15628SOL    HW146910   2.552   8.609   1.083
15628SOL    HW246911   2.664   8.679   0.987
15629SOL     OW46912   2.712   8.246   1.823
15629SOL    HW146913   2.708   8.322   1.888
15629SOL    HW246914   2.734   8.282   1.732
15630SOL     OW46915   2.547   8.460   0.665
15630SOL    HW146916   2.616   8.444   0.735
15630SOL    HW246917   2.474   8.517   0.703
15631SOL     OW46918   2.548   8.609   1.803
15631SOL    HW146919   2.608   8.688   1.817
15631SOL    HW246920   2.462   8.640   1.762
15632SOL     OW46921   2.197   8.883   1.061
15632SOL    HW146922   2.119   8.852   1.008
15632SOL    HW246923   2.255   8.941   1.004
15633SOL     OW46924   3.322   8.953   1.339
15633SOL    HW146925   3.346   9.047   1.365
15633SOL    HW246926   3.306   8.899   1.421
15634SOL     OW46927   2.300   7.840   1.499
15634SOL    HW146928   2.382   7.784   1.508
15634SOL    HW246929   2.219   7.782   1.503
15635SOL     OW46930   3.465   7.895   0.737
15635SOL    HW146931   3.391   7.941   0.687
15635SOL    HW246932   3.516   7.963   0.790
15636SOL     OW46933   2.093   9.161   0.483
15636SOL    HW146934   2.127   9.238   0.537
15636SOL    HW246935   2.137   9.161   0.393
15637SOL     OW46936   2.989   8.789   1.690
15637SOL    HW146937   3.036   8.789   1.778
15637SOL    HW246938   2.941   8.702   1.679
15638SOL     OW46939   2.092   8.882   0.538
15638SOL    HW146940   2.066   8.978   0.538
15638SOL    HW246941   2.021   8.828   0.583
15639SOL     OW46942   2.102   8.539   0.886
15639SOL    HW146943   2.116   8.455   0.938
15639SOL    HW246944   2.047   8.603   0.941
15640SOL     OW46945   2.482   9.234   1.439
15640SOL    HW146946   2.390   9.217   1.474
15640SOL    HW246947   2.510   9.326   1.465
15641SOL     OW46948   2.468   8.412   0.123
15641SOL    HW146949   2.475   8.496   0.069
15641SOL    HW246950   2.514   8.425   0.211
15642SOL     OW46951   3.456   7.562   1.480
15642SOL    HW146952   3.438   7.629   1.408
15642SOL    HW246953   3.453   7.608   1.569
15643SOL     OW46954   1.984   8.091   0.563
15643SOL    HW146955   1.939   8.003   0.580
15643SOL    HW246956   1.983   8.145   0.647
15644SOL     OW46957   3.704   9.215   0.359
15644SOL    HW146958   3.758   9.186   0.439
15644SOL    HW246959   3.734   9.305   0.330
15645SOL     OW46960   1.889   9.044   0.117
15645SOL    HW146961   1.870   8.948   0.138
15645SOL    HW246962   1.856   9.102   0.192
15646SOL     OW46963   3.551   8.370   0.612
15646SOL    HW146964   3.646   8.341   0.620
15646SOL    HW246965   3.543   8.435   0.537
15647SOL     OW46966   3.503   8.556   0.432
15647SOL    HW146967   3.589   8.558   0.380
15647SOL    HW246968   3.517   8.603   0.520
15648SOL     OW46969   1.975   8.185   1.597
15648SOL    HW146970   2.063   8.172   1.642
15648SOL    HW246971   1.962   8.282   1.575
15649SOL     OW46972   2.475   8.813   0.726
15649SOL    HW146973   2.426   8.726   0.735
15649SOL    HW246974   2.452   8.856   0.639
15650SOL     OW46975   3.155   8.676   1.423
15650SOL    HW146976   3.192   8.603   1.365
15650SOL    HW246977   3.207   8.681   1.508
15651SOL     OW46978   2.671   7.452   0.502
15651SOL    HW146979   2.711   7.543   0.493
15651SOL    HW246980   2.571   7.460   0.508
15652SOL     OW46981   2.059   8.424   1.264
15652SOL    HW146982   2.148   8.379   1.250
15652SOL    HW246983   1.986   8.359   1.245
15653SOL     OW46984   3.387   8.447   0.190
15653SOL    HW146985   3.324   8.371   0.203
15653SOL    HW246986   3.435   8.465   0.276
15654SOL     OW46987   3.049   9.240   1.616
15654SOL    HW146988   3.073   9.300   1.540
15654SOL    HW246989   3.056   9.145   1.586
15655SOL     OW46990   2.179   7.699   1.801
15655SOL    HW146991   2.250   7.770   1.807
15655SOL    HW246992   2.091   7.738   1.829
15656SOL     OW46993   3.328   8.865   0.953
15656SOL    HW146994   3.269   8.871   1.033
15656SOL    HW246995   3.313   8.777   0.907
15657SOL     OW46996   3.529   9.162   0.572
15657SOL    HW146997   3.488   9.139   0.484
15657SOL    HW246998   3.511   9.088   0.637
15658SOL     OW46999   2.460   8.177   0.270
15658SOL    HW147000   2.484   8.246   0.202
15658SOL    HW247001   2.382   8.210   0.324
15659SOL     OW47002   3.143   7.793   0.944
15659SOL    HW147003   3.057   7.743   0.931
15659SOL    HW247004   3.205   7.739   1.000
15660SOL     OW47005   3.438   9.110   0.307
15660SOL    HW147006   3.527   9.156   0.310
15660SOL    HW247007   3.417   9.086   0.212
15661SOL     OW47008   2.669   8.053   1.465
15661SOL    HW147009   2.622   8.050   1.554
15661SOL    HW247010   2.618   7.998   1.399
15662SOL     OW47011   3.256   7.917   1.674
15662SOL    HW147012   3.236   7.960   1.762
15662SOL    HW247013   3.334   7.855   1.683
15663SOL     OW47014   2.835   8.338   1.572
15663SOL    HW147015   2.881   8.254   1.543
15663SOL    HW247016   2.779   8.372   1.497
15664SOL     OW47017   2.853   7.858   1.242
15664SOL    HW147018   2.776   7.892   1.296
15664SOL    HW247019   2.819   7.807   1.163
15665SOL     OW47020   2.903   8.149   0.429
15665SOL    HW147021   2.929   8.145   0.525
15665SOL    HW247022   2.818   8.098   0.415
15666SOL     OW47023   1.938   8.259   0.789
15666SOL    HW147024   2.037   8.247   0.798
15666SOL    HW247025   1.914   8.354   0.810
15667SOL     OW47026   1.992   9.269   1.571
15667SOL    HW147027   1.982   9.254   1.670
15667SOL    HW247028   1.906   9.305   1.535
15668SOL     OW47029   2.727   7.796   0.195
15668SOL    HW147030   2.786   7.859   0.146
15668SOL    HW247031   2.746   7.702   0.166
15669SOL     OW47032   3.581   8.033   1.831
15669SOL    HW147033   3.555   8.122   1.795
15669SOL    HW247034   3.579   7.965   1.758
15670SOL     OW47035   3.224   8.592   0.545
15670SOL    HW147036   3.307   8.563   0.497
15670SOL    HW247037   3.175   8.659   0.489
15671SOL     OW47038   2.412   7.644   0.885
15671SOL    HW147039   2.407   7.639   0.985
15671SOL    HW247040   2.414   7.740   0.856
15672SOL     OW47041   2.870   8.904   0.477
15672SOL    HW147042   2.824   8.976   0.425
15672SOL    HW247043   2.866   8.924   0.575
15673SOL     OW47044   2.213   9.249   0.853
15673SOL    HW147045   2.263   9.163   0.859
15673SOL    HW247046   2.278   9.326   0.850
15674SOL     OW47047   3.657   8.514   0.873
15674SOL    HW147048   3.595   8.499   0.797
15674SOL    HW247049   3.605   8.525   0.958
15675SOL     OW47050   3.089   8.998   1.506
15675SOL    HW147051   3.095   8.921   1.570
15675SOL    HW247052   3.037   8.972   1.426
15676SOL     OW47053   2.183   8.391   0.242
15676SOL    HW147054   2.265   8.430   0.200
15676SOL    HW247055   2.156   8.309   0.193
15677SOL     OW47056   3.320   8.183   0.728
15677SOL    HW147057   3.315   8.118   0.803
15677SOL    HW247058   3.400   8.242   0.741
15678SOL     OW47059   2.323   8.714   1.727
15678SOL    HW147060   2.273   8.715   1.641
15678SOL    HW247061   2.260   8.696   1.803
15679SOL     OW47062   2.973   9.224   0.237
15679SOL    HW147063   2.913   9.162   0.287
15679SOL    HW247064   3.004   9.180   0.152
15680SOL     OW47065   2.064   7.733   1.498
15680SOL    HW147066   1.984   7.793   1.485
15680SOL    HW247067   2.054   7.684   1.584
15681SOL     OW47068   3.494   8.825   0.081
15681SOL    HW147069   3.462   8.919   0.071
15681SOL    HW247070   3.418   8.762   0.069
15682SOL     OW47071   2.326   9.191   0.323
15682SOL    HW147072   2.359   9.230   0.409
15682SOL    HW247073   2.402   9.184   0.258
15683SOL     OW47074   3.262   7.555   0.426
15683SOL    HW147075   3.238   7.518   0.336
15683SOL    HW247076   3.361   7.571   0.430
15684SOL     OW47077   2.111   9.233   1.241
15684SOL    HW147078   2.168   9.168   1.291
15684SOL    HW247079   2.095   9.200   1.148
15685SOL     OW47080   2.802   9.146   0.904
15685SOL    HW147081   2.882   9.089   0.925
15685SOL    HW247082   2.753   9.106   0.827
15686SOL     OW47083   2.244   8.148   0.480
15686SOL    HW147084   2.289   8.058   0.477
15686SOL    HW247085   2.150   8.137   0.513
15687SOL     OW47086   3.409   7.670   1.729
15687SOL    HW147087   3.404   7.707   1.821
15687SOL    HW247088   3.337   7.601   1.717
15688SOL     OW47089   2.476   7.570   0.117
15688SOL    HW147090   2.574   7.548   0.124
15688SOL    HW247091   2.445   7.553   0.024
15689SOL     OW47092   2.643   7.712   1.749
15689SOL    HW147093   2.710   7.651   1.792
15689SOL    HW247094   2.570   7.731   1.814
15690SOL     OW47095   2.750   8.962   1.195
15690SOL    HW147096   2.727   8.937   1.101
15690SOL    HW247097   2.811   8.893   1.234
15691SOL     OW47098   3.213   8.038   1.433
15691SOL    HW147099   3.241   7.995   1.518
15691SOL    HW247100   3.238   8.134   1.434
15692SOL     OW47101   2.665   8.850   0.924
15692SOL    HW147102   2.755   8.864   0.882
15692SOL    HW247103   2.594   8.852   0.853
15693SOL     OW47104   2.784   7.951   0.899
15693SOL    HW147105   2.759   7.942   0.803
15693SOL    HW247106   2.832   7.869   0.930
15694SOL     OW47107   2.401   7.512   0.512
15694SOL    HW147108   2.320   7.513   0.570
15694SOL    HW247109   2.404   7.595   0.457
15695SOL     OW47110   3.296   8.636   0.041
15695SOL    HW147111   3.328   8.560   0.098
15695SOL    HW247112   3.204   8.663   0.071
15696SOL     OW47113   2.159   7.483   0.171
15696SOL    HW147114   2.208   7.567   0.150
15696SOL    HW247115   2.221   7.418   0.216
15697SOL     OW47116   2.797   7.684   0.480
15697SOL    HW147117   2.749   7.725   0.402
15697SOL    HW247118   2.896   7.682   0.461
15698SOL     OW47119   2.938   8.131   1.464
15698SOL    HW147120   2.858   8.070   1.467
15698SOL    HW247121   3.019   8.078   1.440
15699SOL     OW47122   3.089   9.018   0.793
15699SOL    HW147123   3.110   9.092   0.728
15699SOL    HW247124   3.157   9.018   0.866
15700SOL     OW47125   2.321   8.600   0.741
15700SOL    HW147126   2.250   8.573   0.806
15700SOL    HW247127   2.295   8.572   0.648
15701SOL     OW47128   3.133   9.245   0.591
15701SOL    HW147129   3.177   9.309   0.527
15701SOL    HW247130   3.083   9.297   0.661
15702SOL     OW47131   2.894   7.997   0.016
15702SOL    HW147132   2.853   8.079  -0.023
15702SOL    HW247133   2.958   8.023   0.089
15703SOL     OW47134   1.940   8.004   1.386
15703SOL    HW147135   2.032   8.003   1.345
15703SOL    HW247136   1.934   8.078   1.453
15704SOL     OW47137   2.423   7.670   1.147
15704SOL    HW147138   2.461   7.586   1.184
15704SOL    HW247139   2.335   7.689   1.191
15705SOL     OW47140   2.728   7.902   0.642
15705SOL    HW147141   2.696   7.974   0.580
15705SOL    HW247142   2.752   7.821   0.589
15706SOL     OW47143   2.879   7.487   0.753
15706SOL    HW147144   2.807   7.492   0.684
15706SOL    HW247145   2.855   7.418   0.822
15707SOL     OW47146   3.291   8.621   0.867
15707SOL    HW147147   3.236   8.537   0.860
15707SOL    HW247148   3.317   8.650   0.775
15708SOL     OW47149   3.328   8.038   0.992
15708SOL    HW147150   3.298   7.943   0.999
15708SOL    HW247151   3.401   8.054   1.058
15709SOL     OW47152   3.719   8.281   0.377
15709SOL    HW147153   3.761   8.217   0.441
15709SOL    HW247154   3.681   8.230   0.299
15710SOL     OW47155   3.526   8.728   0.657
15710SOL    HW147156   3.625   8.736   0.671
15710SOL    HW247157   3.481   8.812   0.688
15711SOL     OW47158   3.252   8.023   0.078
15711SOL    HW147159   3.198   8.002   0.159
15711SOL    HW247160   3.343   7.982   0.087
15712SOL     OW47161   2.389   7.704   0.328
15712SOL    HW147162   2.416   7.645   0.253
15712SOL    HW247163   2.389   7.799   0.297
15713SOL     OW47164   3.616   8.671   1.588
15713SOL    HW147165   3.707   8.632   1.575
15713SOL    HW247166   3.624   8.767   1.612
15714SOL     OW47167   2.926   8.795   1.340
15714SOL    HW147168   2.846   8.772   1.395
15714SOL    HW247169   3.009   8.769   1.389
15715SOL     OW47170   3.454   9.077   1.625
15715SOL    HW147171   3.481   9.111   1.535
15715SOL    HW247172   3.533   9.039   1.671
15716SOL     OW47173   2.973   8.643   1.100
15716SOL    HW147174   2.933   8.687   1.181
15716SOL    HW247175   2.932   8.680   1.017
15717SOL     OW47176   3.500   8.547   1.079
15717SOL    HW147177   3.505   8.628   1.138
15717SOL    HW247178   3.414   8.549   1.028
15718SOL     OW47179   2.777   7.537   1.402
15718SOL    HW147180   2.802   7.517   1.307
15718SOL    HW247181   2.849   7.593   1.444
15719SOL     OW47182   2.842   8.564   1.719
15719SOL    HW147183   2.743   8.570   1.729
15719SOL    HW247184   2.865   8.484   1.663
15720SOL     OW47185   2.567   8.498   0.368
15720SOL    HW147186   2.553   8.505   0.467
15720SOL    HW247187   2.651   8.447   0.350
15721SOL     OW47188   2.272   8.261   1.251
15721SOL    HW147189   2.358   8.273   1.301
15721SOL    HW247190   2.230   8.174   1.278
15722SOL     OW47191   3.136   7.834   1.262
15722SOL    HW147192   3.157   7.908   1.326
15722SOL    HW247193   3.047   7.851   1.219
15723SOL     OW47194   1.926   9.012   1.331
15723SOL    HW147195   1.880   9.094   1.297
15723SOL    HW247196   2.024   9.031   1.340
15724SOL     OW47197   2.229   8.548   0.501
15724SOL    HW147198   2.222   8.631   0.445
15724SOL    HW247199   2.233   8.468   0.441
15725SOL     OW47200   2.428   7.985   0.865
15725SOL    HW147201   2.440   8.051   0.791
15725SOL    HW247202   2.474   8.019   0.948
15726SOL     OW47203   3.114   8.796   0.388
15726SOL    HW147204   3.164   8.873   0.428
15726SOL    HW247205   3.019   8.798   0.420
15727SOL     OW47206   3.134   8.893   1.142
15727SOL    HW147207   3.181   8.906   1.229
15727SOL    HW247208   3.068   8.819   1.151
15728SOL     OW47209   3.444   8.087   0.472
15728SOL    HW147210   3.413   8.148   0.545
15728SOL    HW247211   3.494   8.139   0.403
15729SOL     OW47212   2.216   8.958   1.329
15729SOL    HW147213   2.195   8.914   1.242
15729SOL    HW247214   2.313   8.984   1.332
15730SOL     OW47215   2.264   8.199   1.598
15730SOL    HW147216   2.332   8.254   1.551
15730SOL    HW247217   2.304   8.111   1.625
15731SOL     OW47218   3.449   8.227   1.670
15731SOL    HW147219   3.357   8.265   1.665
15731SOL    HW247220   3.509   8.274   1.605
15732SOL     OW47221   2.875   7.553   1.770
15732SOL    HW147222   2.881   7.638   1.718
15732SOL    HW247223   2.907   7.477   1.713
15733SOL     OW47224   2.366   7.498   1.740
15733SOL    HW147225   2.324   7.441   1.670
15733SOL    HW247226   2.300   7.567   1.772
15734SOL     OW47227   2.435   8.318   1.029
15734SOL    HW147228   2.479   8.407   1.020
15734SOL    HW247229   2.372   8.318   1.106
15735SOL     OW47230   3.222   8.310   1.045
15735SOL    HW147231   3.147   8.310   0.979
15735SOL    HW247232   3.259   8.218   1.054
15736SOL     OW47233   3.071   7.973   0.275
15736SOL    HW147234   3.084   7.889   0.329
15736SOL    HW247235   3.042   8.047   0.335
15737SOL     OW47236   2.169   7.661   1.231
15737SOL    HW147237   2.146   7.698   1.321
15737SOL    HW247238   2.139   7.566   1.225
15738SOL     OW47239   1.899   8.758   1.282
15738SOL    HW147240   1.952   8.709   1.350
15738SOL    HW247241   1.921   8.856   1.287
15739SOL     OW47242   2.594   8.082   1.064
15739SOL    HW147243   2.653   8.056   0.988
15739SOL    HW247244   2.566   8.178   1.053
15740SOL     OW47245   3.590   8.383   1.854
15740SOL    HW147246   3.544   8.376   1.765
15740SOL    HW247247   3.528   8.427   1.920
15741SOL     OW47248   2.169   7.511   0.618
15741SOL    HW147249   2.158   7.605   0.651
15741SOL    HW247250   2.164   7.448   0.695
15742SOL     OW47251   3.484   7.815   0.374
15742SOL    HW147252   3.486   7.739   0.438
15742SOL    HW247253   3.436   7.892   0.414
15743SOL     OW47254   2.885   8.214   0.966
15743SOL    HW147255   2.900   8.235   1.062
15743SOL    HW247256   2.855   8.119   0.957
15744SOL     OW47257   2.842   9.021   1.700
15744SOL    HW147258   2.822   9.065   1.612
15744SOL    HW247259   2.881   8.930   1.684
15745SOL     OW47260   3.721   8.966   1.605
15745SOL    HW147261   3.735   8.993   1.510
15745SOL    HW247262   3.804   8.988   1.658
15746SOL     OW47263   2.212   8.346   1.804
15746SOL    HW147264   2.288   8.390   1.852
15746SOL    HW247265   2.247   8.299   1.722
15747SOL     OW47266   3.402   7.722   0.125
15747SOL    HW147267   3.341   7.647   0.148
15747SOL    HW247268   3.424   7.774   0.208
15748SOL     OW47269   3.165   8.286   0.042
15748SOL    HW147270   3.199   8.193   0.057
15748SOL    HW247271   3.183   8.313  -0.053
15749SOL     OW47272   2.930   8.781   0.849
15749SOL    HW147273   2.937   8.697   0.794
15749SOL    HW247274   2.992   8.850   0.813
15750SOL     OW47275   2.181   8.258   0.949
15750SOL    HW147276   2.274   8.294   0.954
15750SOL    HW247277   2.175   8.173   1.001
15751SOL     OW47278   2.201   7.957   1.006
15751SOL    HW147279   2.149   7.874   0.989
15751SOL    HW247280   2.278   7.962   0.942
15752SOL     OW47281   3.000   7.828   1.678
15752SOL    HW147282   2.955   7.891   1.742
15752SOL    HW247283   3.093   7.859   1.661
15753SOL     OW47284   3.022   7.655   1.477
15753SOL    HW147285   3.022   7.719   1.554
15753SOL    HW247286   3.050   7.703   1.394
15754SOL     OW47287   1.870   8.774   0.200
15754SOL    HW147288   1.777   8.795   0.169
15754SOL    HW247289   1.880   8.675   0.213
15755SOL     OW47290   1.950   9.249   0.927
15755SOL    HW147291   1.908   9.163   0.900
15755SOL    HW247292   2.044   9.252   0.893
15756SOL     OW47293   2.366   9.016   0.910
15756SOL    HW147294   2.432   9.090   0.919
15756SOL    HW247295   2.410   8.937   0.868
15757SOL     OW47296   2.864   8.244   1.238
15757SOL    HW147297   2.905   8.212   1.324
15757SOL    HW247298   2.768   8.217   1.235
15758SOL     OW47299   1.902   7.992   1.114
15758SOL    HW147300   1.987   7.959   1.073
15758SOL    HW247301   1.915   8.007   1.212
15759SOL     OW47302   2.051   7.968   1.722
15759SOL    HW147303   2.110   7.928   1.652
15759SOL    HW247304   1.993   8.039   1.681
15760SOL     OW47305   3.231   8.398   1.660
15760SOL    HW147306   3.270   8.487   1.680
15760SOL    HW247307   3.241   8.378   1.563
15761SOL     OW47308   2.677   8.020   0.325
15761SOL    HW147309   2.684   7.931   0.279
15761SOL    HW247310   2.583   8.054   0.317
15762SOL     OW47311   3.519   8.052   1.206
15762SOL    HW147312   3.481   7.983   1.268
15762SOL    HW247313   3.601   8.016   1.162
15763SOL     OW47314   2.114   9.012   1.744
15763SOL    HW147315   2.084   9.069   1.820
15763SOL    HW247316   2.107   8.915   1.770
15764SOL     OW47317   2.533   7.912   1.269
15764SOL    HW147318   2.499   7.823   1.239
15764SOL    HW247319   2.559   7.966   1.189
15765SOL     OW47320   2.792   9.126   1.465
15765SOL    HW147321   2.768   9.108   1.370
15765SOL    HW247322   2.822   9.220   1.475
15766SOL     OW47323   2.335   7.948   0.191
15766SOL    HW147324   2.396   8.028   0.195
15766SOL    HW247325   2.240   7.979   0.198
15767SOL     OW47326   2.021   8.585   1.466
15767SOL    HW147327   2.043   8.524   1.542
15767SOL    HW247328   2.031   8.536   1.380
15768SOL     OW47329   3.209   8.507   1.234
15768SOL    HW147330   3.233   8.444   1.160
15768SOL    HW247331   3.119   8.547   1.216
15769SOL     OW47332   3.164   8.303   0.309
15769SOL    HW147333   3.078   8.272   0.351
15769SOL    HW247334   3.160   8.289   0.210
15770SOL     OW47335   3.621   9.195   1.154
15770SOL    HW147336   3.682   9.225   1.081
15770SOL    HW247337   3.583   9.106   1.132
15771SOL     OW47338   3.114   9.179   1.128
15771SOL    HW147339   3.198   9.184   1.074
15771SOL    HW247340   3.091   9.083   1.146
15772SOL     OW47341   1.945   8.706   1.022
15772SOL    HW147342   1.940   8.705   1.122
15772SOL    HW247343   1.862   8.665   0.984
15773SOL     OW47344   2.550   9.110   1.716
15773SOL    HW147345   2.494   9.191   1.725
15773SOL    HW247346   2.602   9.114   1.630
15774SOL     OW47347   2.765   7.534   0.133
15774SOL    HW147348   2.816   7.535   0.047
15774SOL    HW247349   2.821   7.492   0.204
15775SOL     OW47350   3.588   7.583   0.523
15775SOL    HW147351   3.661   7.566   0.456
15775SOL    HW247352   3.557   7.496   0.561
15776SOL     OW47353   3.250   9.021   0.477
15776SOL    HW147354   3.317   9.033   0.403
15776SOL    HW247355   3.210   9.110   0.500
15777SOL     OW47356   1.992   9.242   1.851
15777SOL    HW147357   1.951   9.168   1.904
15777SOL    HW247358   2.056   9.293   1.909
15778SOL     OW47359   3.142   8.375   0.672
15778SOL    HW147360   3.202   8.294   0.674
15778SOL    HW247361   3.182   8.444   0.612
15779SOL     OW47362   2.692   8.721   1.422
15779SOL    HW147363   2.687   8.754   1.517
15779SOL    HW247364   2.606   8.740   1.376
15780SOL     OW47365   2.534   9.064   0.154
15780SOL    HW147366   2.543   9.074   0.055
15780SOL    HW247367   2.494   8.975   0.175
15781SOL     OW47368   3.512   9.168   1.394
15781SOL    HW147369   3.565   9.178   1.310
15781SOL    HW247370   3.485   9.258   1.428
15782SOL     OW47371   3.703   7.623   0.963
15782SOL    HW147372   3.742   7.538   0.927
15782SOL    HW247373   3.605   7.625   0.944
15783SOL     OW47374   2.125   7.774   0.720
15783SOL    HW147375   2.046   7.825   0.686
15783SOL    HW247376   2.116   7.759   0.818
15784SOL     OW47377   3.056   9.060   0.031
15784SOL    HW147378   3.062   8.967   0.068
15784SOL    HW247379   2.997   9.060  -0.049
15785SOL     OW47380   2.684   8.450   1.372
15785SOL    HW147381   2.724   8.449   1.280
15785SOL    HW247382   2.694   8.542   1.412
15786SOL     OW47383   2.778   8.358   0.291
15786SOL    HW147384   2.841   8.396   0.223
15786SOL    HW247385   2.818   8.275   0.330
15787SOL     OW47386   3.366   9.055   0.044
15787SOL    HW147387   3.274   9.092   0.051
15787SOL    HW247388   3.404   9.075  -0.046
15788SOL     OW47389   2.234   8.736   1.490
15788SOL    HW147390   2.221   8.829   1.456
15788SOL    HW247391   2.150   8.684   1.477
15789SOL     OW47392   3.476   8.740   1.289
15789SOL    HW147393   3.536   8.743   1.369
15789SOL    HW247394   3.401   8.804   1.302
15790SOL     OW47395   2.901   8.546   0.696
15790SOL    HW147396   2.831   8.499   0.750
15790SOL    HW247397   2.960   8.478   0.653
15791SOL     OW47398   2.876   7.684   0.971
15791SOL    HW147399   2.868   7.648   0.878
15791SOL    HW247400   2.874   7.608   1.036
15792SOL     OW47401   2.452   8.935   0.491
15792SOL    HW147402   2.494   8.877   0.421
15792SOL    HW247403   2.408   9.014   0.447
15793SOL     OW47404   3.571   7.833   1.381
15793SOL    HW147405   3.644   7.902   1.385
15793SOL    HW247406   3.599   7.758   1.322
15794SOL     OW47407   2.117   8.796   0.290
15794SOL    HW147408   2.021   8.797   0.263
15794SOL    HW247409   2.129   8.849   0.374
15795SOL     OW47410   1.967   8.461   1.726
15795SOL    HW147411   1.890   8.428   1.780
15795SOL    HW247412   2.052   8.431   1.768
15796SOL     OW47413   2.534   7.651   1.489
15796SOL    HW147414   2.624   7.635   1.449
15796SOL    HW247415   2.542   7.656   1.588
15797SOL     OW47416   3.302   8.304   1.398
15797SOL    HW147417   3.245   8.356   1.335
15797SOL    HW247418   3.398   8.316   1.374
15798SOL     OW47419   1.934   7.614   0.318
15798SOL    HW147420   1.917   7.697   0.264
15798SOL    HW247421   2.024   7.577   0.296
15799SOL     OW47422   3.045   8.783   0.119
15799SOL    HW147423   2.946   8.772   0.121
15799SOL    HW247424   3.079   8.798   0.212
15800SOL     OW47425   2.475   8.290   1.431
15800SOL    HW147426   2.531   8.371   1.414
15800SOL    HW247427   2.534   8.210   1.434
15801SOL     OW47428   3.355   9.215   0.959
15801SOL    HW147429   3.388   9.279   0.890
15801SOL    HW247430   3.421   9.209   1.034
15802SOL     OW47431   2.578   8.013   1.708
15802SOL    HW147432   2.597   8.078   1.782
15802SOL    HW247433   2.638   7.933   1.717
15803SOL     OW47434   3.312   8.668   1.633
15803SOL    HW147435   3.303   8.658   1.732
15803SOL    HW247436   3.408   8.661   1.607
15804SOL     OW47437   2.252   9.189   1.560
15804SOL    HW147438   2.161   9.230   1.558
15804SOL    HW247439   2.245   9.095   1.592
15805SOL     OW47440   3.536   8.331   1.254
15805SOL    HW147441   3.509   8.242   1.217
15805SOL    HW247442   3.537   8.399   1.181
15806SOL     OW47443   3.087   7.773   0.449
15806SOL    HW147444   3.152   7.699   0.438
15806SOL    HW247445   3.107   7.823   0.533
15807SOL     OW47446   2.456   8.193   0.652
15807SOL    HW147447   2.506   8.278   0.633
15807SOL    HW247448   2.368   8.195   0.604
15808SOL     OW47449   3.639   7.790   1.642
15808SOL    HW147450   3.622   7.821   1.548
15808SOL    HW247451   3.555   7.753   1.680
15809SOL     OW47452   3.592   8.382   1.517
15809SOL    HW147453   3.630   8.473   1.532
15809SOL    HW247454   3.584   8.365   1.418
15810SOL     OW47455   2.721   8.822   0.016
15810SOL    HW147456   2.675   8.837   0.104
15810SOL    HW247457   2.765   8.907  -0.014
15811SOL     OW47458   2.523   9.238   0.953
15811SOL    HW147459   2.477   9.326   0.940
15811SOL    HW247460   2.622   9.250   0.946
15812SOL     OW47461   2.721   8.404   0.861
15812SOL    HW147462   2.775   8.335   0.909
15812SOL    HW247463   2.689   8.473   0.927
15813SOL     OW47464   2.945   8.432   0.087
15813SOL    HW147465   2.922   8.485   0.005
15813SOL    HW247466   3.026   8.376   0.068
15814SOL     OW47467   3.723   9.017   0.851
15814SOL    HW147468   3.652   9.005   0.781
15814SOL    HW247469   3.724   8.938   0.911
15815SOL     OW47470   2.083   8.762   1.844
15815SOL    HW147471   2.018   8.689   1.823
15815SOL    HW247472   2.087   8.776   1.942
15816SOL     OW47473   1.941   8.688   0.653
15816SOL    HW147474   1.940   8.641   0.741
15816SOL    HW247475   2.023   8.660   0.602
15817SOL     OW47476   2.534   8.839   1.624
15817SOL    HW147477   2.456   8.789   1.662
15817SOL    HW247478   2.531   8.934   1.655
15818SOL     OW47479   3.686   7.640   1.227
15818SOL    HW147480   3.682   7.550   1.271
15818SOL    HW247481   3.689   7.629   1.128
15819SOL     OW47482   2.290   7.872   0.520
15819SOL    HW147483   2.320   7.800   0.458
15819SOL    HW247484   2.251   7.832   0.603
15820SOL     OW47485   3.567   8.935   1.104
15820SOL    HW147486   3.474   8.910   1.077
15820SOL    HW247487   3.593   8.885   1.186
15821SOL     OW47488   2.179   7.995   1.280
15821SOL    HW147489   2.217   7.936   1.352
15821SOL    HW247490   2.219   7.969   1.192
15822SOL     OW47491   2.674   9.034   0.687
15822SOL    HW147492   2.706   9.044   0.593
15822SOL    HW247493   2.595   8.972   0.689
15823SOL     OW47494   3.286   7.662   1.112
15823SOL    HW147495   3.338   7.597   1.167
15823SOL    HW247496   3.237   7.725   1.173
15824SOL     OW47497   2.863   7.482   1.154
15824SOL    HW147498   2.800   7.410   1.123
15824SOL    HW247499   2.956   7.446   1.154
15825SOL     OW47500   2.632   8.778   0.301
15825SOL    HW147501   2.586   8.691   0.318
15825SOL    HW247502   2.723   8.775   0.342
15826SOL     OW47503   2.480   9.015   1.284
15826SOL    HW147504   2.475   9.097   1.341
15826SOL    HW247505   2.569   9.012   1.239
15827SOL     OW47506   3.214   7.500   0.168
15827SOL    HW147507   3.249   7.459   0.084
15827SOL    HW247508   3.124   7.462   0.188
15828SOL     OW47509   3.162   7.901   0.691
15828SOL    HW147510   3.103   7.981   0.695
15828SOL    HW247511   3.177   7.866   0.784
15829SOL     OW47512   3.455   7.669   0.882
15829SOL    HW147513   3.371   7.668   0.936
15829SOL    HW247514   3.457   7.752   0.826
15830SOL     OW47515   1.901   8.525   0.300
15830SOL    HW147516   2.000   8.514   0.291
15830SOL    HW247517   1.861   8.439   0.332
15831SOL     OW47518   2.737   9.094   0.337
15831SOL    HW147519   2.660   9.059   0.283
15831SOL    HW247520   2.705   9.165   0.399
15832SOL     OW47521   2.092   8.076   1.975
15832SOL    HW147522   1.999   8.074   2.012
15832SOL    HW247523   2.093   8.037   1.883
15833SOL     OW47524   2.087   7.723   2.858
15833SOL    HW147525   2.122   7.706   2.950
15833SOL    HW247526   1.999   7.678   2.846
15834SOL     OW47527   1.881   7.816   2.509
15834SOL    HW147528   1.799   7.859   2.548
15834SOL    HW247529   1.853   7.743   2.446
15835SOL     OW47530   2.431   8.723   3.027
15835SOL    HW147531   2.338   8.716   2.990
15835SOL    HW247532   2.442   8.812   3.071
15836SOL     OW47533   3.417   8.959   2.565
15836SOL    HW147534   3.360   8.943   2.646
15836SOL    HW247535   3.358   8.969   2.485
15837SOL     OW47536   2.997   8.151   2.579
15837SOL    HW147537   3.054   8.229   2.554
15837SOL    HW247538   2.937   8.177   2.655
15838SOL     OW47539   3.617   8.055   2.093
15838SOL    HW147540   3.605   8.042   1.994
15838SOL    HW247541   3.587   7.974   2.142
15839SOL     OW47542   2.630   8.592   2.885
15839SOL    HW147543   2.552   8.609   2.945
15839SOL    HW247544   2.664   8.679   2.849
15840SOL     OW47545   2.712   8.246   3.685
15840SOL    HW147546   2.708   8.322   3.750
15840SOL    HW247547   2.734   8.282   3.594
15841SOL     OW47548   2.547   8.460   2.527
15841SOL    HW147549   2.616   8.444   2.597
15841SOL    HW247550   2.474   8.517   2.565
15842SOL     OW47551   2.548   8.609   3.665
15842SOL    HW147552   2.608   8.688   3.679
15842SOL    HW247553   2.462   8.640   3.624
15843SOL     OW47554   2.197   8.883   2.923
15843SOL    HW147555   2.119   8.852   2.870
15843SOL    HW247556   2.255   8.941   2.866
15844SOL     OW47557   3.322   8.953   3.201
15844SOL    HW147558   3.346   9.047   3.227
15844SOL    HW247559   3.306   8.899   3.283
15845SOL     OW47560   2.300   7.840   3.361
15845SOL    HW147561   2.382   7.784   3.370
15845SOL    HW247562   2.219   7.782   3.365
15846SOL     OW47563   3.465   7.895   2.599
15846SOL    HW147564   3.391   7.941   2.549
15846SOL    HW247565   3.516   7.963   2.652
15847SOL     OW47566   2.093   9.161   2.345
15847SOL    HW147567   2.127   9.238   2.399
15847SOL    HW247568   2.137   9.161   2.255
15848SOL     OW47569   2.989   8.789   3.552
15848SOL    HW147570   3.036   8.789   3.640
15848SOL    HW247571   2.941   8.702   3.541
15849SOL     OW47572   2.092   8.882   2.400
15849SOL    HW147573   2.066   8.978   2.400
15849SOL    HW247574   2.021   8.828   2.445
15850SOL     OW47575   2.102   8.539   2.748
15850SOL    HW147576   2.116   8.455   2.800
15850SOL    HW247577   2.047   8.603   2.803
15851SOL     OW47578   2.482   9.234   3.301
15851SOL    HW147579   2.390   9.217   3.336
15851SOL    HW247580   2.510   9.326   3.327
15852SOL     OW47581   2.468   8.412   1.985
15852SOL    HW147582   2.475   8.496   1.931
15852SOL    HW247583   2.514   8.425   2.073
15853SOL     OW47584   3.456   7.562   3.342
15853SOL    HW147585   3.438   7.629   3.270
15853SOL    HW247586   3.453   7.608   3.431
15854SOL     OW47587   1.984   8.091   2.425
15854SOL    HW147588   1.939   8.003   2.442
15854SOL    HW247589   1.983   8.145   2.509
15855SOL     OW47590   3.704   9.215   2.221
15855SOL    HW147591   3.758   9.186   2.301
15855SOL    HW247592   3.734   9.305   2.192
15856SOL     OW47593   1.889   9.044   1.979
15856SOL    HW147594   1.870   8.948   2.000
15856SOL    HW247595   1.856   9.102   2.054
15857SOL     OW47596   3.551   8.370   2.474
15857SOL    HW147597   3.646   8.341   2.482
15857SOL    HW247598   3.543   8.435   2.399
15858SOL     OW47599   3.503   8.556   2.294
15858SOL    HW147600   3.589   8.558   2.242
15858SOL    HW247601   3.517   8.603   2.382
15859SOL     OW47602   1.975   8.185   3.459
15859SOL    HW147603   2.063   8.172   3.504
15859SOL    HW247604   1.962   8.282   3.437
15860SOL     OW47605   2.475   8.813   2.588
15860SOL    HW147606   2.426   8.726   2.597
15860SOL    HW247607   2.452   8.856   2.501
15861SOL     OW47608   3.155   8.676   3.285
15861SOL    HW147609   3.192   8.603   3.227
15861SOL    HW247610   3.207   8.681   3.370
15862SOL     OW47611   2.671   7.452   2.364
15862SOL    HW147612   2.711   7.543   2.355
15862SOL    HW247613   2.571   7.460   2.370
15863SOL     OW47614   2.059   8.424   3.126
15863SOL    HW147615   2.148   8.379   3.112
15863SOL    HW247616   1.986   8.359   3.107
15864SOL     OW47617   3.387   8.447   2.052
15864SOL    HW147618   3.324   8.371   2.065
15864SOL    HW247619   3.435   8.465   2.138
15865SOL     OW47620   3.049   9.240   3.478
15865SOL    HW147621   3.073   9.300   3.402
15865SOL    HW247622   3.056   9.145   3.448
15866SOL     OW47623   2.179   7.699   3.663
15866SOL    HW147624   2.250   7.770   3.669
15866SOL    HW247625   2.091   7.738   3.691
15867SOL     OW47626   3.328   8.865   2.815
15867SOL    HW147627   3.269   8.871   2.895
15867SOL    HW247628   3.313   8.777   2.769
15868SOL     OW47629   3.529   9.162   2.434
15868SOL    HW147630   3.488   9.139   2.346
15868SOL    HW247631   3.511   9.088   2.499
15869SOL     OW47632   2.460   8.177   2.132
15869SOL    HW147633   2.484   8.246   2.064
15869SOL    HW247634   2.382   8.210   2.186
15870SOL     OW47635   3.143   7.793   2.806
15870SOL    HW147636   3.057   7.743   2.793
15870SOL    HW247637   3.205   7.739   2.862
15871SOL     OW47638   3.438   9.110   2.169
15871SOL    HW147639   3.527   9.156   2.172
15871SOL    HW247640   3.417   9.086   2.074
15872SOL     OW47641   2.669   8.053   3.327
15872SOL    HW147642   2.622   8.050   3.416
15872SOL    HW247643   2.618   7.998   3.261
15873SOL     OW47644   3.256   7.917   3.536
15873SOL    HW147645   3.236   7.960   3.624
15873SOL    HW247646   3.334   7.855   3.545
15874SOL     OW47647   2.835   8.338   3.434
15874SOL    HW147648   2.881   8.254   3.405
15874SOL    HW247649   2.779   8.372   3.359
15875SOL     OW47650   2.853   7.858   3.104
15875SOL    HW147651   2.776   7.892   3.158
15875SOL    HW247652   2.819   7.807   3.025
15876SOL     OW47653   2.903   8.149   2.291
15876SOL    HW147654   2.929   8.145   2.387
15876SOL    HW247655   2.818   8.098   2.277
15877SOL     OW47656   1.938   8.259   2.651
15877SOL    HW147657   2.037   8.247   2.660
15877SOL    HW247658   1.914   8.354   2.672
15878SOL     OW47659   1.992   9.269   3.433
15878SOL    HW147660   1.982   9.254   3.532
15878SOL    HW247661   1.906   9.305   3.397
15879SOL     OW47662   2.727   7.796   2.057
15879SOL    HW147663   2.786   7.859   2.008
15879SOL    HW247664   2.746   7.702   2.028
15880SOL     OW47665   3.581   8.033   3.693
15880SOL    HW147666   3.555   8.122   3.657
15880SOL    HW247667   3.579   7.965   3.620
15881SOL     OW47668   3.224   8.592   2.407
15881SOL    HW147669   3.307   8.563   2.359
15881SOL    HW247670   3.175   8.659   2.351
15882SOL     OW47671   2.412   7.644   2.747
15882SOL    HW147672   2.407   7.639   2.847
15882SOL    HW247673   2.414   7.740   2.718
15883SOL     OW47674   2.870   8.904   2.339
15883SOL    HW147675   2.824   8.976   2.287
15883SOL    HW247676   2.866   8.924   2.437
15884SOL     OW47677   2.213   9.249   2.715
15884SOL    HW147678   2.263   9.163   2.721
15884SOL    HW247679   2.278   9.326   2.712
15885SOL     OW47680   3.657   8.514   2.735
15885SOL    HW147681   3.595   8.499   2.659
15885SOL    HW247682   3.605   8.525   2.820
15886SOL     OW47683   3.089   8.998   3.368
15886SOL    HW147684   3.095   8.921   3.432
15886SOL    HW247685   3.037   8.972   3.288
15887SOL     OW47686   2.183   8.391   2.104
15887SOL    HW147687   2.265   8.430   2.062
15887SOL    HW247688   2.156   8.309   2.055
15888SOL     OW47689   3.320   8.183   2.590
15888SOL    HW147690   3.315   8.118   2.665
15888SOL    HW247691   3.400   8.242   2.603
15889SOL     OW47692   2.323   8.714   3.589
15889SOL    HW147693   2.273   8.715   3.503
15889SOL    HW247694   2.260   8.696   3.665
15890SOL     OW47695   2.973   9.224   2.099
15890SOL    HW147696   2.913   9.162   2.149
15890SOL    HW247697   3.004   9.180   2.014
15891SOL     OW47698   2.064   7.733   3.360
15891SOL    HW147699   1.984   7.793   3.347
15891SOL    HW247700   2.054   7.684   3.446
15892SOL     OW47701   3.494   8.825   1.943
15892SOL    HW147702   3.462   8.919   1.933
15892SOL    HW247703   3.418   8.762   1.931
15893SOL     OW47704   2.326   9.191   2.185
15893SOL    HW147705   2.359   9.230   2.271
15893SOL    HW247706   2.402   9.184   2.120
15894SOL     OW47707   3.262   7.555   2.288
15894SOL    HW147708   3.238   7.518   2.198
15894SOL    HW247709   3.361   7.571   2.292
15895SOL     OW47710   2.111   9.233   3.103
15895SOL    HW147711   2.168   9.168   3.153
15895SOL    HW247712   2.095   9.200   3.010
15896SOL     OW47713   2.802   9.146   2.766
15896SOL    HW147714   2.882   9.089   2.787
15896SOL    HW247715   2.753   9.106   2.689
15897SOL     OW47716   2.244   8.148   2.342
15897SOL    HW147717   2.289   8.058   2.339
15897SOL    HW247718   2.150   8.137   2.375
15898SOL     OW47719   3.409   7.670   3.591
15898SOL    HW147720   3.404   7.707   3.683
15898SOL    HW247721   3.337   7.601   3.579
15899SOL     OW47722   2.476   7.570   1.979
15899SOL    HW147723   2.574   7.548   1.986
15899SOL    HW247724   2.445   7.553   1.886
15900SOL     OW47725   2.643   7.712   3.611
15900SOL    HW147726   2.710   7.651   3.654
15900SOL    HW247727   2.570   7.731   3.676
15901SOL     OW47728   2.750   8.962   3.057
15901SOL    HW147729   2.727   8.937   2.963
15901SOL    HW247730   2.811   8.893   3.096
15902SOL     OW47731   3.213   8.038   3.295
15902SOL    HW147732   3.241   7.995   3.380
15902SOL    HW247733   3.238   8.134   3.296
15903SOL     OW47734   2.665   8.850   2.786
15903SOL    HW147735   2.755   8.864   2.744
15903SOL    HW247736   2.594   8.852   2.715
15904SOL     OW47737   2.784   7.951   2.761
15904SOL    HW147738   2.759   7.942   2.665
15904SOL    HW247739   2.832   7.869   2.792
15905SOL     OW47740   2.401   7.512   2.374
15905SOL    HW147741   2.320   7.513   2.432
15905SOL    HW247742   2.404   7.595   2.319
15906SOL     OW47743   3.296   8.636   1.903
15906SOL    HW147744   3.328   8.560   1.960
15906SOL    HW247745   3.204   8.663   1.933
15907SOL     OW47746   2.159   7.483   2.033
15907SOL    HW147747   2.208   7.567   2.012
15907SOL    HW247748   2.221   7.418   2.078
15908SOL     OW47749   2.797   7.684   2.342
15908SOL    HW147750   2.749   7.725   2.264
15908SOL    HW247751   2.896   7.682   2.323
15909SOL     OW47752   2.938   8.131   3.326
15909SOL    HW147753   2.858   8.070   3.329
15909SOL    HW247754   3.019   8.078   3.302
15910SOL     OW47755   3.089   9.018   2.655
15910SOL    HW147756   3.110   9.092   2.590
15910SOL    HW247757   3.157   9.018   2.728
15911SOL     OW47758   2.321   8.600   2.603
15911SOL    HW147759   2.250   8.573   2.668
15911SOL    HW247760   2.295   8.572   2.510
15912SOL     OW47761   3.133   9.245   2.453
15912SOL    HW147762   3.177   9.309   2.389
15912SOL    HW247763   3.083   9.297   2.523
15913SOL     OW47764   2.894   7.997   1.878
15913SOL    HW147765   2.853   8.079   1.839
15913SOL    HW247766   2.958   8.023   1.951
15914SOL     OW47767   1.940   8.004   3.248
15914SOL    HW147768   2.032   8.003   3.207
15914SOL    HW247769   1.934   8.078   3.315
15915SOL     OW47770   2.423   7.670   3.009
15915SOL    HW147771   2.461   7.586   3.046
15915SOL    HW247772   2.335   7.689   3.053
15916SOL     OW47773   2.728   7.902   2.504
15916SOL    HW147774   2.696   7.974   2.442
15916SOL    HW247775   2.752   7.821   2.451
15917SOL     OW47776   2.879   7.487   2.615
15917SOL    HW147777   2.807   7.492   2.546
15917SOL    HW247778   2.855   7.418   2.684
15918SOL     OW47779   3.291   8.621   2.729
15918SOL    HW147780   3.236   8.537   2.722
15918SOL    HW247781   3.317   8.650   2.637
15919SOL     OW47782   3.328   8.038   2.854
15919SOL    HW147783   3.298   7.943   2.861
15919SOL    HW247784   3.401   8.054   2.920
15920SOL     OW47785   3.719   8.281   2.239
15920SOL    HW147786   3.761   8.217   2.303
15920SOL    HW247787   3.681   8.230   2.161
15921SOL     OW47788   2.350   8.833   2.036
15921SOL    HW147789   2.263   8.818   2.083
15921SOL    HW247790   2.333   8.859   1.941
15922SOL     OW47791   3.526   8.728   2.519
15922SOL    HW147792   3.625   8.736   2.533
15922SOL    HW247793   3.481   8.812   2.550
15923SOL     OW47794   3.252   8.023   1.940
15923SOL    HW147795   3.198   8.002   2.021
15923SOL    HW247796   3.343   7.982   1.949
15924SOL     OW47797   2.389   7.704   2.190
15924SOL    HW147798   2.416   7.645   2.115
15924SOL    HW247799   2.389   7.799   2.159
15925SOL     OW47800   3.616   8.671   3.450
15925SOL    HW147801   3.707   8.632   3.437
15925SOL    HW247802   3.624   8.767   3.474
15926SOL     OW47803   2.926   8.795   3.202
15926SOL    HW147804   2.846   8.772   3.257
15926SOL    HW247805   3.009   8.769   3.251
15927SOL     OW47806   3.454   9.077   3.487
15927SOL    HW147807   3.481   9.111   3.397
15927SOL    HW247808   3.533   9.039   3.533
15928SOL     OW47809   3.500   8.547   2.941
15928SOL    HW147810   3.505   8.628   3.000
15928SOL    HW247811   3.414   8.549   2.890
15929SOL     OW47812   2.777   7.537   3.264
15929SOL    HW147813   2.802   7.517   3.169
15929SOL    HW247814   2.849   7.593   3.306
15930SOL     OW47815   2.842   8.564   3.581
15930SOL    HW147816   2.743   8.570   3.591
15930SOL    HW247817   2.865   8.484   3.525
15931SOL     OW47818   2.567   8.498   2.230
15931SOL    HW147819   2.553   8.505   2.329
15931SOL    HW247820   2.651   8.447   2.212
15932SOL     OW47821   2.272   8.261   3.113
15932SOL    HW147822   2.358   8.273   3.163
15932SOL    HW247823   2.230   8.174   3.140
15933SOL     OW47824   3.136   7.834   3.124
15933SOL    HW147825   3.157   7.908   3.188
15933SOL    HW247826   3.047   7.851   3.081
15934SOL     OW47827   1.926   9.012   3.193
15934SOL    HW147828   1.880   9.094   3.159
15934SOL    HW247829   2.024   9.031   3.202
15935SOL     OW47830   2.229   8.548   2.363
15935SOL    HW147831   2.222   8.631   2.307
15935SOL    HW247832   2.233   8.468   2.303
15936SOL     OW47833   2.428   7.985   2.727
15936SOL    HW147834   2.440   8.051   2.653
15936SOL    HW247835   2.474   8.019   2.810
15937SOL     OW47836   3.114   8.796   2.250
15937SOL    HW147837   3.164   8.873   2.290
15937SOL    HW247838   3.019   8.798   2.282
15938SOL     OW47839   3.134   8.893   3.004
15938SOL    HW147840   3.181   8.906   3.091
15938SOL    HW247841   3.068   8.819   3.013
15939SOL     OW47842   3.444   8.087   2.334
15939SOL    HW147843   3.413   8.148   2.407
15939SOL    HW247844   3.494   8.139   2.265
15940SOL     OW47845   2.216   8.958   3.191
15940SOL    HW147846   2.195   8.914   3.104
15940SOL    HW247847   2.313   8.984   3.194
15941SOL     OW47848   2.264   8.199   3.460
15941SOL    HW147849   2.332   8.254   3.413
15941SOL    HW247850   2.304   8.111   3.487
15942SOL     OW47851   3.449   8.227   3.532
15942SOL    HW147852   3.357   8.265   3.527
15942SOL    HW247853   3.509   8.274   3.467
15943SOL     OW47854   2.875   7.553   3.632
15943SOL    HW147855   2.881   7.638   3.580
15943SOL    HW247856   2.907   7.477   3.575
15944SOL     OW47857   2.366   7.498   3.602
15944SOL    HW147858   2.324   7.441   3.532
15944SOL    HW247859   2.300   7.567   3.634
15945SOL     OW47860   2.435   8.318   2.891
15945SOL    HW147861   2.479   8.407   2.882
15945SOL    HW247862   2.372   8.318   2.968
15946SOL     OW47863   3.222   8.310   2.907
15946SOL    HW147864   3.147   8.310   2.841
15946SOL    HW247865   3.259   8.218   2.916
15947SOL     OW47866   3.071   7.973   2.137
15947SOL    HW147867   3.084   7.889   2.191
15947SOL    HW247868   3.042   8.047   2.197
15948SOL     OW47869   2.169   7.661   3.093
15948SOL    HW147870   2.146   7.698   3.183
15948SOL    HW247871   2.139   7.566   3.087
15949SOL     OW47872   1.899   8.758   3.144
15949SOL    HW147873   1.952   8.709   3.212
15949SOL    HW247874   1.921   8.856   3.149
15950SOL     OW47875   2.594   8.082   2.926
15950SOL    HW147876   2.653   8.056   2.850
15950SOL    HW247877   2.566   8.178   2.915
15951SOL     OW47878   3.590   8.383   3.716
15951SOL    HW147879   3.544   8.376   3.627
15951SOL    HW247880   3.528   8.427   3.782
15952SOL     OW47881   2.169   7.511   2.480
15952SOL    HW147882   2.158   7.605   2.513
15952SOL    HW247883   2.164   7.448   2.557
15953SOL     OW47884   3.484   7.815   2.236
15953SOL    HW147885   3.486   7.739   2.300
15953SOL    HW247886   3.436   7.892   2.276
15954SOL     OW47887   2.885   8.214   2.828
15954SOL    HW147888   2.900   8.235   2.924
15954SOL    HW247889   2.855   8.119   2.819
15955SOL     OW47890   2.842   9.021   3.562
15955SOL    HW147891   2.822   9.065   3.474
15955SOL    HW247892   2.881   8.930   3.546
15956SOL     OW47893   3.721   8.966   3.467
15956SOL    HW147894   3.735   8.993   3.372
15956SOL    HW247895   3.804   8.988   3.520
15957SOL     OW47896   2.212   8.346   3.666
15957SOL    HW147897   2.288   8.390   3.714
15957SOL    HW247898   2.247   8.299   3.584
15958SOL     OW47899   3.402   7.722   1.987
15958SOL    HW147900   3.341   7.647   2.010
15958SOL    HW247901   3.424   7.774   2.070
15959SOL     OW47902   3.165   8.286   1.904
15959SOL    HW147903   3.199   8.193   1.919
15959SOL    HW247904   3.183   8.313   1.809
15960SOL     OW47905   2.930   8.781   2.711
15960SOL    HW147906   2.937   8.697   2.656
15960SOL    HW247907   2.992   8.850   2.675
15961SOL     OW47908   2.181   8.258   2.811
15961SOL    HW147909   2.274   8.294   2.816
15961SOL    HW247910   2.175   8.173   2.863
15962SOL     OW47911   2.201   7.957   2.868
15962SOL    HW147912   2.149   7.874   2.851
15962SOL    HW247913   2.278   7.962   2.804
15963SOL     OW47914   3.000   7.828   3.540
15963SOL    HW147915   2.955   7.891   3.604
15963SOL    HW247916   3.093   7.859   3.523
15964SOL     OW47917   3.022   7.655   3.339
15964SOL    HW147918   3.022   7.719   3.416
15964SOL    HW247919   3.050   7.703   3.256
15965SOL     OW47920   1.870   8.774   2.062
15965SOL    HW147921   1.777   8.795   2.031
15965SOL    HW247922   1.880   8.675   2.075
15966SOL     OW47923   1.950   9.249   2.789
15966SOL    HW147924   1.908   9.163   2.762
15966SOL    HW247925   2.044   9.252   2.755
15967SOL     OW47926   2.366   9.016   2.772
15967SOL    HW147927   2.432   9.090   2.781
15967SOL    HW247928   2.410   8.937   2.730
15968SOL     OW47929   2.864   8.244   3.100
15968SOL    HW147930   2.905   8.212   3.186
15968SOL    HW247931   2.768   8.217   3.097
15969SOL     OW47932   1.902   7.992   2.976
15969SOL    HW147933   1.987   7.959   2.935
15969SOL    HW247934   1.915   8.007   3.074
15970SOL     OW47935   2.051   7.968   3.584
15970SOL    HW147936   2.110   7.928   3.514
15970SOL    HW247937   1.993   8.039   3.543
15971SOL     OW47938   3.231   8.398   3.522
15971SOL    HW147939   3.270   8.487   3.542
15971SOL    HW247940   3.241   8.378   3.425
15972SOL     OW47941   2.677   8.020   2.187
15972SOL    HW147942   2.684   7.931   2.141
15972SOL    HW247943   2.583   8.054   2.179
15973SOL     OW47944   3.519   8.052   3.068
15973SOL    HW147945   3.481   7.983   3.130
15973SOL    HW247946   3.601   8.016   3.024
15974SOL     OW47947   2.114   9.012   3.606
15974SOL    HW147948   2.084   9.069   3.682
15974SOL    HW247949   2.107   8.915   3.632
15975SOL     OW47950   2.533   7.912   3.131
15975SOL    HW147951   2.499   7.823   3.101
15975SOL    HW247952   2.559   7.966   3.051
15976SOL     OW47953   2.792   9.126   3.327
15976SOL    HW147954   2.768   9.108   3.232
15976SOL    HW247955   2.822   9.220   3.337
15977SOL     OW47956   2.335   7.948   2.053
15977SOL    HW147957   2.396   8.028   2.057
15977SOL    HW247958   2.240   7.979   2.060
15978SOL     OW47959   2.021   8.585   3.328
15978SOL    HW147960   2.043   8.524   3.404
15978SOL    HW247961   2.031   8.536   3.242
15979SOL     OW47962   3.209   8.507   3.096
15979SOL    HW147963   3.233   8.444   3.022
15979SOL    HW247964   3.119   8.547   3.078
15980SOL     OW47965   3.164   8.303   2.171
15980SOL    HW147966   3.078   8.272   2.213
15980SOL    HW247967   3.160   8.289   2.072
15981SOL     OW47968   3.621   9.195   3.016
15981SOL    HW147969   3.682   9.225   2.943
15981SOL    HW247970   3.583   9.106   2.994
15982SOL     OW47971   3.114   9.179   2.990
15982SOL    HW147972   3.198   9.184   2.936
15982SOL    HW247973   3.091   9.083   3.008
15983SOL     OW47974   1.945   8.706   2.884
15983SOL    HW147975   1.940   8.705   2.984
15983SOL    HW247976   1.862   8.665   2.846
15984SOL     OW47977   2.550   9.110   3.578
15984SOL    HW147978   2.494   9.191   3.587
15984SOL    HW247979   2.602   9.114   3.492
15985SOL     OW47980   3.588   7.583   2.385
15985SOL    HW147981   3.661   7.566   2.318
15985SOL    HW247982   3.557   7.496   2.423
15986SOL     OW47983   3.250   9.021   2.339
15986SOL    HW147984   3.317   9.033   2.265
15986SOL    HW247985   3.210   9.110   2.362
15987SOL     OW47986   1.992   9.242   3.713
15987SOL    HW147987   1.951   9.168   3.766
15987SOL    HW247988   2.056   9.293   3.771
15988SOL     OW47989   3.142   8.375   2.534
15988SOL    HW147990   3.202   8.294   2.536
15988SOL    HW247991   3.182   8.444   2.474
15989SOL     OW47992   2.692   8.721   3.284
15989SOL    HW147993   2.687   8.754   3.379
15989SOL    HW247994   2.606   8.740   3.238
15990SOL     OW47995   2.534   9.064   2.016
15990SOL    HW147996   2.543   9.074   1.917
15990SOL    HW247997   2.494   8.975   2.037
15991SOL     OW47998   3.512   9.168   3.256
15991SOL    HW147999   3.565   9.178   3.172
15991SOL    HW248000   3.485   9.258   3.290
15992SOL     OW48001   3.703   7.623   2.825
15992SOL    HW148002   3.742   7.538   2.789
15992SOL    HW248003   3.605   7.625   2.806
15993SOL     OW48004   2.125   7.774   2.582
15993SOL    HW148005   2.046   7.825   2.548
15993SOL    HW248006   2.116   7.759   2.680
15994SOL     OW48007   3.056   9.060   1.893
15994SOL    HW148008   3.062   8.967   1.930
15994SOL    HW248009   2.997   9.060   1.813
15995SOL     OW48010   2.684   8.450   3.234
15995SOL    HW148011   2.724   8.449   3.142
15995SOL    HW248012   2.694   8.542   3.274
15996SOL     OW48013   2.778   8.358   2.153
15996SOL    HW148014   2.841   8.396   2.085
15996SOL    HW248015   2.818   8.275   2.192
15997SOL     OW48016   3.366   9.055   1.906
15997SOL    HW148017   3.274   9.092   1.913
15997SOL    HW248018   3.404   9.075   1.816
15998SOL     OW48019   2.234   8.736   3.352
15998SOL    HW148020   2.221   8.829   3.318
15998SOL    HW248021   2.150   8.684   3.339
15999SOL     OW48022   3.476   8.740   3.151
15999SOL    HW148023   3.536   8.743   3.231
15999SOL    HW248024   3.401   8.804   3.164
16000SOL     OW48025   2.901   8.546   2.558
16000SOL    HW148026   2.831   8.499   2.612
16000SOL    HW248027   2.960   8.478   2.515
16001SOL     OW48028   2.876   7.684   2.833
16001SOL    HW148029   2.868   7.648   2.740
16001SOL    HW248030   2.874   7.608   2.898
16002SOL     OW48031   2.452   8.935   2.353
16002SOL    HW148032   2.494   8.877   2.283
16002SOL    HW248033   2.408   9.014   2.309
16003SOL     OW48034   3.571   7.833   3.243
16003SOL    HW148035   3.644   7.902   3.247
16003SOL    HW248036   3.599   7.758   3.184
16004SOL     OW48037   2.117   8.796   2.152
16004SOL    HW148038   2.021   8.797   2.125
16004SOL    HW248039   2.129   8.849   2.236
16005SOL     OW48040   1.967   8.461   3.588
16005SOL    HW148041   1.890   8.428   3.642
16005SOL    HW248042   2.052   8.431   3.630
16006SOL     OW48043   2.534   7.651   3.351
16006SOL    HW148044   2.624   7.635   3.311
16006SOL    HW248045   2.542   7.656   3.450
16007SOL     OW48046   1.937   7.793   1.895
16007SOL    HW148047   1.845   7.765   1.866
16007SOL    HW248048   1.968   7.870   1.839
16008SOL     OW48049   3.302   8.304   3.260
16008SOL    HW148050   3.245   8.356   3.197
16008SOL    HW248051   3.398   8.316   3.236
16009SOL     OW48052   1.934   7.614   2.180
16009SOL    HW148053   1.917   7.697   2.126
16009SOL    HW248054   2.024   7.577   2.158
16010SOL     OW48055   3.045   8.783   1.981
16010SOL    HW148056   2.946   8.772   1.983
16010SOL    HW248057   3.079   8.798   2.074
16011SOL     OW48058   2.475   8.290   3.293
16011SOL    HW148059   2.531   8.371   3.276
16011SOL    HW248060   2.534   8.210   3.296
16012SOL     OW48061   3.355   9.215   2.821
16012SOL    HW148062   3.388   9.279   2.752
16012SOL    HW248063   3.421   9.209   2.896
16013SOL     OW48064   2.578   8.013   3.570
16013SOL    HW148065   2.597   8.078   3.644
16013SOL    HW248066   2.638   7.933   3.579
16014SOL     OW48067   3.312   8.668   3.495
16014SOL    HW148068   3.303   8.658   3.594
16014SOL    HW248069   3.408   8.661   3.469
16015SOL     OW48070   2.252   9.189   3.422
16015SOL    HW148071   2.161   9.230   3.420
16015SOL    HW248072   2.245   9.095   3.454
16016SOL     OW48073   3.536   8.331   3.116
16016SOL    HW148074   3.509   8.242   3.079
16016SOL    HW248075   3.537   8.399   3.043
16017SOL     OW48076   3.087   7.773   2.311
16017SOL    HW148077   3.152   7.699   2.300
16017SOL    HW248078   3.107   7.823   2.395
16018SOL     OW48079   2.456   8.193   2.514
16018SOL    HW148080   2.506   8.278   2.495
16018SOL    HW248081   2.368   8.195   2.466
16019SOL     OW48082   3.639   7.790   3.504
16019SOL    HW148083   3.622   7.821   3.410
16019SOL    HW248084   3.555   7.753   3.542
16020SOL     OW48085   3.592   8.382   3.379
16020SOL    HW148086   3.630   8.473   3.394
16020SOL    HW248087   3.584   8.365   3.280
16021SOL     OW48088   2.721   8.822   1.878
16021SOL    HW148089   2.675   8.837   1.966
16021SOL    HW248090   2.765   8.907   1.848
16022SOL     OW48091   2.523   9.238   2.815
16022SOL    HW148092   2.477   9.326   2.802
16022SOL    HW248093   2.622   9.250   2.808
16023SOL     OW48094   2.721   8.404   2.723
16023SOL    HW148095   2.775   8.335   2.771
16023SOL    HW248096   2.689   8.473   2.789
16024SOL     OW48097   2.945   8.432   1.949
16024SOL    HW148098   2.922   8.485   1.867
16024SOL    HW248099   3.026   8.376   1.930
16025SOL     OW48100   3.723   9.017   2.713
16025SOL    HW148101   3.652   9.005   2.643
16025SOL    HW248102   3.724   8.938   2.773
16026SOL     OW48103   2.083   8.762   3.706
16026SOL    HW148104   2.018   8.689   3.685
16026SOL    HW248105   2.087   8.776   3.804
16027SOL     OW48106   1.941   8.688   2.515
16027SOL    HW148107   1.940   8.641   2.603
16027SOL    HW248108   2.023   8.660   2.464
16028SOL     OW48109   2.534   8.839   3.486
16028SOL    HW148110   2.456   8.789   3.524
16028SOL    HW248111   2.531   8.934   3.517
16029SOL     OW48112   3.686   7.640   3.089
16029SOL    HW148113   3.682   7.550   3.133
16029SOL    HW248114   3.689   7.629   2.990
16030SOL     OW48115   2.290   7.872   2.382
16030SOL    HW148116   2.320   7.800   2.320
16030SOL    HW248117   2.251   7.832   2.465
16031SOL     OW48118   3.567   8.935   2.966
16031SOL    HW148119   3.474   8.910   2.939
16031SOL    HW248120   3.593   8.885   3.048
16032SOL     OW48121   2.179   7.995   3.142
16032SOL    HW148122   2.217   7.936   3.214
16032SOL    HW248123   2.219   7.969   3.054
16033SOL     OW48124   2.674   9.034   2.549
16033SOL    HW148125   2.706   9.044   2.455
16033SOL    HW248126   2.595   8.972   2.551
16034SOL     OW48127   3.286   7.662   2.974
16034SOL    HW148128   3.338   7.597   3.029
16034SOL    HW248129   3.237   7.725   3.035
16035SOL     OW48130   2.863   7.482   3.016
16035SOL    HW148131   2.800   7.410   2.985
16035SOL    HW248132   2.956   7.446   3.016
16036SOL     OW48133   2.632   8.778   2.163
16036SOL    HW148134   2.586   8.691   2.180
16036SOL    HW248135   2.723   8.775   2.204
16037SOL     OW48136   2.480   9.015   3.146
16037SOL    HW148137   2.475   9.097   3.203
16037SOL    HW248138   2.569   9.012   3.101
16038SOL     OW48139   3.214   7.500   2.030
16038SOL    HW148140   3.249   7.459   1.946
16038SOL    HW248141   3.124   7.462   2.050
16039SOL     OW48142   3.162   7.901   2.553
16039SOL    HW148143   3.103   7.981   2.557
16039SOL    HW248144   3.177   7.866   2.646
16040SOL     OW48145   3.455   7.669   2.744
16040SOL    HW148146   3.371   7.668   2.798
16040SOL    HW248147   3.457   7.752   2.688
16041SOL     OW48148   1.901   8.525   2.162
16041SOL    HW148149   2.000   8.514   2.153
16041SOL    HW248150   1.861   8.439   2.194
16042SOL     OW48151   2.737   9.094   2.199
16042SOL    HW148152   2.660   9.059   2.145
16042SOL    HW248153   2.705   9.165   2.261
16043SOL     OW48154   2.092   8.076   3.837
16043SOL    HW148155   1.999   8.074   3.874
16043SOL    HW248156   2.093   8.037   3.745
16044SOL     OW48157   2.087   7.723   4.720
16044SOL    HW148158   2.122   7.706   4.812
16044SOL    HW248159   1.999   7.678   4.708
16045SOL     OW48160   1.881   7.816   4.371
16045SOL    HW148161   1.799   7.859   4.410
16045SOL    HW248162   1.853   7.743   4.308
16046SOL     OW48163   2.431   8.723   4.889
16046SOL    HW148164   2.338   8.716   4.852
16046SOL    HW248165   2.442   8.812   4.933
16047SOL     OW48166   3.417   8.959   4.427
16047SOL    HW148167   3.360   8.943   4.508
16047SOL    HW248168   3.358   8.969   4.347
16048SOL     OW48169   2.997   8.151   4.441
16048SOL    HW148170   3.054   8.229   4.416
16048SOL    HW248171   2.937   8.177   4.517
16049SOL     OW48172   3.617   8.055   3.955
16049SOL    HW148173   3.605   8.042   3.856
16049SOL    HW248174   3.587   7.974   4.004
16050SOL     OW48175   2.630   8.592   4.747
16050SOL    HW148176   2.552   8.609   4.807
16050SOL    HW248177   2.664   8.679   4.711
16051SOL     OW48178   2.712   8.246   5.547
16051SOL    HW148179   2.708   8.322   5.612
16051SOL    HW248180   2.734   8.282   5.456
16052SOL     OW48181   2.547   8.460   4.389
16052SOL    HW148182   2.616   8.444   4.459
16052SOL    HW248183   2.474   8.517   4.427
16053SOL     OW48184   2.548   8.609   5.527
16053SOL    HW148185   2.608   8.688   5.541
16053SOL    HW248186   2.462   8.640   5.486
16054SOL     OW48187   2.197   8.883   4.785
16054SOL    HW148188   2.119   8.852   4.732
16054SOL    HW248189   2.255   8.941   4.728
16055SOL     OW48190   3.322   8.953   5.063
16055SOL    HW148191   3.346   9.047   5.089
16055SOL    HW248192   3.306   8.899   5.145
16056SOL     OW48193   2.300   7.840   5.223
16056SOL    HW148194   2.382   7.784   5.232
16056SOL    HW248195   2.219   7.782   5.227
16057SOL     OW48196   3.465   7.895   4.461
16057SOL    HW148197   3.391   7.941   4.411
16057SOL    HW248198   3.516   7.963   4.514
16058SOL     OW48199   2.093   9.161   4.207
16058SOL    HW148200   2.127   9.238   4.261
16058SOL    HW248201   2.137   9.161   4.117
16059SOL     OW48202   2.989   8.789   5.414
16059SOL    HW148203   3.036   8.789   5.502
16059SOL    HW248204   2.941   8.702   5.403
16060SOL     OW48205   2.092   8.882   4.262
16060SOL    HW148206   2.066   8.978   4.262
16060SOL    HW248207   2.021   8.828   4.307
16061SOL     OW48208   2.102   8.539   4.610
16061SOL    HW148209   2.116   8.455   4.662
16061SOL    HW248210   2.047   8.603   4.665
16062SOL     OW48211   2.482   9.234   5.163
16062SOL    HW148212   2.390   9.217   5.198
16062SOL    HW248213   2.510   9.326   5.189
16063SOL     OW48214   2.468   8.412   3.847
16063SOL    HW148215   2.475   8.496   3.793
16063SOL    HW248216   2.514   8.425   3.935
16064SOL     OW48217   3.456   7.562   5.204
16064SOL    HW148218   3.438   7.629   5.132
16064SOL    HW248219   3.453   7.608   5.293
16065SOL     OW48220   1.984   8.091   4.287
16065SOL    HW148221   1.939   8.003   4.304
16065SOL    HW248222   1.983   8.145   4.371
16066SOL     OW48223   3.704   9.215   4.083
16066SOL    HW148224   3.758   9.186   4.163
16066SOL    HW248225   3.734   9.305   4.054
16067SOL     OW48226   1.889   9.044   3.841
16067SOL    HW148227   1.870   8.948   3.862
16067SOL    HW248228   1.856   9.102   3.916
16068SOL     OW48229   3.551   8.370   4.336
16068SOL    HW148230   3.646   8.341   4.344
16068SOL    HW248231   3.543   8.435   4.261
16069SOL     OW48232   3.503   8.556   4.156
16069SOL    HW148233   3.589   8.558   4.104
16069SOL    HW248234   3.517   8.603   4.244
16070SOL     OW48235   1.975   8.185   5.321
16070SOL    HW148236   2.063   8.172   5.366
16070SOL    HW248237   1.962   8.282   5.299
16071SOL     OW48238   2.475   8.813   4.450
16071SOL    HW148239   2.426   8.726   4.459
16071SOL    HW248240   2.452   8.856   4.363
16072SOL     OW48241   3.155   8.676   5.147
16072SOL    HW148242   3.192   8.603   5.089
16072SOL    HW248243   3.207   8.681   5.232
16073SOL     OW48244   2.671   7.452   4.226
16073SOL    HW148245   2.711   7.543   4.217
16073SOL    HW248246   2.571   7.460   4.232
16074SOL     OW48247   2.059   8.424   4.988
16074SOL    HW148248   2.148   8.379   4.974
16074SOL    HW248249   1.986   8.359   4.969
16075SOL     OW48250   3.387   8.447   3.914
16075SOL    HW148251   3.324   8.371   3.927
16075SOL    HW248252   3.435   8.465   4.000
16076SOL     OW48253   3.049   9.240   5.340
16076SOL    HW148254   3.073   9.300   5.264
16076SOL    HW248255   3.056   9.145   5.310
16077SOL     OW48256   2.179   7.699   5.525
16077SOL    HW148257   2.250   7.770   5.531
16077SOL    HW248258   2.091   7.738   5.553
16078SOL     OW48259   3.328   8.865   4.677
16078SOL    HW148260   3.269   8.871   4.757
16078SOL    HW248261   3.313   8.777   4.631
16079SOL     OW48262   3.529   9.162   4.296
16079SOL    HW148263   3.488   9.139   4.208
16079SOL    HW248264   3.511   9.088   4.361
16080SOL     OW48265   2.460   8.177   3.994
16080SOL    HW148266   2.484   8.246   3.926
16080SOL    HW248267   2.382   8.210   4.048
16081SOL     OW48268   3.143   7.793   4.668
16081SOL    HW148269   3.057   7.743   4.655
16081SOL    HW248270   3.205   7.739   4.724
16082SOL     OW48271   3.438   9.110   4.031
16082SOL    HW148272   3.527   9.156   4.034
16082SOL    HW248273   3.417   9.086   3.936
16083SOL     OW48274   2.669   8.053   5.189
16083SOL    HW148275   2.622   8.050   5.278
16083SOL    HW248276   2.618   7.998   5.123
16084SOL     OW48277   3.256   7.917   5.398
16084SOL    HW148278   3.236   7.960   5.486
16084SOL    HW248279   3.334   7.855   5.407
16085SOL     OW48280   2.835   8.338   5.296
16085SOL    HW148281   2.881   8.254   5.267
16085SOL    HW248282   2.779   8.372   5.221
16086SOL     OW48283   2.853   7.858   4.966
16086SOL    HW148284   2.776   7.892   5.020
16086SOL    HW248285   2.819   7.807   4.887
16087SOL     OW48286   2.903   8.149   4.153
16087SOL    HW148287   2.929   8.145   4.249
16087SOL    HW248288   2.818   8.098   4.139
16088SOL     OW48289   1.938   8.259   4.513
16088SOL    HW148290   2.037   8.247   4.522
16088SOL    HW248291   1.914   8.354   4.534
16089SOL     OW48292   1.992   9.269   5.295
16089SOL    HW148293   1.982   9.254   5.394
16089SOL    HW248294   1.906   9.305   5.259
16090SOL     OW48295   2.727   7.796   3.919
16090SOL    HW148296   2.786   7.859   3.870
16090SOL    HW248297   2.746   7.702   3.890
16091SOL     OW48298   3.581   8.033   5.555
16091SOL    HW148299   3.555   8.122   5.519
16091SOL    HW248300   3.579   7.965   5.482
16092SOL     OW48301   3.224   8.592   4.269
16092SOL    HW148302   3.307   8.563   4.221
16092SOL    HW248303   3.175   8.659   4.213
16093SOL     OW48304   2.412   7.644   4.609
16093SOL    HW148305   2.407   7.639   4.709
16093SOL    HW248306   2.414   7.740   4.580
16094SOL     OW48307   2.870   8.904   4.201
16094SOL    HW148308   2.824   8.976   4.149
16094SOL    HW248309   2.866   8.924   4.299
16095SOL     OW48310   2.213   9.249   4.577
16095SOL    HW148311   2.263   9.163   4.583
16095SOL    HW248312   2.278   9.326   4.574
16096SOL     OW48313   3.657   8.514   4.597
16096SOL    HW148314   3.595   8.499   4.521
16096SOL    HW248315   3.605   8.525   4.682
16097SOL     OW48316   3.089   8.998   5.230
16097SOL    HW148317   3.095   8.921   5.294
16097SOL    HW248318   3.037   8.972   5.150
16098SOL     OW48319   2.183   8.391   3.966
16098SOL    HW148320   2.265   8.430   3.924
16098SOL    HW248321   2.156   8.309   3.917
16099SOL     OW48322   3.320   8.183   4.452
16099SOL    HW148323   3.315   8.118   4.527
16099SOL    HW248324   3.400   8.242   4.465
16100SOL     OW48325   2.323   8.714   5.451
16100SOL    HW148326   2.273   8.715   5.365
16100SOL    HW248327   2.260   8.696   5.527
16101SOL     OW48328   2.973   9.224   3.961
16101SOL    HW148329   2.913   9.162   4.011
16101SOL    HW248330   3.004   9.180   3.876
16102SOL     OW48331   2.064   7.733   5.222
16102SOL    HW148332   1.984   7.793   5.209
16102SOL    HW248333   2.054   7.684   5.308
16103SOL     OW48334   3.494   8.825   3.805
16103SOL    HW148335   3.462   8.919   3.795
16103SOL    HW248336   3.418   8.762   3.793
16104SOL     OW48337   2.326   9.191   4.047
16104SOL    HW148338   2.359   9.230   4.133
16104SOL    HW248339   2.402   9.184   3.982
16105SOL     OW48340   3.262   7.555   4.150
16105SOL    HW148341   3.238   7.518   4.060
16105SOL    HW248342   3.361   7.571   4.154
16106SOL     OW48343   2.111   9.233   4.965
16106SOL    HW148344   2.168   9.168   5.015
16106SOL    HW248345   2.095   9.200   4.872
16107SOL     OW48346   2.802   9.146   4.628
16107SOL    HW148347   2.882   9.089   4.649
16107SOL    HW248348   2.753   9.106   4.551
16108SOL     OW48349   2.244   8.148   4.204
16108SOL    HW148350   2.289   8.058   4.201
16108SOL    HW248351   2.150   8.137   4.237
16109SOL     OW48352   3.409   7.670   5.453
16109SOL    HW148353   3.404   7.707   5.545
16109SOL    HW248354   3.337   7.601   5.441
16110SOL     OW48355   2.476   7.570   3.841
16110SOL    HW148356   2.574   7.548   3.848
16110SOL    HW248357   2.445   7.553   3.748
16111SOL     OW48358   2.643   7.712   5.473
16111SOL    HW148359   2.710   7.651   5.516
16111SOL    HW248360   2.570   7.731   5.538
16112SOL     OW48361   2.750   8.962   4.919
16112SOL    HW148362   2.727   8.937   4.825
16112SOL    HW248363   2.811   8.893   4.958
16113SOL     OW48364   3.213   8.038   5.157
16113SOL    HW148365   3.241   7.995   5.242
16113SOL    HW248366   3.238   8.134   5.158
16114SOL     OW48367   2.665   8.850   4.648
16114SOL    HW148368   2.755   8.864   4.606
16114SOL    HW248369   2.594   8.852   4.577
16115SOL     OW48370   2.784   7.951   4.623
16115SOL    HW148371   2.759   7.942   4.527
16115SOL    HW248372   2.832   7.869   4.654
16116SOL     OW48373   2.401   7.512   4.236
16116SOL    HW148374   2.320   7.513   4.294
16116SOL    HW248375   2.404   7.595   4.181
16117SOL     OW48376   3.296   8.636   3.765
16117SOL    HW148377   3.328   8.560   3.822
16117SOL    HW248378   3.204   8.663   3.795
16118SOL     OW48379   2.159   7.483   3.895
16118SOL    HW148380   2.208   7.567   3.874
16118SOL    HW248381   2.221   7.418   3.940
16119SOL     OW48382   2.797   7.684   4.204
16119SOL    HW148383   2.749   7.725   4.126
16119SOL    HW248384   2.896   7.682   4.185
16120SOL     OW48385   2.938   8.131   5.188
16120SOL    HW148386   2.858   8.070   5.191
16120SOL    HW248387   3.019   8.078   5.164
16121SOL     OW48388   3.089   9.018   4.517
16121SOL    HW148389   3.110   9.092   4.452
16121SOL    HW248390   3.157   9.018   4.590
16122SOL     OW48391   2.321   8.600   4.465
16122SOL    HW148392   2.250   8.573   4.530
16122SOL    HW248393   2.295   8.572   4.372
16123SOL     OW48394   3.133   9.245   4.315
16123SOL    HW148395   3.177   9.309   4.251
16123SOL    HW248396   3.083   9.297   4.385
16124SOL     OW48397   2.894   7.997   3.740
16124SOL    HW148398   2.853   8.079   3.701
16124SOL    HW248399   2.958   8.023   3.813
16125SOL     OW48400   1.940   8.004   5.110
16125SOL    HW148401   2.032   8.003   5.069
16125SOL    HW248402   1.934   8.078   5.177
16126SOL     OW48403   2.423   7.670   4.871
16126SOL    HW148404   2.461   7.586   4.908
16126SOL    HW248405   2.335   7.689   4.915
16127SOL     OW48406   2.728   7.902   4.366
16127SOL    HW148407   2.696   7.974   4.304
16127SOL    HW248408   2.752   7.821   4.313
16128SOL     OW48409   2.879   7.487   4.477
16128SOL    HW148410   2.807   7.492   4.408
16128SOL    HW248411   2.855   7.418   4.546
16129SOL     OW48412   3.291   8.621   4.591
16129SOL    HW148413   3.236   8.537   4.584
16129SOL    HW248414   3.317   8.650   4.499
16130SOL     OW48415   3.328   8.038   4.716
16130SOL    HW148416   3.298   7.943   4.723
16130SOL    HW248417   3.401   8.054   4.782
16131SOL     OW48418   3.719   8.281   4.101
16131SOL    HW148419   3.761   8.217   4.165
16131SOL    HW248420   3.681   8.230   4.023
16132SOL     OW48421   2.350   8.833   3.898
16132SOL    HW148422   2.263   8.818   3.945
16132SOL    HW248423   2.333   8.859   3.803
16133SOL     OW48424   3.526   8.728   4.381
16133SOL    HW148425   3.625   8.736   4.395
16133SOL    HW248426   3.481   8.812   4.412
16134SOL     OW48427   3.252   8.023   3.802
16134SOL    HW148428   3.198   8.002   3.883
16134SOL    HW248429   3.343   7.982   3.811
16135SOL     OW48430   2.389   7.704   4.052
16135SOL    HW148431   2.416   7.645   3.977
16135SOL    HW248432   2.389   7.799   4.021
16136SOL     OW48433   3.616   8.671   5.312
16136SOL    HW148434   3.707   8.632   5.299
16136SOL    HW248435   3.624   8.767   5.336
16137SOL     OW48436   2.926   8.795   5.064
16137SOL    HW148437   2.846   8.772   5.119
16137SOL    HW248438   3.009   8.769   5.113
16138SOL     OW48439   3.454   9.077   5.349
16138SOL    HW148440   3.481   9.111   5.259
16138SOL    HW248441   3.533   9.039   5.395
16139SOL     OW48442   2.973   8.643   4.824
16139SOL    HW148443   2.933   8.687   4.905
16139SOL    HW248444   2.932   8.680   4.741
16140SOL     OW48445   3.500   8.547   4.803
16140SOL    HW148446   3.505   8.628   4.862
16140SOL    HW248447   3.414   8.549   4.752
16141SOL     OW48448   2.777   7.537   5.126
16141SOL    HW148449   2.802   7.517   5.031
16141SOL    HW248450   2.849   7.593   5.168
16142SOL     OW48451   2.842   8.564   5.443
16142SOL    HW148452   2.743   8.570   5.453
16142SOL    HW248453   2.865   8.484   5.387
16143SOL     OW48454   2.567   8.498   4.092
16143SOL    HW148455   2.553   8.505   4.191
16143SOL    HW248456   2.651   8.447   4.074
16144SOL     OW48457   2.272   8.261   4.975
16144SOL    HW148458   2.358   8.273   5.025
16144SOL    HW248459   2.230   8.174   5.002
16145SOL     OW48460   3.136   7.834   4.986
16145SOL    HW148461   3.157   7.908   5.050
16145SOL    HW248462   3.047   7.851   4.943
16146SOL     OW48463   1.926   9.012   5.055
16146SOL    HW148464   1.880   9.094   5.021
16146SOL    HW248465   2.024   9.031   5.064
16147SOL     OW48466   2.229   8.548   4.225
16147SOL    HW148467   2.222   8.631   4.169
16147SOL    HW248468   2.233   8.468   4.165
16148SOL     OW48469   2.428   7.985   4.589
16148SOL    HW148470   2.440   8.051   4.515
16148SOL    HW248471   2.474   8.019   4.672
16149SOL     OW48472   3.114   8.796   4.112
16149SOL    HW148473   3.164   8.873   4.152
16149SOL    HW248474   3.019   8.798   4.144
16150SOL     OW48475   3.134   8.893   4.866
16150SOL    HW148476   3.181   8.906   4.953
16150SOL    HW248477   3.068   8.819   4.875
16151SOL     OW48478   3.444   8.087   4.196
16151SOL    HW148479   3.413   8.148   4.269
16151SOL    HW248480   3.494   8.139   4.127
16152SOL     OW48481   2.264   8.199   5.322
16152SOL    HW148482   2.332   8.254   5.275
16152SOL    HW248483   2.304   8.111   5.349
16153SOL     OW48484   3.449   8.227   5.394
16153SOL    HW148485   3.357   8.265   5.389
16153SOL    HW248486   3.509   8.274   5.329
16154SOL     OW48487   2.875   7.553   5.494
16154SOL    HW148488   2.881   7.638   5.442
16154SOL    HW248489   2.907   7.477   5.437
16155SOL     OW48490   2.366   7.498   5.464
16155SOL    HW148491   2.324   7.441   5.394
16155SOL    HW248492   2.300   7.567   5.496
16156SOL     OW48493   2.435   8.318   4.753
16156SOL    HW148494   2.479   8.407   4.744
16156SOL    HW248495   2.372   8.318   4.830
16157SOL     OW48496   3.222   8.310   4.769
16157SOL    HW148497   3.147   8.310   4.703
16157SOL    HW248498   3.259   8.218   4.778
16158SOL     OW48499   3.071   7.973   3.999
16158SOL    HW148500   3.084   7.889   4.053
16158SOL    HW248501   3.042   8.047   4.059
16159SOL     OW48502   2.169   7.661   4.955
16159SOL    HW148503   2.146   7.698   5.045
16159SOL    HW248504   2.139   7.566   4.949
16160SOL     OW48505   1.899   8.758   5.006
16160SOL    HW148506   1.952   8.709   5.074
16160SOL    HW248507   1.921   8.856   5.011
16161SOL     OW48508   2.594   8.082   4.788
16161SOL    HW148509   2.653   8.056   4.712
16161SOL    HW248510   2.566   8.178   4.777
16162SOL     OW48511   3.590   8.383   5.578
16162SOL    HW148512   3.544   8.376   5.489
16162SOL    HW248513   3.528   8.427   5.644
16163SOL     OW48514   2.169   7.511   4.342
16163SOL    HW148515   2.158   7.605   4.375
16163SOL    HW248516   2.164   7.448   4.419
16164SOL     OW48517   3.484   7.815   4.098
16164SOL    HW148518   3.486   7.739   4.162
16164SOL    HW248519   3.436   7.892   4.138
16165SOL     OW48520   2.885   8.214   4.690
16165SOL    HW148521   2.900   8.235   4.786
16165SOL    HW248522   2.855   8.119   4.681
16166SOL     OW48523   2.842   9.021   5.424
16166SOL    HW148524   2.822   9.065   5.336
16166SOL    HW248525   2.881   8.930   5.408
16167SOL     OW48526   3.721   8.966   5.329
16167SOL    HW148527   3.735   8.993   5.234
16167SOL    HW248528   3.804   8.988   5.382
16168SOL     OW48529   2.212   8.346   5.528
16168SOL    HW148530   2.288   8.390   5.576
16168SOL    HW248531   2.247   8.299   5.446
16169SOL     OW48532   3.402   7.722   3.849
16169SOL    HW148533   3.341   7.647   3.872
16169SOL    HW248534   3.424   7.774   3.932
16170SOL     OW48535   3.165   8.286   3.766
16170SOL    HW148536   3.199   8.193   3.781
16170SOL    HW248537   3.183   8.313   3.671
16171SOL     OW48538   2.930   8.781   4.573
16171SOL    HW148539   2.937   8.697   4.518
16171SOL    HW248540   2.992   8.850   4.537
16172SOL     OW48541   2.181   8.258   4.673
16172SOL    HW148542   2.274   8.294   4.678
16172SOL    HW248543   2.175   8.173   4.725
16173SOL     OW48544   2.201   7.957   4.730
16173SOL    HW148545   2.149   7.874   4.713
16173SOL    HW248546   2.278   7.962   4.666
16174SOL     OW48547   3.000   7.828   5.402
16174SOL    HW148548   2.955   7.891   5.466
16174SOL    HW248549   3.093   7.859   5.385
16175SOL     OW48550   3.022   7.655   5.201
16175SOL    HW148551   3.022   7.719   5.278
16175SOL    HW248552   3.050   7.703   5.118
16176SOL     OW48553   1.870   8.774   3.924
16176SOL    HW148554   1.777   8.795   3.893
16176SOL    HW248555   1.880   8.675   3.937
16177SOL     OW48556   1.950   9.249   4.651
16177SOL    HW148557   1.908   9.163   4.624
16177SOL    HW248558   2.044   9.252   4.617
16178SOL     OW48559   2.366   9.016   4.634
16178SOL    HW148560   2.432   9.090   4.643
16178SOL    HW248561   2.410   8.937   4.592
16179SOL     OW48562   2.864   8.244   4.962
16179SOL    HW148563   2.905   8.212   5.048
16179SOL    HW248564   2.768   8.217   4.959
16180SOL     OW48565   1.902   7.992   4.838
16180SOL    HW148566   1.987   7.959   4.797
16180SOL    HW248567   1.915   8.007   4.936
16181SOL     OW48568   2.051   7.968   5.446
16181SOL    HW148569   2.110   7.928   5.376
16181SOL    HW248570   1.993   8.039   5.405
16182SOL     OW48571   3.231   8.398   5.384
16182SOL    HW148572   3.270   8.487   5.404
16182SOL    HW248573   3.241   8.378   5.287
16183SOL     OW48574   2.677   8.020   4.049
16183SOL    HW148575   2.684   7.931   4.003
16183SOL    HW248576   2.583   8.054   4.041
16184SOL     OW48577   3.519   8.052   4.930
16184SOL    HW148578   3.481   7.983   4.992
16184SOL    HW248579   3.601   8.016   4.886
16185SOL     OW48580   2.114   9.012   5.468
16185SOL    HW148581   2.084   9.069   5.544
16185SOL    HW248582   2.107   8.915   5.494
16186SOL     OW48583   2.533   7.912   4.993
16186SOL    HW148584   2.499   7.823   4.963
16186SOL    HW248585   2.559   7.966   4.913
16187SOL     OW48586   2.792   9.126   5.189
16187SOL    HW148587   2.768   9.108   5.094
16187SOL    HW248588   2.822   9.220   5.199
16188SOL     OW48589   2.335   7.948   3.915
16188SOL    HW148590   2.396   8.028   3.919
16188SOL    HW248591   2.240   7.979   3.922
16189SOL     OW48592   2.021   8.585   5.190
16189SOL    HW148593   2.043   8.524   5.266
16189SOL    HW248594   2.031   8.536   5.104
16190SOL     OW48595   3.209   8.507   4.958
16190SOL    HW148596   3.233   8.444   4.884
16190SOL    HW248597   3.119   8.547   4.940
16191SOL     OW48598   3.164   8.303   4.033
16191SOL    HW148599   3.078   8.272   4.075
16191SOL    HW248600   3.160   8.289   3.934
16192SOL     OW48601   3.621   9.195   4.878
16192SOL    HW148602   3.682   9.225   4.805
16192SOL    HW248603   3.583   9.106   4.856
16193SOL     OW48604   3.114   9.179   4.852
16193SOL    HW148605   3.198   9.184   4.798
16193SOL    HW248606   3.091   9.083   4.870
16194SOL     OW48607   1.945   8.706   4.746
16194SOL    HW148608   1.940   8.705   4.846
16194SOL    HW248609   1.862   8.665   4.708
16195SOL     OW48610   2.550   9.110   5.440
16195SOL    HW148611   2.494   9.191   5.449
16195SOL    HW248612   2.602   9.114   5.354
16196SOL     OW48613   3.588   7.583   4.247
16196SOL    HW148614   3.661   7.566   4.180
16196SOL    HW248615   3.557   7.496   4.285
16197SOL     OW48616   3.250   9.021   4.201
16197SOL    HW148617   3.317   9.033   4.127
16197SOL    HW248618   3.210   9.110   4.224
16198SOL     OW48619   1.992   9.242   5.575
16198SOL    HW148620   1.951   9.168   5.628
16198SOL    HW248621   2.056   9.293   5.633
16199SOL     OW48622   3.142   8.375   4.396
16199SOL    HW148623   3.202   8.294   4.398
16199SOL    HW248624   3.182   8.444   4.336
16200SOL     OW48625   2.692   8.721   5.146
16200SOL    HW148626   2.687   8.754   5.241
16200SOL    HW248627   2.606   8.740   5.100
16201SOL     OW48628   2.534   9.064   3.878
16201SOL    HW148629   2.543   9.074   3.779
16201SOL    HW248630   2.494   8.975   3.899
16202SOL     OW48631   3.512   9.168   5.118
16202SOL    HW148632   3.565   9.178   5.034
16202SOL    HW248633   3.485   9.258   5.152
16203SOL     OW48634   3.703   7.623   4.687
16203SOL    HW148635   3.742   7.538   4.651
16203SOL    HW248636   3.605   7.625   4.668
16204SOL     OW48637   2.125   7.774   4.444
16204SOL    HW148638   2.046   7.825   4.410
16204SOL    HW248639   2.116   7.759   4.542
16205SOL     OW48640   3.056   9.060   3.755
16205SOL    HW148641   3.062   8.967   3.792
16205SOL    HW248642   2.997   9.060   3.675
16206SOL     OW48643   2.684   8.450   5.096
16206SOL    HW148644   2.724   8.449   5.004
16206SOL    HW248645   2.694   8.542   5.136
16207SOL     OW48646   2.778   8.358   4.015
16207SOL    HW148647   2.841   8.396   3.947
16207SOL    HW248648   2.818   8.275   4.054
16208SOL     OW48649   3.366   9.055   3.768
16208SOL    HW148650   3.274   9.092   3.775
16208SOL    HW248651   3.404   9.075   3.678
16209SOL     OW48652   2.234   8.736   5.214
16209SOL    HW148653   2.221   8.829   5.180
16209SOL    HW248654   2.150   8.684   5.201
16210SOL     OW48655   3.476   8.740   5.013
16210SOL    HW148656   3.536   8.743   5.093
16210SOL    HW248657   3.401   8.804   5.026
16211SOL     OW48658   2.901   8.546   4.420
16211SOL    HW148659   2.831   8.499   4.474
16211SOL    HW248660   2.960   8.478   4.377
16212SOL     OW48661   2.876   7.684   4.695
16212SOL    HW148662   2.868   7.648   4.602
16212SOL    HW248663   2.874   7.608   4.760
16213SOL     OW48664   2.452   8.935   4.215
16213SOL    HW148665   2.494   8.877   4.145
16213SOL    HW248666   2.408   9.014   4.171
16214SOL     OW48667   3.571   7.833   5.105
16214SOL    HW148668   3.644   7.902   5.109
16214SOL    HW248669   3.599   7.758   5.046
16215SOL     OW48670   2.117   8.796   4.014
16215SOL    HW148671   2.021   8.797   3.987
16215SOL    HW248672   2.129   8.849   4.098
16216SOL     OW48673   1.967   8.461   5.450
16216SOL    HW148674   1.890   8.428   5.504
16216SOL    HW248675   2.052   8.431   5.492
16217SOL     OW48676   2.534   7.651   5.213
16217SOL    HW148677   2.624   7.635   5.173
16217SOL    HW248678   2.542   7.656   5.312
16218SOL     OW48679   1.937   7.793   3.757
16218SOL    HW148680   1.845   7.765   3.728
16218SOL    HW248681   1.968   7.870   3.701
16219SOL     OW48682   3.302   8.304   5.122
16219SOL    HW148683   3.245   8.356   5.059
16219SOL    HW248684   3.398   8.316   5.098
16220SOL     OW48685   1.934   7.614   4.042
16220SOL    HW148686   1.917   7.697   3.988
16220SOL    HW248687   2.024   7.577   4.020
16221SOL     OW48688   3.045   8.783   3.843
16221SOL    HW148689   2.946   8.772   3.845
16221SOL    HW248690   3.079   8.798   3.936
16222SOL     OW48691   2.475   8.290   5.155
16222SOL    HW148692   2.531   8.371   5.138
16222SOL    HW248693   2.534   8.210   5.158
16223SOL     OW48694   3.355   9.215   4.683
16223SOL    HW148695   3.388   9.279   4.614
16223SOL    HW248696   3.421   9.209   4.758
16224SOL     OW48697   2.578   8.013   5.432
16224SOL    HW148698   2.597   8.078   5.506
16224SOL    HW248699   2.638   7.933   5.441
16225SOL     OW48700   3.312   8.668   5.357
16225SOL    HW148701   3.303   8.658   5.456
16225SOL    HW248702   3.408   8.661   5.331
16226SOL     OW48703   2.252   9.189   5.284
16226SOL    HW148704   2.161   9.230   5.282
16226SOL    HW248705   2.245   9.095   5.316
16227SOL     OW48706   3.536   8.331   4.978
16227SOL    HW148707   3.509   8.242   4.941
16227SOL    HW248708   3.537   8.399   4.905
16228SOL     OW48709   3.087   7.773   4.173
16228SOL    HW148710   3.152   7.699   4.162
16228SOL    HW248711   3.107   7.823   4.257
16229SOL     OW48712   2.456   8.193   4.376
16229SOL    HW148713   2.506   8.278   4.357
16229SOL    HW248714   2.368   8.195   4.328
16230SOL     OW48715   3.639   7.790   5.366
16230SOL    HW148716   3.622   7.821   5.272
16230SOL    HW248717   3.555   7.753   5.404
16231SOL     OW48718   3.592   8.382   5.241
16231SOL    HW148719   3.630   8.473   5.256
16231SOL    HW248720   3.584   8.365   5.142
16232SOL     OW48721   2.721   8.822   3.740
16232SOL    HW148722   2.675   8.837   3.828
16232SOL    HW248723   2.765   8.907   3.710
16233SOL     OW48724   2.523   9.238   4.677
16233SOL    HW148725   2.477   9.326   4.664
16233SOL    HW248726   2.622   9.250   4.670
16234SOL     OW48727   2.721   8.404   4.585
16234SOL    HW148728   2.775   8.335   4.633
16234SOL    HW248729   2.689   8.473   4.651
16235SOL     OW48730   2.945   8.432   3.811
16235SOL    HW148731   2.922   8.485   3.729
16235SOL    HW248732   3.026   8.376   3.792
16236SOL     OW48733   3.723   9.017   4.575
16236SOL    HW148734   3.652   9.005   4.505
16236SOL    HW248735   3.724   8.938   4.635
16237SOL     OW48736   2.083   8.762   5.568
16237SOL    HW148737   2.018   8.689   5.547
16237SOL    HW248738   2.087   8.776   5.666
16238SOL     OW48739   1.941   8.688   4.377
16238SOL    HW148740   1.940   8.641   4.465
16238SOL    HW248741   2.023   8.660   4.326
16239SOL     OW48742   2.534   8.839   5.348
16239SOL    HW148743   2.456   8.789   5.386
16239SOL    HW248744   2.531   8.934   5.379
16240SOL     OW48745   3.686   7.640   4.951
16240SOL    HW148746   3.682   7.550   4.995
16240SOL    HW248747   3.689   7.629   4.852
16241SOL     OW48748   2.290   7.872   4.244
16241SOL    HW148749   2.320   7.800   4.182
16241SOL    HW248750   2.251   7.832   4.327
16242SOL     OW48751   3.567   8.935   4.828
16242SOL    HW148752   3.474   8.910   4.801
16242SOL    HW248753   3.593   8.885   4.910
16243SOL     OW48754   2.179   7.995   5.004
16243SOL    HW148755   2.217   7.936   5.076
16243SOL    HW248756   2.219   7.969   4.916
16244SOL     OW48757   2.674   9.034   4.411
16244SOL    HW148758   2.706   9.044   4.317
16244SOL    HW248759   2.595   8.972   4.413
16245SOL     OW48760   3.286   7.662   4.836
16245SOL    HW148761   3.338   7.597   4.891
16245SOL    HW248762   3.237   7.725   4.897
16246SOL     OW48763   2.863   7.482   4.878
16246SOL    HW148764   2.800   7.410   4.847
16246SOL    HW248765   2.956   7.446   4.878
16247SOL     OW48766   2.632   8.778   4.025
16247SOL    HW148767   2.586   8.691   4.042
16247SOL    HW248768   2.723   8.775   4.066
16248SOL     OW48769   2.480   9.015   5.008
16248SOL    HW148770   2.475   9.097   5.065
16248SOL    HW248771   2.569   9.012   4.963
16249SOL     OW48772   3.214   7.500   3.892
16249SOL    HW148773   3.249   7.459   3.808
16249SOL    HW248774   3.124   7.462   3.912
16250SOL     OW48775   3.162   7.901   4.415
16250SOL    HW148776   3.103   7.981   4.419
16250SOL    HW248777   3.177   7.866   4.508
16251SOL     OW48778   3.455   7.669   4.606
16251SOL    HW148779   3.371   7.668   4.660
16251SOL    HW248780   3.457   7.752   4.550
16252SOL     OW48781   1.901   8.525   4.024
16252SOL    HW148782   2.000   8.514   4.015
16252SOL    HW248783   1.861   8.439   4.056
16253SOL     OW48784   2.737   9.094   4.061
16253SOL    HW148785   2.660   9.059   4.007
16253SOL    HW248786   2.705   9.165   4.123
16254SOL     OW48787   2.092   8.076   5.699
16254SOL    HW148788   1.999   8.074   5.736
16254SOL    HW248789   2.093   8.037   5.607
16255SOL     OW48790   2.087   7.723   6.582
16255SOL    HW148791   2.122   7.706   6.674
16255SOL    HW248792   1.999   7.678   6.570
16256SOL     OW48793   1.881   7.816   6.233
16256SOL    HW148794   1.799   7.859   6.272
16256SOL    HW248795   1.853   7.743   6.170
16257SOL     OW48796   2.431   8.723   6.751
16257SOL    HW148797   2.338   8.716   6.714
16257SOL    HW248798   2.442   8.812   6.795
16258SOL     OW48799   3.417   8.959   6.289
16258SOL    HW148800   3.360   8.943   6.370
16258SOL    HW248801   3.358   8.969   6.209
16259SOL     OW48802   2.997   8.151   6.303
16259SOL    HW148803   3.054   8.229   6.278
16259SOL    HW248804   2.937   8.177   6.379
16260SOL     OW48805   3.617   8.055   5.817
16260SOL    HW148806   3.605   8.042   5.718
16260SOL    HW248807   3.587   7.974   5.866
16261SOL     OW48808   2.630   8.592   6.609
16261SOL    HW148809   2.552   8.609   6.669
16261SOL    HW248810   2.664   8.679   6.573
16262SOL     OW48811   2.712   8.246   7.409
16262SOL    HW148812   2.708   8.322   7.474
16262SOL    HW248813   2.734   8.282   7.318
16263SOL     OW48814   2.547   8.460   6.251
16263SOL    HW148815   2.616   8.444   6.321
16263SOL    HW248816   2.474   8.517   6.289
16264SOL     OW48817   2.548   8.609   7.389
16264SOL    HW148818   2.608   8.688   7.403
16264SOL    HW248819   2.462   8.640   7.348
16265SOL     OW48820   2.197   8.883   6.647
16265SOL    HW148821   2.119   8.852   6.594
16265SOL    HW248822   2.255   8.941   6.590
16266SOL     OW48823   3.322   8.953   6.925
16266SOL    HW148824   3.346   9.047   6.951
16266SOL    HW248825   3.306   8.899   7.007
16267SOL     OW48826   2.300   7.840   7.085
16267SOL    HW148827   2.382   7.784   7.094
16267SOL    HW248828   2.219   7.782   7.089
16268SOL     OW48829   3.465   7.895   6.323
16268SOL    HW148830   3.391   7.941   6.273
16268SOL    HW248831   3.516   7.963   6.376
16269SOL     OW48832   2.093   9.161   6.069
16269SOL    HW148833   2.127   9.238   6.123
16269SOL    HW248834   2.137   9.161   5.979
16270SOL     OW48835   2.989   8.789   7.276
16270SOL    HW148836   3.036   8.789   7.364
16270SOL    HW248837   2.941   8.702   7.265
16271SOL     OW48838   2.092   8.882   6.124
16271SOL    HW148839   2.066   8.978   6.124
16271SOL    HW248840   2.021   8.828   6.169
16272SOL     OW48841   2.102   8.539   6.472
16272SOL    HW148842   2.116   8.455   6.524
16272SOL    HW248843   2.047   8.603   6.527
16273SOL     OW48844   2.482   9.234   7.025
16273SOL    HW148845   2.390   9.217   7.060
16273SOL    HW248846   2.510   9.326   7.051
16274SOL     OW48847   2.468   8.412   5.709
16274SOL    HW148848   2.475   8.496   5.655
16274SOL    HW248849   2.514   8.425   5.797
16275SOL     OW48850   3.456   7.562   7.066
16275SOL    HW148851   3.438   7.629   6.994
16275SOL    HW248852   3.453   7.608   7.155
16276SOL     OW48853   1.984   8.091   6.149
16276SOL    HW148854   1.939   8.003   6.166
16276SOL    HW248855   1.983   8.145   6.233
16277SOL     OW48856   3.704   9.215   5.945
16277SOL    HW148857   3.758   9.186   6.025
16277SOL    HW248858   3.734   9.305   5.916
16278SOL     OW48859   1.889   9.044   5.703
16278SOL    HW148860   1.870   8.948   5.724
16278SOL    HW248861   1.856   9.102   5.778
16279SOL     OW48862   3.551   8.370   6.198
16279SOL    HW148863   3.646   8.341   6.206
16279SOL    HW248864   3.543   8.435   6.123
16280SOL     OW48865   3.503   8.556   6.018
16280SOL    HW148866   3.589   8.558   5.966
16280SOL    HW248867   3.517   8.603   6.106
16281SOL     OW48868   1.975   8.185   7.183
16281SOL    HW148869   2.063   8.172   7.228
16281SOL    HW248870   1.962   8.282   7.161
16282SOL     OW48871   2.475   8.813   6.312
16282SOL    HW148872   2.426   8.726   6.321
16282SOL    HW248873   2.452   8.856   6.225
16283SOL     OW48874   3.155   8.676   7.009
16283SOL    HW148875   3.192   8.603   6.951
16283SOL    HW248876   3.207   8.681   7.094
16284SOL     OW48877   2.671   7.452   6.088
16284SOL    HW148878   2.711   7.543   6.079
16284SOL    HW248879   2.571   7.460   6.094
16285SOL     OW48880   2.059   8.424   6.850
16285SOL    HW148881   2.148   8.379   6.836
16285SOL    HW248882   1.986   8.359   6.831
16286SOL     OW48883   3.387   8.447   5.776
16286SOL    HW148884   3.324   8.371   5.789
16286SOL    HW248885   3.435   8.465   5.862
16287SOL     OW48886   3.049   9.240   7.202
16287SOL    HW148887   3.073   9.300   7.126
16287SOL    HW248888   3.056   9.145   7.172
16288SOL     OW48889   2.179   7.699   7.387
16288SOL    HW148890   2.250   7.770   7.393
16288SOL    HW248891   2.091   7.738   7.415
16289SOL     OW48892   3.328   8.865   6.539
16289SOL    HW148893   3.269   8.871   6.619
16289SOL    HW248894   3.313   8.777   6.493
16290SOL     OW48895   3.529   9.162   6.158
16290SOL    HW148896   3.488   9.139   6.070
16290SOL    HW248897   3.511   9.088   6.223
16291SOL     OW48898   2.460   8.177   5.856
16291SOL    HW148899   2.484   8.246   5.788
16291SOL    HW248900   2.382   8.210   5.910
16292SOL     OW48901   3.143   7.793   6.530
16292SOL    HW148902   3.057   7.743   6.517
16292SOL    HW248903   3.205   7.739   6.586
16293SOL     OW48904   3.438   9.110   5.893
16293SOL    HW148905   3.527   9.156   5.896
16293SOL    HW248906   3.417   9.086   5.798
16294SOL     OW48907   2.669   8.053   7.051
16294SOL    HW148908   2.622   8.050   7.140
16294SOL    HW248909   2.618   7.998   6.985
16295SOL     OW48910   3.256   7.917   7.260
16295SOL    HW148911   3.236   7.960   7.348
16295SOL    HW248912   3.334   7.855   7.269
16296SOL     OW48913   2.853   7.858   6.828
16296SOL    HW148914   2.776   7.892   6.882
16296SOL    HW248915   2.819   7.807   6.749
16297SOL     OW48916   2.903   8.149   6.015
16297SOL    HW148917   2.929   8.145   6.111
16297SOL    HW248918   2.818   8.098   6.001
16298SOL     OW48919   1.938   8.259   6.375
16298SOL    HW148920   2.037   8.247   6.384
16298SOL    HW248921   1.914   8.354   6.396
16299SOL     OW48922   1.992   9.269   7.157
16299SOL    HW148923   1.982   9.254   7.256
16299SOL    HW248924   1.906   9.305   7.121
16300SOL     OW48925   2.727   7.796   5.781
16300SOL    HW148926   2.786   7.859   5.732
16300SOL    HW248927   2.746   7.702   5.752
16301SOL     OW48928   3.581   8.033   7.417
16301SOL    HW148929   3.555   8.122   7.381
16301SOL    HW248930   3.579   7.965   7.344
16302SOL     OW48931   3.224   8.592   6.131
16302SOL    HW148932   3.307   8.563   6.083
16302SOL    HW248933   3.175   8.659   6.075
16303SOL     OW48934   2.412   7.644   6.471
16303SOL    HW148935   2.407   7.639   6.571
16303SOL    HW248936   2.414   7.740   6.442
16304SOL     OW48937   2.870   8.904   6.063
16304SOL    HW148938   2.824   8.976   6.011
16304SOL    HW248939   2.866   8.924   6.161
16305SOL     OW48940   2.213   9.249   6.439
16305SOL    HW148941   2.263   9.163   6.445
16305SOL    HW248942   2.278   9.326   6.436
16306SOL     OW48943   3.657   8.514   6.459
16306SOL    HW148944   3.595   8.499   6.383
16306SOL    HW248945   3.605   8.525   6.544
16307SOL     OW48946   3.089   8.998   7.092
16307SOL    HW148947   3.095   8.921   7.156
16307SOL    HW248948   3.037   8.972   7.012
16308SOL     OW48949   2.183   8.391   5.828
16308SOL    HW148950   2.265   8.430   5.786
16308SOL    HW248951   2.156   8.309   5.779
16309SOL     OW48952   3.320   8.183   6.314
16309SOL    HW148953   3.315   8.118   6.389
16309SOL    HW248954   3.400   8.242   6.327
16310SOL     OW48955   2.323   8.714   7.313
16310SOL    HW148956   2.273   8.715   7.227
16310SOL    HW248957   2.260   8.696   7.389
16311SOL     OW48958   2.973   9.224   5.823
16311SOL    HW148959   2.913   9.162   5.873
16311SOL    HW248960   3.004   9.180   5.738
16312SOL     OW48961   2.064   7.733   7.084
16312SOL    HW148962   1.984   7.793   7.071
16312SOL    HW248963   2.054   7.684   7.170
16313SOL     OW48964   3.494   8.825   5.667
16313SOL    HW148965   3.462   8.919   5.657
16313SOL    HW248966   3.418   8.762   5.655
16314SOL     OW48967   2.326   9.191   5.909
16314SOL    HW148968   2.359   9.230   5.995
16314SOL    HW248969   2.402   9.184   5.844
16315SOL     OW48970   3.262   7.555   6.012
16315SOL    HW148971   3.238   7.518   5.922
16315SOL    HW248972   3.361   7.571   6.016
16316SOL     OW48973   2.111   9.233   6.827
16316SOL    HW148974   2.168   9.168   6.877
16316SOL    HW248975   2.095   9.200   6.734
16317SOL     OW48976   2.802   9.146   6.490
16317SOL    HW148977   2.882   9.089   6.511
16317SOL    HW248978   2.753   9.106   6.413
16318SOL     OW48979   2.244   8.148   6.066
16318SOL    HW148980   2.289   8.058   6.063
16318SOL    HW248981   2.150   8.137   6.099
16319SOL     OW48982   3.409   7.670   7.315
16319SOL    HW148983   3.404   7.707   7.407
16319SOL    HW248984   3.337   7.601   7.303
16320SOL     OW48985   2.476   7.570   5.703
16320SOL    HW148986   2.574   7.548   5.710
16320SOL    HW248987   2.445   7.553   5.610
16321SOL     OW48988   2.643   7.712   7.335
16321SOL    HW148989   2.710   7.651   7.378
16321SOL    HW248990   2.570   7.731   7.400
16322SOL     OW48991   2.750   8.962   6.781
16322SOL    HW148992   2.727   8.937   6.687
16322SOL    HW248993   2.811   8.893   6.820
16323SOL     OW48994   3.213   8.038   7.019
16323SOL    HW148995   3.241   7.995   7.104
16323SOL    HW248996   3.238   8.134   7.020
16324SOL     OW48997   2.665   8.850   6.510
16324SOL    HW148998   2.755   8.864   6.468
16324SOL    HW248999   2.594   8.852   6.439
16325SOL     OW49000   2.784   7.951   6.485
16325SOL    HW149001   2.759   7.942   6.389
16325SOL    HW249002   2.832   7.869   6.516
16326SOL     OW49003   2.401   7.512   6.098
16326SOL    HW149004   2.320   7.513   6.156
16326SOL    HW249005   2.404   7.595   6.043
16327SOL     OW49006   3.296   8.636   5.627
16327SOL    HW149007   3.328   8.560   5.684
16327SOL    HW249008   3.204   8.663   5.657
16328SOL     OW49009   2.159   7.483   5.757
16328SOL    HW149010   2.208   7.567   5.736
16328SOL    HW249011   2.221   7.418   5.802
16329SOL     OW49012   2.797   7.684   6.066
16329SOL    HW149013   2.749   7.725   5.988
16329SOL    HW249014   2.896   7.682   6.047
16330SOL     OW49015   2.938   8.131   7.050
16330SOL    HW149016   2.858   8.070   7.053
16330SOL    HW249017   3.019   8.078   7.026
16331SOL     OW49018   3.089   9.018   6.379
16331SOL    HW149019   3.110   9.092   6.314
16331SOL    HW249020   3.157   9.018   6.452
16332SOL     OW49021   2.321   8.600   6.327
16332SOL    HW149022   2.250   8.573   6.392
16332SOL    HW249023   2.295   8.572   6.234
16333SOL     OW49024   3.133   9.245   6.177
16333SOL    HW149025   3.177   9.309   6.113
16333SOL    HW249026   3.083   9.297   6.247
16334SOL     OW49027   2.894   7.997   5.602
16334SOL    HW149028   2.853   8.079   5.563
16334SOL    HW249029   2.958   8.023   5.675
16335SOL     OW49030   1.940   8.004   6.972
16335SOL    HW149031   2.032   8.003   6.931
16335SOL    HW249032   1.934   8.078   7.039
16336SOL     OW49033   2.423   7.670   6.733
16336SOL    HW149034   2.461   7.586   6.770
16336SOL    HW249035   2.335   7.689   6.777
16337SOL     OW49036   2.728   7.902   6.228
16337SOL    HW149037   2.696   7.974   6.166
16337SOL    HW249038   2.752   7.821   6.175
16338SOL     OW49039   2.879   7.487   6.339
16338SOL    HW149040   2.807   7.492   6.270
16338SOL    HW249041   2.855   7.418   6.408
16339SOL     OW49042   3.291   8.621   6.453
16339SOL    HW149043   3.236   8.537   6.446
16339SOL    HW249044   3.317   8.650   6.361
16340SOL     OW49045   3.328   8.038   6.578
16340SOL    HW149046   3.298   7.943   6.585
16340SOL    HW249047   3.401   8.054   6.644
16341SOL     OW49048   3.719   8.281   5.963
16341SOL    HW149049   3.761   8.217   6.027
16341SOL    HW249050   3.681   8.230   5.885
16342SOL     OW49051   2.350   8.833   5.760
16342SOL    HW149052   2.263   8.818   5.807
16342SOL    HW249053   2.333   8.859   5.665
16343SOL     OW49054   3.526   8.728   6.243
16343SOL    HW149055   3.625   8.736   6.257
16343SOL    HW249056   3.481   8.812   6.274
16344SOL     OW49057   3.252   8.023   5.664
16344SOL    HW149058   3.198   8.002   5.745
16344SOL    HW249059   3.343   7.982   5.673
16345SOL     OW49060   2.389   7.704   5.914
16345SOL    HW149061   2.416   7.645   5.839
16345SOL    HW249062   2.389   7.799   5.883
16346SOL     OW49063   3.616   8.671   7.174
16346SOL    HW149064   3.707   8.632   7.161
16346SOL    HW249065   3.624   8.767   7.198
16347SOL     OW49066   2.926   8.795   6.926
16347SOL    HW149067   2.846   8.772   6.981
16347SOL    HW249068   3.009   8.769   6.975
16348SOL     OW49069   3.454   9.077   7.211
16348SOL    HW149070   3.481   9.111   7.121
16348SOL    HW249071   3.533   9.039   7.257
16349SOL     OW49072   2.973   8.643   6.686
16349SOL    HW149073   2.933   8.687   6.767
16349SOL    HW249074   2.932   8.680   6.603
16350SOL     OW49075   3.500   8.547   6.665
16350SOL    HW149076   3.505   8.628   6.724
16350SOL    HW249077   3.414   8.549   6.614
16351SOL     OW49078   2.777   7.537   6.988
16351SOL    HW149079   2.802   7.517   6.893
16351SOL    HW249080   2.849   7.593   7.030
16352SOL     OW49081   2.842   8.564   7.305
16352SOL    HW149082   2.743   8.570   7.315
16352SOL    HW249083   2.865   8.484   7.249
16353SOL     OW49084   2.567   8.498   5.954
16353SOL    HW149085   2.553   8.505   6.053
16353SOL    HW249086   2.651   8.447   5.936
16354SOL     OW49087   2.272   8.261   6.837
16354SOL    HW149088   2.358   8.273   6.887
16354SOL    HW249089   2.230   8.174   6.864
16355SOL     OW49090   3.136   7.834   6.848
16355SOL    HW149091   3.157   7.908   6.912
16355SOL    HW249092   3.047   7.851   6.805
16356SOL     OW49093   1.926   9.012   6.917
16356SOL    HW149094   1.880   9.094   6.883
16356SOL    HW249095   2.024   9.031   6.926
16357SOL     OW49096   2.229   8.548   6.087
16357SOL    HW149097   2.222   8.631   6.031
16357SOL    HW249098   2.233   8.468   6.027
16358SOL     OW49099   3.114   8.796   5.974
16358SOL    HW149100   3.164   8.873   6.014
16358SOL    HW249101   3.019   8.798   6.006
16359SOL     OW49102   3.134   8.893   6.728
16359SOL    HW149103   3.181   8.906   6.815
16359SOL    HW249104   3.068   8.819   6.737
16360SOL     OW49105   3.444   8.087   6.058
16360SOL    HW149106   3.413   8.148   6.131
16360SOL    HW249107   3.494   8.139   5.989
16361SOL     OW49108   2.216   8.958   6.915
16361SOL    HW149109   2.195   8.914   6.828
16361SOL    HW249110   2.313   8.984   6.918
16362SOL     OW49111   2.264   8.199   7.184
16362SOL    HW149112   2.332   8.254   7.137
16362SOL    HW249113   2.304   8.111   7.211
16363SOL     OW49114   3.449   8.227   7.256
16363SOL    HW149115   3.357   8.265   7.251
16363SOL    HW249116   3.509   8.274   7.191
16364SOL     OW49117   2.875   7.553   7.356
16364SOL    HW149118   2.881   7.638   7.304
16364SOL    HW249119   2.907   7.477   7.299
16365SOL     OW49120   2.366   7.498   7.326
16365SOL    HW149121   2.324   7.441   7.256
16365SOL    HW249122   2.300   7.567   7.358
16366SOL     OW49123   2.435   8.318   6.615
16366SOL    HW149124   2.479   8.407   6.606
16366SOL    HW249125   2.372   8.318   6.692
16367SOL     OW49126   3.222   8.310   6.631
16367SOL    HW149127   3.147   8.310   6.565
16367SOL    HW249128   3.259   8.218   6.640
16368SOL     OW49129   3.071   7.973   5.861
16368SOL    HW149130   3.084   7.889   5.915
16368SOL    HW249131   3.042   8.047   5.921
16369SOL     OW49132   2.169   7.661   6.817
16369SOL    HW149133   2.146   7.698   6.907
16369SOL    HW249134   2.139   7.566   6.811
16370SOL     OW49135   1.899   8.758   6.868
16370SOL    HW149136   1.952   8.709   6.936
16370SOL    HW249137   1.921   8.856   6.873
16371SOL     OW49138   2.594   8.082   6.650
16371SOL    HW149139   2.653   8.056   6.574
16371SOL    HW249140   2.566   8.178   6.639
16372SOL     OW49141   3.590   8.383   7.440
16372SOL    HW149142   3.544   8.376   7.351
16372SOL    HW249143   3.528   8.427   7.506
16373SOL     OW49144   2.169   7.511   6.204
16373SOL    HW149145   2.158   7.605   6.237
16373SOL    HW249146   2.164   7.448   6.281
16374SOL     OW49147   3.484   7.815   5.960
16374SOL    HW149148   3.486   7.739   6.024
16374SOL    HW249149   3.436   7.892   6.000
16375SOL     OW49150   2.885   8.214   6.552
16375SOL    HW149151   2.900   8.235   6.648
16375SOL    HW249152   2.855   8.119   6.543
16376SOL     OW49153   2.842   9.021   7.286
16376SOL    HW149154   2.822   9.065   7.198
16376SOL    HW249155   2.881   8.930   7.270
16377SOL     OW49156   3.721   8.966   7.191
16377SOL    HW149157   3.735   8.993   7.096
16377SOL    HW249158   3.804   8.988   7.244
16378SOL     OW49159   2.212   8.346   7.390
16378SOL    HW149160   2.288   8.390   7.438
16378SOL    HW249161   2.247   8.299   7.308
16379SOL     OW49162   3.402   7.722   5.711
16379SOL    HW149163   3.341   7.647   5.734
16379SOL    HW249164   3.424   7.774   5.794
16380SOL     OW49165   3.165   8.286   5.628
16380SOL    HW149166   3.199   8.193   5.643
16380SOL    HW249167   3.183   8.313   5.533
16381SOL     OW49168   2.930   8.781   6.435
16381SOL    HW149169   2.937   8.697   6.380
16381SOL    HW249170   2.992   8.850   6.399
16382SOL     OW49171   2.181   8.258   6.535
16382SOL    HW149172   2.274   8.294   6.540
16382SOL    HW249173   2.175   8.173   6.587
16383SOL     OW49174   2.201   7.957   6.592
16383SOL    HW149175   2.149   7.874   6.575
16383SOL    HW249176   2.278   7.962   6.528
16384SOL     OW49177   3.000   7.828   7.264
16384SOL    HW149178   2.955   7.891   7.328
16384SOL    HW249179   3.093   7.859   7.247
16385SOL     OW49180   3.022   7.655   7.063
16385SOL    HW149181   3.022   7.719   7.140
16385SOL    HW249182   3.050   7.703   6.980
16386SOL     OW49183   1.870   8.774   5.786
16386SOL    HW149184   1.777   8.795   5.755
16386SOL    HW249185   1.880   8.675   5.799
16387SOL     OW49186   1.950   9.249   6.513
16387SOL    HW149187   1.908   9.163   6.486
16387SOL    HW249188   2.044   9.252   6.479
16388SOL     OW49189   2.366   9.016   6.496
16388SOL    HW149190   2.432   9.090   6.505
16388SOL    HW249191   2.410   8.937   6.454
16389SOL     OW49192   2.864   8.244   6.824
16389SOL    HW149193   2.905   8.212   6.910
16389SOL    HW249194   2.768   8.217   6.821
16390SOL     OW49195   1.902   7.992   6.700
16390SOL    HW149196   1.987   7.959   6.659
16390SOL    HW249197   1.915   8.007   6.798
16391SOL     OW49198   2.051   7.968   7.308
16391SOL    HW149199   2.110   7.928   7.238
16391SOL    HW249200   1.993   8.039   7.267
16392SOL     OW49201   3.231   8.398   7.246
16392SOL    HW149202   3.270   8.487   7.266
16392SOL    HW249203   3.241   8.378   7.149
16393SOL     OW49204   2.677   8.020   5.911
16393SOL    HW149205   2.684   7.931   5.865
16393SOL    HW249206   2.583   8.054   5.903
16394SOL     OW49207   3.519   8.052   6.792
16394SOL    HW149208   3.481   7.983   6.854
16394SOL    HW249209   3.601   8.016   6.748
16395SOL     OW49210   2.114   9.012   7.330
16395SOL    HW149211   2.084   9.069   7.406
16395SOL    HW249212   2.107   8.915   7.356
16396SOL     OW49213   2.533   7.912   6.855
16396SOL    HW149214   2.499   7.823   6.825
16396SOL    HW249215   2.559   7.966   6.775
16397SOL     OW49216   2.792   9.126   7.051
16397SOL    HW149217   2.768   9.108   6.956
16397SOL    HW249218   2.822   9.220   7.061
16398SOL     OW49219   2.335   7.948   5.777
16398SOL    HW149220   2.396   8.028   5.781
16398SOL    HW249221   2.240   7.979   5.784
16399SOL     OW49222   2.021   8.585   7.052
16399SOL    HW149223   2.043   8.524   7.128
16399SOL    HW249224   2.031   8.536   6.966
16400SOL     OW49225   3.209   8.507   6.820
16400SOL    HW149226   3.233   8.444   6.746
16400SOL    HW249227   3.119   8.547   6.802
16401SOL     OW49228   3.164   8.303   5.895
16401SOL    HW149229   3.078   8.272   5.937
16401SOL    HW249230   3.160   8.289   5.796
16402SOL     OW49231   3.621   9.195   6.740
16402SOL    HW149232   3.682   9.225   6.667
16402SOL    HW249233   3.583   9.106   6.718
16403SOL     OW49234   3.114   9.179   6.714
16403SOL    HW149235   3.198   9.184   6.660
16403SOL    HW249236   3.091   9.083   6.732
16404SOL     OW49237   1.945   8.706   6.608
16404SOL    HW149238   1.940   8.705   6.708
16404SOL    HW249239   1.862   8.665   6.570
16405SOL     OW49240   2.550   9.110   7.302
16405SOL    HW149241   2.494   9.191   7.311
16405SOL    HW249242   2.602   9.114   7.216
16406SOL     OW49243   3.588   7.583   6.109
16406SOL    HW149244   3.661   7.566   6.042
16406SOL    HW249245   3.557   7.496   6.147
16407SOL     OW49246   3.250   9.021   6.063
16407SOL    HW149247   3.317   9.033   5.989
16407SOL    HW249248   3.210   9.110   6.086
16408SOL     OW49249   1.992   9.242   7.437
16408SOL    HW149250   1.951   9.168   7.490
16408SOL    HW249251   2.056   9.293   7.495
16409SOL     OW49252   3.142   8.375   6.258
16409SOL    HW149253   3.202   8.294   6.260
16409SOL    HW249254   3.182   8.444   6.198
16410SOL     OW49255   2.692   8.721   7.008
16410SOL    HW149256   2.687   8.754   7.103
16410SOL    HW249257   2.606   8.740   6.962
16411SOL     OW49258   2.534   9.064   5.740
16411SOL    HW149259   2.543   9.074   5.641
16411SOL    HW249260   2.494   8.975   5.761
16412SOL     OW49261   3.512   9.168   6.980
16412SOL    HW149262   3.565   9.178   6.896
16412SOL    HW249263   3.485   9.258   7.014
16413SOL     OW49264   3.703   7.623   6.549
16413SOL    HW149265   3.742   7.538   6.513
16413SOL    HW249266   3.605   7.625   6.530
16414SOL     OW49267   2.125   7.774   6.306
16414SOL    HW149268   2.046   7.825   6.272
16414SOL    HW249269   2.116   7.759   6.404
16415SOL     OW49270   3.056   9.060   5.617
16415SOL    HW149271   3.062   8.967   5.654
16415SOL    HW249272   2.997   9.060   5.537
16416SOL     OW49273   2.684   8.450   6.958
16416SOL    HW149274   2.724   8.449   6.866
16416SOL    HW249275   2.694   8.542   6.998
16417SOL     OW49276   2.778   8.358   5.877
16417SOL    HW149277   2.841   8.396   5.809
16417SOL    HW249278   2.818   8.275   5.916
16418SOL     OW49279   3.366   9.055   5.630
16418SOL    HW149280   3.274   9.092   5.637
16418SOL    HW249281   3.404   9.075   5.540
16419SOL     OW49282   2.234   8.736   7.076
16419SOL    HW149283   2.221   8.829   7.042
16419SOL    HW249284   2.150   8.684   7.063
16420SOL     OW49285   3.476   8.740   6.875
16420SOL    HW149286   3.536   8.743   6.955
16420SOL    HW249287   3.401   8.804   6.888
16421SOL     OW49288   2.901   8.546   6.282
16421SOL    HW149289   2.831   8.499   6.336
16421SOL    HW249290   2.960   8.478   6.239
16422SOL     OW49291   2.876   7.684   6.557
16422SOL    HW149292   2.868   7.648   6.464
16422SOL    HW249293   2.874   7.608   6.622
16423SOL     OW49294   2.452   8.935   6.077
16423SOL    HW149295   2.494   8.877   6.007
16423SOL    HW249296   2.408   9.014   6.033
16424SOL     OW49297   3.571   7.833   6.967
16424SOL    HW149298   3.644   7.902   6.971
16424SOL    HW249299   3.599   7.758   6.908
16425SOL     OW49300   2.117   8.796   5.876
16425SOL    HW149301   2.021   8.797   5.849
16425SOL    HW249302   2.129   8.849   5.960
16426SOL     OW49303   1.967   8.461   7.312
16426SOL    HW149304   1.890   8.428   7.366
16426SOL    HW249305   2.052   8.431   7.354
16427SOL     OW49306   2.534   7.651   7.075
16427SOL    HW149307   2.624   7.635   7.035
16427SOL    HW249308   2.542   7.656   7.174
16428SOL     OW49309   1.937   7.793   5.619
16428SOL    HW149310   1.845   7.765   5.590
16428SOL    HW249311   1.968   7.870   5.563
16429SOL     OW49312   3.302   8.304   6.984
16429SOL    HW149313   3.245   8.356   6.921
16429SOL    HW249314   3.398   8.316   6.960
16430SOL     OW49315   1.934   7.614   5.904
16430SOL    HW149316   1.917   7.697   5.850
16430SOL    HW249317   2.024   7.577   5.882
16431SOL     OW49318   3.045   8.783   5.705
16431SOL    HW149319   2.946   8.772   5.707
16431SOL    HW249320   3.079   8.798   5.798
16432SOL     OW49321   2.475   8.290   7.017
16432SOL    HW149322   2.531   8.371   7.000
16432SOL    HW249323   2.534   8.210   7.020
16433SOL     OW49324   3.355   9.215   6.545
16433SOL    HW149325   3.388   9.279   6.476
16433SOL    HW249326   3.421   9.209   6.620
16434SOL     OW49327   2.578   8.013   7.294
16434SOL    HW149328   2.597   8.078   7.368
16434SOL    HW249329   2.638   7.933   7.303
16435SOL     OW49330   3.312   8.668   7.219
16435SOL    HW149331   3.303   8.658   7.318
16435SOL    HW249332   3.408   8.661   7.193
16436SOL     OW49333   2.252   9.189   7.146
16436SOL    HW149334   2.161   9.230   7.144
16436SOL    HW249335   2.245   9.095   7.178
16437SOL     OW49336   3.536   8.331   6.840
16437SOL    HW149337   3.509   8.242   6.803
16437SOL    HW249338   3.537   8.399   6.767
16438SOL     OW49339   3.087   7.773   6.035
16438SOL    HW149340   3.152   7.699   6.024
16438SOL    HW249341   3.107   7.823   6.119
16439SOL     OW49342   2.456   8.193   6.238
16439SOL    HW149343   2.506   8.278   6.219
16439SOL    HW249344   2.368   8.195   6.190
16440SOL     OW49345   3.639   7.790   7.228
16440SOL    HW149346   3.622   7.821   7.134
16440SOL    HW249347   3.555   7.753   7.266
16441SOL     OW49348   3.592   8.382   7.103
16441SOL    HW149349   3.630   8.473   7.118
16441SOL    HW249350   3.584   8.365   7.004
16442SOL     OW49351   2.721   8.822   5.602
16442SOL    HW149352   2.675   8.837   5.690
16442SOL    HW249353   2.765   8.907   5.572
16443SOL     OW49354   2.523   9.238   6.539
16443SOL    HW149355   2.477   9.326   6.526
16443SOL    HW249356   2.622   9.250   6.532
16444SOL     OW49357   2.721   8.404   6.447
16444SOL    HW149358   2.775   8.335   6.495
16444SOL    HW249359   2.689   8.473   6.513
16445SOL     OW49360   2.945   8.432   5.673
16445SOL    HW149361   2.922   8.485   5.591
16445SOL    HW249362   3.026   8.376   5.654
16446SOL     OW49363   3.723   9.017   6.437
16446SOL    HW149364   3.652   9.005   6.367
16446SOL    HW249365   3.724   8.938   6.497
16447SOL     OW49366   2.083   8.762   7.430
16447SOL    HW149367   2.018   8.689   7.409
16447SOL    HW249368   2.087   8.776   7.528
16448SOL     OW49369   1.941   8.688   6.239
16448SOL    HW149370   1.940   8.641   6.327
16448SOL    HW249371   2.023   8.660   6.188
16449SOL     OW49372   2.534   8.839   7.210
16449SOL    HW149373   2.456   8.789   7.248
16449SOL    HW249374   2.531   8.934   7.241
16450SOL     OW49375   3.686   7.640   6.813
16450SOL    HW149376   3.682   7.550   6.857
16450SOL    HW249377   3.689   7.629   6.714
16451SOL     OW49378   2.290   7.872   6.106
16451SOL    HW149379   2.320   7.800   6.044
16451SOL    HW249380   2.251   7.832   6.189
16452SOL     OW49381   3.567   8.935   6.690
16452SOL    HW149382   3.474   8.910   6.663
16452SOL    HW249383   3.593   8.885   6.772
16453SOL     OW49384   2.179   7.995   6.866
16453SOL    HW149385   2.217   7.936   6.938
16453SOL    HW249386   2.219   7.969   6.778
16454SOL     OW49387   2.674   9.034   6.273
16454SOL    HW149388   2.706   9.044   6.179
16454SOL    HW249389   2.595   8.972   6.275
16455SOL     OW49390   3.286   7.662   6.698
16455SOL    HW149391   3.338   7.597   6.753
16455SOL    HW249392   3.237   7.725   6.759
16456SOL     OW49393   2.863   7.482   6.740
16456SOL    HW149394   2.800   7.410   6.709
16456SOL    HW249395   2.956   7.446   6.740
16457SOL     OW49396   2.632   8.778   5.887
16457SOL    HW149397   2.586   8.691   5.904
16457SOL    HW249398   2.723   8.775   5.928
16458SOL     OW49399   2.480   9.015   6.870
16458SOL    HW149400   2.475   9.097   6.927
16458SOL    HW249401   2.569   9.012   6.825
16459SOL     OW49402   3.214   7.500   5.754
16459SOL    HW149403   3.249   7.459   5.670
16459SOL    HW249404   3.124   7.462   5.774
16460SOL     OW49405   3.162   7.901   6.277
16460SOL    HW149406   3.103   7.981   6.281
16460SOL    HW249407   3.177   7.866   6.370
16461SOL     OW49408   3.455   7.669   6.468
16461SOL    HW149409   3.371   7.668   6.522
16461SOL    HW249410   3.457   7.752   6.412
16462SOL     OW49411   1.901   8.525   5.886
16462SOL    HW149412   2.000   8.514   5.877
16462SOL    HW249413   1.861   8.439   5.918
16463SOL     OW49414   2.737   9.094   5.923
16463SOL    HW149415   2.660   9.059   5.869
16463SOL    HW249416   2.705   9.165   5.985
16464SOL     OW49417   2.092   8.076   7.561
16464SOL    HW149418   1.999   8.074   7.598
16464SOL    HW249419   2.093   8.037   7.469
16465SOL     OW49420   2.087   7.723   8.444
16465SOL    HW149421   2.122   7.706   8.536
16465SOL    HW249422   1.999   7.678   8.432
16466SOL     OW49423   1.881   7.816   8.095
16466SOL    HW149424   1.799   7.859   8.134
16466SOL    HW249425   1.853   7.743   8.032
16467SOL     OW49426   2.431   8.723   8.613
16467SOL    HW149427   2.338   8.716   8.576
16467SOL    HW249428   2.442   8.812   8.657
16468SOL     OW49429   3.417   8.959   8.151
16468SOL    HW149430   3.360   8.943   8.232
16468SOL    HW249431   3.358   8.969   8.071
16469SOL     OW49432   2.997   8.151   8.165
16469SOL    HW149433   3.054   8.229   8.140
16469SOL    HW249434   2.937   8.177   8.241
16470SOL     OW49435   3.617   8.055   7.679
16470SOL    HW149436   3.605   8.042   7.580
16470SOL    HW249437   3.587   7.974   7.728
16471SOL     OW49438   2.630   8.592   8.471
16471SOL    HW149439   2.552   8.609   8.531
16471SOL    HW249440   2.664   8.679   8.435
16472SOL     OW49441   2.712   8.246   9.271
16472SOL    HW149442   2.708   8.322   9.336
16472SOL    HW249443   2.734   8.282   9.180
16473SOL     OW49444   2.547   8.460   8.113
16473SOL    HW149445   2.616   8.444   8.183
16473SOL    HW249446   2.474   8.517   8.151
16474SOL     OW49447   2.548   8.609   9.251
16474SOL    HW149448   2.608   8.688   9.265
16474SOL    HW249449   2.462   8.640   9.210
16475SOL     OW49450   2.197   8.883   8.509
16475SOL    HW149451   2.119   8.852   8.456
16475SOL    HW249452   2.255   8.941   8.452
16476SOL     OW49453   3.322   8.953   8.787
16476SOL    HW149454   3.346   9.047   8.813
16476SOL    HW249455   3.306   8.899   8.869
16477SOL     OW49456   2.300   7.840   8.947
16477SOL    HW149457   2.382   7.784   8.956
16477SOL    HW249458   2.219   7.782   8.951
16478SOL     OW49459   3.465   7.895   8.185
16478SOL    HW149460   3.391   7.941   8.135
16478SOL    HW249461   3.516   7.963   8.238
16479SOL     OW49462   2.093   9.161   7.931
16479SOL    HW149463   2.127   9.238   7.985
16479SOL    HW249464   2.137   9.161   7.841
16480SOL     OW49465   2.989   8.789   9.138
16480SOL    HW149466   3.036   8.789   9.226
16480SOL    HW249467   2.941   8.702   9.127
16481SOL     OW49468   2.092   8.882   7.986
16481SOL    HW149469   2.066   8.978   7.986
16481SOL    HW249470   2.021   8.828   8.031
16482SOL     OW49471   2.102   8.539   8.334
16482SOL    HW149472   2.116   8.455   8.386
16482SOL    HW249473   2.047   8.603   8.389
16483SOL     OW49474   2.482   9.234   8.887
16483SOL    HW149475   2.390   9.217   8.922
16483SOL    HW249476   2.510   9.326   8.913
16484SOL     OW49477   2.468   8.412   7.571
16484SOL    HW149478   2.475   8.496   7.517
16484SOL    HW249479   2.514   8.425   7.659
16485SOL     OW49480   3.456   7.562   8.928
16485SOL    HW149481   3.438   7.629   8.856
16485SOL    HW249482   3.453   7.608   9.017
16486SOL     OW49483   1.984   8.091   8.011
16486SOL    HW149484   1.939   8.003   8.028
16486SOL    HW249485   1.983   8.145   8.095
16487SOL     OW49486   3.704   9.215   7.807
16487SOL    HW149487   3.758   9.186   7.887
16487SOL    HW249488   3.734   9.305   7.778
16488SOL     OW49489   1.889   9.044   7.565
16488SOL    HW149490   1.870   8.948   7.586
16488SOL    HW249491   1.856   9.102   7.640
16489SOL     OW49492   3.551   8.370   8.060
16489SOL    HW149493   3.646   8.341   8.068
16489SOL    HW249494   3.543   8.435   7.985
16490SOL     OW49495   3.503   8.556   7.880
16490SOL    HW149496   3.589   8.558   7.828
16490SOL    HW249497   3.517   8.603   7.968
16491SOL     OW49498   1.975   8.185   9.045
16491SOL    HW149499   2.063   8.172   9.090
16491SOL    HW249500   1.962   8.282   9.023
16492SOL     OW49501   2.475   8.813   8.174
16492SOL    HW149502   2.426   8.726   8.183
16492SOL    HW249503   2.452   8.856   8.087
16493SOL     OW49504   3.155   8.676   8.871
16493SOL    HW149505   3.192   8.603   8.813
16493SOL    HW249506   3.207   8.681   8.956
16494SOL     OW49507   2.671   7.452   7.950
16494SOL    HW149508   2.711   7.543   7.941
16494SOL    HW249509   2.571   7.460   7.956
16495SOL     OW49510   2.059   8.424   8.712
16495SOL    HW149511   2.148   8.379   8.698
16495SOL    HW249512   1.986   8.359   8.693
16496SOL     OW49513   3.387   8.447   7.638
16496SOL    HW149514   3.324   8.371   7.651
16496SOL    HW249515   3.435   8.465   7.724
16497SOL     OW49516   3.049   9.240   9.064
16497SOL    HW149517   3.073   9.300   8.988
16497SOL    HW249518   3.056   9.145   9.034
16498SOL     OW49519   2.179   7.699   9.249
16498SOL    HW149520   2.250   7.770   9.255
16498SOL    HW249521   2.091   7.738   9.277
16499SOL     OW49522   3.328   8.865   8.401
16499SOL    HW149523   3.269   8.871   8.481
16499SOL    HW249524   3.313   8.777   8.355
16500SOL     OW49525   3.529   9.162   8.020
16500SOL    HW149526   3.488   9.139   7.932
16500SOL    HW249527   3.511   9.088   8.085
16501SOL     OW49528   2.460   8.177   7.718
16501SOL    HW149529   2.484   8.246   7.650
16501SOL    HW249530   2.382   8.210   7.772
16502SOL     OW49531   3.143   7.793   8.392
16502SOL    HW149532   3.057   7.743   8.379
16502SOL    HW249533   3.205   7.739   8.448
16503SOL     OW49534   3.438   9.110   7.755
16503SOL    HW149535   3.527   9.156   7.758
16503SOL    HW249536   3.417   9.086   7.660
16504SOL     OW49537   2.669   8.053   8.913
16504SOL    HW149538   2.622   8.050   9.002
16504SOL    HW249539   2.618   7.998   8.847
16505SOL     OW49540   3.256   7.917   9.122
16505SOL    HW149541   3.236   7.960   9.210
16505SOL    HW249542   3.334   7.855   9.131
16506SOL     OW49543   2.835   8.338   9.020
16506SOL    HW149544   2.881   8.254   8.991
16506SOL    HW249545   2.779   8.372   8.945
16507SOL     OW49546   2.853   7.858   8.690
16507SOL    HW149547   2.776   7.892   8.744
16507SOL    HW249548   2.819   7.807   8.611
16508SOL     OW49549   2.903   8.149   7.877
16508SOL    HW149550   2.929   8.145   7.973
16508SOL    HW249551   2.818   8.098   7.863
16509SOL     OW49552   1.938   8.259   8.237
16509SOL    HW149553   2.037   8.247   8.246
16509SOL    HW249554   1.914   8.354   8.258
16510SOL     OW49555   1.992   9.269   9.019
16510SOL    HW149556   1.982   9.254   9.118
16510SOL    HW249557   1.906   9.305   8.983
16511SOL     OW49558   2.727   7.796   7.643
16511SOL    HW149559   2.786   7.859   7.594
16511SOL    HW249560   2.746   7.702   7.614
16512SOL     OW49561   3.581   8.033   9.279
16512SOL    HW149562   3.555   8.122   9.243
16512SOL    HW249563   3.579   7.965   9.206
16513SOL     OW49564   3.224   8.592   7.993
16513SOL    HW149565   3.307   8.563   7.945
16513SOL    HW249566   3.175   8.659   7.937
16514SOL     OW49567   2.412   7.644   8.333
16514SOL    HW149568   2.407   7.639   8.433
16514SOL    HW249569   2.414   7.740   8.304
16515SOL     OW49570   2.870   8.904   7.925
16515SOL    HW149571   2.824   8.976   7.873
16515SOL    HW249572   2.866   8.924   8.023
16516SOL     OW49573   2.213   9.249   8.301
16516SOL    HW149574   2.263   9.163   8.307
16516SOL    HW249575   2.278   9.326   8.298
16517SOL     OW49576   3.657   8.514   8.321
16517SOL    HW149577   3.595   8.499   8.245
16517SOL    HW249578   3.605   8.525   8.406
16518SOL     OW49579   3.089   8.998   8.954
16518SOL    HW149580   3.095   8.921   9.018
16518SOL    HW249581   3.037   8.972   8.874
16519SOL     OW49582   2.183   8.391   7.690
16519SOL    HW149583   2.265   8.430   7.648
16519SOL    HW249584   2.156   8.309   7.641
16520SOL     OW49585   3.320   8.183   8.176
16520SOL    HW149586   3.315   8.118   8.251
16520SOL    HW249587   3.400   8.242   8.189
16521SOL     OW49588   2.323   8.714   9.175
16521SOL    HW149589   2.273   8.715   9.089
16521SOL    HW249590   2.260   8.696   9.251
16522SOL     OW49591   2.973   9.224   7.685
16522SOL    HW149592   2.913   9.162   7.735
16522SOL    HW249593   3.004   9.180   7.600
16523SOL     OW49594   2.064   7.733   8.946
16523SOL    HW149595   1.984   7.793   8.933
16523SOL    HW249596   2.054   7.684   9.032
16524SOL     OW49597   3.494   8.825   7.529
16524SOL    HW149598   3.462   8.919   7.519
16524SOL    HW249599   3.418   8.762   7.517
16525SOL     OW49600   2.326   9.191   7.771
16525SOL    HW149601   2.359   9.230   7.857
16525SOL    HW249602   2.402   9.184   7.706
16526SOL     OW49603   3.262   7.555   7.874
16526SOL    HW149604   3.238   7.518   7.784
16526SOL    HW249605   3.361   7.571   7.878
16527SOL     OW49606   2.111   9.233   8.689
16527SOL    HW149607   2.168   9.168   8.739
16527SOL    HW249608   2.095   9.200   8.596
16528SOL     OW49609   2.802   9.146   8.352
16528SOL    HW149610   2.882   9.089   8.373
16528SOL    HW249611   2.753   9.106   8.275
16529SOL     OW49612   2.244   8.148   7.928
16529SOL    HW149613   2.289   8.058   7.925
16529SOL    HW249614   2.150   8.137   7.961
16530SOL     OW49615   3.409   7.670   9.177
16530SOL    HW149616   3.404   7.707   9.269
16530SOL    HW249617   3.337   7.601   9.165
16531SOL     OW49618   2.476   7.570   7.565
16531SOL    HW149619   2.574   7.548   7.572
16531SOL    HW249620   2.445   7.553   7.472
16532SOL     OW49621   2.643   7.712   9.197
16532SOL    HW149622   2.710   7.651   9.240
16532SOL    HW249623   2.570   7.731   9.262
16533SOL     OW49624   2.750   8.962   8.643
16533SOL    HW149625   2.727   8.937   8.549
16533SOL    HW249626   2.811   8.893   8.682
16534SOL     OW49627   3.213   8.038   8.881
16534SOL    HW149628   3.241   7.995   8.966
16534SOL    HW249629   3.238   8.134   8.882
16535SOL     OW49630   2.665   8.850   8.372
16535SOL    HW149631   2.755   8.864   8.330
16535SOL    HW249632   2.594   8.852   8.301
16536SOL     OW49633   2.784   7.951   8.347
16536SOL    HW149634   2.759   7.942   8.251
16536SOL    HW249635   2.832   7.869   8.378
16537SOL     OW49636   2.401   7.512   7.960
16537SOL    HW149637   2.320   7.513   8.018
16537SOL    HW249638   2.404   7.595   7.905
16538SOL     OW49639   3.296   8.636   7.489
16538SOL    HW149640   3.328   8.560   7.546
16538SOL    HW249641   3.204   8.663   7.519
16539SOL     OW49642   2.159   7.483   7.619
16539SOL    HW149643   2.208   7.567   7.598
16539SOL    HW249644   2.221   7.418   7.664
16540SOL     OW49645   2.797   7.684   7.928
16540SOL    HW149646   2.749   7.725   7.850
16540SOL    HW249647   2.896   7.682   7.909
16541SOL     OW49648   2.938   8.131   8.912
16541SOL    HW149649   2.858   8.070   8.915
16541SOL    HW249650   3.019   8.078   8.888
16542SOL     OW49651   3.089   9.018   8.241
16542SOL    HW149652   3.110   9.092   8.176
16542SOL    HW249653   3.157   9.018   8.314
16543SOL     OW49654   2.321   8.600   8.189
16543SOL    HW149655   2.250   8.573   8.254
16543SOL    HW249656   2.295   8.572   8.096
16544SOL     OW49657   3.133   9.245   8.039
16544SOL    HW149658   3.177   9.309   7.975
16544SOL    HW249659   3.083   9.297   8.109
16545SOL     OW49660   2.894   7.997   7.464
16545SOL    HW149661   2.853   8.079   7.425
16545SOL    HW249662   2.958   8.023   7.537
16546SOL     OW49663   1.940   8.004   8.834
16546SOL    HW149664   2.032   8.003   8.793
16546SOL    HW249665   1.934   8.078   8.901
16547SOL     OW49666   2.423   7.670   8.595
16547SOL    HW149667   2.461   7.586   8.632
16547SOL    HW249668   2.335   7.689   8.639
16548SOL     OW49669   2.728   7.902   8.090
16548SOL    HW149670   2.696   7.974   8.028
16548SOL    HW249671   2.752   7.821   8.037
16549SOL     OW49672   2.879   7.487   8.201
16549SOL    HW149673   2.807   7.492   8.132
16549SOL    HW249674   2.855   7.418   8.270
16550SOL     OW49675   3.291   8.621   8.315
16550SOL    HW149676   3.236   8.537   8.308
16550SOL    HW249677   3.317   8.650   8.223
16551SOL     OW49678   3.328   8.038   8.440
16551SOL    HW149679   3.298   7.943   8.447
16551SOL    HW249680   3.401   8.054   8.506
16552SOL     OW49681   3.719   8.281   7.825
16552SOL    HW149682   3.761   8.217   7.889
16552SOL    HW249683   3.681   8.230   7.747
16553SOL     OW49684   2.350   8.833   7.622
16553SOL    HW149685   2.263   8.818   7.669
16553SOL    HW249686   2.333   8.859   7.527
16554SOL     OW49687   3.526   8.728   8.105
16554SOL    HW149688   3.625   8.736   8.119
16554SOL    HW249689   3.481   8.812   8.136
16555SOL     OW49690   3.252   8.023   7.526
16555SOL    HW149691   3.198   8.002   7.607
16555SOL    HW249692   3.343   7.982   7.535
16556SOL     OW49693   2.389   7.704   7.776
16556SOL    HW149694   2.416   7.645   7.701
16556SOL    HW249695   2.389   7.799   7.745
16557SOL     OW49696   3.616   8.671   9.036
16557SOL    HW149697   3.707   8.632   9.023
16557SOL    HW249698   3.624   8.767   9.060
16558SOL     OW49699   2.926   8.795   8.788
16558SOL    HW149700   2.846   8.772   8.843
16558SOL    HW249701   3.009   8.769   8.837
16559SOL     OW49702   3.454   9.077   9.073
16559SOL    HW149703   3.481   9.111   8.983
16559SOL    HW249704   3.533   9.039   9.119
16560SOL     OW49705   2.973   8.643   8.548
16560SOL    HW149706   2.933   8.687   8.629
16560SOL    HW249707   2.932   8.680   8.465
16561SOL     OW49708   3.500   8.547   8.527
16561SOL    HW149709   3.505   8.628   8.586
16561SOL    HW249710   3.414   8.549   8.476
16562SOL     OW49711   2.777   7.537   8.850
16562SOL    HW149712   2.802   7.517   8.755
16562SOL    HW249713   2.849   7.593   8.892
16563SOL     OW49714   2.842   8.564   9.167
16563SOL    HW149715   2.743   8.570   9.177
16563SOL    HW249716   2.865   8.484   9.111
16564SOL     OW49717   2.567   8.498   7.816
16564SOL    HW149718   2.553   8.505   7.915
16564SOL    HW249719   2.651   8.447   7.798
16565SOL     OW49720   2.272   8.261   8.699
16565SOL    HW149721   2.358   8.273   8.749
16565SOL    HW249722   2.230   8.174   8.726
16566SOL     OW49723   3.136   7.834   8.710
16566SOL    HW149724   3.157   7.908   8.774
16566SOL    HW249725   3.047   7.851   8.667
16567SOL     OW49726   1.926   9.012   8.779
16567SOL    HW149727   1.880   9.094   8.745
16567SOL    HW249728   2.024   9.031   8.788
16568SOL     OW49729   2.229   8.548   7.949
16568SOL    HW149730   2.222   8.631   7.893
16568SOL    HW249731   2.233   8.468   7.889
16569SOL     OW49732   2.428   7.985   8.313
16569SOL    HW149733   2.440   8.051   8.239
16569SOL    HW249734   2.474   8.019   8.396
16570SOL     OW49735   3.114   8.796   7.836
16570SOL    HW149736   3.164   8.873   7.876
16570SOL    HW249737   3.019   8.798   7.868
16571SOL     OW49738   3.134   8.893   8.590
16571SOL    HW149739   3.181   8.906   8.677
16571SOL    HW249740   3.068   8.819   8.599
16572SOL     OW49741   3.444   8.087   7.920
16572SOL    HW149742   3.413   8.148   7.993
16572SOL    HW249743   3.494   8.139   7.851
16573SOL     OW49744   2.216   8.958   8.777
16573SOL    HW149745   2.195   8.914   8.690
16573SOL    HW249746   2.313   8.984   8.780
16574SOL     OW49747   2.264   8.199   9.046
16574SOL    HW149748   2.332   8.254   8.999
16574SOL    HW249749   2.304   8.111   9.073
16575SOL     OW49750   3.449   8.227   9.118
16575SOL    HW149751   3.357   8.265   9.113
16575SOL    HW249752   3.509   8.274   9.053
16576SOL     OW49753   2.875   7.553   9.218
16576SOL    HW149754   2.881   7.638   9.166
16576SOL    HW249755   2.907   7.477   9.161
16577SOL     OW49756   2.366   7.498   9.188
16577SOL    HW149757   2.324   7.441   9.118
16577SOL    HW249758   2.300   7.567   9.220
16578SOL     OW49759   2.435   8.318   8.477
16578SOL    HW149760   2.479   8.407   8.468
16578SOL    HW249761   2.372   8.318   8.554
16579SOL     OW49762   3.222   8.310   8.493
16579SOL    HW149763   3.147   8.310   8.427
16579SOL    HW249764   3.259   8.218   8.502
16580SOL     OW49765   3.071   7.973   7.723
16580SOL    HW149766   3.084   7.889   7.777
16580SOL    HW249767   3.042   8.047   7.783
16581SOL     OW49768   2.169   7.661   8.679
16581SOL    HW149769   2.146   7.698   8.769
16581SOL    HW249770   2.139   7.566   8.673
16582SOL     OW49771   1.899   8.758   8.730
16582SOL    HW149772   1.952   8.709   8.798
16582SOL    HW249773   1.921   8.856   8.735
16583SOL     OW49774   2.594   8.082   8.512
16583SOL    HW149775   2.653   8.056   8.436
16583SOL    HW249776   2.566   8.178   8.501
16584SOL     OW49777   3.590   8.383   9.302
16584SOL    HW149778   3.544   8.376   9.213
16584SOL    HW249779   3.528   8.427   9.368
16585SOL     OW49780   2.169   7.511   8.066
16585SOL    HW149781   2.158   7.605   8.099
16585SOL    HW249782   2.164   7.448   8.143
16586SOL     OW49783   3.484   7.815   7.822
16586SOL    HW149784   3.486   7.739   7.886
16586SOL    HW249785   3.436   7.892   7.862
16587SOL     OW49786   2.885   8.214   8.414
16587SOL    HW149787   2.900   8.235   8.510
16587SOL    HW249788   2.855   8.119   8.405
16588SOL     OW49789   2.842   9.021   9.148
16588SOL    HW149790   2.822   9.065   9.060
16588SOL    HW249791   2.881   8.930   9.132
16589SOL     OW49792   3.721   8.966   9.053
16589SOL    HW149793   3.735   8.993   8.958
16589SOL    HW249794   3.804   8.988   9.106
16590SOL     OW49795   2.212   8.346   9.252
16590SOL    HW149796   2.288   8.390   9.300
16590SOL    HW249797   2.247   8.299   9.170
16591SOL     OW49798   3.402   7.722   7.573
16591SOL    HW149799   3.341   7.647   7.596
16591SOL    HW249800   3.424   7.774   7.656
16592SOL     OW49801   3.165   8.286   7.490
16592SOL    HW149802   3.199   8.193   7.505
16592SOL    HW249803   3.183   8.313   7.395
16593SOL     OW49804   2.930   8.781   8.297
16593SOL    HW149805   2.937   8.697   8.242
16593SOL    HW249806   2.992   8.850   8.261
16594SOL     OW49807   2.181   8.258   8.397
16594SOL    HW149808   2.274   8.294   8.402
16594SOL    HW249809   2.175   8.173   8.449
16595SOL     OW49810   2.201   7.957   8.454
16595SOL    HW149811   2.149   7.874   8.437
16595SOL    HW249812   2.278   7.962   8.390
16596SOL     OW49813   3.000   7.828   9.126
16596SOL    HW149814   2.955   7.891   9.190
16596SOL    HW249815   3.093   7.859   9.109
16597SOL     OW49816   3.022   7.655   8.925
16597SOL    HW149817   3.022   7.719   9.002
16597SOL    HW249818   3.050   7.703   8.842
16598SOL     OW49819   1.870   8.774   7.648
16598SOL    HW149820   1.777   8.795   7.617
16598SOL    HW249821   1.880   8.675   7.661
16599SOL     OW49822   1.950   9.249   8.375
16599SOL    HW149823   1.908   9.163   8.348
16599SOL    HW249824   2.044   9.252   8.341
16600SOL     OW49825   2.366   9.016   8.358
16600SOL    HW149826   2.432   9.090   8.367
16600SOL    HW249827   2.410   8.937   8.316
16601SOL     OW49828   2.864   8.244   8.686
16601SOL    HW149829   2.905   8.212   8.772
16601SOL    HW249830   2.768   8.217   8.683
16602SOL     OW49831   1.902   7.992   8.562
16602SOL    HW149832   1.987   7.959   8.521
16602SOL    HW249833   1.915   8.007   8.660
16603SOL     OW49834   2.051   7.968   9.170
16603SOL    HW149835   2.110   7.928   9.100
16603SOL    HW249836   1.993   8.039   9.129
16604SOL     OW49837   3.231   8.398   9.108
16604SOL    HW149838   3.270   8.487   9.128
16604SOL    HW249839   3.241   8.378   9.011
16605SOL     OW49840   2.677   8.020   7.773
16605SOL    HW149841   2.684   7.931   7.727
16605SOL    HW249842   2.583   8.054   7.765
16606SOL     OW49843   3.519   8.052   8.654
16606SOL    HW149844   3.481   7.983   8.716
16606SOL    HW249845   3.601   8.016   8.610
16607SOL     OW49846   2.114   9.012   9.192
16607SOL    HW149847   2.084   9.069   9.268
16607SOL    HW249848   2.107   8.915   9.218
16608SOL     OW49849   2.533   7.912   8.717
16608SOL    HW149850   2.499   7.823   8.687
16608SOL    HW249851   2.559   7.966   8.637
16609SOL     OW49852   2.792   9.126   8.913
16609SOL    HW149853   2.768   9.108   8.818
16609SOL    HW249854   2.822   9.220   8.923
16610SOL     OW49855   2.335   7.948   7.639
16610SOL    HW149856   2.396   8.028   7.643
16610SOL    HW249857   2.240   7.979   7.646
16611SOL     OW49858   2.021   8.585   8.914
16611SOL    HW149859   2.043   8.524   8.990
16611SOL    HW249860   2.031   8.536   8.828
16612SOL     OW49861   3.209   8.507   8.682
16612SOL    HW149862   3.233   8.444   8.608
16612SOL    HW249863   3.119   8.547   8.664
16613SOL     OW49864   3.164   8.303   7.757
16613SOL    HW149865   3.078   8.272   7.799
16613SOL    HW249866   3.160   8.289   7.658
16614SOL     OW49867   3.621   9.195   8.602
16614SOL    HW149868   3.682   9.225   8.529
16614SOL    HW249869   3.583   9.106   8.580
16615SOL     OW49870   3.114   9.179   8.576
16615SOL    HW149871   3.198   9.184   8.522
16615SOL    HW249872   3.091   9.083   8.594
16616SOL     OW49873   1.945   8.706   8.470
16616SOL    HW149874   1.940   8.705   8.570
16616SOL    HW249875   1.862   8.665   8.432
16617SOL     OW49876   2.550   9.110   9.164
16617SOL    HW149877   2.494   9.191   9.173
16617SOL    HW249878   2.602   9.114   9.078
16618SOL     OW49879   3.588   7.583   7.971
16618SOL    HW149880   3.661   7.566   7.904
16618SOL    HW249881   3.557   7.496   8.009
16619SOL     OW49882   3.250   9.021   7.925
16619SOL    HW149883   3.317   9.033   7.851
16619SOL    HW249884   3.210   9.110   7.948
16620SOL     OW49885   1.992   9.242   9.299
16620SOL    HW149886   1.951   9.168   9.352
16620SOL    HW249887   2.056   9.293   9.357
16621SOL     OW49888   3.142   8.375   8.120
16621SOL    HW149889   3.202   8.294   8.122
16621SOL    HW249890   3.182   8.444   8.060
16622SOL     OW49891   2.692   8.721   8.870
16622SOL    HW149892   2.687   8.754   8.965
16622SOL    HW249893   2.606   8.740   8.824
16623SOL     OW49894   2.534   9.064   7.602
16623SOL    HW149895   2.543   9.074   7.503
16623SOL    HW249896   2.494   8.975   7.623
16624SOL     OW49897   3.512   9.168   8.842
16624SOL    HW149898   3.565   9.178   8.758
16624SOL    HW249899   3.485   9.258   8.876
16625SOL     OW49900   3.703   7.623   8.411
16625SOL    HW149901   3.742   7.538   8.375
16625SOL    HW249902   3.605   7.625   8.392
16626SOL     OW49903   2.125   7.774   8.168
16626SOL    HW149904   2.046   7.825   8.134
16626SOL    HW249905   2.116   7.759   8.266
16627SOL     OW49906   3.056   9.060   7.479
16627SOL    HW149907   3.062   8.967   7.516
16627SOL    HW249908   2.997   9.060   7.399
16628SOL     OW49909   2.684   8.450   8.820
16628SOL    HW149910   2.724   8.449   8.728
16628SOL    HW249911   2.694   8.542   8.860
16629SOL     OW49912   2.778   8.358   7.739
16629SOL    HW149913   2.841   8.396   7.671
16629SOL    HW249914   2.818   8.275   7.778
16630SOL     OW49915   3.366   9.055   7.492
16630SOL    HW149916   3.274   9.092   7.499
16630SOL    HW249917   3.404   9.075   7.402
16631SOL     OW49918   2.234   8.736   8.938
16631SOL    HW149919   2.221   8.829   8.904
16631SOL    HW249920   2.150   8.684   8.925
16632SOL     OW49921   3.476   8.740   8.737
16632SOL    HW149922   3.536   8.743   8.817
16632SOL    HW249923   3.401   8.804   8.750
16633SOL     OW49924   2.901   8.546   8.144
16633SOL    HW149925   2.831   8.499   8.198
16633SOL    HW249926   2.960   8.478   8.101
16634SOL     OW49927   2.876   7.684   8.419
16634SOL    HW149928   2.868   7.648   8.326
16634SOL    HW249929   2.874   7.608   8.484
16635SOL     OW49930   2.452   8.935   7.939
16635SOL    HW149931   2.494   8.877   7.869
16635SOL    HW249932   2.408   9.014   7.895
16636SOL     OW49933   3.571   7.833   8.829
16636SOL    HW149934   3.644   7.902   8.833
16636SOL    HW249935   3.599   7.758   8.770
16637SOL     OW49936   2.117   8.796   7.738
16637SOL    HW149937   2.021   8.797   7.711
16637SOL    HW249938   2.129   8.849   7.822
16638SOL     OW49939   1.967   8.461   9.174
16638SOL    HW149940   1.890   8.428   9.228
16638SOL    HW249941   2.052   8.431   9.216
16639SOL     OW49942   2.534   7.651   8.937
16639SOL    HW149943   2.624   7.635   8.897
16639SOL    HW249944   2.542   7.656   9.036
16640SOL     OW49945   1.937   7.793   7.481
16640SOL    HW149946   1.845   7.765   7.452
16640SOL    HW249947   1.968   7.870   7.425
16641SOL     OW49948   3.302   8.304   8.846
16641SOL    HW149949   3.245   8.356   8.783
16641SOL    HW249950   3.398   8.316   8.822
16642SOL     OW49951   1.934   7.614   7.766
16642SOL    HW149952   1.917   7.697   7.712
16642SOL    HW249953   2.024   7.577   7.744
16643SOL     OW49954   3.045   8.783   7.567
16643SOL    HW149955   2.946   8.772   7.569
16643SOL    HW249956   3.079   8.798   7.660
16644SOL     OW49957   2.475   8.290   8.879
16644SOL    HW149958   2.531   8.371   8.862
16644SOL    HW249959   2.534   8.210   8.882
16645SOL     OW49960   3.355   9.215   8.407
16645SOL    HW149961   3.388   9.279   8.338
16645SOL    HW249962   3.421   9.209   8.482
16646SOL     OW49963   2.578   8.013   9.156
16646SOL    HW149964   2.597   8.078   9.230
16646SOL    HW249965   2.638   7.933   9.165
16647SOL     OW49966   3.312   8.668   9.081
16647SOL    HW149967   3.303   8.658   9.180
16647SOL    HW249968   3.408   8.661   9.055
16648SOL     OW49969   2.252   9.189   9.008
16648SOL    HW149970   2.161   9.230   9.006
16648SOL    HW249971   2.245   9.095   9.040
16649SOL     OW49972   3.536   8.331   8.702
16649SOL    HW149973   3.509   8.242   8.665
16649SOL    HW249974   3.537   8.399   8.629
16650SOL     OW49975   3.087   7.773   7.897
16650SOL    HW149976   3.152   7.699   7.886
16650SOL    HW249977   3.107   7.823   7.981
16651SOL     OW49978   2.456   8.193   8.100
16651SOL    HW149979   2.506   8.278   8.081
16651SOL    HW249980   2.368   8.195   8.052
16652SOL     OW49981   3.639   7.790   9.090
16652SOL    HW149982   3.622   7.821   8.996
16652SOL    HW249983   3.555   7.753   9.128
16653SOL     OW49984   3.592   8.382   8.965
16653SOL    HW149985   3.630   8.473   8.980
16653SOL    HW249986   3.584   8.365   8.866
16654SOL     OW49987   2.721   8.822   7.464
16654SOL    HW149988   2.675   8.837   7.552
16654SOL    HW249989   2.765   8.907   7.434
16655SOL     OW49990   2.523   9.238   8.401
16655SOL    HW149991   2.477   9.326   8.388
16655SOL    HW249992   2.622   9.250   8.394
16656SOL     OW49993   2.721   8.404   8.309
16656SOL    HW149994   2.775   8.335   8.357
16656SOL    HW249995   2.689   8.473   8.375
16657SOL     OW49996   2.945   8.432   7.535
16657SOL    HW149997   2.922   8.485   7.453
16657SOL    HW249998   3.026   8.376   7.516
16658SOL     OW49999   3.723   9.017   8.299
16658SOL    HW150000   3.652   9.005   8.229
16658SOL    HW250001   3.724   8.938   8.359
16659SOL     OW50002   2.083   8.762   9.292
16659SOL    HW150003   2.018   8.689   9.271
16659SOL    HW250004   2.087   8.776   9.390
16660SOL     OW50005   1.941   8.688   8.101
16660SOL    HW150006   1.940   8.641   8.189
16660SOL    HW250007   2.023   8.660   8.050
16661SOL     OW50008   2.534   8.839   9.072
16661SOL    HW150009   2.456   8.789   9.110
16661SOL    HW250010   2.531   8.934   9.103
16662SOL     OW50011   3.686   7.640   8.675
16662SOL    HW150012   3.682   7.550   8.719
16662SOL    HW250013   3.689   7.629   8.576
16663SOL     OW50014   2.290   7.872   7.968
16663SOL    HW150015   2.320   7.800   7.906
16663SOL    HW250016   2.251   7.832   8.051
16664SOL     OW50017   3.567   8.935   8.552
16664SOL    HW150018   3.474   8.910   8.525
16664SOL    HW250019   3.593   8.885   8.634
16665SOL     OW50020   2.179   7.995   8.728
16665SOL    HW150021   2.217   7.936   8.800
16665SOL    HW250022   2.219   7.969   8.640
16666SOL     OW50023   2.674   9.034   8.135
16666SOL    HW150024   2.706   9.044   8.041
16666SOL    HW250025   2.595   8.972   8.137
16667SOL     OW50026   3.286   7.662   8.560
16667SOL    HW150027   3.338   7.597   8.615
16667SOL    HW250028   3.237   7.725   8.621
16668SOL     OW50029   2.863   7.482   8.602
16668SOL    HW150030   2.800   7.410   8.571
16668SOL    HW250031   2.956   7.446   8.602
16669SOL     OW50032   2.632   8.778   7.749
16669SOL    HW150033   2.586   8.691   7.766
16669SOL    HW250034   2.723   8.775   7.790
16670SOL     OW50035   2.480   9.015   8.732
16670SOL    HW150036   2.475   9.097   8.789
16670SOL    HW250037   2.569   9.012   8.687
16671SOL     OW50038   3.214   7.500   7.616
16671SOL    HW150039   3.249   7.459   7.532
16671SOL    HW250040   3.124   7.462   7.636
16672SOL     OW50041   3.162   7.901   8.139
16672SOL    HW150042   3.103   7.981   8.143
16672SOL    HW250043   3.177   7.866   8.232
16673SOL     OW50044   3.455   7.669   8.330
16673SOL    HW150045   3.371   7.668   8.384
16673SOL    HW250046   3.457   7.752   8.274
16674SOL     OW50047   1.901   8.525   7.748
16674SOL    HW150048   2.000   8.514   7.739
16674SOL    HW250049   1.861   8.439   7.780
16675SOL     OW50050   2.737   9.094   7.785
16675SOL    HW150051   2.660   9.059   7.731
16675SOL    HW250052   2.705   9.165   7.847
16676SOL     OW50053   2.092   8.076   9.423
16676SOL    HW150054   1.999   8.074   9.460
16676SOL    HW250055   2.093   8.037   9.331
16677SOL     OW50056   2.087   7.723  10.306
16677SOL    HW150057   2.122   7.706  10.398
16677SOL    HW250058   1.999   7.678  10.294
16678SOL     OW50059   1.881   7.816   9.957
16678SOL    HW150060   1.799   7.859   9.996
16678SOL    HW250061   1.853   7.743   9.894
16679SOL     OW50062   2.431   8.723  10.475
16679SOL    HW150063   2.338   8.716  10.438
16679SOL    HW250064   2.442   8.812  10.519
16680SOL     OW50065   3.417   8.959  10.013
16680SOL    HW150066   3.360   8.943  10.094
16680SOL    HW250067   3.358   8.969   9.933
16681SOL     OW50068   2.997   8.151  10.027
16681SOL    HW150069   3.054   8.229  10.002
16681SOL    HW250070   2.937   8.177  10.103
16682SOL     OW50071   3.617   8.055   9.541
16682SOL    HW150072   3.605   8.042   9.442
16682SOL    HW250073   3.587   7.974   9.590
16683SOL     OW50074   2.630   8.592  10.333
16683SOL    HW150075   2.552   8.609  10.393
16683SOL    HW250076   2.664   8.679  10.297
16684SOL     OW50077   2.712   8.246  11.133
16684SOL    HW150078   2.708   8.322  11.198
16684SOL    HW250079   2.734   8.282  11.042
16685SOL     OW50080   2.547   8.460   9.975
16685SOL    HW150081   2.616   8.444  10.045
16685SOL    HW250082   2.474   8.517  10.013
16686SOL     OW50083   2.548   8.609  11.113
16686SOL    HW150084   2.608   8.688  11.127
16686SOL    HW250085   2.462   8.640  11.072
16687SOL     OW50086   2.197   8.883  10.371
16687SOL    HW150087   2.119   8.852  10.318
16687SOL    HW250088   2.255   8.941  10.314
16688SOL     OW50089   3.322   8.953  10.649
16688SOL    HW150090   3.346   9.047  10.675
16688SOL    HW250091   3.306   8.899  10.731
16689SOL     OW50092   2.300   7.840  10.809
16689SOL    HW150093   2.382   7.784  10.818
16689SOL    HW250094   2.219   7.782  10.813
16690SOL     OW50095   3.465   7.895  10.047
16690SOL    HW150096   3.391   7.941   9.997
16690SOL    HW250097   3.516   7.963  10.100
16691SOL     OW50098   2.093   9.161   9.793
16691SOL    HW150099   2.127   9.238   9.847
16691SOL    HW250100   2.137   9.161   9.703
16692SOL     OW50101   2.989   8.789  11.000
16692SOL    HW150102   3.036   8.789  11.088
16692SOL    HW250103   2.941   8.702  10.989
16693SOL     OW50104   2.092   8.882   9.848
16693SOL    HW150105   2.066   8.978   9.848
16693SOL    HW250106   2.021   8.828   9.893
16694SOL     OW50107   2.102   8.539  10.196
16694SOL    HW150108   2.116   8.455  10.248
16694SOL    HW250109   2.047   8.603  10.251
16695SOL     OW50110   2.482   9.234  10.749
16695SOL    HW150111   2.390   9.217  10.784
16695SOL    HW250112   2.510   9.326  10.775
16696SOL     OW50113   2.468   8.412   9.433
16696SOL    HW150114   2.475   8.496   9.379
16696SOL    HW250115   2.514   8.425   9.521
16697SOL     OW50116   3.456   7.562  10.790
16697SOL    HW150117   3.438   7.629  10.718
16697SOL    HW250118   3.453   7.608  10.879
16698SOL     OW50119   1.984   8.091   9.873
16698SOL    HW150120   1.939   8.003   9.890
16698SOL    HW250121   1.983   8.145   9.957
16699SOL     OW50122   3.704   9.215   9.669
16699SOL    HW150123   3.758   9.186   9.749
16699SOL    HW250124   3.734   9.305   9.640
16700SOL     OW50125   1.889   9.044   9.427
16700SOL    HW150126   1.870   8.948   9.448
16700SOL    HW250127   1.856   9.102   9.502
16701SOL     OW50128   3.551   8.370   9.922
16701SOL    HW150129   3.646   8.341   9.930
16701SOL    HW250130   3.543   8.435   9.847
16702SOL     OW50131   3.503   8.556   9.742
16702SOL    HW150132   3.589   8.558   9.690
16702SOL    HW250133   3.517   8.603   9.830
16703SOL     OW50134   1.975   8.185  10.907
16703SOL    HW150135   2.063   8.172  10.952
16703SOL    HW250136   1.962   8.282  10.885
16704SOL     OW50137   2.475   8.813  10.036
16704SOL    HW150138   2.426   8.726  10.045
16704SOL    HW250139   2.452   8.856   9.949
16705SOL     OW50140   3.155   8.676  10.733
16705SOL    HW150141   3.192   8.603  10.675
16705SOL    HW250142   3.207   8.681  10.818
16706SOL     OW50143   2.671   7.452   9.812
16706SOL    HW150144   2.711   7.543   9.803
16706SOL    HW250145   2.571   7.460   9.818
16707SOL     OW50146   2.059   8.424  10.574
16707SOL    HW150147   2.148   8.379  10.560
16707SOL    HW250148   1.986   8.359  10.555
16708SOL     OW50149   3.387   8.447   9.500
16708SOL    HW150150   3.324   8.371   9.513
16708SOL    HW250151   3.435   8.465   9.586
16709SOL     OW50152   3.049   9.240  10.926
16709SOL    HW150153   3.073   9.300  10.850
16709SOL    HW250154   3.056   9.145  10.896
16710SOL     OW50155   2.179   7.699  11.111
16710SOL    HW150156   2.250   7.770  11.117
16710SOL    HW250157   2.091   7.738  11.139
16711SOL     OW50158   3.328   8.865  10.263
16711SOL    HW150159   3.269   8.871  10.343
16711SOL    HW250160   3.313   8.777  10.217
16712SOL     OW50161   3.529   9.162   9.882
16712SOL    HW150162   3.488   9.139   9.794
16712SOL    HW250163   3.511   9.088   9.947
16713SOL     OW50164   2.460   8.177   9.580
16713SOL    HW150165   2.484   8.246   9.512
16713SOL    HW250166   2.382   8.210   9.634
16714SOL     OW50167   3.143   7.793  10.254
16714SOL    HW150168   3.057   7.743  10.241
16714SOL    HW250169   3.205   7.739  10.310
16715SOL     OW50170   3.438   9.110   9.617
16715SOL    HW150171   3.527   9.156   9.620
16715SOL    HW250172   3.417   9.086   9.522
16716SOL     OW50173   2.669   8.053  10.775
16716SOL    HW150174   2.622   8.050  10.864
16716SOL    HW250175   2.618   7.998  10.709
16717SOL     OW50176   3.256   7.917  10.984
16717SOL    HW150177   3.236   7.960  11.072
16717SOL    HW250178   3.334   7.855  10.993
16718SOL     OW50179   2.835   8.338  10.882
16718SOL    HW150180   2.881   8.254  10.853
16718SOL    HW250181   2.779   8.372  10.807
16719SOL     OW50182   2.853   7.858  10.552
16719SOL    HW150183   2.776   7.892  10.606
16719SOL    HW250184   2.819   7.807  10.473
16720SOL     OW50185   2.903   8.149   9.739
16720SOL    HW150186   2.929   8.145   9.835
16720SOL    HW250187   2.818   8.098   9.725
16721SOL     OW50188   1.938   8.259  10.099
16721SOL    HW150189   2.037   8.247  10.108
16721SOL    HW250190   1.914   8.354  10.120
16722SOL     OW50191   1.992   9.269  10.881
16722SOL    HW150192   1.982   9.254  10.980
16722SOL    HW250193   1.906   9.305  10.845
16723SOL     OW50194   2.727   7.796   9.505
16723SOL    HW150195   2.786   7.859   9.456
16723SOL    HW250196   2.746   7.702   9.476
16724SOL     OW50197   3.581   8.033  11.141
16724SOL    HW150198   3.555   8.122  11.105
16724SOL    HW250199   3.579   7.965  11.068
16725SOL     OW50200   3.224   8.592   9.855
16725SOL    HW150201   3.307   8.563   9.807
16725SOL    HW250202   3.175   8.659   9.799
16726SOL     OW50203   2.412   7.644  10.195
16726SOL    HW150204   2.407   7.639  10.295
16726SOL    HW250205   2.414   7.740  10.166
16727SOL     OW50206   2.870   8.904   9.787
16727SOL    HW150207   2.824   8.976   9.735
16727SOL    HW250208   2.866   8.924   9.885
16728SOL     OW50209   2.213   9.249  10.163
16728SOL    HW150210   2.263   9.163  10.169
16728SOL    HW250211   2.278   9.326  10.160
16729SOL     OW50212   3.657   8.514  10.183
16729SOL    HW150213   3.595   8.499  10.107
16729SOL    HW250214   3.605   8.525  10.268
16730SOL     OW50215   3.089   8.998  10.816
16730SOL    HW150216   3.095   8.921  10.880
16730SOL    HW250217   3.037   8.972  10.736
16731SOL     OW50218   2.183   8.391   9.552
16731SOL    HW150219   2.265   8.430   9.510
16731SOL    HW250220   2.156   8.309   9.503
16732SOL     OW50221   3.320   8.183  10.038
16732SOL    HW150222   3.315   8.118  10.113
16732SOL    HW250223   3.400   8.242  10.051
16733SOL     OW50224   2.323   8.714  11.037
16733SOL    HW150225   2.273   8.715  10.951
16733SOL    HW250226   2.260   8.696  11.113
16734SOL     OW50227   2.973   9.224   9.547
16734SOL    HW150228   2.913   9.162   9.597
16734SOL    HW250229   3.004   9.180   9.462
16735SOL     OW50230   2.064   7.733  10.808
16735SOL    HW150231   1.984   7.793  10.795
16735SOL    HW250232   2.054   7.684  10.894
16736SOL     OW50233   3.494   8.825   9.391
16736SOL    HW150234   3.462   8.919   9.381
16736SOL    HW250235   3.418   8.762   9.379
16737SOL     OW50236   2.326   9.191   9.633
16737SOL    HW150237   2.359   9.230   9.719
16737SOL    HW250238   2.402   9.184   9.568
16738SOL     OW50239   3.262   7.555   9.736
16738SOL    HW150240   3.238   7.518   9.646
16738SOL    HW250241   3.361   7.571   9.740
16739SOL     OW50242   2.111   9.233  10.551
16739SOL    HW150243   2.168   9.168  10.601
16739SOL    HW250244   2.095   9.200  10.458
16740SOL     OW50245   2.802   9.146  10.214
16740SOL    HW150246   2.882   9.089  10.235
16740SOL    HW250247   2.753   9.106  10.137
16741SOL     OW50248   2.244   8.148   9.790
16741SOL    HW150249   2.289   8.058   9.787
16741SOL    HW250250   2.150   8.137   9.823
16742SOL     OW50251   3.409   7.670  11.039
16742SOL    HW150252   3.404   7.707  11.131
16742SOL    HW250253   3.337   7.601  11.027
16743SOL     OW50254   2.476   7.570   9.427
16743SOL    HW150255   2.574   7.548   9.434
16743SOL    HW250256   2.445   7.553   9.334
16744SOL     OW50257   2.643   7.712  11.059
16744SOL    HW150258   2.710   7.651  11.102
16744SOL    HW250259   2.570   7.731  11.124
16745SOL     OW50260   2.750   8.962  10.505
16745SOL    HW150261   2.727   8.937  10.411
16745SOL    HW250262   2.811   8.893  10.544
16746SOL     OW50263   3.213   8.038  10.743
16746SOL    HW150264   3.241   7.995  10.828
16746SOL    HW250265   3.238   8.134  10.744
16747SOL     OW50266   2.665   8.850  10.234
16747SOL    HW150267   2.755   8.864  10.192
16747SOL    HW250268   2.594   8.852  10.163
16748SOL     OW50269   2.784   7.951  10.209
16748SOL    HW150270   2.759   7.942  10.113
16748SOL    HW250271   2.832   7.869  10.240
16749SOL     OW50272   2.401   7.512   9.822
16749SOL    HW150273   2.320   7.513   9.880
16749SOL    HW250274   2.404   7.595   9.767
16750SOL     OW50275   3.296   8.636   9.351
16750SOL    HW150276   3.328   8.560   9.408
16750SOL    HW250277   3.204   8.663   9.381
16751SOL     OW50278   2.159   7.483   9.481
16751SOL    HW150279   2.208   7.567   9.460
16751SOL    HW250280   2.221   7.418   9.526
16752SOL     OW50281   2.797   7.684   9.790
16752SOL    HW150282   2.749   7.725   9.712
16752SOL    HW250283   2.896   7.682   9.771
16753SOL     OW50284   2.938   8.131  10.774
16753SOL    HW150285   2.858   8.070  10.777
16753SOL    HW250286   3.019   8.078  10.750
16754SOL     OW50287   3.089   9.018  10.103
16754SOL    HW150288   3.110   9.092  10.038
16754SOL    HW250289   3.157   9.018  10.176
16755SOL     OW50290   2.321   8.600  10.051
16755SOL    HW150291   2.250   8.573  10.116
16755SOL    HW250292   2.295   8.572   9.958
16756SOL     OW50293   3.133   9.245   9.901
16756SOL    HW150294   3.177   9.309   9.837
16756SOL    HW250295   3.083   9.297   9.971
16757SOL     OW50296   2.894   7.997   9.326
16757SOL    HW150297   2.853   8.079   9.287
16757SOL    HW250298   2.958   8.023   9.399
16758SOL     OW50299   1.940   8.004  10.696
16758SOL    HW150300   2.032   8.003  10.655
16758SOL    HW250301   1.934   8.078  10.763
16759SOL     OW50302   2.423   7.670  10.457
16759SOL    HW150303   2.461   7.586  10.494
16759SOL    HW250304   2.335   7.689  10.501
16760SOL     OW50305   2.728   7.902   9.952
16760SOL    HW150306   2.696   7.974   9.890
16760SOL    HW250307   2.752   7.821   9.899
16761SOL     OW50308   2.879   7.487  10.063
16761SOL    HW150309   2.807   7.492   9.994
16761SOL    HW250310   2.855   7.418  10.132
16762SOL     OW50311   3.291   8.621  10.177
16762SOL    HW150312   3.236   8.537  10.170
16762SOL    HW250313   3.317   8.650  10.085
16763SOL     OW50314   3.328   8.038  10.302
16763SOL    HW150315   3.298   7.943  10.309
16763SOL    HW250316   3.401   8.054  10.368
16764SOL     OW50317   3.719   8.281   9.687
16764SOL    HW150318   3.761   8.217   9.751
16764SOL    HW250319   3.681   8.230   9.609
16765SOL     OW50320   2.350   8.833   9.484
16765SOL    HW150321   2.263   8.818   9.531
16765SOL    HW250322   2.333   8.859   9.389
16766SOL     OW50323   3.526   8.728   9.967
16766SOL    HW150324   3.625   8.736   9.981
16766SOL    HW250325   3.481   8.812   9.998
16767SOL     OW50326   3.252   8.023   9.388
16767SOL    HW150327   3.198   8.002   9.469
16767SOL    HW250328   3.343   7.982   9.397
16768SOL     OW50329   2.389   7.704   9.638
16768SOL    HW150330   2.416   7.645   9.563
16768SOL    HW250331   2.389   7.799   9.607
16769SOL     OW50332   3.616   8.671  10.898
16769SOL    HW150333   3.707   8.632  10.885
16769SOL    HW250334   3.624   8.767  10.922
16770SOL     OW50335   2.926   8.795  10.650
16770SOL    HW150336   2.846   8.772  10.705
16770SOL    HW250337   3.009   8.769  10.699
16771SOL     OW50338   3.454   9.077  10.935
16771SOL    HW150339   3.481   9.111  10.845
16771SOL    HW250340   3.533   9.039  10.981
16772SOL     OW50341   2.973   8.643  10.410
16772SOL    HW150342   2.933   8.687  10.491
16772SOL    HW250343   2.932   8.680  10.327
16773SOL     OW50344   3.500   8.547  10.389
16773SOL    HW150345   3.505   8.628  10.448
16773SOL    HW250346   3.414   8.549  10.338
16774SOL     OW50347   2.777   7.537  10.712
16774SOL    HW150348   2.802   7.517  10.617
16774SOL    HW250349   2.849   7.593  10.754
16775SOL     OW50350   2.842   8.564  11.029
16775SOL    HW150351   2.743   8.570  11.039
16775SOL    HW250352   2.865   8.484  10.973
16776SOL     OW50353   2.567   8.498   9.678
16776SOL    HW150354   2.553   8.505   9.777
16776SOL    HW250355   2.651   8.447   9.660
16777SOL     OW50356   2.272   8.261  10.561
16777SOL    HW150357   2.358   8.273  10.611
16777SOL    HW250358   2.230   8.174  10.588
16778SOL     OW50359   3.136   7.834  10.572
16778SOL    HW150360   3.157   7.908  10.636
16778SOL    HW250361   3.047   7.851  10.529
16779SOL     OW50362   1.926   9.012  10.641
16779SOL    HW150363   1.880   9.094  10.607
16779SOL    HW250364   2.024   9.031  10.650
16780SOL     OW50365   2.229   8.548   9.811
16780SOL    HW150366   2.222   8.631   9.755
16780SOL    HW250367   2.233   8.468   9.751
16781SOL     OW50368   2.428   7.985  10.175
16781SOL    HW150369   2.440   8.051  10.101
16781SOL    HW250370   2.474   8.019  10.258
16782SOL     OW50371   3.114   8.796   9.698
16782SOL    HW150372   3.164   8.873   9.738
16782SOL    HW250373   3.019   8.798   9.730
16783SOL     OW50374   3.134   8.893  10.452
16783SOL    HW150375   3.181   8.906  10.539
16783SOL    HW250376   3.068   8.819  10.461
16784SOL     OW50377   3.444   8.087   9.782
16784SOL    HW150378   3.413   8.148   9.855
16784SOL    HW250379   3.494   8.139   9.713
16785SOL     OW50380   2.216   8.958  10.639
16785SOL    HW150381   2.195   8.914  10.552
16785SOL    HW250382   2.313   8.984  10.642
16786SOL     OW50383   2.264   8.199  10.908
16786SOL    HW150384   2.332   8.254  10.861
16786SOL    HW250385   2.304   8.111  10.935
16787SOL     OW50386   3.449   8.227  10.980
16787SOL    HW150387   3.357   8.265  10.975
16787SOL    HW250388   3.509   8.274  10.915
16788SOL     OW50389   2.875   7.553  11.080
16788SOL    HW150390   2.881   7.638  11.028
16788SOL    HW250391   2.907   7.477  11.023
16789SOL     OW50392   2.366   7.498  11.050
16789SOL    HW150393   2.324   7.441  10.980
16789SOL    HW250394   2.300   7.567  11.082
16790SOL     OW50395   2.435   8.318  10.339
16790SOL    HW150396   2.479   8.407  10.330
16790SOL    HW250397   2.372   8.318  10.416
16791SOL     OW50398   3.222   8.310  10.355
16791SOL    HW150399   3.147   8.310  10.289
16791SOL    HW250400   3.259   8.218  10.364
16792SOL     OW50401   3.071   7.973   9.585
16792SOL    HW150402   3.084   7.889   9.639
16792SOL    HW250403   3.042   8.047   9.645
16793SOL     OW50404   2.169   7.661  10.541
16793SOL    HW150405   2.146   7.698  10.631
16793SOL    HW250406   2.139   7.566  10.535
16794SOL     OW50407   1.899   8.758  10.592
16794SOL    HW150408   1.952   8.709  10.660
16794SOL    HW250409   1.921   8.856  10.597
16795SOL     OW50410   2.594   8.082  10.374
16795SOL    HW150411   2.653   8.056  10.298
16795SOL    HW250412   2.566   8.178  10.363
16796SOL     OW50413   3.590   8.383  11.164
16796SOL    HW150414   3.544   8.376  11.075
16796SOL    HW250415   3.528   8.427  11.230
16797SOL     OW50416   2.169   7.511   9.928
16797SOL    HW150417   2.158   7.605   9.961
16797SOL    HW250418   2.164   7.448  10.005
16798SOL     OW50419   3.484   7.815   9.684
16798SOL    HW150420   3.486   7.739   9.748
16798SOL    HW250421   3.436   7.892   9.724
16799SOL     OW50422   2.885   8.214  10.276
16799SOL    HW150423   2.900   8.235  10.372
16799SOL    HW250424   2.855   8.119  10.267
16800SOL     OW50425   2.842   9.021  11.010
16800SOL    HW150426   2.822   9.065  10.922
16800SOL    HW250427   2.881   8.930  10.994
16801SOL     OW50428   3.721   8.966  10.915
16801SOL    HW150429   3.735   8.993  10.820
16801SOL    HW250430   3.804   8.988  10.968
16802SOL     OW50431   3.402   7.722   9.435
16802SOL    HW150432   3.341   7.647   9.458
16802SOL    HW250433   3.424   7.774   9.518
16803SOL     OW50434   3.165   8.286   9.352
16803SOL    HW150435   3.199   8.193   9.367
16803SOL    HW250436   3.183   8.313   9.257
16804SOL     OW50437   2.930   8.781  10.159
16804SOL    HW150438   2.937   8.697  10.104
16804SOL    HW250439   2.992   8.850  10.123
16805SOL     OW50440   2.181   8.258  10.259
16805SOL    HW150441   2.274   8.294  10.264
16805SOL    HW250442   2.175   8.173  10.311
16806SOL     OW50443   2.201   7.957  10.316
16806SOL    HW150444   2.149   7.874  10.299
16806SOL    HW250445   2.278   7.962  10.252
16807SOL     OW50446   3.000   7.828  10.988
16807SOL    HW150447   2.955   7.891  11.052
16807SOL    HW250448   3.093   7.859  10.971
16808SOL     OW50449   3.022   7.655  10.787
16808SOL    HW150450   3.022   7.719  10.864
16808SOL    HW250451   3.050   7.703  10.704
16809SOL     OW50452   1.870   8.774   9.510
16809SOL    HW150453   1.777   8.795   9.479
16809SOL    HW250454   1.880   8.675   9.523
16810SOL     OW50455   1.950   9.249  10.237
16810SOL    HW150456   1.908   9.163  10.210
16810SOL    HW250457   2.044   9.252  10.203
16811SOL     OW50458   2.366   9.016  10.220
16811SOL    HW150459   2.432   9.090  10.229
16811SOL    HW250460   2.410   8.937  10.178
16812SOL     OW50461   2.864   8.244  10.548
16812SOL    HW150462   2.905   8.212  10.634
16812SOL    HW250463   2.768   8.217  10.545
16813SOL     OW50464   1.902   7.992  10.424
16813SOL    HW150465   1.987   7.959  10.383
16813SOL    HW250466   1.915   8.007  10.522
16814SOL     OW50467   2.051   7.968  11.032
16814SOL    HW150468   2.110   7.928  10.962
16814SOL    HW250469   1.993   8.039  10.991
16815SOL     OW50470   3.231   8.398  10.970
16815SOL    HW150471   3.270   8.487  10.990
16815SOL    HW250472   3.241   8.378  10.873
16816SOL     OW50473   2.677   8.020   9.635
16816SOL    HW150474   2.684   7.931   9.589
16816SOL    HW250475   2.583   8.054   9.627
16817SOL     OW50476   3.519   8.052  10.516
16817SOL    HW150477   3.481   7.983  10.578
16817SOL    HW250478   3.601   8.016  10.472
16818SOL     OW50479   2.114   9.012  11.054
16818SOL    HW150480   2.084   9.069  11.130
16818SOL    HW250481   2.107   8.915  11.080
16819SOL     OW50482   2.533   7.912  10.579
16819SOL    HW150483   2.499   7.823  10.549
16819SOL    HW250484   2.559   7.966  10.499
16820SOL     OW50485   2.792   9.126  10.775
16820SOL    HW150486   2.768   9.108  10.680
16820SOL    HW250487   2.822   9.220  10.785
16821SOL     OW50488   2.335   7.948   9.501
16821SOL    HW150489   2.396   8.028   9.505
16821SOL    HW250490   2.240   7.979   9.508
16822SOL     OW50491   2.021   8.585  10.776
16822SOL    HW150492   2.043   8.524  10.852
16822SOL    HW250493   2.031   8.536  10.690
16823SOL     OW50494   3.209   8.507  10.544
16823SOL    HW150495   3.233   8.444  10.470
16823SOL    HW250496   3.119   8.547  10.526
16824SOL     OW50497   3.164   8.303   9.619
16824SOL    HW150498   3.078   8.272   9.661
16824SOL    HW250499   3.160   8.289   9.520
16825SOL     OW50500   3.621   9.195  10.464
16825SOL    HW150501   3.682   9.225  10.391
16825SOL    HW250502   3.583   9.106  10.442
16826SOL     OW50503   3.114   9.179  10.438
16826SOL    HW150504   3.198   9.184  10.384
16826SOL    HW250505   3.091   9.083  10.456
16827SOL     OW50506   1.945   8.706  10.332
16827SOL    HW150507   1.940   8.705  10.432
16827SOL    HW250508   1.862   8.665  10.294
16828SOL     OW50509   2.550   9.110  11.026
16828SOL    HW150510   2.494   9.191  11.035
16828SOL    HW250511   2.602   9.114  10.940
16829SOL     OW50512   3.588   7.583   9.833
16829SOL    HW150513   3.661   7.566   9.766
16829SOL    HW250514   3.557   7.496   9.871
16830SOL     OW50515   3.250   9.021   9.787
16830SOL    HW150516   3.317   9.033   9.713
16830SOL    HW250517   3.210   9.110   9.810
16831SOL     OW50518   1.992   9.242  11.161
16831SOL    HW150519   1.951   9.168  11.214
16831SOL    HW250520   2.056   9.293  11.219
16832SOL     OW50521   3.142   8.375   9.982
16832SOL    HW150522   3.202   8.294   9.984
16832SOL    HW250523   3.182   8.444   9.922
16833SOL     OW50524   2.692   8.721  10.732
16833SOL    HW150525   2.687   8.754  10.827
16833SOL    HW250526   2.606   8.740  10.686
16834SOL     OW50527   2.534   9.064   9.464
16834SOL    HW150528   2.543   9.074   9.365
16834SOL    HW250529   2.494   8.975   9.485
16835SOL     OW50530   3.512   9.168  10.704
16835SOL    HW150531   3.565   9.178  10.620
16835SOL    HW250532   3.485   9.258  10.738
16836SOL     OW50533   3.703   7.623  10.273
16836SOL    HW150534   3.742   7.538  10.237
16836SOL    HW250535   3.605   7.625  10.254
16837SOL     OW50536   2.125   7.774  10.030
16837SOL    HW150537   2.046   7.825   9.996
16837SOL    HW250538   2.116   7.759  10.128
16838SOL     OW50539   3.056   9.060   9.341
16838SOL    HW150540   3.062   8.967   9.378
16838SOL    HW250541   2.997   9.060   9.261
16839SOL     OW50542   2.684   8.450  10.682
16839SOL    HW150543   2.724   8.449  10.590
16839SOL    HW250544   2.694   8.542  10.722
16840SOL     OW50545   2.778   8.358   9.601
16840SOL    HW150546   2.841   8.396   9.533
16840SOL    HW250547   2.818   8.275   9.640
16841SOL     OW50548   3.366   9.055   9.354
16841SOL    HW150549   3.274   9.092   9.361
16841SOL    HW250550   3.404   9.075   9.264
16842SOL     OW50551   2.234   8.736  10.800
16842SOL    HW150552   2.221   8.829  10.766
16842SOL    HW250553   2.150   8.684  10.787
16843SOL     OW50554   3.476   8.740  10.599
16843SOL    HW150555   3.536   8.743  10.679
16843SOL    HW250556   3.401   8.804  10.612
16844SOL     OW50557   2.901   8.546  10.006
16844SOL    HW150558   2.831   8.499  10.060
16844SOL    HW250559   2.960   8.478   9.963
16845SOL     OW50560   2.876   7.684  10.281
16845SOL    HW150561   2.868   7.648  10.188
16845SOL    HW250562   2.874   7.608  10.346
16846SOL     OW50563   2.452   8.935   9.801
16846SOL    HW150564   2.494   8.877   9.731
16846SOL    HW250565   2.408   9.014   9.757
16847SOL     OW50566   3.571   7.833  10.691
16847SOL    HW150567   3.644   7.902  10.695
16847SOL    HW250568   3.599   7.758  10.632
16848SOL     OW50569   2.117   8.796   9.600
16848SOL    HW150570   2.021   8.797   9.573
16848SOL    HW250571   2.129   8.849   9.684
16849SOL     OW50572   1.967   8.461  11.036
16849SOL    HW150573   1.890   8.428  11.090
16849SOL    HW250574   2.052   8.431  11.078
16850SOL     OW50575   2.534   7.651  10.799
16850SOL    HW150576   2.624   7.635  10.759
16850SOL    HW250577   2.542   7.656  10.898
16851SOL     OW50578   1.937   7.793   9.343
16851SOL    HW150579   1.845   7.765   9.314
16851SOL    HW250580   1.968   7.870   9.287
16852SOL     OW50581   3.302   8.304  10.708
16852SOL    HW150582   3.245   8.356  10.645
16852SOL    HW250583   3.398   8.316  10.684
16853SOL     OW50584   1.934   7.614   9.628
16853SOL    HW150585   1.917   7.697   9.574
16853SOL    HW250586   2.024   7.577   9.606
16854SOL     OW50587   3.045   8.783   9.429
16854SOL    HW150588   2.946   8.772   9.431
16854SOL    HW250589   3.079   8.798   9.522
16855SOL     OW50590   2.475   8.290  10.741
16855SOL    HW150591   2.531   8.371  10.724
16855SOL    HW250592   2.534   8.210  10.744
16856SOL     OW50593   3.355   9.215  10.269
16856SOL    HW150594   3.388   9.279  10.200
16856SOL    HW250595   3.421   9.209  10.344
16857SOL     OW50596   2.578   8.013  11.018
16857SOL    HW150597   2.597   8.078  11.092
16857SOL    HW250598   2.638   7.933  11.027
16858SOL     OW50599   3.312   8.668  10.943
16858SOL    HW150600   3.303   8.658  11.042
16858SOL    HW250601   3.408   8.661  10.917
16859SOL     OW50602   2.252   9.189  10.870
16859SOL    HW150603   2.161   9.230  10.868
16859SOL    HW250604   2.245   9.095  10.902
16860SOL     OW50605   3.536   8.331  10.564
16860SOL    HW150606   3.509   8.242  10.527
16860SOL    HW250607   3.537   8.399  10.491
16861SOL     OW50608   3.087   7.773   9.759
16861SOL    HW150609   3.152   7.699   9.748
16861SOL    HW250610   3.107   7.823   9.843
16862SOL     OW50611   2.456   8.193   9.962
16862SOL    HW150612   2.506   8.278   9.943
16862SOL    HW250613   2.368   8.195   9.914
16863SOL     OW50614   3.639   7.790  10.952
16863SOL    HW150615   3.622   7.821  10.858
16863SOL    HW250616   3.555   7.753  10.990
16864SOL     OW50617   3.592   8.382  10.827
16864SOL    HW150618   3.630   8.473  10.842
16864SOL    HW250619   3.584   8.365  10.728
16865SOL     OW50620   2.721   8.822   9.326
16865SOL    HW150621   2.675   8.837   9.414
16865SOL    HW250622   2.765   8.907   9.296
16866SOL     OW50623   2.523   9.238  10.263
16866SOL    HW150624   2.477   9.326  10.250
16866SOL    HW250625   2.622   9.250  10.256
16867SOL     OW50626   2.721   8.404  10.171
16867SOL    HW150627   2.775   8.335  10.219
16867SOL    HW250628   2.689   8.473  10.237
16868SOL     OW50629   2.945   8.432   9.397
16868SOL    HW150630   2.922   8.485   9.315
16868SOL    HW250631   3.026   8.376   9.378
16869SOL     OW50632   3.723   9.017  10.161
16869SOL    HW150633   3.652   9.005  10.091
16869SOL    HW250634   3.724   8.938  10.221
16870SOL     OW50635   2.083   8.762  11.154
16870SOL    HW150636   2.018   8.689  11.133
16870SOL    HW250637   2.087   8.776  11.252
16871SOL     OW50638   1.941   8.688   9.963
16871SOL    HW150639   1.940   8.641  10.051
16871SOL    HW250640   2.023   8.660   9.912
16872SOL     OW50641   2.534   8.839  10.934
16872SOL    HW150642   2.456   8.789  10.972
16872SOL    HW250643   2.531   8.934  10.965
16873SOL     OW50644   3.686   7.640  10.537
16873SOL    HW150645   3.682   7.550  10.581
16873SOL    HW250646   3.689   7.629  10.438
16874SOL     OW50647   2.290   7.872   9.830
16874SOL    HW150648   2.320   7.800   9.768
16874SOL    HW250649   2.251   7.832   9.913
16875SOL     OW50650   3.567   8.935  10.414
16875SOL    HW150651   3.474   8.910  10.387
16875SOL    HW250652   3.593   8.885  10.496
16876SOL     OW50653   2.179   7.995  10.590
16876SOL    HW150654   2.217   7.936  10.662
16876SOL    HW250655   2.219   7.969  10.502
16877SOL     OW50656   2.674   9.034   9.997
16877SOL    HW150657   2.706   9.044   9.903
16877SOL    HW250658   2.595   8.972   9.999
16878SOL     OW50659   3.286   7.662  10.422
16878SOL    HW150660   3.338   7.597  10.477
16878SOL    HW250661   3.237   7.725  10.483
16879SOL     OW50662   2.863   7.482  10.464
16879SOL    HW150663   2.800   7.410  10.433
16879SOL    HW250664   2.956   7.446  10.464
16880SOL     OW50665   2.632   8.778   9.611
16880SOL    HW150666   2.586   8.691   9.628
16880SOL    HW250667   2.723   8.775   9.652
16881SOL     OW50668   2.480   9.015  10.594
16881SOL    HW150669   2.475   9.097  10.651
16881SOL    HW250670   2.569   9.012  10.549
16882SOL     OW50671   3.214   7.500   9.478
16882SOL    HW150672   3.249   7.459   9.394
16882SOL    HW250673   3.124   7.462   9.498
16883SOL     OW50674   3.162   7.901  10.001
16883SOL    HW150675   3.103   7.981  10.005
16883SOL    HW250676   3.177   7.866  10.094
16884SOL     OW50677   3.455   7.669  10.192
16884SOL    HW150678   3.371   7.668  10.246
16884SOL    HW250679   3.457   7.752  10.136
16885SOL     OW50680   1.901   8.525   9.610
16885SOL    HW150681   2.000   8.514   9.601
16885SOL    HW250682   1.861   8.439   9.642
16886SOL     OW50683   2.737   9.094   9.647
16886SOL    HW150684   2.660   9.059   9.593
16886SOL    HW250685   2.705   9.165   9.709
16887SOL     OW50686   2.092   8.076  11.285
16887SOL    HW150687   1.999   8.074  11.322
16887SOL    HW250688   2.093   8.037  11.193
16888SOL     OW50689   2.087   7.723  12.168
16888SOL    HW150690   2.122   7.706  12.260
16888SOL    HW250691   1.999   7.678  12.156
16889SOL     OW50692   1.881   7.816  11.819
16889SOL    HW150693   1.799   7.859  11.858
16889SOL    HW250694   1.853   7.743  11.756
16890SOL     OW50695   2.431   8.723  12.337
16890SOL    HW150696   2.338   8.716  12.300
16890SOL    HW250697   2.442   8.812  12.381
16891SOL     OW50698   3.417   8.959  11.875
16891SOL    HW150699   3.360   8.943  11.956
16891SOL    HW250700   3.358   8.969  11.795
16892SOL     OW50701   2.997   8.151  11.889
16892SOL    HW150702   3.054   8.229  11.864
16892SOL    HW250703   2.937   8.177  11.965
16893SOL     OW50704   3.617   8.055  11.403
16893SOL    HW150705   3.605   8.042  11.304
16893SOL    HW250706   3.587   7.974  11.452
16894SOL     OW50707   2.630   8.592  12.195
16894SOL    HW150708   2.552   8.609  12.255
16894SOL    HW250709   2.664   8.679  12.159
16895SOL     OW50710   2.547   8.460  11.837
16895SOL    HW150711   2.616   8.444  11.907
16895SOL    HW250712   2.474   8.517  11.875
16896SOL     OW50713   2.197   8.883  12.233
16896SOL    HW150714   2.119   8.852  12.180
16896SOL    HW250715   2.255   8.941  12.176
16897SOL     OW50716   3.322   8.953  12.511
16897SOL    HW150717   3.346   9.047  12.537
16897SOL    HW250718   3.306   8.899  12.593
16898SOL     OW50719   2.300   7.840  12.671
16898SOL    HW150720   2.382   7.784  12.680
16898SOL    HW250721   2.219   7.782  12.675
16899SOL     OW50722   3.465   7.895  11.909
16899SOL    HW150723   3.391   7.941  11.859
16899SOL    HW250724   3.516   7.963  11.962
16900SOL     OW50725   2.093   9.161  11.655
16900SOL    HW150726   2.127   9.238  11.709
16900SOL    HW250727   2.137   9.161  11.565
16901SOL     OW50728   2.092   8.882  11.710
16901SOL    HW150729   2.066   8.978  11.710
16901SOL    HW250730   2.021   8.828  11.755
16902SOL     OW50731   2.102   8.539  12.058
16902SOL    HW150732   2.116   8.455  12.110
16902SOL    HW250733   2.047   8.603  12.113
16903SOL     OW50734   2.482   9.234  12.611
16903SOL    HW150735   2.390   9.217  12.646
16903SOL    HW250736   2.510   9.326  12.637
16904SOL     OW50737   2.468   8.412  11.295
16904SOL    HW150738   2.475   8.496  11.241
16904SOL    HW250739   2.514   8.425  11.383
16905SOL     OW50740   3.456   7.562  12.652
16905SOL    HW150741   3.438   7.629  12.580
16905SOL    HW250742   3.453   7.608  12.741
16906SOL     OW50743   1.984   8.091  11.735
16906SOL    HW150744   1.939   8.003  11.752
16906SOL    HW250745   1.983   8.145  11.819
16907SOL     OW50746   3.704   9.215  11.531
16907SOL    HW150747   3.758   9.186  11.611
16907SOL    HW250748   3.734   9.305  11.502
16908SOL     OW50749   1.889   9.044  11.289
16908SOL    HW150750   1.870   8.948  11.310
16908SOL    HW250751   1.856   9.102  11.364
16909SOL     OW50752   3.551   8.370  11.784
16909SOL    HW150753   3.646   8.341  11.792
16909SOL    HW250754   3.543   8.435  11.709
16910SOL     OW50755   3.503   8.556  11.604
16910SOL    HW150756   3.589   8.558  11.552
16910SOL    HW250757   3.517   8.603  11.692
16911SOL     OW50758   2.475   8.813  11.898
16911SOL    HW150759   2.426   8.726  11.907
16911SOL    HW250760   2.452   8.856  11.811
16912SOL     OW50761   2.671   7.452  11.674
16912SOL    HW150762   2.711   7.543  11.665
16912SOL    HW250763   2.571   7.460  11.680
16913SOL     OW50764   2.059   8.424  12.436
16913SOL    HW150765   2.148   8.379  12.422
16913SOL    HW250766   1.986   8.359  12.417
16914SOL     OW50767   3.387   8.447  11.362
16914SOL    HW150768   3.324   8.371  11.375
16914SOL    HW250769   3.435   8.465  11.448
16915SOL     OW50770   2.179   7.699  12.973
16915SOL    HW150771   2.250   7.770  12.979
16915SOL    HW250772   2.091   7.738  13.001
16916SOL     OW50773   3.328   8.865  12.125
16916SOL    HW150774   3.269   8.871  12.205
16916SOL    HW250775   3.313   8.777  12.079
16917SOL     OW50776   3.529   9.162  11.744
16917SOL    HW150777   3.488   9.139  11.656
16917SOL    HW250778   3.511   9.088  11.809
16918SOL     OW50779   2.460   8.177  11.442
16918SOL    HW150780   2.484   8.246  11.374
16918SOL    HW250781   2.382   8.210  11.496
16919SOL     OW50782   3.143   7.793  12.116
16919SOL    HW150783   3.057   7.743  12.103
16919SOL    HW250784   3.205   7.739  12.172
16920SOL     OW50785   3.438   9.110  11.479
16920SOL    HW150786   3.527   9.156  11.482
16920SOL    HW250787   3.417   9.086  11.384
16921SOL     OW50788   2.669   8.053  12.637
16921SOL    HW150789   2.622   8.050  12.726
16921SOL    HW250790   2.618   7.998  12.571
16922SOL     OW50791   2.853   7.858  12.414
16922SOL    HW150792   2.776   7.892  12.468
16922SOL    HW250793   2.819   7.807  12.335
16923SOL     OW50794   2.903   8.149  11.601
16923SOL    HW150795   2.929   8.145  11.697
16923SOL    HW250796   2.818   8.098  11.587
16924SOL     OW50797   1.938   8.259  11.961
16924SOL    HW150798   2.037   8.247  11.970
16924SOL    HW250799   1.914   8.354  11.982
16925SOL     OW50800   1.992   9.269  12.743
16925SOL    HW150801   1.982   9.254  12.842
16925SOL    HW250802   1.906   9.305  12.707
16926SOL     OW50803   2.727   7.796  11.367
16926SOL    HW150804   2.786   7.859  11.318
16926SOL    HW250805   2.746   7.702  11.338
16927SOL     OW50806   3.224   8.592  11.717
16927SOL    HW150807   3.307   8.563  11.669
16927SOL    HW250808   3.175   8.659  11.661
16928SOL     OW50809   2.412   7.644  12.057
16928SOL    HW150810   2.407   7.639  12.157
16928SOL    HW250811   2.414   7.740  12.028
16929SOL     OW50812   2.870   8.904  11.649
16929SOL    HW150813   2.824   8.976  11.597
16929SOL    HW250814   2.866   8.924  11.747
16930SOL     OW50815   2.213   9.249  12.025
16930SOL    HW150816   2.263   9.163  12.031
16930SOL    HW250817   2.278   9.326  12.022
16931SOL     OW50818   3.657   8.514  12.045
16931SOL    HW150819   3.595   8.499  11.969
16931SOL    HW250820   3.605   8.525  12.130
16932SOL     OW50821   2.183   8.391  11.414
16932SOL    HW150822   2.265   8.430  11.372
16932SOL    HW250823   2.156   8.309  11.365
16933SOL     OW50824   3.320   8.183  11.900
16933SOL    HW150825   3.315   8.118  11.975
16933SOL    HW250826   3.400   8.242  11.913
16934SOL     OW50827   2.973   9.224  11.409
16934SOL    HW150828   2.913   9.162  11.459
16934SOL    HW250829   3.004   9.180  11.324
16935SOL     OW50830   2.064   7.733  12.670
16935SOL    HW150831   1.984   7.793  12.657
16935SOL    HW250832   2.054   7.684  12.756
16936SOL     OW50833   3.494   8.825  11.253
16936SOL    HW150834   3.462   8.919  11.243
16936SOL    HW250835   3.418   8.762  11.241
16937SOL     OW50836   2.326   9.191  11.495
16937SOL    HW150837   2.359   9.230  11.581
16937SOL    HW250838   2.402   9.184  11.430
16938SOL     OW50839   3.262   7.555  11.598
16938SOL    HW150840   3.238   7.518  11.508
16938SOL    HW250841   3.361   7.571  11.602
16939SOL     OW50842   2.111   9.233  12.413
16939SOL    HW150843   2.168   9.168  12.463
16939SOL    HW250844   2.095   9.200  12.320
16940SOL     OW50845   2.802   9.146  12.076
16940SOL    HW150846   2.882   9.089  12.097
16940SOL    HW250847   2.753   9.106  11.999
16941SOL     OW50848   2.244   8.148  11.652
16941SOL    HW150849   2.289   8.058  11.649
16941SOL    HW250850   2.150   8.137  11.685
16942SOL     OW50851   2.476   7.570  11.289
16942SOL    HW150852   2.574   7.548  11.296
16942SOL    HW250853   2.445   7.553  11.196
16943SOL     OW50854   2.750   8.962  12.367
16943SOL    HW150855   2.727   8.937  12.273
16943SOL    HW250856   2.811   8.893  12.406
16944SOL     OW50857   2.665   8.850  12.096
16944SOL    HW150858   2.755   8.864  12.054
16944SOL    HW250859   2.594   8.852  12.025
16945SOL     OW50860   2.784   7.951  12.071
16945SOL    HW150861   2.759   7.942  11.975
16945SOL    HW250862   2.832   7.869  12.102
16946SOL     OW50863   2.401   7.512  11.684
16946SOL    HW150864   2.320   7.513  11.742
16946SOL    HW250865   2.404   7.595  11.629
16947SOL     OW50866   3.296   8.636  11.213
16947SOL    HW150867   3.328   8.560  11.270
16947SOL    HW250868   3.204   8.663  11.243
16948SOL     OW50869   2.159   7.483  11.343
16948SOL    HW150870   2.208   7.567  11.322
16948SOL    HW250871   2.221   7.418  11.388
16949SOL     OW50872   2.797   7.684  11.652
16949SOL    HW150873   2.749   7.725  11.574
16949SOL    HW250874   2.896   7.682  11.633
16950SOL     OW50875   3.089   9.018  11.965
16950SOL    HW150876   3.110   9.092  11.900
16950SOL    HW250877   3.157   9.018  12.038
16951SOL     OW50878   2.321   8.600  11.913
16951SOL    HW150879   2.250   8.573  11.978
16951SOL    HW250880   2.295   8.572  11.820
16952SOL     OW50881   3.133   9.245  11.763
16952SOL    HW150882   3.177   9.309  11.699
16952SOL    HW250883   3.083   9.297  11.833
16953SOL     OW50884   2.894   7.997  11.188
16953SOL    HW150885   2.853   8.079  11.149
16953SOL    HW250886   2.958   8.023  11.261
16954SOL     OW50887   1.940   8.004  12.558
16954SOL    HW150888   2.032   8.003  12.517
16954SOL    HW250889   1.934   8.078  12.625
16955SOL     OW50890   2.423   7.670  12.319
16955SOL    HW150891   2.461   7.586  12.356
16955SOL    HW250892   2.335   7.689  12.363
16956SOL     OW50893   2.728   7.902  11.814
16956SOL    HW150894   2.696   7.974  11.752
16956SOL    HW250895   2.752   7.821  11.761
16957SOL     OW50896   2.879   7.487  11.925
16957SOL    HW150897   2.807   7.492  11.856
16957SOL    HW250898   2.855   7.418  11.994
16958SOL     OW50899   3.291   8.621  12.039
16958SOL    HW150900   3.236   8.537  12.032
16958SOL    HW250901   3.317   8.650  11.947
16959SOL     OW50902   3.328   8.038  12.164
16959SOL    HW150903   3.298   7.943  12.171
16959SOL    HW250904   3.401   8.054  12.230
16960SOL     OW50905   3.719   8.281  11.549
16960SOL    HW150906   3.761   8.217  11.613
16960SOL    HW250907   3.681   8.230  11.471
16961SOL     OW50908   2.350   8.833  11.346
16961SOL    HW150909   2.263   8.818  11.393
16961SOL    HW250910   2.333   8.859  11.251
16962SOL     OW50911   3.526   8.728  11.829
16962SOL    HW150912   3.625   8.736  11.843
16962SOL    HW250913   3.481   8.812  11.860
16963SOL     OW50914   3.252   8.023  11.250
16963SOL    HW150915   3.198   8.002  11.331
16963SOL    HW250916   3.343   7.982  11.259
16964SOL     OW50917   2.389   7.704  11.500
16964SOL    HW150918   2.416   7.645  11.425
16964SOL    HW250919   2.389   7.799  11.469
16965SOL     OW50920   2.926   8.795  12.512
16965SOL    HW150921   2.846   8.772  12.567
16965SOL    HW250922   3.009   8.769  12.561
16966SOL     OW50923   2.973   8.643  12.272
16966SOL    HW150924   2.933   8.687  12.353
16966SOL    HW250925   2.932   8.680  12.189
16967SOL     OW50926   3.500   8.547  12.251
16967SOL    HW150927   3.505   8.628  12.310
16967SOL    HW250928   3.414   8.549  12.200
16968SOL     OW50929   2.777   7.537  12.574
16968SOL    HW150930   2.802   7.517  12.479
16968SOL    HW250931   2.849   7.593  12.616
16969SOL     OW50932   2.567   8.498  11.540
16969SOL    HW150933   2.553   8.505  11.639
16969SOL    HW250934   2.651   8.447  11.522
16970SOL     OW50935   2.272   8.261  12.423
16970SOL    HW150936   2.358   8.273  12.473
16970SOL    HW250937   2.230   8.174  12.450
16971SOL     OW50938   3.136   7.834  12.434
16971SOL    HW150939   3.157   7.908  12.498
16971SOL    HW250940   3.047   7.851  12.391
16972SOL     OW50941   1.926   9.012  12.503
16972SOL    HW150942   1.880   9.094  12.469
16972SOL    HW250943   2.024   9.031  12.512
16973SOL     OW50944   2.229   8.548  11.673
16973SOL    HW150945   2.222   8.631  11.617
16973SOL    HW250946   2.233   8.468  11.613
16974SOL     OW50947   2.428   7.985  12.037
16974SOL    HW150948   2.440   8.051  11.963
16974SOL    HW250949   2.474   8.019  12.120
16975SOL     OW50950   3.114   8.796  11.560
16975SOL    HW150951   3.164   8.873  11.600
16975SOL    HW250952   3.019   8.798  11.592
16976SOL     OW50953   3.134   8.893  12.314
16976SOL    HW150954   3.181   8.906  12.401
16976SOL    HW250955   3.068   8.819  12.323
16977SOL     OW50956   3.444   8.087  11.644
16977SOL    HW150957   3.413   8.148  11.717
16977SOL    HW250958   3.494   8.139  11.575
16978SOL     OW50959   2.216   8.958  12.501
16978SOL    HW150960   2.195   8.914  12.414
16978SOL    HW250961   2.313   8.984  12.504
16979SOL     OW50962   2.264   8.199  12.770
16979SOL    HW150963   2.332   8.254  12.723
16979SOL    HW250964   2.304   8.111  12.797
16980SOL     OW50965   3.449   8.227  12.842
16980SOL    HW150966   3.357   8.265  12.837
16980SOL    HW250967   3.509   8.274  12.777
16981SOL     OW50968   2.435   8.318  12.201
16981SOL    HW150969   2.479   8.407  12.192
16981SOL    HW250970   2.372   8.318  12.278
16982SOL     OW50971   3.222   8.310  12.217
16982SOL    HW150972   3.147   8.310  12.151
16982SOL    HW250973   3.259   8.218  12.226
16983SOL     OW50974   3.071   7.973  11.447
16983SOL    HW150975   3.084   7.889  11.501
16983SOL    HW250976   3.042   8.047  11.507
16984SOL     OW50977   2.169   7.661  12.403
16984SOL    HW150978   2.146   7.698  12.493
16984SOL    HW250979   2.139   7.566  12.397
16985SOL     OW50980   1.899   8.758  12.454
16985SOL    HW150981   1.952   8.709  12.522
16985SOL    HW250982   1.921   8.856  12.459
16986SOL     OW50983   2.594   8.082  12.236
16986SOL    HW150984   2.653   8.056  12.160
16986SOL    HW250985   2.566   8.178  12.225
16987SOL     OW50986   2.169   7.511  11.790
16987SOL    HW150987   2.158   7.605  11.823
16987SOL    HW250988   2.164   7.448  11.867
16988SOL     OW50989   3.484   7.815  11.546
16988SOL    HW150990   3.486   7.739  11.610
16988SOL    HW250991   3.436   7.892  11.586
16989SOL     OW50992   2.885   8.214  12.138
16989SOL    HW150993   2.900   8.235  12.234
16989SOL    HW250994   2.855   8.119  12.129
16990SOL     OW50995   2.842   9.021  12.872
16990SOL    HW150996   2.822   9.065  12.784
16990SOL    HW250997   2.881   8.930  12.856
16991SOL     OW50998   3.402   7.722  11.297
16991SOL    HW150999   3.341   7.647  11.320
16991SOL    HW251000   3.424   7.774  11.380
16992SOL     OW51001   3.165   8.286  11.214
16992SOL    HW151002   3.199   8.193  11.229
16992SOL    HW251003   3.183   8.313  11.119
16993SOL     OW51004   2.930   8.781  12.021
16993SOL    HW151005   2.937   8.697  11.966
16993SOL    HW251006   2.992   8.850  11.985
16994SOL     OW51007   2.181   8.258  12.121
16994SOL    HW151008   2.274   8.294  12.126
16994SOL    HW251009   2.175   8.173  12.173
16995SOL     OW51010   2.201   7.957  12.178
16995SOL    HW151011   2.149   7.874  12.161
16995SOL    HW251012   2.278   7.962  12.114
16996SOL     OW51013   3.000   7.828  12.850
16996SOL    HW151014   2.955   7.891  12.914
16996SOL    HW251015   3.093   7.859  12.833
16997SOL     OW51016   3.022   7.655  12.649
16997SOL    HW151017   3.022   7.719  12.726
16997SOL    HW251018   3.050   7.703  12.566
16998SOL     OW51019   1.870   8.774  11.372
16998SOL    HW151020   1.777   8.795  11.341
16998SOL    HW251021   1.880   8.675  11.385
16999SOL     OW51022   1.950   9.249  12.099
16999SOL    HW151023   1.908   9.163  12.072
16999SOL    HW251024   2.044   9.252  12.065
17000SOL     OW51025   2.366   9.016  12.082
17000SOL    HW151026   2.432   9.090  12.091
17000SOL    HW251027   2.410   8.937  12.040
17001SOL     OW51028   2.864   8.244  12.410
17001SOL    HW151029   2.905   8.212  12.496
17001SOL    HW251030   2.768   8.217  12.407
17002SOL     OW51031   1.902   7.992  12.286
17002SOL    HW151032   1.987   7.959  12.245
17002SOL    HW251033   1.915   8.007  12.384
17003SOL     OW51034   2.677   8.020  11.497
17003SOL    HW151035   2.684   7.931  11.451
17003SOL    HW251036   2.583   8.054  11.489
17004SOL     OW51037   3.519   8.052  12.378
17004SOL    HW151038   3.481   7.983  12.440
17004SOL    HW251039   3.601   8.016  12.334
17005SOL     OW51040   2.533   7.912  12.441
17005SOL    HW151041   2.499   7.823  12.411
17005SOL    HW251042   2.559   7.966  12.361
17006SOL     OW51043   2.792   9.126  12.637
17006SOL    HW151044   2.768   9.108  12.542
17006SOL    HW251045   2.822   9.220  12.647
17007SOL     OW51046   2.335   7.948  11.363
17007SOL    HW151047   2.396   8.028  11.367
17007SOL    HW251048   2.240   7.979  11.370
17008SOL     OW51049   2.021   8.585  12.638
17008SOL    HW151050   2.043   8.524  12.714
17008SOL    HW251051   2.031   8.536  12.552
17009SOL     OW51052   3.209   8.507  12.406
17009SOL    HW151053   3.233   8.444  12.332
17009SOL    HW251054   3.119   8.547  12.388
17010SOL     OW51055   3.164   8.303  11.481
17010SOL    HW151056   3.078   8.272  11.523
17010SOL    HW251057   3.160   8.289  11.382
17011SOL     OW51058   3.621   9.195  12.326
17011SOL    HW151059   3.682   9.225  12.253
17011SOL    HW251060   3.583   9.106  12.304
17012SOL     OW51061   3.114   9.179  12.300
17012SOL    HW151062   3.198   9.184  12.246
17012SOL    HW251063   3.091   9.083  12.318
17013SOL     OW51064   1.945   8.706  12.194
17013SOL    HW151065   1.940   8.705  12.294
17013SOL    HW251066   1.862   8.665  12.156
17014SOL     OW51067   3.588   7.583  11.695
17014SOL    HW151068   3.661   7.566  11.628
17014SOL    HW251069   3.557   7.496  11.733
17015SOL     OW51070   3.250   9.021  11.649
17015SOL    HW151071   3.317   9.033  11.575
17015SOL    HW251072   3.210   9.110  11.672
17016SOL     OW51073   3.142   8.375  11.844
17016SOL    HW151074   3.202   8.294  11.846
17016SOL    HW251075   3.182   8.444  11.784
17017SOL     OW51076   2.534   9.064  11.326
17017SOL    HW151077   2.543   9.074  11.227
17017SOL    HW251078   2.494   8.975  11.347
17018SOL     OW51079   3.512   9.168  12.566
17018SOL    HW151080   3.565   9.178  12.482
17018SOL    HW251081   3.485   9.258  12.600
17019SOL     OW51082   3.703   7.623  12.135
17019SOL    HW151083   3.742   7.538  12.099
17019SOL    HW251084   3.605   7.625  12.116
17020SOL     OW51085   2.125   7.774  11.892
17020SOL    HW151086   2.046   7.825  11.858
17020SOL    HW251087   2.116   7.759  11.990
17021SOL     OW51088   3.056   9.060  11.203
17021SOL    HW151089   3.062   8.967  11.240
17021SOL    HW251090   2.997   9.060  11.123
17022SOL     OW51091   2.684   8.450  12.544
17022SOL    HW151092   2.724   8.449  12.452
17022SOL    HW251093   2.694   8.542  12.584
17023SOL     OW51094   2.778   8.358  11.463
17023SOL    HW151095   2.841   8.396  11.395
17023SOL    HW251096   2.818   8.275  11.502
17024SOL     OW51097   3.366   9.055  11.216
17024SOL    HW151098   3.274   9.092  11.223
17024SOL    HW251099   3.404   9.075  11.126
17025SOL     OW51100   2.234   8.736  12.662
17025SOL    HW151101   2.221   8.829  12.628
17025SOL    HW251102   2.150   8.684  12.649
17026SOL     OW51103   3.476   8.740  12.461
17026SOL    HW151104   3.536   8.743  12.541
17026SOL    HW251105   3.401   8.804  12.474
17027SOL     OW51106   2.901   8.546  11.868
17027SOL    HW151107   2.831   8.499  11.922
17027SOL    HW251108   2.960   8.478  11.825
17028SOL     OW51109   2.876   7.684  12.143
17028SOL    HW151110   2.868   7.648  12.050
17028SOL    HW251111   2.874   7.608  12.208
17029SOL     OW51112   2.452   8.935  11.663
17029SOL    HW151113   2.494   8.877  11.593
17029SOL    HW251114   2.408   9.014  11.619
17030SOL     OW51115   3.571   7.833  12.553
17030SOL    HW151116   3.644   7.902  12.557
17030SOL    HW251117   3.599   7.758  12.494
17031SOL     OW51118   2.117   8.796  11.462
17031SOL    HW151119   2.021   8.797  11.435
17031SOL    HW251120   2.129   8.849  11.546
17032SOL     OW51121   1.937   7.793  11.205
17032SOL    HW151122   1.845   7.765  11.176
17032SOL    HW251123   1.968   7.870  11.149
17033SOL     OW51124   3.302   8.304  12.570
17033SOL    HW151125   3.245   8.356  12.507
17033SOL    HW251126   3.398   8.316  12.546
17034SOL     OW51127   1.934   7.614  11.490
17034SOL    HW151128   1.917   7.697  11.436
17034SOL    HW251129   2.024   7.577  11.468
17035SOL     OW51130   3.045   8.783  11.291
17035SOL    HW151131   2.946   8.772  11.293
17035SOL    HW251132   3.079   8.798  11.384
17036SOL     OW51133   2.475   8.290  12.603
17036SOL    HW151134   2.531   8.371  12.586
17036SOL    HW251135   2.534   8.210  12.606
17037SOL     OW51136   3.355   9.215  12.131
17037SOL    HW151137   3.388   9.279  12.062
17037SOL    HW251138   3.421   9.209  12.206
17038SOL     OW51139   2.252   9.189  12.732
17038SOL    HW151140   2.161   9.230  12.730
17038SOL    HW251141   2.245   9.095  12.764
17039SOL     OW51142   3.536   8.331  12.426
17039SOL    HW151143   3.509   8.242  12.389
17039SOL    HW251144   3.537   8.399  12.353
17040SOL     OW51145   3.087   7.773  11.621
17040SOL    HW151146   3.152   7.699  11.610
17040SOL    HW251147   3.107   7.823  11.705
17041SOL     OW51148   2.456   8.193  11.824
17041SOL    HW151149   2.506   8.278  11.805
17041SOL    HW251150   2.368   8.195  11.776
17042SOL     OW51151   3.639   7.790  12.814
17042SOL    HW151152   3.622   7.821  12.720
17042SOL    HW251153   3.555   7.753  12.852
17043SOL     OW51154   3.592   8.382  12.689
17043SOL    HW151155   3.630   8.473  12.704
17043SOL    HW251156   3.584   8.365  12.590
17044SOL     OW51157   2.721   8.822  11.188
17044SOL    HW151158   2.675   8.837  11.276
17044SOL    HW251159   2.765   8.907  11.158
17045SOL     OW51160   2.523   9.238  12.125
17045SOL    HW151161   2.477   9.326  12.112
17045SOL    HW251162   2.622   9.250  12.118
17046SOL     OW51163   2.721   8.404  12.033
17046SOL    HW151164   2.775   8.335  12.081
17046SOL    HW251165   2.689   8.473  12.099
17047SOL     OW51166   2.945   8.432  11.259
17047SOL    HW151167   2.922   8.485  11.177
17047SOL    HW251168   3.026   8.376  11.240
17048SOL     OW51169   3.723   9.017  12.023
17048SOL    HW151170   3.652   9.005  11.953
17048SOL    HW251171   3.724   8.938  12.083
17049SOL     OW51172   1.941   8.688  11.825
17049SOL    HW151173   1.940   8.641  11.913
17049SOL    HW251174   2.023   8.660  11.774
17050SOL     OW51175   3.686   7.640  12.399
17050SOL    HW151176   3.682   7.550  12.443
17050SOL    HW251177   3.689   7.629  12.300
17051SOL     OW51178   2.290   7.872  11.692
17051SOL    HW151179   2.320   7.800  11.630
17051SOL    HW251180   2.251   7.832  11.775
17052SOL     OW51181   3.567   8.935  12.276
17052SOL    HW151182   3.474   8.910  12.249
17052SOL    HW251183   3.593   8.885  12.358
17053SOL     OW51184   2.179   7.995  12.452
17053SOL    HW151185   2.217   7.936  12.524
17053SOL    HW251186   2.219   7.969  12.364
17054SOL     OW51187   2.674   9.034  11.859
17054SOL    HW151188   2.706   9.044  11.765
17054SOL    HW251189   2.595   8.972  11.861
17055SOL     OW51190   3.286   7.662  12.284
17055SOL    HW151191   3.338   7.597  12.339
17055SOL    HW251192   3.237   7.725  12.345
17056SOL     OW51193   2.863   7.482  12.326
17056SOL    HW151194   2.800   7.410  12.295
17056SOL    HW251195   2.956   7.446  12.326
17057SOL     OW51196   2.632   8.778  11.473
17057SOL    HW151197   2.586   8.691  11.490
17057SOL    HW251198   2.723   8.775  11.514
17058SOL     OW51199   2.480   9.015  12.456
17058SOL    HW151200   2.475   9.097  12.513
17058SOL    HW251201   2.569   9.012  12.411
17059SOL     OW51202   3.214   7.500  11.340
17059SOL    HW151203   3.249   7.459  11.256
17059SOL    HW251204   3.124   7.462  11.360
17060SOL     OW51205   3.162   7.901  11.863
17060SOL    HW151206   3.103   7.981  11.867
17060SOL    HW251207   3.177   7.866  11.956
17061SOL     OW51208   3.455   7.669  12.054
17061SOL    HW151209   3.371   7.668  12.108
17061SOL    HW251210   3.457   7.752  11.998
17062SOL     OW51211   1.901   8.525  11.472
17062SOL    HW151212   2.000   8.514  11.463
17062SOL    HW251213   1.861   8.439  11.504
17063SOL     OW51214   2.737   9.094  11.509
17063SOL    HW151215   2.660   9.059  11.455
17063SOL    HW251216   2.705   9.165  11.571
17064SOL     OW51217   2.092   9.938   0.113
17064SOL    HW151218   1.999   9.936   0.150
17064SOL    HW251219   2.093   9.899   0.021
17065SOL     OW51220   2.087   9.585   0.996
17065SOL    HW151221   2.122   9.568   1.088
17065SOL    HW251222   1.999   9.540   0.984
17066SOL     OW51223   1.881   9.678   0.647
17066SOL    HW151224   1.799   9.721   0.686
17066SOL    HW251225   1.853   9.605   0.584
17067SOL     OW51226   2.431  10.585   1.165
17067SOL    HW151227   2.338  10.578   1.128
17067SOL    HW251228   2.442  10.674   1.209
17068SOL     OW51229   3.417  10.821   0.703
17068SOL    HW151230   3.360  10.805   0.784
17068SOL    HW251231   3.358  10.831   0.623
17069SOL     OW51232   2.997  10.013   0.717
17069SOL    HW151233   3.054  10.091   0.692
17069SOL    HW251234   2.937  10.039   0.793
17070SOL     OW51235   3.617   9.917   0.231
17070SOL    HW151236   3.605   9.904   0.132
17070SOL    HW251237   3.587   9.836   0.280
17071SOL     OW51238   2.630  10.454   1.023
17071SOL    HW151239   2.552  10.471   1.083
17071SOL    HW251240   2.664  10.541   0.987
17072SOL     OW51241   2.712  10.108   1.823
17072SOL    HW151242   2.708  10.184   1.888
17072SOL    HW251243   2.734  10.144   1.732
17073SOL     OW51244   2.547  10.322   0.665
17073SOL    HW151245   2.616  10.306   0.735
17073SOL    HW251246   2.474  10.379   0.703
17074SOL     OW51247   2.548  10.471   1.803
17074SOL    HW151248   2.608  10.550   1.817
17074SOL    HW251249   2.462  10.502   1.762
17075SOL     OW51250   2.197  10.745   1.061
17075SOL    HW151251   2.119  10.714   1.008
17075SOL    HW251252   2.255  10.803   1.004
17076SOL     OW51253   3.322  10.815   1.339
17076SOL    HW151254   3.346  10.909   1.365
17076SOL    HW251255   3.306  10.761   1.421
17077SOL     OW51256   2.300   9.702   1.499
17077SOL    HW151257   2.382   9.646   1.508
17077SOL    HW251258   2.219   9.644   1.503
17078SOL     OW51259   3.465   9.757   0.737
17078SOL    HW151260   3.391   9.803   0.687
17078SOL    HW251261   3.516   9.825   0.790
17079SOL     OW51262   2.093  11.023   0.483
17079SOL    HW151263   2.127  11.100   0.537
17079SOL    HW251264   2.137  11.023   0.393
17080SOL     OW51265   2.989  10.651   1.690
17080SOL    HW151266   3.036  10.651   1.778
17080SOL    HW251267   2.941  10.564   1.679
17081SOL     OW51268   2.092  10.744   0.538
17081SOL    HW151269   2.066  10.840   0.538
17081SOL    HW251270   2.021  10.690   0.583
17082SOL     OW51271   2.102  10.401   0.886
17082SOL    HW151272   2.116  10.317   0.938
17082SOL    HW251273   2.047  10.465   0.941
17083SOL     OW51274   2.482  11.096   1.439
17083SOL    HW151275   2.390  11.079   1.474
17083SOL    HW251276   2.510  11.188   1.465
17084SOL     OW51277   2.468  10.274   0.123
17084SOL    HW151278   2.475  10.358   0.069
17084SOL    HW251279   2.514  10.287   0.211
17085SOL     OW51280   3.456   9.424   1.480
17085SOL    HW151281   3.438   9.491   1.408
17085SOL    HW251282   3.453   9.470   1.569
17086SOL     OW51283   1.984   9.953   0.563
17086SOL    HW151284   1.939   9.865   0.580
17086SOL    HW251285   1.983  10.007   0.647
17087SOL     OW51286   3.704  11.077   0.359
17087SOL    HW151287   3.758  11.048   0.439
17087SOL    HW251288   3.734  11.167   0.330
17088SOL     OW51289   1.889  10.906   0.117
17088SOL    HW151290   1.870  10.810   0.138
17088SOL    HW251291   1.856  10.964   0.192
17089SOL     OW51292   3.551  10.232   0.612
17089SOL    HW151293   3.646  10.203   0.620
17089SOL    HW251294   3.543  10.297   0.537
17090SOL     OW51295   3.503  10.418   0.432
17090SOL    HW151296   3.589  10.420   0.380
17090SOL    HW251297   3.517  10.465   0.520
17091SOL     OW51298   1.975  10.047   1.597
17091SOL    HW151299   2.063  10.034   1.642
17091SOL    HW251300   1.962  10.144   1.575
17092SOL     OW51301   2.475  10.675   0.726
17092SOL    HW151302   2.426  10.588   0.735
17092SOL    HW251303   2.452  10.718   0.639
17093SOL     OW51304   3.155  10.538   1.423
17093SOL    HW151305   3.192  10.465   1.365
17093SOL    HW251306   3.207  10.543   1.508
17094SOL     OW51307   2.671   9.314   0.502
17094SOL    HW151308   2.711   9.405   0.493
17094SOL    HW251309   2.571   9.322   0.508
17095SOL     OW51310   2.059  10.286   1.264
17095SOL    HW151311   2.148  10.241   1.250
17095SOL    HW251312   1.986  10.221   1.245
17096SOL     OW51313   3.387  10.309   0.190
17096SOL    HW151314   3.324  10.233   0.203
17096SOL    HW251315   3.435  10.327   0.276
17097SOL     OW51316   3.049  11.102   1.616
17097SOL    HW151317   3.073  11.162   1.540
17097SOL    HW251318   3.056  11.007   1.586
17098SOL     OW51319   2.179   9.561   1.801
17098SOL    HW151320   2.250   9.632   1.807
17098SOL    HW251321   2.091   9.600   1.829
17099SOL     OW51322   3.328  10.727   0.953
17099SOL    HW151323   3.269  10.733   1.033
17099SOL    HW251324   3.313  10.639   0.907
17100SOL     OW51325   3.529  11.024   0.572
17100SOL    HW151326   3.488  11.001   0.484
17100SOL    HW251327   3.511  10.950   0.637
17101SOL     OW51328   2.460  10.039   0.270
17101SOL    HW151329   2.484  10.108   0.202
17101SOL    HW251330   2.382  10.072   0.324
17102SOL     OW51331   3.143   9.655   0.944
17102SOL    HW151332   3.057   9.605   0.931
17102SOL    HW251333   3.205   9.601   1.000
17103SOL     OW51334   3.438  10.972   0.307
17103SOL    HW151335   3.527  11.018   0.310
17103SOL    HW251336   3.417  10.948   0.212
17104SOL     OW51337   2.669   9.915   1.465
17104SOL    HW151338   2.622   9.912   1.554
17104SOL    HW251339   2.618   9.860   1.399
17105SOL     OW51340   3.256   9.779   1.674
17105SOL    HW151341   3.236   9.822   1.762
17105SOL    HW251342   3.334   9.717   1.683
17106SOL     OW51343   2.835  10.200   1.572
17106SOL    HW151344   2.881  10.116   1.543
17106SOL    HW251345   2.779  10.234   1.497
17107SOL     OW51346   2.853   9.720   1.242
17107SOL    HW151347   2.776   9.754   1.296
17107SOL    HW251348   2.819   9.669   1.163
17108SOL     OW51349   2.903  10.011   0.429
17108SOL    HW151350   2.929  10.007   0.525
17108SOL    HW251351   2.818   9.960   0.415
17109SOL     OW51352   1.938  10.121   0.789
17109SOL    HW151353   2.037  10.109   0.798
17109SOL    HW251354   1.914  10.216   0.810
17110SOL     OW51355   1.992  11.131   1.571
17110SOL    HW151356   1.982  11.116   1.670
17110SOL    HW251357   1.906  11.167   1.535
17111SOL     OW51358   2.727   9.658   0.195
17111SOL    HW151359   2.786   9.721   0.146
17111SOL    HW251360   2.746   9.564   0.166
17112SOL     OW51361   3.581   9.895   1.831
17112SOL    HW151362   3.555   9.984   1.795
17112SOL    HW251363   3.579   9.827   1.758
17113SOL     OW51364   3.224  10.454   0.545
17113SOL    HW151365   3.307  10.425   0.497
17113SOL    HW251366   3.175  10.521   0.489
17114SOL     OW51367   2.412   9.506   0.885
17114SOL    HW151368   2.407   9.501   0.985
17114SOL    HW251369   2.414   9.602   0.856
17115SOL     OW51370   2.870  10.766   0.477
17115SOL    HW151371   2.824  10.838   0.425
17115SOL    HW251372   2.866  10.786   0.575
17116SOL     OW51373   2.213  11.111   0.853
17116SOL    HW151374   2.263  11.025   0.859
17116SOL    HW251375   2.278  11.188   0.850
17117SOL     OW51376   3.657  10.376   0.873
17117SOL    HW151377   3.595  10.361   0.797
17117SOL    HW251378   3.605  10.387   0.958
17118SOL     OW51379   3.089  10.860   1.506
17118SOL    HW151380   3.095  10.783   1.570
17118SOL    HW251381   3.037  10.834   1.426
17119SOL     OW51382   2.183  10.253   0.242
17119SOL    HW151383   2.265  10.292   0.200
17119SOL    HW251384   2.156  10.171   0.193
17120SOL     OW51385   3.320  10.045   0.728
17120SOL    HW151386   3.315   9.980   0.803
17120SOL    HW251387   3.400  10.104   0.741
17121SOL     OW51388   2.323  10.576   1.727
17121SOL    HW151389   2.273  10.577   1.641
17121SOL    HW251390   2.260  10.558   1.803
17122SOL     OW51391   2.973  11.086   0.237
17122SOL    HW151392   2.913  11.024   0.287
17122SOL    HW251393   3.004  11.042   0.152
17123SOL     OW51394   2.064   9.595   1.498
17123SOL    HW151395   1.984   9.655   1.485
17123SOL    HW251396   2.054   9.546   1.584
17124SOL     OW51397   3.494  10.687   0.081
17124SOL    HW151398   3.462  10.781   0.071
17124SOL    HW251399   3.418  10.624   0.069
17125SOL     OW51400   2.326  11.053   0.323
17125SOL    HW151401   2.359  11.092   0.409
17125SOL    HW251402   2.402  11.046   0.258
17126SOL     OW51403   3.262   9.417   0.426
17126SOL    HW151404   3.238   9.380   0.336
17126SOL    HW251405   3.361   9.433   0.430
17127SOL     OW51406   2.111  11.095   1.241
17127SOL    HW151407   2.168  11.030   1.291
17127SOL    HW251408   2.095  11.062   1.148
17128SOL     OW51409   2.802  11.008   0.904
17128SOL    HW151410   2.882  10.951   0.925
17128SOL    HW251411   2.753  10.968   0.827
17129SOL     OW51412   2.244  10.010   0.480
17129SOL    HW151413   2.289   9.920   0.477
17129SOL    HW251414   2.150   9.999   0.513
17130SOL     OW51415   3.409   9.532   1.729
17130SOL    HW151416   3.404   9.569   1.821
17130SOL    HW251417   3.337   9.463   1.717
17131SOL     OW51418   2.476   9.432   0.117
17131SOL    HW151419   2.574   9.410   0.124
17131SOL    HW251420   2.445   9.415   0.024
17132SOL     OW51421   2.643   9.574   1.749
17132SOL    HW151422   2.710   9.513   1.792
17132SOL    HW251423   2.570   9.593   1.814
17133SOL     OW51424   2.750  10.824   1.195
17133SOL    HW151425   2.727  10.799   1.101
17133SOL    HW251426   2.811  10.755   1.234
17134SOL     OW51427   3.213   9.900   1.433
17134SOL    HW151428   3.241   9.857   1.518
17134SOL    HW251429   3.238   9.996   1.434
17135SOL     OW51430   2.665  10.712   0.924
17135SOL    HW151431   2.755  10.726   0.882
17135SOL    HW251432   2.594  10.714   0.853
17136SOL     OW51433   2.784   9.813   0.899
17136SOL    HW151434   2.759   9.804   0.803
17136SOL    HW251435   2.832   9.731   0.930
17137SOL     OW51436   2.401   9.374   0.512
17137SOL    HW151437   2.320   9.375   0.570
17137SOL    HW251438   2.404   9.457   0.457
17138SOL     OW51439   3.296  10.498   0.041
17138SOL    HW151440   3.328  10.422   0.098
17138SOL    HW251441   3.204  10.525   0.071
17139SOL     OW51442   2.159   9.345   0.171
17139SOL    HW151443   2.208   9.429   0.150
17139SOL    HW251444   2.221   9.280   0.216
17140SOL     OW51445   2.797   9.546   0.480
17140SOL    HW151446   2.749   9.587   0.402
17140SOL    HW251447   2.896   9.544   0.461
17141SOL     OW51448   2.938   9.993   1.464
17141SOL    HW151449   2.858   9.932   1.467
17141SOL    HW251450   3.019   9.940   1.440
17142SOL     OW51451   3.089  10.880   0.793
17142SOL    HW151452   3.110  10.954   0.728
17142SOL    HW251453   3.157  10.880   0.866
17143SOL     OW51454   2.321  10.462   0.741
17143SOL    HW151455   2.250  10.435   0.806
17143SOL    HW251456   2.295  10.434   0.648
17144SOL     OW51457   3.133  11.107   0.591
17144SOL    HW151458   3.177  11.171   0.527
17144SOL    HW251459   3.083  11.159   0.661
17145SOL     OW51460   2.894   9.859   0.016
17145SOL    HW151461   2.853   9.941  -0.023
17145SOL    HW251462   2.958   9.885   0.089
17146SOL     OW51463   1.940   9.866   1.386
17146SOL    HW151464   2.032   9.865   1.345
17146SOL    HW251465   1.934   9.940   1.453
17147SOL     OW51466   2.423   9.532   1.147
17147SOL    HW151467   2.461   9.448   1.184
17147SOL    HW251468   2.335   9.551   1.191
17148SOL     OW51469   2.728   9.764   0.642
17148SOL    HW151470   2.696   9.836   0.580
17148SOL    HW251471   2.752   9.683   0.589
17149SOL     OW51472   2.879   9.349   0.753
17149SOL    HW151473   2.807   9.354   0.684
17149SOL    HW251474   2.855   9.280   0.822
17150SOL     OW51475   3.291  10.483   0.867
17150SOL    HW151476   3.236  10.399   0.860
17150SOL    HW251477   3.317  10.512   0.775
17151SOL     OW51478   3.328   9.900   0.992
17151SOL    HW151479   3.298   9.805   0.999
17151SOL    HW251480   3.401   9.916   1.058
17152SOL     OW51481   3.719  10.143   0.377
17152SOL    HW151482   3.761  10.079   0.441
17152SOL    HW251483   3.681  10.092   0.299
17153SOL     OW51484   2.350  10.695   0.174
17153SOL    HW151485   2.263  10.680   0.221
17153SOL    HW251486   2.333  10.721   0.079
17154SOL     OW51487   3.526  10.590   0.657
17154SOL    HW151488   3.625  10.598   0.671
17154SOL    HW251489   3.481  10.674   0.688
17155SOL     OW51490   3.252   9.885   0.078
17155SOL    HW151491   3.198   9.864   0.159
17155SOL    HW251492   3.343   9.844   0.087
17156SOL     OW51493   2.389   9.566   0.328
17156SOL    HW151494   2.416   9.507   0.253
17156SOL    HW251495   2.389   9.661   0.297
17157SOL     OW51496   3.616  10.533   1.588
17157SOL    HW151497   3.707  10.494   1.575
17157SOL    HW251498   3.624  10.629   1.612
17158SOL     OW51499   2.926  10.657   1.340
17158SOL    HW151500   2.846  10.634   1.395
17158SOL    HW251501   3.009  10.631   1.389
17159SOL     OW51502   3.454  10.939   1.625
17159SOL    HW151503   3.481  10.973   1.535
17159SOL    HW251504   3.533  10.901   1.671
17160SOL     OW51505   2.973  10.505   1.100
17160SOL    HW151506   2.933  10.549   1.181
17160SOL    HW251507   2.932  10.542   1.017
17161SOL     OW51508   3.500  10.409   1.079
17161SOL    HW151509   3.505  10.490   1.138
17161SOL    HW251510   3.414  10.411   1.028
17162SOL     OW51511   2.777   9.399   1.402
17162SOL    HW151512   2.802   9.379   1.307
17162SOL    HW251513   2.849   9.455   1.444
17163SOL     OW51514   2.842  10.426   1.719
17163SOL    HW151515   2.743  10.432   1.729
17163SOL    HW251516   2.865  10.346   1.663
17164SOL     OW51517   2.567  10.360   0.368
17164SOL    HW151518   2.553  10.367   0.467
17164SOL    HW251519   2.651  10.309   0.350
17165SOL     OW51520   2.272  10.123   1.251
17165SOL    HW151521   2.358  10.135   1.301
17165SOL    HW251522   2.230  10.036   1.278
17166SOL     OW51523   3.136   9.696   1.262
17166SOL    HW151524   3.157   9.770   1.326
17166SOL    HW251525   3.047   9.713   1.219
17167SOL     OW51526   1.926  10.874   1.331
17167SOL    HW151527   1.880  10.956   1.297
17167SOL    HW251528   2.024  10.893   1.340
17168SOL     OW51529   2.229  10.410   0.501
17168SOL    HW151530   2.222  10.493   0.445
17168SOL    HW251531   2.233  10.330   0.441
17169SOL     OW51532   2.428   9.847   0.865
17169SOL    HW151533   2.440   9.913   0.791
17169SOL    HW251534   2.474   9.881   0.948
17170SOL     OW51535   3.114  10.658   0.388
17170SOL    HW151536   3.164  10.735   0.428
17170SOL    HW251537   3.019  10.660   0.420
17171SOL     OW51538   3.134  10.755   1.142
17171SOL    HW151539   3.181  10.768   1.229
17171SOL    HW251540   3.068  10.681   1.151
17172SOL     OW51541   3.444   9.949   0.472
17172SOL    HW151542   3.413  10.010   0.545
17172SOL    HW251543   3.494  10.001   0.403
17173SOL     OW51544   2.216  10.820   1.329
17173SOL    HW151545   2.195  10.776   1.242
17173SOL    HW251546   2.313  10.846   1.332
17174SOL     OW51547   2.264  10.061   1.598
17174SOL    HW151548   2.332  10.116   1.551
17174SOL    HW251549   2.304   9.973   1.625
17175SOL     OW51550   3.449  10.089   1.670
17175SOL    HW151551   3.357  10.127   1.665
17175SOL    HW251552   3.509  10.136   1.605
17176SOL     OW51553   2.875   9.415   1.770
17176SOL    HW151554   2.881   9.500   1.718
17176SOL    HW251555   2.907   9.339   1.713
17177SOL     OW51556   2.366   9.360   1.740
17177SOL    HW151557   2.324   9.303   1.670
17177SOL    HW251558   2.300   9.429   1.772
17178SOL     OW51559   2.435  10.180   1.029
17178SOL    HW151560   2.479  10.269   1.020
17178SOL    HW251561   2.372  10.180   1.106
17179SOL     OW51562   3.222  10.172   1.045
17179SOL    HW151563   3.147  10.172   0.979
17179SOL    HW251564   3.259  10.080   1.054
17180SOL     OW51565   3.071   9.835   0.275
17180SOL    HW151566   3.084   9.751   0.329
17180SOL    HW251567   3.042   9.909   0.335
17181SOL     OW51568   2.169   9.523   1.231
17181SOL    HW151569   2.146   9.560   1.321
17181SOL    HW251570   2.139   9.428   1.225
17182SOL     OW51571   1.899  10.620   1.282
17182SOL    HW151572   1.952  10.571   1.350
17182SOL    HW251573   1.921  10.718   1.287
17183SOL     OW51574   2.594   9.944   1.064
17183SOL    HW151575   2.653   9.918   0.988
17183SOL    HW251576   2.566  10.040   1.053
17184SOL     OW51577   3.590  10.245   1.854
17184SOL    HW151578   3.544  10.238   1.765
17184SOL    HW251579   3.528  10.289   1.920
17185SOL     OW51580   2.169   9.373   0.618
17185SOL    HW151581   2.158   9.467   0.651
17185SOL    HW251582   2.164   9.310   0.695
17186SOL     OW51583   3.484   9.677   0.374
17186SOL    HW151584   3.486   9.601   0.438
17186SOL    HW251585   3.436   9.754   0.414
17187SOL     OW51586   2.885  10.076   0.966
17187SOL    HW151587   2.900  10.097   1.062
17187SOL    HW251588   2.855   9.981   0.957
17188SOL     OW51589   2.842  10.883   1.700
17188SOL    HW151590   2.822  10.927   1.612
17188SOL    HW251591   2.881  10.792   1.684
17189SOL     OW51592   3.721  10.828   1.605
17189SOL    HW151593   3.735  10.855   1.510
17189SOL    HW251594   3.804  10.850   1.658
17190SOL     OW51595   2.212  10.208   1.804
17190SOL    HW151596   2.288  10.252   1.852
17190SOL    HW251597   2.247  10.161   1.722
17191SOL     OW51598   3.402   9.584   0.125
17191SOL    HW151599   3.341   9.509   0.148
17191SOL    HW251600   3.424   9.636   0.208
17192SOL     OW51601   3.165  10.148   0.042
17192SOL    HW151602   3.199  10.055   0.057
17192SOL    HW251603   3.183  10.175  -0.053
17193SOL     OW51604   2.930  10.643   0.849
17193SOL    HW151605   2.937  10.559   0.794
17193SOL    HW251606   2.992  10.712   0.813
17194SOL     OW51607   2.181  10.120   0.949
17194SOL    HW151608   2.274  10.156   0.954
17194SOL    HW251609   2.175  10.035   1.001
17195SOL     OW51610   2.201   9.819   1.006
17195SOL    HW151611   2.149   9.736   0.989
17195SOL    HW251612   2.278   9.824   0.942
17196SOL     OW51613   3.000   9.690   1.678
17196SOL    HW151614   2.955   9.753   1.742
17196SOL    HW251615   3.093   9.721   1.661
17197SOL     OW51616   3.022   9.517   1.477
17197SOL    HW151617   3.022   9.581   1.554
17197SOL    HW251618   3.050   9.565   1.394
17198SOL     OW51619   1.870  10.636   0.200
17198SOL    HW151620   1.777  10.657   0.169
17198SOL    HW251621   1.880  10.537   0.213
17199SOL     OW51622   1.950  11.111   0.927
17199SOL    HW151623   1.908  11.025   0.900
17199SOL    HW251624   2.044  11.114   0.893
17200SOL     OW51625   2.366  10.878   0.910
17200SOL    HW151626   2.432  10.952   0.919
17200SOL    HW251627   2.410  10.799   0.868
17201SOL     OW51628   2.864  10.106   1.238
17201SOL    HW151629   2.905  10.074   1.324
17201SOL    HW251630   2.768  10.079   1.235
17202SOL     OW51631   1.902   9.854   1.114
17202SOL    HW151632   1.987   9.821   1.073
17202SOL    HW251633   1.915   9.869   1.212
17203SOL     OW51634   2.051   9.830   1.722
17203SOL    HW151635   2.110   9.790   1.652
17203SOL    HW251636   1.993   9.901   1.681
17204SOL     OW51637   3.231  10.260   1.660
17204SOL    HW151638   3.270  10.349   1.680
17204SOL    HW251639   3.241  10.240   1.563
17205SOL     OW51640   2.677   9.882   0.325
17205SOL    HW151641   2.684   9.793   0.279
17205SOL    HW251642   2.583   9.916   0.317
17206SOL     OW51643   3.519   9.914   1.206
17206SOL    HW151644   3.481   9.845   1.268
17206SOL    HW251645   3.601   9.878   1.162
17207SOL     OW51646   2.114  10.874   1.744
17207SOL    HW151647   2.084  10.931   1.820
17207SOL    HW251648   2.107  10.777   1.770
17208SOL     OW51649   2.533   9.774   1.269
17208SOL    HW151650   2.499   9.685   1.239
17208SOL    HW251651   2.559   9.828   1.189
17209SOL     OW51652   2.792  10.988   1.465
17209SOL    HW151653   2.768  10.970   1.370
17209SOL    HW251654   2.822  11.082   1.475
17210SOL     OW51655   2.335   9.810   0.191
17210SOL    HW151656   2.396   9.890   0.195
17210SOL    HW251657   2.240   9.841   0.198
17211SOL     OW51658   2.021  10.447   1.466
17211SOL    HW151659   2.043  10.386   1.542
17211SOL    HW251660   2.031  10.398   1.380
17212SOL     OW51661   3.209  10.369   1.234
17212SOL    HW151662   3.233  10.306   1.160
17212SOL    HW251663   3.119  10.409   1.216
17213SOL     OW51664   3.164  10.165   0.309
17213SOL    HW151665   3.078  10.134   0.351
17213SOL    HW251666   3.160  10.151   0.210
17214SOL     OW51667   3.621  11.057   1.154
17214SOL    HW151668   3.682  11.087   1.081
17214SOL    HW251669   3.583  10.968   1.132
17215SOL     OW51670   3.114  11.041   1.128
17215SOL    HW151671   3.198  11.046   1.074
17215SOL    HW251672   3.091  10.945   1.146
17216SOL     OW51673   1.945  10.568   1.022
17216SOL    HW151674   1.940  10.567   1.122
17216SOL    HW251675   1.862  10.527   0.984
17217SOL     OW51676   2.550  10.972   1.716
17217SOL    HW151677   2.494  11.053   1.725
17217SOL    HW251678   2.602  10.976   1.630
17218SOL     OW51679   2.765   9.396   0.133
17218SOL    HW151680   2.816   9.397   0.047
17218SOL    HW251681   2.821   9.354   0.204
17219SOL     OW51682   3.588   9.445   0.523
17219SOL    HW151683   3.661   9.428   0.456
17219SOL    HW251684   3.557   9.358   0.561
17220SOL     OW51685   3.250  10.883   0.477
17220SOL    HW151686   3.317  10.895   0.403
17220SOL    HW251687   3.210  10.972   0.500
17221SOL     OW51688   1.992  11.104   1.851
17221SOL    HW151689   1.951  11.030   1.904
17221SOL    HW251690   2.056  11.155   1.909
17222SOL     OW51691   3.142  10.237   0.672
17222SOL    HW151692   3.202  10.156   0.674
17222SOL    HW251693   3.182  10.306   0.612
17223SOL     OW51694   2.692  10.583   1.422
17223SOL    HW151695   2.687  10.616   1.517
17223SOL    HW251696   2.606  10.602   1.376
17224SOL     OW51697   2.534  10.926   0.154
17224SOL    HW151698   2.543  10.936   0.055
17224SOL    HW251699   2.494  10.837   0.175
17225SOL     OW51700   3.512  11.030   1.394
17225SOL    HW151701   3.565  11.040   1.310
17225SOL    HW251702   3.485  11.120   1.428
17226SOL     OW51703   3.703   9.485   0.963
17226SOL    HW151704   3.742   9.400   0.927
17226SOL    HW251705   3.605   9.487   0.944
17227SOL     OW51706   2.125   9.636   0.720
17227SOL    HW151707   2.046   9.687   0.686
17227SOL    HW251708   2.116   9.621   0.818
17228SOL     OW51709   3.056  10.922   0.031
17228SOL    HW151710   3.062  10.829   0.068
17228SOL    HW251711   2.997  10.922  -0.049
17229SOL     OW51712   2.684  10.312   1.372
17229SOL    HW151713   2.724  10.311   1.280
17229SOL    HW251714   2.694  10.404   1.412
17230SOL     OW51715   2.778  10.220   0.291
17230SOL    HW151716   2.841  10.258   0.223
17230SOL    HW251717   2.818  10.137   0.330
17231SOL     OW51718   3.366  10.917   0.044
17231SOL    HW151719   3.274  10.954   0.051
17231SOL    HW251720   3.404  10.937  -0.046
17232SOL     OW51721   2.234  10.598   1.490
17232SOL    HW151722   2.221  10.691   1.456
17232SOL    HW251723   2.150  10.546   1.477
17233SOL     OW51724   3.476  10.602   1.289
17233SOL    HW151725   3.536  10.605   1.369
17233SOL    HW251726   3.401  10.666   1.302
17234SOL     OW51727   2.901  10.408   0.696
17234SOL    HW151728   2.831  10.361   0.750
17234SOL    HW251729   2.960  10.340   0.653
17235SOL     OW51730   2.876   9.546   0.971
17235SOL    HW151731   2.868   9.510   0.878
17235SOL    HW251732   2.874   9.470   1.036
17236SOL     OW51733   2.452  10.797   0.491
17236SOL    HW151734   2.494  10.739   0.421
17236SOL    HW251735   2.408  10.876   0.447
17237SOL     OW51736   3.571   9.695   1.381
17237SOL    HW151737   3.644   9.764   1.385
17237SOL    HW251738   3.599   9.620   1.322
17238SOL     OW51739   2.117  10.658   0.290
17238SOL    HW151740   2.021  10.659   0.263
17238SOL    HW251741   2.129  10.711   0.374
17239SOL     OW51742   1.967  10.323   1.726
17239SOL    HW151743   1.890  10.290   1.780
17239SOL    HW251744   2.052  10.293   1.768
17240SOL     OW51745   2.534   9.513   1.489
17240SOL    HW151746   2.624   9.497   1.449
17240SOL    HW251747   2.542   9.518   1.588
17241SOL     OW51748   3.302  10.166   1.398
17241SOL    HW151749   3.245  10.218   1.335
17241SOL    HW251750   3.398  10.178   1.374
17242SOL     OW51751   1.934   9.476   0.318
17242SOL    HW151752   1.917   9.559   0.264
17242SOL    HW251753   2.024   9.439   0.296
17243SOL     OW51754   3.045  10.645   0.119
17243SOL    HW151755   2.946  10.634   0.121
17243SOL    HW251756   3.079  10.660   0.212
17244SOL     OW51757   2.475  10.152   1.431
17244SOL    HW151758   2.531  10.233   1.414
17244SOL    HW251759   2.534  10.072   1.434
17245SOL     OW51760   3.355  11.077   0.959
17245SOL    HW151761   3.388  11.141   0.890
17245SOL    HW251762   3.421  11.071   1.034
17246SOL     OW51763   2.578   9.875   1.708
17246SOL    HW151764   2.597   9.940   1.782
17246SOL    HW251765   2.638   9.795   1.717
17247SOL     OW51766   3.312  10.530   1.633
17247SOL    HW151767   3.303  10.520   1.732
17247SOL    HW251768   3.408  10.523   1.607
17248SOL     OW51769   2.252  11.051   1.560
17248SOL    HW151770   2.161  11.092   1.558
17248SOL    HW251771   2.245  10.957   1.592
17249SOL     OW51772   3.536  10.193   1.254
17249SOL    HW151773   3.509  10.104   1.217
17249SOL    HW251774   3.537  10.261   1.181
17250SOL     OW51775   3.087   9.635   0.449
17250SOL    HW151776   3.152   9.561   0.438
17250SOL    HW251777   3.107   9.685   0.533
17251SOL     OW51778   2.456  10.055   0.652
17251SOL    HW151779   2.506  10.140   0.633
17251SOL    HW251780   2.368  10.057   0.604
17252SOL     OW51781   3.639   9.652   1.642
17252SOL    HW151782   3.622   9.683   1.548
17252SOL    HW251783   3.555   9.615   1.680
17253SOL     OW51784   3.592  10.244   1.517
17253SOL    HW151785   3.630  10.335   1.532
17253SOL    HW251786   3.584  10.227   1.418
17254SOL     OW51787   2.721  10.684   0.016
17254SOL    HW151788   2.675  10.699   0.104
17254SOL    HW251789   2.765  10.769  -0.014
17255SOL     OW51790   2.523  11.100   0.953
17255SOL    HW151791   2.477  11.188   0.940
17255SOL    HW251792   2.622  11.112   0.946
17256SOL     OW51793   2.721  10.266   0.861
17256SOL    HW151794   2.775  10.197   0.909
17256SOL    HW251795   2.689  10.335   0.927
17257SOL     OW51796   2.945  10.294   0.087
17257SOL    HW151797   2.922  10.347   0.005
17257SOL    HW251798   3.026  10.238   0.068
17258SOL     OW51799   3.723  10.879   0.851
17258SOL    HW151800   3.652  10.867   0.781
17258SOL    HW251801   3.724  10.800   0.911
17259SOL     OW51802   2.083  10.624   1.844
17259SOL    HW151803   2.018  10.551   1.823
17259SOL    HW251804   2.087  10.638   1.942
17260SOL     OW51805   1.941  10.550   0.653
17260SOL    HW151806   1.940  10.503   0.741
17260SOL    HW251807   2.023  10.522   0.602
17261SOL     OW51808   2.534  10.701   1.624
17261SOL    HW151809   2.456  10.651   1.662
17261SOL    HW251810   2.531  10.796   1.655
17262SOL     OW51811   3.686   9.502   1.227
17262SOL    HW151812   3.682   9.412   1.271
17262SOL    HW251813   3.689   9.491   1.128
17263SOL     OW51814   2.290   9.734   0.520
17263SOL    HW151815   2.320   9.662   0.458
17263SOL    HW251816   2.251   9.694   0.603
17264SOL     OW51817   3.567  10.797   1.104
17264SOL    HW151818   3.474  10.772   1.077
17264SOL    HW251819   3.593  10.747   1.186
17265SOL     OW51820   2.179   9.857   1.280
17265SOL    HW151821   2.217   9.798   1.352
17265SOL    HW251822   2.219   9.831   1.192
17266SOL     OW51823   2.674  10.896   0.687
17266SOL    HW151824   2.706  10.906   0.593
17266SOL    HW251825   2.595  10.834   0.689
17267SOL     OW51826   3.286   9.524   1.112
17267SOL    HW151827   3.338   9.459   1.167
17267SOL    HW251828   3.237   9.587   1.173
17268SOL     OW51829   2.863   9.344   1.154
17268SOL    HW151830   2.800   9.272   1.123
17268SOL    HW251831   2.956   9.308   1.154
17269SOL     OW51832   2.632  10.640   0.301
17269SOL    HW151833   2.586  10.553   0.318
17269SOL    HW251834   2.723  10.637   0.342
17270SOL     OW51835   2.480  10.877   1.284
17270SOL    HW151836   2.475  10.959   1.341
17270SOL    HW251837   2.569  10.874   1.239
17271SOL     OW51838   3.214   9.362   0.168
17271SOL    HW151839   3.249   9.321   0.084
17271SOL    HW251840   3.124   9.324   0.188
17272SOL     OW51841   3.162   9.763   0.691
17272SOL    HW151842   3.103   9.843   0.695
17272SOL    HW251843   3.177   9.728   0.784
17273SOL     OW51844   3.455   9.531   0.882
17273SOL    HW151845   3.371   9.530   0.936
17273SOL    HW251846   3.457   9.614   0.826
17274SOL     OW51847   1.901  10.387   0.300
17274SOL    HW151848   2.000  10.376   0.291
17274SOL    HW251849   1.861  10.301   0.332
17275SOL     OW51850   2.737  10.956   0.337
17275SOL    HW151851   2.660  10.921   0.283
17275SOL    HW251852   2.705  11.027   0.399
17276SOL     OW51853   2.092   9.938   1.975
17276SOL    HW151854   1.999   9.936   2.012
17276SOL    HW251855   2.093   9.899   1.883
17277SOL     OW51856   2.087   9.585   2.858
17277SOL    HW151857   2.122   9.568   2.950
17277SOL    HW251858   1.999   9.540   2.846
17278SOL     OW51859   1.881   9.678   2.509
17278SOL    HW151860   1.799   9.721   2.548
17278SOL    HW251861   1.853   9.605   2.446
17279SOL     OW51862   2.431  10.585   3.027
17279SOL    HW151863   2.338  10.578   2.990
17279SOL    HW251864   2.442  10.674   3.071
17280SOL     OW51865   3.417  10.821   2.565
17280SOL    HW151866   3.360  10.805   2.646
17280SOL    HW251867   3.358  10.831   2.485
17281SOL     OW51868   2.997  10.013   2.579
17281SOL    HW151869   3.054  10.091   2.554
17281SOL    HW251870   2.937  10.039   2.655
17282SOL     OW51871   3.617   9.917   2.093
17282SOL    HW151872   3.605   9.904   1.994
17282SOL    HW251873   3.587   9.836   2.142
17283SOL     OW51874   2.630  10.454   2.885
17283SOL    HW151875   2.552  10.471   2.945
17283SOL    HW251876   2.664  10.541   2.849
17284SOL     OW51877   2.712  10.108   3.685
17284SOL    HW151878   2.708  10.184   3.750
17284SOL    HW251879   2.734  10.144   3.594
17285SOL     OW51880   2.547  10.322   2.527
17285SOL    HW151881   2.616  10.306   2.597
17285SOL    HW251882   2.474  10.379   2.565
17286SOL     OW51883   2.548  10.471   3.665
17286SOL    HW151884   2.608  10.550   3.679
17286SOL    HW251885   2.462  10.502   3.624
17287SOL     OW51886   2.197  10.745   2.923
17287SOL    HW151887   2.119  10.714   2.870
17287SOL    HW251888   2.255  10.803   2.866
17288SOL     OW51889   3.322  10.815   3.201
17288SOL    HW151890   3.346  10.909   3.227
17288SOL    HW251891   3.306  10.761   3.283
17289SOL     OW51892   2.300   9.702   3.361
17289SOL    HW151893   2.382   9.646   3.370
17289SOL    HW251894   2.219   9.644   3.365
17290SOL     OW51895   3.465   9.757   2.599
17290SOL    HW151896   3.391   9.803   2.549
17290SOL    HW251897   3.516   9.825   2.652
17291SOL     OW51898   2.093  11.023   2.345
17291SOL    HW151899   2.127  11.100   2.399
17291SOL    HW251900   2.137  11.023   2.255
17292SOL     OW51901   2.989  10.651   3.552
17292SOL    HW151902   3.036  10.651   3.640
17292SOL    HW251903   2.941  10.564   3.541
17293SOL     OW51904   2.092  10.744   2.400
17293SOL    HW151905   2.066  10.840   2.400
17293SOL    HW251906   2.021  10.690   2.445
17294SOL     OW51907   2.102  10.401   2.748
17294SOL    HW151908   2.116  10.317   2.800
17294SOL    HW251909   2.047  10.465   2.803
17295SOL     OW51910   2.482  11.096   3.301
17295SOL    HW151911   2.390  11.079   3.336
17295SOL    HW251912   2.510  11.188   3.327
17296SOL     OW51913   2.468  10.274   1.985
17296SOL    HW151914   2.475  10.358   1.931
17296SOL    HW251915   2.514  10.287   2.073
17297SOL     OW51916   3.456   9.424   3.342
17297SOL    HW151917   3.438   9.491   3.270
17297SOL    HW251918   3.453   9.470   3.431
17298SOL     OW51919   1.984   9.953   2.425
17298SOL    HW151920   1.939   9.865   2.442
17298SOL    HW251921   1.983  10.007   2.509
17299SOL     OW51922   3.704  11.077   2.221
17299SOL    HW151923   3.758  11.048   2.301
17299SOL    HW251924   3.734  11.167   2.192
17300SOL     OW51925   1.889  10.906   1.979
17300SOL    HW151926   1.870  10.810   2.000
17300SOL    HW251927   1.856  10.964   2.054
17301SOL     OW51928   3.551  10.232   2.474
17301SOL    HW151929   3.646  10.203   2.482
17301SOL    HW251930   3.543  10.297   2.399
17302SOL     OW51931   3.503  10.418   2.294
17302SOL    HW151932   3.589  10.420   2.242
17302SOL    HW251933   3.517  10.465   2.382
17303SOL     OW51934   1.975  10.047   3.459
17303SOL    HW151935   2.063  10.034   3.504
17303SOL    HW251936   1.962  10.144   3.437
17304SOL     OW51937   2.475  10.675   2.588
17304SOL    HW151938   2.426  10.588   2.597
17304SOL    HW251939   2.452  10.718   2.501
17305SOL     OW51940   3.155  10.538   3.285
17305SOL    HW151941   3.192  10.465   3.227
17305SOL    HW251942   3.207  10.543   3.370
17306SOL     OW51943   2.671   9.314   2.364
17306SOL    HW151944   2.711   9.405   2.355
17306SOL    HW251945   2.571   9.322   2.370
17307SOL     OW51946   2.059  10.286   3.126
17307SOL    HW151947   2.148  10.241   3.112
17307SOL    HW251948   1.986  10.221   3.107
17308SOL     OW51949   3.387  10.309   2.052
17308SOL    HW151950   3.324  10.233   2.065
17308SOL    HW251951   3.435  10.327   2.138
17309SOL     OW51952   3.049  11.102   3.478
17309SOL    HW151953   3.073  11.162   3.402
17309SOL    HW251954   3.056  11.007   3.448
17310SOL     OW51955   2.179   9.561   3.663
17310SOL    HW151956   2.250   9.632   3.669
17310SOL    HW251957   2.091   9.600   3.691
17311SOL     OW51958   3.328  10.727   2.815
17311SOL    HW151959   3.269  10.733   2.895
17311SOL    HW251960   3.313  10.639   2.769
17312SOL     OW51961   3.529  11.024   2.434
17312SOL    HW151962   3.488  11.001   2.346
17312SOL    HW251963   3.511  10.950   2.499
17313SOL     OW51964   2.460  10.039   2.132
17313SOL    HW151965   2.484  10.108   2.064
17313SOL    HW251966   2.382  10.072   2.186
17314SOL     OW51967   3.143   9.655   2.806
17314SOL    HW151968   3.057   9.605   2.793
17314SOL    HW251969   3.205   9.601   2.862
17315SOL     OW51970   3.438  10.972   2.169
17315SOL    HW151971   3.527  11.018   2.172
17315SOL    HW251972   3.417  10.948   2.074
17316SOL     OW51973   2.669   9.915   3.327
17316SOL    HW151974   2.622   9.912   3.416
17316SOL    HW251975   2.618   9.860   3.261
17317SOL     OW51976   3.256   9.779   3.536
17317SOL    HW151977   3.236   9.822   3.624
17317SOL    HW251978   3.334   9.717   3.545
17318SOL     OW51979   2.835  10.200   3.434
17318SOL    HW151980   2.881  10.116   3.405
17318SOL    HW251981   2.779  10.234   3.359
17319SOL     OW51982   2.853   9.720   3.104
17319SOL    HW151983   2.776   9.754   3.158
17319SOL    HW251984   2.819   9.669   3.025
17320SOL     OW51985   2.903  10.011   2.291
17320SOL    HW151986   2.929  10.007   2.387
17320SOL    HW251987   2.818   9.960   2.277
17321SOL     OW51988   1.938  10.121   2.651
17321SOL    HW151989   2.037  10.109   2.660
17321SOL    HW251990   1.914  10.216   2.672
17322SOL     OW51991   1.992  11.131   3.433
17322SOL    HW151992   1.982  11.116   3.532
17322SOL    HW251993   1.906  11.167   3.397
17323SOL     OW51994   2.727   9.658   2.057
17323SOL    HW151995   2.786   9.721   2.008
17323SOL    HW251996   2.746   9.564   2.028
17324SOL     OW51997   3.581   9.895   3.693
17324SOL    HW151998   3.555   9.984   3.657
17324SOL    HW251999   3.579   9.827   3.620
17325SOL     OW52000   3.224  10.454   2.407
17325SOL    HW152001   3.307  10.425   2.359
17325SOL    HW252002   3.175  10.521   2.351
17326SOL     OW52003   2.412   9.506   2.747
17326SOL    HW152004   2.407   9.501   2.847
17326SOL    HW252005   2.414   9.602   2.718
17327SOL     OW52006   2.870  10.766   2.339
17327SOL    HW152007   2.824  10.838   2.287
17327SOL    HW252008   2.866  10.786   2.437
17328SOL     OW52009   2.213  11.111   2.715
17328SOL    HW152010   2.263  11.025   2.721
17328SOL    HW252011   2.278  11.188   2.712
17329SOL     OW52012   3.657  10.376   2.735
17329SOL    HW152013   3.595  10.361   2.659
17329SOL    HW252014   3.605  10.387   2.820
17330SOL     OW52015   3.089  10.860   3.368
17330SOL    HW152016   3.095  10.783   3.432
17330SOL    HW252017   3.037  10.834   3.288
17331SOL     OW52018   2.183  10.253   2.104
17331SOL    HW152019   2.265  10.292   2.062
17331SOL    HW252020   2.156  10.171   2.055
17332SOL     OW52021   3.320  10.045   2.590
17332SOL    HW152022   3.315   9.980   2.665
17332SOL    HW252023   3.400  10.104   2.603
17333SOL     OW52024   2.323  10.576   3.589
17333SOL    HW152025   2.273  10.577   3.503
17333SOL    HW252026   2.260  10.558   3.665
17334SOL     OW52027   2.973  11.086   2.099
17334SOL    HW152028   2.913  11.024   2.149
17334SOL    HW252029   3.004  11.042   2.014
17335SOL     OW52030   2.064   9.595   3.360
17335SOL    HW152031   1.984   9.655   3.347
17335SOL    HW252032   2.054   9.546   3.446
17336SOL     OW52033   3.494  10.687   1.943
17336SOL    HW152034   3.462  10.781   1.933
17336SOL    HW252035   3.418  10.624   1.931
17337SOL     OW52036   2.326  11.053   2.185
17337SOL    HW152037   2.359  11.092   2.271
17337SOL    HW252038   2.402  11.046   2.120
17338SOL     OW52039   3.262   9.417   2.288
17338SOL    HW152040   3.238   9.380   2.198
17338SOL    HW252041   3.361   9.433   2.292
17339SOL     OW52042   2.111  11.095   3.103
17339SOL    HW152043   2.168  11.030   3.153
17339SOL    HW252044   2.095  11.062   3.010
17340SOL     OW52045   2.802  11.008   2.766
17340SOL    HW152046   2.882  10.951   2.787
17340SOL    HW252047   2.753  10.968   2.689
17341SOL     OW52048   2.244  10.010   2.342
17341SOL    HW152049   2.289   9.920   2.339
17341SOL    HW252050   2.150   9.999   2.375
17342SOL     OW52051   3.409   9.532   3.591
17342SOL    HW152052   3.404   9.569   3.683
17342SOL    HW252053   3.337   9.463   3.579
17343SOL     OW52054   2.476   9.432   1.979
17343SOL    HW152055   2.574   9.410   1.986
17343SOL    HW252056   2.445   9.415   1.886
17344SOL     OW52057   2.643   9.574   3.611
17344SOL    HW152058   2.710   9.513   3.654
17344SOL    HW252059   2.570   9.593   3.676
17345SOL     OW52060   2.750  10.824   3.057
17345SOL    HW152061   2.727  10.799   2.963
17345SOL    HW252062   2.811  10.755   3.096
17346SOL     OW52063   3.213   9.900   3.295
17346SOL    HW152064   3.241   9.857   3.380
17346SOL    HW252065   3.238   9.996   3.296
17347SOL     OW52066   2.665  10.712   2.786
17347SOL    HW152067   2.755  10.726   2.744
17347SOL    HW252068   2.594  10.714   2.715
17348SOL     OW52069   2.784   9.813   2.761
17348SOL    HW152070   2.759   9.804   2.665
17348SOL    HW252071   2.832   9.731   2.792
17349SOL     OW52072   2.401   9.374   2.374
17349SOL    HW152073   2.320   9.375   2.432
17349SOL    HW252074   2.404   9.457   2.319
17350SOL     OW52075   3.296  10.498   1.903
17350SOL    HW152076   3.328  10.422   1.960
17350SOL    HW252077   3.204  10.525   1.933
17351SOL     OW52078   2.159   9.345   2.033
17351SOL    HW152079   2.208   9.429   2.012
17351SOL    HW252080   2.221   9.280   2.078
17352SOL     OW52081   2.797   9.546   2.342
17352SOL    HW152082   2.749   9.587   2.264
17352SOL    HW252083   2.896   9.544   2.323
17353SOL     OW52084   2.938   9.993   3.326
17353SOL    HW152085   2.858   9.932   3.329
17353SOL    HW252086   3.019   9.940   3.302
17354SOL     OW52087   3.089  10.880   2.655
17354SOL    HW152088   3.110  10.954   2.590
17354SOL    HW252089   3.157  10.880   2.728
17355SOL     OW52090   2.321  10.462   2.603
17355SOL    HW152091   2.250  10.435   2.668
17355SOL    HW252092   2.295  10.434   2.510
17356SOL     OW52093   3.133  11.107   2.453
17356SOL    HW152094   3.177  11.171   2.389
17356SOL    HW252095   3.083  11.159   2.523
17357SOL     OW52096   2.894   9.859   1.878
17357SOL    HW152097   2.853   9.941   1.839
17357SOL    HW252098   2.958   9.885   1.951
17358SOL     OW52099   1.940   9.866   3.248
17358SOL    HW152100   2.032   9.865   3.207
17358SOL    HW252101   1.934   9.940   3.315
17359SOL     OW52102   2.423   9.532   3.009
17359SOL    HW152103   2.461   9.448   3.046
17359SOL    HW252104   2.335   9.551   3.053
17360SOL     OW52105   2.728   9.764   2.504
17360SOL    HW152106   2.696   9.836   2.442
17360SOL    HW252107   2.752   9.683   2.451
17361SOL     OW52108   2.879   9.349   2.615
17361SOL    HW152109   2.807   9.354   2.546
17361SOL    HW252110   2.855   9.280   2.684
17362SOL     OW52111   3.291  10.483   2.729
17362SOL    HW152112   3.236  10.399   2.722
17362SOL    HW252113   3.317  10.512   2.637
17363SOL     OW52114   3.328   9.900   2.854
17363SOL    HW152115   3.298   9.805   2.861
17363SOL    HW252116   3.401   9.916   2.920
17364SOL     OW52117   3.719  10.143   2.239
17364SOL    HW152118   3.761  10.079   2.303
17364SOL    HW252119   3.681  10.092   2.161
17365SOL     OW52120   2.350  10.695   2.036
17365SOL    HW152121   2.263  10.680   2.083
17365SOL    HW252122   2.333  10.721   1.941
17366SOL     OW52123   3.526  10.590   2.519
17366SOL    HW152124   3.625  10.598   2.533
17366SOL    HW252125   3.481  10.674   2.550
17367SOL     OW52126   3.252   9.885   1.940
17367SOL    HW152127   3.198   9.864   2.021
17367SOL    HW252128   3.343   9.844   1.949
17368SOL     OW52129   2.389   9.566   2.190
17368SOL    HW152130   2.416   9.507   2.115
17368SOL    HW252131   2.389   9.661   2.159
17369SOL     OW52132   3.616  10.533   3.450
17369SOL    HW152133   3.707  10.494   3.437
17369SOL    HW252134   3.624  10.629   3.474
17370SOL     OW52135   2.926  10.657   3.202
17370SOL    HW152136   2.846  10.634   3.257
17370SOL    HW252137   3.009  10.631   3.251
17371SOL     OW52138   3.454  10.939   3.487
17371SOL    HW152139   3.481  10.973   3.397
17371SOL    HW252140   3.533  10.901   3.533
17372SOL     OW52141   2.973  10.505   2.962
17372SOL    HW152142   2.933  10.549   3.043
17372SOL    HW252143   2.932  10.542   2.879
17373SOL     OW52144   3.500  10.409   2.941
17373SOL    HW152145   3.505  10.490   3.000
17373SOL    HW252146   3.414  10.411   2.890
17374SOL     OW52147   2.777   9.399   3.264
17374SOL    HW152148   2.802   9.379   3.169
17374SOL    HW252149   2.849   9.455   3.306
17375SOL     OW52150   2.842  10.426   3.581
17375SOL    HW152151   2.743  10.432   3.591
17375SOL    HW252152   2.865  10.346   3.525
17376SOL     OW52153   2.567  10.360   2.230
17376SOL    HW152154   2.553  10.367   2.329
17376SOL    HW252155   2.651  10.309   2.212
17377SOL     OW52156   2.272  10.123   3.113
17377SOL    HW152157   2.358  10.135   3.163
17377SOL    HW252158   2.230  10.036   3.140
17378SOL     OW52159   3.136   9.696   3.124
17378SOL    HW152160   3.157   9.770   3.188
17378SOL    HW252161   3.047   9.713   3.081
17379SOL     OW52162   1.926  10.874   3.193
17379SOL    HW152163   1.880  10.956   3.159
17379SOL    HW252164   2.024  10.893   3.202
17380SOL     OW52165   2.229  10.410   2.363
17380SOL    HW152166   2.222  10.493   2.307
17380SOL    HW252167   2.233  10.330   2.303
17381SOL     OW52168   2.428   9.847   2.727
17381SOL    HW152169   2.440   9.913   2.653
17381SOL    HW252170   2.474   9.881   2.810
17382SOL     OW52171   3.114  10.658   2.250
17382SOL    HW152172   3.164  10.735   2.290
17382SOL    HW252173   3.019  10.660   2.282
17383SOL     OW52174   3.134  10.755   3.004
17383SOL    HW152175   3.181  10.768   3.091
17383SOL    HW252176   3.068  10.681   3.013
17384SOL     OW52177   3.444   9.949   2.334
17384SOL    HW152178   3.413  10.010   2.407
17384SOL    HW252179   3.494  10.001   2.265
17385SOL     OW52180   2.216  10.820   3.191
17385SOL    HW152181   2.195  10.776   3.104
17385SOL    HW252182   2.313  10.846   3.194
17386SOL     OW52183   2.264  10.061   3.460
17386SOL    HW152184   2.332  10.116   3.413
17386SOL    HW252185   2.304   9.973   3.487
17387SOL     OW52186   3.449  10.089   3.532
17387SOL    HW152187   3.357  10.127   3.527
17387SOL    HW252188   3.509  10.136   3.467
17388SOL     OW52189   2.875   9.415   3.632
17388SOL    HW152190   2.881   9.500   3.580
17388SOL    HW252191   2.907   9.339   3.575
17389SOL     OW52192   2.366   9.360   3.602
17389SOL    HW152193   2.324   9.303   3.532
17389SOL    HW252194   2.300   9.429   3.634
17390SOL     OW52195   2.435  10.180   2.891
17390SOL    HW152196   2.479  10.269   2.882
17390SOL    HW252197   2.372  10.180   2.968
17391SOL     OW52198   3.222  10.172   2.907
17391SOL    HW152199   3.147  10.172   2.841
17391SOL    HW252200   3.259  10.080   2.916
17392SOL     OW52201   3.071   9.835   2.137
17392SOL    HW152202   3.084   9.751   2.191
17392SOL    HW252203   3.042   9.909   2.197
17393SOL     OW52204   2.169   9.523   3.093
17393SOL    HW152205   2.146   9.560   3.183
17393SOL    HW252206   2.139   9.428   3.087
17394SOL     OW52207   1.899  10.620   3.144
17394SOL    HW152208   1.952  10.571   3.212
17394SOL    HW252209   1.921  10.718   3.149
17395SOL     OW52210   2.594   9.944   2.926
17395SOL    HW152211   2.653   9.918   2.850
17395SOL    HW252212   2.566  10.040   2.915
17396SOL     OW52213   3.590  10.245   3.716
17396SOL    HW152214   3.544  10.238   3.627
17396SOL    HW252215   3.528  10.289   3.782
17397SOL     OW52216   2.169   9.373   2.480
17397SOL    HW152217   2.158   9.467   2.513
17397SOL    HW252218   2.164   9.310   2.557
17398SOL     OW52219   3.484   9.677   2.236
17398SOL    HW152220   3.486   9.601   2.300
17398SOL    HW252221   3.436   9.754   2.276
17399SOL     OW52222   2.885  10.076   2.828
17399SOL    HW152223   2.900  10.097   2.924
17399SOL    HW252224   2.855   9.981   2.819
17400SOL     OW52225   2.842  10.883   3.562
17400SOL    HW152226   2.822  10.927   3.474
17400SOL    HW252227   2.881  10.792   3.546
17401SOL     OW52228   3.721  10.828   3.467
17401SOL    HW152229   3.735  10.855   3.372
17401SOL    HW252230   3.804  10.850   3.520
17402SOL     OW52231   2.212  10.208   3.666
17402SOL    HW152232   2.288  10.252   3.714
17402SOL    HW252233   2.247  10.161   3.584
17403SOL     OW52234   3.402   9.584   1.987
17403SOL    HW152235   3.341   9.509   2.010
17403SOL    HW252236   3.424   9.636   2.070
17404SOL     OW52237   3.165  10.148   1.904
17404SOL    HW152238   3.199  10.055   1.919
17404SOL    HW252239   3.183  10.175   1.809
17405SOL     OW52240   2.930  10.643   2.711
17405SOL    HW152241   2.937  10.559   2.656
17405SOL    HW252242   2.992  10.712   2.675
17406SOL     OW52243   2.181  10.120   2.811
17406SOL    HW152244   2.274  10.156   2.816
17406SOL    HW252245   2.175  10.035   2.863
17407SOL     OW52246   2.201   9.819   2.868
17407SOL    HW152247   2.149   9.736   2.851
17407SOL    HW252248   2.278   9.824   2.804
17408SOL     OW52249   3.000   9.690   3.540
17408SOL    HW152250   2.955   9.753   3.604
17408SOL    HW252251   3.093   9.721   3.523
17409SOL     OW52252   3.022   9.517   3.339
17409SOL    HW152253   3.022   9.581   3.416
17409SOL    HW252254   3.050   9.565   3.256
17410SOL     OW52255   1.870  10.636   2.062
17410SOL    HW152256   1.777  10.657   2.031
17410SOL    HW252257   1.880  10.537   2.075
17411SOL     OW52258   1.950  11.111   2.789
17411SOL    HW152259   1.908  11.025   2.762
17411SOL    HW252260   2.044  11.114   2.755
17412SOL     OW52261   2.366  10.878   2.772
17412SOL    HW152262   2.432  10.952   2.781
17412SOL    HW252263   2.410  10.799   2.730
17413SOL     OW52264   2.864  10.106   3.100
17413SOL    HW152265   2.905  10.074   3.186
17413SOL    HW252266   2.768  10.079   3.097
17414SOL     OW52267   1.902   9.854   2.976
17414SOL    HW152268   1.987   9.821   2.935
17414SOL    HW252269   1.915   9.869   3.074
17415SOL     OW52270   2.051   9.830   3.584
17415SOL    HW152271   2.110   9.790   3.514
17415SOL    HW252272   1.993   9.901   3.543
17416SOL     OW52273   3.231  10.260   3.522
17416SOL    HW152274   3.270  10.349   3.542
17416SOL    HW252275   3.241  10.240   3.425
17417SOL     OW52276   2.677   9.882   2.187
17417SOL    HW152277   2.684   9.793   2.141
17417SOL    HW252278   2.583   9.916   2.179
17418SOL     OW52279   3.519   9.914   3.068
17418SOL    HW152280   3.481   9.845   3.130
17418SOL    HW252281   3.601   9.878   3.024
17419SOL     OW52282   2.114  10.874   3.606
17419SOL    HW152283   2.084  10.931   3.682
17419SOL    HW252284   2.107  10.777   3.632
17420SOL     OW52285   2.533   9.774   3.131
17420SOL    HW152286   2.499   9.685   3.101
17420SOL    HW252287   2.559   9.828   3.051
17421SOL     OW52288   2.792  10.988   3.327
17421SOL    HW152289   2.768  10.970   3.232
17421SOL    HW252290   2.822  11.082   3.337
17422SOL     OW52291   2.335   9.810   2.053
17422SOL    HW152292   2.396   9.890   2.057
17422SOL    HW252293   2.240   9.841   2.060
17423SOL     OW52294   2.021  10.447   3.328
17423SOL    HW152295   2.043  10.386   3.404
17423SOL    HW252296   2.031  10.398   3.242
17424SOL     OW52297   3.209  10.369   3.096
17424SOL    HW152298   3.233  10.306   3.022
17424SOL    HW252299   3.119  10.409   3.078
17425SOL     OW52300   3.164  10.165   2.171
17425SOL    HW152301   3.078  10.134   2.213
17425SOL    HW252302   3.160  10.151   2.072
17426SOL     OW52303   3.621  11.057   3.016
17426SOL    HW152304   3.682  11.087   2.943
17426SOL    HW252305   3.583  10.968   2.994
17427SOL     OW52306   3.114  11.041   2.990
17427SOL    HW152307   3.198  11.046   2.936
17427SOL    HW252308   3.091  10.945   3.008
17428SOL     OW52309   1.945  10.568   2.884
17428SOL    HW152310   1.940  10.567   2.984
17428SOL    HW252311   1.862  10.527   2.846
17429SOL     OW52312   2.550  10.972   3.578
17429SOL    HW152313   2.494  11.053   3.587
17429SOL    HW252314   2.602  10.976   3.492
17430SOL     OW52315   3.588   9.445   2.385
17430SOL    HW152316   3.661   9.428   2.318
17430SOL    HW252317   3.557   9.358   2.423
17431SOL     OW52318   3.250  10.883   2.339
17431SOL    HW152319   3.317  10.895   2.265
17431SOL    HW252320   3.210  10.972   2.362
17432SOL     OW52321   1.992  11.104   3.713
17432SOL    HW152322   1.951  11.030   3.766
17432SOL    HW252323   2.056  11.155   3.771
17433SOL     OW52324   3.142  10.237   2.534
17433SOL    HW152325   3.202  10.156   2.536
17433SOL    HW252326   3.182  10.306   2.474
17434SOL     OW52327   2.692  10.583   3.284
17434SOL    HW152328   2.687  10.616   3.379
17434SOL    HW252329   2.606  10.602   3.238
17435SOL     OW52330   2.534  10.926   2.016
17435SOL    HW152331   2.543  10.936   1.917
17435SOL    HW252332   2.494  10.837   2.037
17436SOL     OW52333   3.512  11.030   3.256
17436SOL    HW152334   3.565  11.040   3.172
17436SOL    HW252335   3.485  11.120   3.290
17437SOL     OW52336   2.125   9.636   2.582
17437SOL    HW152337   2.046   9.687   2.548
17437SOL    HW252338   2.116   9.621   2.680
17438SOL     OW52339   3.056  10.922   1.893
17438SOL    HW152340   3.062  10.829   1.930
17438SOL    HW252341   2.997  10.922   1.813
17439SOL     OW52342   2.684  10.312   3.234
17439SOL    HW152343   2.724  10.311   3.142
17439SOL    HW252344   2.694  10.404   3.274
17440SOL     OW52345   2.778  10.220   2.153
17440SOL    HW152346   2.841  10.258   2.085
17440SOL    HW252347   2.818  10.137   2.192
17441SOL     OW52348   3.366  10.917   1.906
17441SOL    HW152349   3.274  10.954   1.913
17441SOL    HW252350   3.404  10.937   1.816
17442SOL     OW52351   2.234  10.598   3.352
17442SOL    HW152352   2.221  10.691   3.318
17442SOL    HW252353   2.150  10.546   3.339
17443SOL     OW52354   3.476  10.602   3.151
17443SOL    HW152355   3.536  10.605   3.231
17443SOL    HW252356   3.401  10.666   3.164
17444SOL     OW52357   2.901  10.408   2.558
17444SOL    HW152358   2.831  10.361   2.612
17444SOL    HW252359   2.960  10.340   2.515
17445SOL     OW52360   2.876   9.546   2.833
17445SOL    HW152361   2.868   9.510   2.740
17445SOL    HW252362   2.874   9.470   2.898
17446SOL     OW52363   2.452  10.797   2.353
17446SOL    HW152364   2.494  10.739   2.283
17446SOL    HW252365   2.408  10.876   2.309
17447SOL     OW52366   3.571   9.695   3.243
17447SOL    HW152367   3.644   9.764   3.247
17447SOL    HW252368   3.599   9.620   3.184
17448SOL     OW52369   2.117  10.658   2.152
17448SOL    HW152370   2.021  10.659   2.125
17448SOL    HW252371   2.129  10.711   2.236
17449SOL     OW52372   1.967  10.323   3.588
17449SOL    HW152373   1.890  10.290   3.642
17449SOL    HW252374   2.052  10.293   3.630
17450SOL     OW52375   2.534   9.513   3.351
17450SOL    HW152376   2.624   9.497   3.311
17450SOL    HW252377   2.542   9.518   3.450
17451SOL     OW52378   1.937   9.655   1.895
17451SOL    HW152379   1.845   9.627   1.866
17451SOL    HW252380   1.968   9.732   1.839
17452SOL     OW52381   3.302  10.166   3.260
17452SOL    HW152382   3.245  10.218   3.197
17452SOL    HW252383   3.398  10.178   3.236
17453SOL     OW52384   1.934   9.476   2.180
17453SOL    HW152385   1.917   9.559   2.126
17453SOL    HW252386   2.024   9.439   2.158
17454SOL     OW52387   3.045  10.645   1.981
17454SOL    HW152388   2.946  10.634   1.983
17454SOL    HW252389   3.079  10.660   2.074
17455SOL     OW52390   2.475  10.152   3.293
17455SOL    HW152391   2.531  10.233   3.276
17455SOL    HW252392   2.534  10.072   3.296
17456SOL     OW52393   3.355  11.077   2.821
17456SOL    HW152394   3.388  11.141   2.752
17456SOL    HW252395   3.421  11.071   2.896
17457SOL     OW52396   2.578   9.875   3.570
17457SOL    HW152397   2.597   9.940   3.644
17457SOL    HW252398   2.638   9.795   3.579
17458SOL     OW52399   3.312  10.530   3.495
17458SOL    HW152400   3.303  10.520   3.594
17458SOL    HW252401   3.408  10.523   3.469
17459SOL     OW52402   2.252  11.051   3.422
17459SOL    HW152403   2.161  11.092   3.420
17459SOL    HW252404   2.245  10.957   3.454
17460SOL     OW52405   3.536  10.193   3.116
17460SOL    HW152406   3.509  10.104   3.079
17460SOL    HW252407   3.537  10.261   3.043
17461SOL     OW52408   3.087   9.635   2.311
17461SOL    HW152409   3.152   9.561   2.300
17461SOL    HW252410   3.107   9.685   2.395
17462SOL     OW52411   2.456  10.055   2.514
17462SOL    HW152412   2.506  10.140   2.495
17462SOL    HW252413   2.368  10.057   2.466
17463SOL     OW52414   3.639   9.652   3.504
17463SOL    HW152415   3.622   9.683   3.410
17463SOL    HW252416   3.555   9.615   3.542
17464SOL     OW52417   3.592  10.244   3.379
17464SOL    HW152418   3.630  10.335   3.394
17464SOL    HW252419   3.584  10.227   3.280
17465SOL     OW52420   2.721  10.684   1.878
17465SOL    HW152421   2.675  10.699   1.966
17465SOL    HW252422   2.765  10.769   1.848
17466SOL     OW52423   2.523  11.100   2.815
17466SOL    HW152424   2.477  11.188   2.802
17466SOL    HW252425   2.622  11.112   2.808
17467SOL     OW52426   2.721  10.266   2.723
17467SOL    HW152427   2.775  10.197   2.771
17467SOL    HW252428   2.689  10.335   2.789
17468SOL     OW52429   2.945  10.294   1.949
17468SOL    HW152430   2.922  10.347   1.867
17468SOL    HW252431   3.026  10.238   1.930
17469SOL     OW52432   3.723  10.879   2.713
17469SOL    HW152433   3.652  10.867   2.643
17469SOL    HW252434   3.724  10.800   2.773
17470SOL     OW52435   2.083  10.624   3.706
17470SOL    HW152436   2.018  10.551   3.685
17470SOL    HW252437   2.087  10.638   3.804
17471SOL     OW52438   1.941  10.550   2.515
17471SOL    HW152439   1.940  10.503   2.603
17471SOL    HW252440   2.023  10.522   2.464
17472SOL     OW52441   2.534  10.701   3.486
17472SOL    HW152442   2.456  10.651   3.524
17472SOL    HW252443   2.531  10.796   3.517
17473SOL     OW52444   3.686   9.502   3.089
17473SOL    HW152445   3.682   9.412   3.133
17473SOL    HW252446   3.689   9.491   2.990
17474SOL     OW52447   2.290   9.734   2.382
17474SOL    HW152448   2.320   9.662   2.320
17474SOL    HW252449   2.251   9.694   2.465
17475SOL     OW52450   3.567  10.797   2.966
17475SOL    HW152451   3.474  10.772   2.939
17475SOL    HW252452   3.593  10.747   3.048
17476SOL     OW52453   2.179   9.857   3.142
17476SOL    HW152454   2.217   9.798   3.214
17476SOL    HW252455   2.219   9.831   3.054
17477SOL     OW52456   2.674  10.896   2.549
17477SOL    HW152457   2.706  10.906   2.455
17477SOL    HW252458   2.595  10.834   2.551
17478SOL     OW52459   3.286   9.524   2.974
17478SOL    HW152460   3.338   9.459   3.029
17478SOL    HW252461   3.237   9.587   3.035
17479SOL     OW52462   2.863   9.344   3.016
17479SOL    HW152463   2.800   9.272   2.985
17479SOL    HW252464   2.956   9.308   3.016
17480SOL     OW52465   2.632  10.640   2.163
17480SOL    HW152466   2.586  10.553   2.180
17480SOL    HW252467   2.723  10.637   2.204
17481SOL     OW52468   2.480  10.877   3.146
17481SOL    HW152469   2.475  10.959   3.203
17481SOL    HW252470   2.569  10.874   3.101
17482SOL     OW52471   3.214   9.362   2.030
17482SOL    HW152472   3.249   9.321   1.946
17482SOL    HW252473   3.124   9.324   2.050
17483SOL     OW52474   3.162   9.763   2.553
17483SOL    HW152475   3.103   9.843   2.557
17483SOL    HW252476   3.177   9.728   2.646
17484SOL     OW52477   3.455   9.531   2.744
17484SOL    HW152478   3.371   9.530   2.798
17484SOL    HW252479   3.457   9.614   2.688
17485SOL     OW52480   1.901  10.387   2.162
17485SOL    HW152481   2.000  10.376   2.153
17485SOL    HW252482   1.861  10.301   2.194
17486SOL     OW52483   2.737  10.956   2.199
17486SOL    HW152484   2.660  10.921   2.145
17486SOL    HW252485   2.705  11.027   2.261
17487SOL     OW52486   2.092   9.938   3.837
17487SOL    HW152487   1.999   9.936   3.874
17487SOL    HW252488   2.093   9.899   3.745
17488SOL     OW52489   2.087   9.585   4.720
17488SOL    HW152490   2.122   9.568   4.812
17488SOL    HW252491   1.999   9.540   4.708
17489SOL     OW52492   1.881   9.678   4.371
17489SOL    HW152493   1.799   9.721   4.410
17489SOL    HW252494   1.853   9.605   4.308
17490SOL     OW52495   2.431  10.585   4.889
17490SOL    HW152496   2.338  10.578   4.852
17490SOL    HW252497   2.442  10.674   4.933
17491SOL     OW52498   3.417  10.821   4.427
17491SOL    HW152499   3.360  10.805   4.508
17491SOL    HW252500   3.358  10.831   4.347
17492SOL     OW52501   2.997  10.013   4.441
17492SOL    HW152502   3.054  10.091   4.416
17492SOL    HW252503   2.937  10.039   4.517
17493SOL     OW52504   3.617   9.917   3.955
17493SOL    HW152505   3.605   9.904   3.856
17493SOL    HW252506   3.587   9.836   4.004
17494SOL     OW52507   2.630  10.454   4.747
17494SOL    HW152508   2.552  10.471   4.807
17494SOL    HW252509   2.664  10.541   4.711
17495SOL     OW52510   2.712  10.108   5.547
17495SOL    HW152511   2.708  10.184   5.612
17495SOL    HW252512   2.734  10.144   5.456
17496SOL     OW52513   2.547  10.322   4.389
17496SOL    HW152514   2.616  10.306   4.459
17496SOL    HW252515   2.474  10.379   4.427
17497SOL     OW52516   2.548  10.471   5.527
17497SOL    HW152517   2.608  10.550   5.541
17497SOL    HW252518   2.462  10.502   5.486
17498SOL     OW52519   2.197  10.745   4.785
17498SOL    HW152520   2.119  10.714   4.732
17498SOL    HW252521   2.255  10.803   4.728
17499SOL     OW52522   3.322  10.815   5.063
17499SOL    HW152523   3.346  10.909   5.089
17499SOL    HW252524   3.306  10.761   5.145
17500SOL     OW52525   2.300   9.702   5.223
17500SOL    HW152526   2.382   9.646   5.232
17500SOL    HW252527   2.219   9.644   5.227
17501SOL     OW52528   3.465   9.757   4.461
17501SOL    HW152529   3.391   9.803   4.411
17501SOL    HW252530   3.516   9.825   4.514
17502SOL     OW52531   2.093  11.023   4.207
17502SOL    HW152532   2.127  11.100   4.261
17502SOL    HW252533   2.137  11.023   4.117
17503SOL     OW52534   2.989  10.651   5.414
17503SOL    HW152535   3.036  10.651   5.502
17503SOL    HW252536   2.941  10.564   5.403
17504SOL     OW52537   2.092  10.744   4.262
17504SOL    HW152538   2.066  10.840   4.262
17504SOL    HW252539   2.021  10.690   4.307
17505SOL     OW52540   2.102  10.401   4.610
17505SOL    HW152541   2.116  10.317   4.662
17505SOL    HW252542   2.047  10.465   4.665
17506SOL     OW52543   2.482  11.096   5.163
17506SOL    HW152544   2.390  11.079   5.198
17506SOL    HW252545   2.510  11.188   5.189
17507SOL     OW52546   2.468  10.274   3.847
17507SOL    HW152547   2.475  10.358   3.793
17507SOL    HW252548   2.514  10.287   3.935
17508SOL     OW52549   3.456   9.424   5.204
17508SOL    HW152550   3.438   9.491   5.132
17508SOL    HW252551   3.453   9.470   5.293
17509SOL     OW52552   1.984   9.953   4.287
17509SOL    HW152553   1.939   9.865   4.304
17509SOL    HW252554   1.983  10.007   4.371
17510SOL     OW52555   3.704  11.077   4.083
17510SOL    HW152556   3.758  11.048   4.163
17510SOL    HW252557   3.734  11.167   4.054
17511SOL     OW52558   1.889  10.906   3.841
17511SOL    HW152559   1.870  10.810   3.862
17511SOL    HW252560   1.856  10.964   3.916
17512SOL     OW52561   3.551  10.232   4.336
17512SOL    HW152562   3.646  10.203   4.344
17512SOL    HW252563   3.543  10.297   4.261
17513SOL     OW52564   3.503  10.418   4.156
17513SOL    HW152565   3.589  10.420   4.104
17513SOL    HW252566   3.517  10.465   4.244
17514SOL     OW52567   1.975  10.047   5.321
17514SOL    HW152568   2.063  10.034   5.366
17514SOL    HW252569   1.962  10.144   5.299
17515SOL     OW52570   2.475  10.675   4.450
17515SOL    HW152571   2.426  10.588   4.459
17515SOL    HW252572   2.452  10.718   4.363
17516SOL     OW52573   3.155  10.538   5.147
17516SOL    HW152574   3.192  10.465   5.089
17516SOL    HW252575   3.207  10.543   5.232
17517SOL     OW52576   2.671   9.314   4.226
17517SOL    HW152577   2.711   9.405   4.217
17517SOL    HW252578   2.571   9.322   4.232
17518SOL     OW52579   2.059  10.286   4.988
17518SOL    HW152580   2.148  10.241   4.974
17518SOL    HW252581   1.986  10.221   4.969
17519SOL     OW52582   3.387  10.309   3.914
17519SOL    HW152583   3.324  10.233   3.927
17519SOL    HW252584   3.435  10.327   4.000
17520SOL     OW52585   3.049  11.102   5.340
17520SOL    HW152586   3.073  11.162   5.264
17520SOL    HW252587   3.056  11.007   5.310
17521SOL     OW52588   2.179   9.561   5.525
17521SOL    HW152589   2.250   9.632   5.531
17521SOL    HW252590   2.091   9.600   5.553
17522SOL     OW52591   3.328  10.727   4.677
17522SOL    HW152592   3.269  10.733   4.757
17522SOL    HW252593   3.313  10.639   4.631
17523SOL     OW52594   3.529  11.024   4.296
17523SOL    HW152595   3.488  11.001   4.208
17523SOL    HW252596   3.511  10.950   4.361
17524SOL     OW52597   2.460  10.039   3.994
17524SOL    HW152598   2.484  10.108   3.926
17524SOL    HW252599   2.382  10.072   4.048
17525SOL     OW52600   3.143   9.655   4.668
17525SOL    HW152601   3.057   9.605   4.655
17525SOL    HW252602   3.205   9.601   4.724
17526SOL     OW52603   3.438  10.972   4.031
17526SOL    HW152604   3.527  11.018   4.034
17526SOL    HW252605   3.417  10.948   3.936
17527SOL     OW52606   2.669   9.915   5.189
17527SOL    HW152607   2.622   9.912   5.278
17527SOL    HW252608   2.618   9.860   5.123
17528SOL     OW52609   3.256   9.779   5.398
17528SOL    HW152610   3.236   9.822   5.486
17528SOL    HW252611   3.334   9.717   5.407
17529SOL     OW52612   2.835  10.200   5.296
17529SOL    HW152613   2.881  10.116   5.267
17529SOL    HW252614   2.779  10.234   5.221
17530SOL     OW52615   2.853   9.720   4.966
17530SOL    HW152616   2.776   9.754   5.020
17530SOL    HW252617   2.819   9.669   4.887
17531SOL     OW52618   2.903  10.011   4.153
17531SOL    HW152619   2.929  10.007   4.249
17531SOL    HW252620   2.818   9.960   4.139
17532SOL     OW52621   1.938  10.121   4.513
17532SOL    HW152622   2.037  10.109   4.522
17532SOL    HW252623   1.914  10.216   4.534
17533SOL     OW52624   1.992  11.131   5.295
17533SOL    HW152625   1.982  11.116   5.394
17533SOL    HW252626   1.906  11.167   5.259
17534SOL     OW52627   2.727   9.658   3.919
17534SOL    HW152628   2.786   9.721   3.870
17534SOL    HW252629   2.746   9.564   3.890
17535SOL     OW52630   3.581   9.895   5.555
17535SOL    HW152631   3.555   9.984   5.519
17535SOL    HW252632   3.579   9.827   5.482
17536SOL     OW52633   3.224  10.454   4.269
17536SOL    HW152634   3.307  10.425   4.221
17536SOL    HW252635   3.175  10.521   4.213
17537SOL     OW52636   2.412   9.506   4.609
17537SOL    HW152637   2.407   9.501   4.709
17537SOL    HW252638   2.414   9.602   4.580
17538SOL     OW52639   2.870  10.766   4.201
17538SOL    HW152640   2.824  10.838   4.149
17538SOL    HW252641   2.866  10.786   4.299
17539SOL     OW52642   2.213  11.111   4.577
17539SOL    HW152643   2.263  11.025   4.583
17539SOL    HW252644   2.278  11.188   4.574
17540SOL     OW52645   3.657  10.376   4.597
17540SOL    HW152646   3.595  10.361   4.521
17540SOL    HW252647   3.605  10.387   4.682
17541SOL     OW52648   3.089  10.860   5.230
17541SOL    HW152649   3.095  10.783   5.294
17541SOL    HW252650   3.037  10.834   5.150
17542SOL     OW52651   2.183  10.253   3.966
17542SOL    HW152652   2.265  10.292   3.924
17542SOL    HW252653   2.156  10.171   3.917
17543SOL     OW52654   3.320  10.045   4.452
17543SOL    HW152655   3.315   9.980   4.527
17543SOL    HW252656   3.400  10.104   4.465
17544SOL     OW52657   2.323  10.576   5.451
17544SOL    HW152658   2.273  10.577   5.365
17544SOL    HW252659   2.260  10.558   5.527
17545SOL     OW52660   2.973  11.086   3.961
17545SOL    HW152661   2.913  11.024   4.011
17545SOL    HW252662   3.004  11.042   3.876
17546SOL     OW52663   2.064   9.595   5.222
17546SOL    HW152664   1.984   9.655   5.209
17546SOL    HW252665   2.054   9.546   5.308
17547SOL     OW52666   3.494  10.687   3.805
17547SOL    HW152667   3.462  10.781   3.795
17547SOL    HW252668   3.418  10.624   3.793
17548SOL     OW52669   2.326  11.053   4.047
17548SOL    HW152670   2.359  11.092   4.133
17548SOL    HW252671   2.402  11.046   3.982
17549SOL     OW52672   3.262   9.417   4.150
17549SOL    HW152673   3.238   9.380   4.060
17549SOL    HW252674   3.361   9.433   4.154
17550SOL     OW52675   2.111  11.095   4.965
17550SOL    HW152676   2.168  11.030   5.015
17550SOL    HW252677   2.095  11.062   4.872
17551SOL     OW52678   2.802  11.008   4.628
17551SOL    HW152679   2.882  10.951   4.649
17551SOL    HW252680   2.753  10.968   4.551
17552SOL     OW52681   2.244  10.010   4.204
17552SOL    HW152682   2.289   9.920   4.201
17552SOL    HW252683   2.150   9.999   4.237
17553SOL     OW52684   3.409   9.532   5.453
17553SOL    HW152685   3.404   9.569   5.545
17553SOL    HW252686   3.337   9.463   5.441
17554SOL     OW52687   2.476   9.432   3.841
17554SOL    HW152688   2.574   9.410   3.848
17554SOL    HW252689   2.445   9.415   3.748
17555SOL     OW52690   2.643   9.574   5.473
17555SOL    HW152691   2.710   9.513   5.516
17555SOL    HW252692   2.570   9.593   5.538
17556SOL     OW52693   2.750  10.824   4.919
17556SOL    HW152694   2.727  10.799   4.825
17556SOL    HW252695   2.811  10.755   4.958
17557SOL     OW52696   3.213   9.900   5.157
17557SOL    HW152697   3.241   9.857   5.242
17557SOL    HW252698   3.238   9.996   5.158
17558SOL     OW52699   2.665  10.712   4.648
17558SOL    HW152700   2.755  10.726   4.606
17558SOL    HW252701   2.594  10.714   4.577
17559SOL     OW52702   2.784   9.813   4.623
17559SOL    HW152703   2.759   9.804   4.527
17559SOL    HW252704   2.832   9.731   4.654
17560SOL     OW52705   2.401   9.374   4.236
17560SOL    HW152706   2.320   9.375   4.294
17560SOL    HW252707   2.404   9.457   4.181
17561SOL     OW52708   3.296  10.498   3.765
17561SOL    HW152709   3.328  10.422   3.822
17561SOL    HW252710   3.204  10.525   3.795
17562SOL     OW52711   2.159   9.345   3.895
17562SOL    HW152712   2.208   9.429   3.874
17562SOL    HW252713   2.221   9.280   3.940
17563SOL     OW52714   2.797   9.546   4.204
17563SOL    HW152715   2.749   9.587   4.126
17563SOL    HW252716   2.896   9.544   4.185
17564SOL     OW52717   2.938   9.993   5.188
17564SOL    HW152718   2.858   9.932   5.191
17564SOL    HW252719   3.019   9.940   5.164
17565SOL     OW52720   3.089  10.880   4.517
17565SOL    HW152721   3.110  10.954   4.452
17565SOL    HW252722   3.157  10.880   4.590
17566SOL     OW52723   2.321  10.462   4.465
17566SOL    HW152724   2.250  10.435   4.530
17566SOL    HW252725   2.295  10.434   4.372
17567SOL     OW52726   3.133  11.107   4.315
17567SOL    HW152727   3.177  11.171   4.251
17567SOL    HW252728   3.083  11.159   4.385
17568SOL     OW52729   2.894   9.859   3.740
17568SOL    HW152730   2.853   9.941   3.701
17568SOL    HW252731   2.958   9.885   3.813
17569SOL     OW52732   1.940   9.866   5.110
17569SOL    HW152733   2.032   9.865   5.069
17569SOL    HW252734   1.934   9.940   5.177
17570SOL     OW52735   2.423   9.532   4.871
17570SOL    HW152736   2.461   9.448   4.908
17570SOL    HW252737   2.335   9.551   4.915
17571SOL     OW52738   2.728   9.764   4.366
17571SOL    HW152739   2.696   9.836   4.304
17571SOL    HW252740   2.752   9.683   4.313
17572SOL     OW52741   2.879   9.349   4.477
17572SOL    HW152742   2.807   9.354   4.408
17572SOL    HW252743   2.855   9.280   4.546
17573SOL     OW52744   3.291  10.483   4.591
17573SOL    HW152745   3.236  10.399   4.584
17573SOL    HW252746   3.317  10.512   4.499
17574SOL     OW52747   3.328   9.900   4.716
17574SOL    HW152748   3.298   9.805   4.723
17574SOL    HW252749   3.401   9.916   4.782
17575SOL     OW52750   3.719  10.143   4.101
17575SOL    HW152751   3.761  10.079   4.165
17575SOL    HW252752   3.681  10.092   4.023
17576SOL     OW52753   2.350  10.695   3.898
17576SOL    HW152754   2.263  10.680   3.945
17576SOL    HW252755   2.333  10.721   3.803
17577SOL     OW52756   3.526  10.590   4.381
17577SOL    HW152757   3.625  10.598   4.395
17577SOL    HW252758   3.481  10.674   4.412
17578SOL     OW52759   3.252   9.885   3.802
17578SOL    HW152760   3.198   9.864   3.883
17578SOL    HW252761   3.343   9.844   3.811
17579SOL     OW52762   2.389   9.566   4.052
17579SOL    HW152763   2.416   9.507   3.977
17579SOL    HW252764   2.389   9.661   4.021
17580SOL     OW52765   3.616  10.533   5.312
17580SOL    HW152766   3.707  10.494   5.299
17580SOL    HW252767   3.624  10.629   5.336
17581SOL     OW52768   2.926  10.657   5.064
17581SOL    HW152769   2.846  10.634   5.119
17581SOL    HW252770   3.009  10.631   5.113
17582SOL     OW52771   3.454  10.939   5.349
17582SOL    HW152772   3.481  10.973   5.259
17582SOL    HW252773   3.533  10.901   5.395
17583SOL     OW52774   2.973  10.505   4.824
17583SOL    HW152775   2.933  10.549   4.905
17583SOL    HW252776   2.932  10.542   4.741
17584SOL     OW52777   3.500  10.409   4.803
17584SOL    HW152778   3.505  10.490   4.862
17584SOL    HW252779   3.414  10.411   4.752
17585SOL     OW52780   2.777   9.399   5.126
17585SOL    HW152781   2.802   9.379   5.031
17585SOL    HW252782   2.849   9.455   5.168
17586SOL     OW52783   2.842  10.426   5.443
17586SOL    HW152784   2.743  10.432   5.453
17586SOL    HW252785   2.865  10.346   5.387
17587SOL     OW52786   2.567  10.360   4.092
17587SOL    HW152787   2.553  10.367   4.191
17587SOL    HW252788   2.651  10.309   4.074
17588SOL     OW52789   2.272  10.123   4.975
17588SOL    HW152790   2.358  10.135   5.025
17588SOL    HW252791   2.230  10.036   5.002
17589SOL     OW52792   3.136   9.696   4.986
17589SOL    HW152793   3.157   9.770   5.050
17589SOL    HW252794   3.047   9.713   4.943
17590SOL     OW52795   1.926  10.874   5.055
17590SOL    HW152796   1.880  10.956   5.021
17590SOL    HW252797   2.024  10.893   5.064
17591SOL     OW52798   2.229  10.410   4.225
17591SOL    HW152799   2.222  10.493   4.169
17591SOL    HW252800   2.233  10.330   4.165
17592SOL     OW52801   2.428   9.847   4.589
17592SOL    HW152802   2.440   9.913   4.515
17592SOL    HW252803   2.474   9.881   4.672
17593SOL     OW52804   3.114  10.658   4.112
17593SOL    HW152805   3.164  10.735   4.152
17593SOL    HW252806   3.019  10.660   4.144
17594SOL     OW52807   3.134  10.755   4.866
17594SOL    HW152808   3.181  10.768   4.953
17594SOL    HW252809   3.068  10.681   4.875
17595SOL     OW52810   3.444   9.949   4.196
17595SOL    HW152811   3.413  10.010   4.269
17595SOL    HW252812   3.494  10.001   4.127
17596SOL     OW52813   2.216  10.820   5.053
17596SOL    HW152814   2.195  10.776   4.966
17596SOL    HW252815   2.313  10.846   5.056
17597SOL     OW52816   2.264  10.061   5.322
17597SOL    HW152817   2.332  10.116   5.275
17597SOL    HW252818   2.304   9.973   5.349
17598SOL     OW52819   3.449  10.089   5.394
17598SOL    HW152820   3.357  10.127   5.389
17598SOL    HW252821   3.509  10.136   5.329
17599SOL     OW52822   2.875   9.415   5.494
17599SOL    HW152823   2.881   9.500   5.442
17599SOL    HW252824   2.907   9.339   5.437
17600SOL     OW52825   2.366   9.360   5.464
17600SOL    HW152826   2.324   9.303   5.394
17600SOL    HW252827   2.300   9.429   5.496
17601SOL     OW52828   2.435  10.180   4.753
17601SOL    HW152829   2.479  10.269   4.744
17601SOL    HW252830   2.372  10.180   4.830
17602SOL     OW52831   3.222  10.172   4.769
17602SOL    HW152832   3.147  10.172   4.703
17602SOL    HW252833   3.259  10.080   4.778
17603SOL     OW52834   3.071   9.835   3.999
17603SOL    HW152835   3.084   9.751   4.053
17603SOL    HW252836   3.042   9.909   4.059
17604SOL     OW52837   2.169   9.523   4.955
17604SOL    HW152838   2.146   9.560   5.045
17604SOL    HW252839   2.139   9.428   4.949
17605SOL     OW52840   1.899  10.620   5.006
17605SOL    HW152841   1.952  10.571   5.074
17605SOL    HW252842   1.921  10.718   5.011
17606SOL     OW52843   2.594   9.944   4.788
17606SOL    HW152844   2.653   9.918   4.712
17606SOL    HW252845   2.566  10.040   4.777
17607SOL     OW52846   3.590  10.245   5.578
17607SOL    HW152847   3.544  10.238   5.489
17607SOL    HW252848   3.528  10.289   5.644
17608SOL     OW52849   2.169   9.373   4.342
17608SOL    HW152850   2.158   9.467   4.375
17608SOL    HW252851   2.164   9.310   4.419
17609SOL     OW52852   3.484   9.677   4.098
17609SOL    HW152853   3.486   9.601   4.162
17609SOL    HW252854   3.436   9.754   4.138
17610SOL     OW52855   2.885  10.076   4.690
17610SOL    HW152856   2.900  10.097   4.786
17610SOL    HW252857   2.855   9.981   4.681
17611SOL     OW52858   2.842  10.883   5.424
17611SOL    HW152859   2.822  10.927   5.336
17611SOL    HW252860   2.881  10.792   5.408
17612SOL     OW52861   3.721  10.828   5.329
17612SOL    HW152862   3.735  10.855   5.234
17612SOL    HW252863   3.804  10.850   5.382
17613SOL     OW52864   2.212  10.208   5.528
17613SOL    HW152865   2.288  10.252   5.576
17613SOL    HW252866   2.247  10.161   5.446
17614SOL     OW52867   3.402   9.584   3.849
17614SOL    HW152868   3.341   9.509   3.872
17614SOL    HW252869   3.424   9.636   3.932
17615SOL     OW52870   3.165  10.148   3.766
17615SOL    HW152871   3.199  10.055   3.781
17615SOL    HW252872   3.183  10.175   3.671
17616SOL     OW52873   2.930  10.643   4.573
17616SOL    HW152874   2.937  10.559   4.518
17616SOL    HW252875   2.992  10.712   4.537
17617SOL     OW52876   2.181  10.120   4.673
17617SOL    HW152877   2.274  10.156   4.678
17617SOL    HW252878   2.175  10.035   4.725
17618SOL     OW52879   2.201   9.819   4.730
17618SOL    HW152880   2.149   9.736   4.713
17618SOL    HW252881   2.278   9.824   4.666
17619SOL     OW52882   3.000   9.690   5.402
17619SOL    HW152883   2.955   9.753   5.466
17619SOL    HW252884   3.093   9.721   5.385
17620SOL     OW52885   3.022   9.517   5.201
17620SOL    HW152886   3.022   9.581   5.278
17620SOL    HW252887   3.050   9.565   5.118
17621SOL     OW52888   1.870  10.636   3.924
17621SOL    HW152889   1.777  10.657   3.893
17621SOL    HW252890   1.880  10.537   3.937
17622SOL     OW52891   1.950  11.111   4.651
17622SOL    HW152892   1.908  11.025   4.624
17622SOL    HW252893   2.044  11.114   4.617
17623SOL     OW52894   2.366  10.878   4.634
17623SOL    HW152895   2.432  10.952   4.643
17623SOL    HW252896   2.410  10.799   4.592
17624SOL     OW52897   2.864  10.106   4.962
17624SOL    HW152898   2.905  10.074   5.048
17624SOL    HW252899   2.768  10.079   4.959
17625SOL     OW52900   1.902   9.854   4.838
17625SOL    HW152901   1.987   9.821   4.797
17625SOL    HW252902   1.915   9.869   4.936
17626SOL     OW52903   2.051   9.830   5.446
17626SOL    HW152904   2.110   9.790   5.376
17626SOL    HW252905   1.993   9.901   5.405
17627SOL     OW52906   3.231  10.260   5.384
17627SOL    HW152907   3.270  10.349   5.404
17627SOL    HW252908   3.241  10.240   5.287
17628SOL     OW52909   2.677   9.882   4.049
17628SOL    HW152910   2.684   9.793   4.003
17628SOL    HW252911   2.583   9.916   4.041
17629SOL     OW52912   3.519   9.914   4.930
17629SOL    HW152913   3.481   9.845   4.992
17629SOL    HW252914   3.601   9.878   4.886
17630SOL     OW52915   2.114  10.874   5.468
17630SOL    HW152916   2.084  10.931   5.544
17630SOL    HW252917   2.107  10.777   5.494
17631SOL     OW52918   2.533   9.774   4.993
17631SOL    HW152919   2.499   9.685   4.963
17631SOL    HW252920   2.559   9.828   4.913
17632SOL     OW52921   2.792  10.988   5.189
17632SOL    HW152922   2.768  10.970   5.094
17632SOL    HW252923   2.822  11.082   5.199
17633SOL     OW52924   2.335   9.810   3.915
17633SOL    HW152925   2.396   9.890   3.919
17633SOL    HW252926   2.240   9.841   3.922
17634SOL     OW52927   2.021  10.447   5.190
17634SOL    HW152928   2.043  10.386   5.266
17634SOL    HW252929   2.031  10.398   5.104
17635SOL     OW52930   3.209  10.369   4.958
17635SOL    HW152931   3.233  10.306   4.884
17635SOL    HW252932   3.119  10.409   4.940
17636SOL     OW52933   3.164  10.165   4.033
17636SOL    HW152934   3.078  10.134   4.075
17636SOL    HW252935   3.160  10.151   3.934
17637SOL     OW52936   3.621  11.057   4.878
17637SOL    HW152937   3.682  11.087   4.805
17637SOL    HW252938   3.583  10.968   4.856
17638SOL     OW52939   3.114  11.041   4.852
17638SOL    HW152940   3.198  11.046   4.798
17638SOL    HW252941   3.091  10.945   4.870
17639SOL     OW52942   1.945  10.568   4.746
17639SOL    HW152943   1.940  10.567   4.846
17639SOL    HW252944   1.862  10.527   4.708
17640SOL     OW52945   2.550  10.972   5.440
17640SOL    HW152946   2.494  11.053   5.449
17640SOL    HW252947   2.602  10.976   5.354
17641SOL     OW52948   3.588   9.445   4.247
17641SOL    HW152949   3.661   9.428   4.180
17641SOL    HW252950   3.557   9.358   4.285
17642SOL     OW52951   3.250  10.883   4.201
17642SOL    HW152952   3.317  10.895   4.127
17642SOL    HW252953   3.210  10.972   4.224
17643SOL     OW52954   1.992  11.104   5.575
17643SOL    HW152955   1.951  11.030   5.628
17643SOL    HW252956   2.056  11.155   5.633
17644SOL     OW52957   3.142  10.237   4.396
17644SOL    HW152958   3.202  10.156   4.398
17644SOL    HW252959   3.182  10.306   4.336
17645SOL     OW52960   2.692  10.583   5.146
17645SOL    HW152961   2.687  10.616   5.241
17645SOL    HW252962   2.606  10.602   5.100
17646SOL     OW52963   2.534  10.926   3.878
17646SOL    HW152964   2.543  10.936   3.779
17646SOL    HW252965   2.494  10.837   3.899
17647SOL     OW52966   3.512  11.030   5.118
17647SOL    HW152967   3.565  11.040   5.034
17647SOL    HW252968   3.485  11.120   5.152
17648SOL     OW52969   3.703   9.485   4.687
17648SOL    HW152970   3.742   9.400   4.651
17648SOL    HW252971   3.605   9.487   4.668
17649SOL     OW52972   2.125   9.636   4.444
17649SOL    HW152973   2.046   9.687   4.410
17649SOL    HW252974   2.116   9.621   4.542
17650SOL     OW52975   3.056  10.922   3.755
17650SOL    HW152976   3.062  10.829   3.792
17650SOL    HW252977   2.997  10.922   3.675
17651SOL     OW52978   2.684  10.312   5.096
17651SOL    HW152979   2.724  10.311   5.004
17651SOL    HW252980   2.694  10.404   5.136
17652SOL     OW52981   2.778  10.220   4.015
17652SOL    HW152982   2.841  10.258   3.947
17652SOL    HW252983   2.818  10.137   4.054
17653SOL     OW52984   3.366  10.917   3.768
17653SOL    HW152985   3.274  10.954   3.775
17653SOL    HW252986   3.404  10.937   3.678
17654SOL     OW52987   2.234  10.598   5.214
17654SOL    HW152988   2.221  10.691   5.180
17654SOL    HW252989   2.150  10.546   5.201
17655SOL     OW52990   3.476  10.602   5.013
17655SOL    HW152991   3.536  10.605   5.093
17655SOL    HW252992   3.401  10.666   5.026
17656SOL     OW52993   2.901  10.408   4.420
17656SOL    HW152994   2.831  10.361   4.474
17656SOL    HW252995   2.960  10.340   4.377
17657SOL     OW52996   2.876   9.546   4.695
17657SOL    HW152997   2.868   9.510   4.602
17657SOL    HW252998   2.874   9.470   4.760
17658SOL     OW52999   2.452  10.797   4.215
17658SOL    HW153000   2.494  10.739   4.145
17658SOL    HW253001   2.408  10.876   4.171
17659SOL     OW53002   3.571   9.695   5.105
17659SOL    HW153003   3.644   9.764   5.109
17659SOL    HW253004   3.599   9.620   5.046
17660SOL     OW53005   2.117  10.658   4.014
17660SOL    HW153006   2.021  10.659   3.987
17660SOL    HW253007   2.129  10.711   4.098
17661SOL     OW53008   1.967  10.323   5.450
17661SOL    HW153009   1.890  10.290   5.504
17661SOL    HW253010   2.052  10.293   5.492
17662SOL     OW53011   2.534   9.513   5.213
17662SOL    HW153012   2.624   9.497   5.173
17662SOL    HW253013   2.542   9.518   5.312
17663SOL     OW53014   1.937   9.655   3.757
17663SOL    HW153015   1.845   9.627   3.728
17663SOL    HW253016   1.968   9.732   3.701
17664SOL     OW53017   3.302  10.166   5.122
17664SOL    HW153018   3.245  10.218   5.059
17664SOL    HW253019   3.398  10.178   5.098
17665SOL     OW53020   1.934   9.476   4.042
17665SOL    HW153021   1.917   9.559   3.988
17665SOL    HW253022   2.024   9.439   4.020
17666SOL     OW53023   3.045  10.645   3.843
17666SOL    HW153024   2.946  10.634   3.845
17666SOL    HW253025   3.079  10.660   3.936
17667SOL     OW53026   2.475  10.152   5.155
17667SOL    HW153027   2.531  10.233   5.138
17667SOL    HW253028   2.534  10.072   5.158
17668SOL     OW53029   3.355  11.077   4.683
17668SOL    HW153030   3.388  11.141   4.614
17668SOL    HW253031   3.421  11.071   4.758
17669SOL     OW53032   2.578   9.875   5.432
17669SOL    HW153033   2.597   9.940   5.506
17669SOL    HW253034   2.638   9.795   5.441
17670SOL     OW53035   3.312  10.530   5.357
17670SOL    HW153036   3.303  10.520   5.456
17670SOL    HW253037   3.408  10.523   5.331
17671SOL     OW53038   2.252  11.051   5.284
17671SOL    HW153039   2.161  11.092   5.282
17671SOL    HW253040   2.245  10.957   5.316
17672SOL     OW53041   3.536  10.193   4.978
17672SOL    HW153042   3.509  10.104   4.941
17672SOL    HW253043   3.537  10.261   4.905
17673SOL     OW53044   3.087   9.635   4.173
17673SOL    HW153045   3.152   9.561   4.162
17673SOL    HW253046   3.107   9.685   4.257
17674SOL     OW53047   2.456  10.055   4.376
17674SOL    HW153048   2.506  10.140   4.357
17674SOL    HW253049   2.368  10.057   4.328
17675SOL     OW53050   3.639   9.652   5.366
17675SOL    HW153051   3.622   9.683   5.272
17675SOL    HW253052   3.555   9.615   5.404
17676SOL     OW53053   3.592  10.244   5.241
17676SOL    HW153054   3.630  10.335   5.256
17676SOL    HW253055   3.584  10.227   5.142
17677SOL     OW53056   2.721  10.684   3.740
17677SOL    HW153057   2.675  10.699   3.828
17677SOL    HW253058   2.765  10.769   3.710
17678SOL     OW53059   2.523  11.100   4.677
17678SOL    HW153060   2.477  11.188   4.664
17678SOL    HW253061   2.622  11.112   4.670
17679SOL     OW53062   2.721  10.266   4.585
17679SOL    HW153063   2.775  10.197   4.633
17679SOL    HW253064   2.689  10.335   4.651
17680SOL     OW53065   2.945  10.294   3.811
17680SOL    HW153066   2.922  10.347   3.729
17680SOL    HW253067   3.026  10.238   3.792
17681SOL     OW53068   3.723  10.879   4.575
17681SOL    HW153069   3.652  10.867   4.505
17681SOL    HW253070   3.724  10.800   4.635
17682SOL     OW53071   2.083  10.624   5.568
17682SOL    HW153072   2.018  10.551   5.547
17682SOL    HW253073   2.087  10.638   5.666
17683SOL     OW53074   1.941  10.550   4.377
17683SOL    HW153075   1.940  10.503   4.465
17683SOL    HW253076   2.023  10.522   4.326
17684SOL     OW53077   2.534  10.701   5.348
17684SOL    HW153078   2.456  10.651   5.386
17684SOL    HW253079   2.531  10.796   5.379
17685SOL     OW53080   3.686   9.502   4.951
17685SOL    HW153081   3.682   9.412   4.995
17685SOL    HW253082   3.689   9.491   4.852
17686SOL     OW53083   2.290   9.734   4.244
17686SOL    HW153084   2.320   9.662   4.182
17686SOL    HW253085   2.251   9.694   4.327
17687SOL     OW53086   3.567  10.797   4.828
17687SOL    HW153087   3.474  10.772   4.801
17687SOL    HW253088   3.593  10.747   4.910
17688SOL     OW53089   2.179   9.857   5.004
17688SOL    HW153090   2.217   9.798   5.076
17688SOL    HW253091   2.219   9.831   4.916
17689SOL     OW53092   2.674  10.896   4.411
17689SOL    HW153093   2.706  10.906   4.317
17689SOL    HW253094   2.595  10.834   4.413
17690SOL     OW53095   3.286   9.524   4.836
17690SOL    HW153096   3.338   9.459   4.891
17690SOL    HW253097   3.237   9.587   4.897
17691SOL     OW53098   2.863   9.344   4.878
17691SOL    HW153099   2.800   9.272   4.847
17691SOL    HW253100   2.956   9.308   4.878
17692SOL     OW53101   2.632  10.640   4.025
17692SOL    HW153102   2.586  10.553   4.042
17692SOL    HW253103   2.723  10.637   4.066
17693SOL     OW53104   2.480  10.877   5.008
17693SOL    HW153105   2.475  10.959   5.065
17693SOL    HW253106   2.569  10.874   4.963
17694SOL     OW53107   3.214   9.362   3.892
17694SOL    HW153108   3.249   9.321   3.808
17694SOL    HW253109   3.124   9.324   3.912
17695SOL     OW53110   3.162   9.763   4.415
17695SOL    HW153111   3.103   9.843   4.419
17695SOL    HW253112   3.177   9.728   4.508
17696SOL     OW53113   3.455   9.531   4.606
17696SOL    HW153114   3.371   9.530   4.660
17696SOL    HW253115   3.457   9.614   4.550
17697SOL     OW53116   1.901  10.387   4.024
17697SOL    HW153117   2.000  10.376   4.015
17697SOL    HW253118   1.861  10.301   4.056
17698SOL     OW53119   2.737  10.956   4.061
17698SOL    HW153120   2.660  10.921   4.007
17698SOL    HW253121   2.705  11.027   4.123
17699SOL     OW53122   2.092   9.938   5.699
17699SOL    HW153123   1.999   9.936   5.736
17699SOL    HW253124   2.093   9.899   5.607
17700SOL     OW53125   2.087   9.585   6.582
17700SOL    HW153126   2.122   9.568   6.674
17700SOL    HW253127   1.999   9.540   6.570
17701SOL     OW53128   1.881   9.678   6.233
17701SOL    HW153129   1.799   9.721   6.272
17701SOL    HW253130   1.853   9.605   6.170
17702SOL     OW53131   2.431  10.585   6.751
17702SOL    HW153132   2.338  10.578   6.714
17702SOL    HW253133   2.442  10.674   6.795
17703SOL     OW53134   3.417  10.821   6.289
17703SOL    HW153135   3.360  10.805   6.370
17703SOL    HW253136   3.358  10.831   6.209
17704SOL     OW53137   2.997  10.013   6.303
17704SOL    HW153138   3.054  10.091   6.278
17704SOL    HW253139   2.937  10.039   6.379
17705SOL     OW53140   3.617   9.917   5.817
17705SOL    HW153141   3.605   9.904   5.718
17705SOL    HW253142   3.587   9.836   5.866
17706SOL     OW53143   2.630  10.454   6.609
17706SOL    HW153144   2.552  10.471   6.669
17706SOL    HW253145   2.664  10.541   6.573
17707SOL     OW53146   2.712  10.108   7.409
17707SOL    HW153147   2.708  10.184   7.474
17707SOL    HW253148   2.734  10.144   7.318
17708SOL     OW53149   2.547  10.322   6.251
17708SOL    HW153150   2.616  10.306   6.321
17708SOL    HW253151   2.474  10.379   6.289
17709SOL     OW53152   2.548  10.471   7.389
17709SOL    HW153153   2.608  10.550   7.403
17709SOL    HW253154   2.462  10.502   7.348
17710SOL     OW53155   2.197  10.745   6.647
17710SOL    HW153156   2.119  10.714   6.594
17710SOL    HW253157   2.255  10.803   6.590
17711SOL     OW53158   3.322  10.815   6.925
17711SOL    HW153159   3.346  10.909   6.951
17711SOL    HW253160   3.306  10.761   7.007
17712SOL     OW53161   2.300   9.702   7.085
17712SOL    HW153162   2.382   9.646   7.094
17712SOL    HW253163   2.219   9.644   7.089
17713SOL     OW53164   3.465   9.757   6.323
17713SOL    HW153165   3.391   9.803   6.273
17713SOL    HW253166   3.516   9.825   6.376
17714SOL     OW53167   2.093  11.023   6.069
17714SOL    HW153168   2.127  11.100   6.123
17714SOL    HW253169   2.137  11.023   5.979
17715SOL     OW53170   2.989  10.651   7.276
17715SOL    HW153171   3.036  10.651   7.364
17715SOL    HW253172   2.941  10.564   7.265
17716SOL     OW53173   2.092  10.744   6.124
17716SOL    HW153174   2.066  10.840   6.124
17716SOL    HW253175   2.021  10.690   6.169
17717SOL     OW53176   2.102  10.401   6.472
17717SOL    HW153177   2.116  10.317   6.524
17717SOL    HW253178   2.047  10.465   6.527
17718SOL     OW53179   2.482  11.096   7.025
17718SOL    HW153180   2.390  11.079   7.060
17718SOL    HW253181   2.510  11.188   7.051
17719SOL     OW53182   2.468  10.274   5.709
17719SOL    HW153183   2.475  10.358   5.655
17719SOL    HW253184   2.514  10.287   5.797
17720SOL     OW53185   3.456   9.424   7.066
17720SOL    HW153186   3.438   9.491   6.994
17720SOL    HW253187   3.453   9.470   7.155
17721SOL     OW53188   3.704  11.077   5.945
17721SOL    HW153189   3.758  11.048   6.025
17721SOL    HW253190   3.734  11.167   5.916
17722SOL     OW53191   1.889  10.906   5.703
17722SOL    HW153192   1.870  10.810   5.724
17722SOL    HW253193   1.856  10.964   5.778
17723SOL     OW53194   3.551  10.232   6.198
17723SOL    HW153195   3.646  10.203   6.206
17723SOL    HW253196   3.543  10.297   6.123
17724SOL     OW53197   3.503  10.418   6.018
17724SOL    HW153198   3.589  10.420   5.966
17724SOL    HW253199   3.517  10.465   6.106
17725SOL     OW53200   1.975  10.047   7.183
17725SOL    HW153201   2.063  10.034   7.228
17725SOL    HW253202   1.962  10.144   7.161
17726SOL     OW53203   2.475  10.675   6.312
17726SOL    HW153204   2.426  10.588   6.321
17726SOL    HW253205   2.452  10.718   6.225
17727SOL     OW53206   3.155  10.538   7.009
17727SOL    HW153207   3.192  10.465   6.951
17727SOL    HW253208   3.207  10.543   7.094
17728SOL     OW53209   2.671   9.314   6.088
17728SOL    HW153210   2.711   9.405   6.079
17728SOL    HW253211   2.571   9.322   6.094
17729SOL     OW53212   2.059  10.286   6.850
17729SOL    HW153213   2.148  10.241   6.836
17729SOL    HW253214   1.986  10.221   6.831
17730SOL     OW53215   3.387  10.309   5.776
17730SOL    HW153216   3.324  10.233   5.789
17730SOL    HW253217   3.435  10.327   5.862
17731SOL     OW53218   3.049  11.102   7.202
17731SOL    HW153219   3.073  11.162   7.126
17731SOL    HW253220   3.056  11.007   7.172
17732SOL     OW53221   2.179   9.561   7.387
17732SOL    HW153222   2.250   9.632   7.393
17732SOL    HW253223   2.091   9.600   7.415
17733SOL     OW53224   3.328  10.727   6.539
17733SOL    HW153225   3.269  10.733   6.619
17733SOL    HW253226   3.313  10.639   6.493
17734SOL     OW53227   3.529  11.024   6.158
17734SOL    HW153228   3.488  11.001   6.070
17734SOL    HW253229   3.511  10.950   6.223
17735SOL     OW53230   2.460  10.039   5.856
17735SOL    HW153231   2.484  10.108   5.788
17735SOL    HW253232   2.382  10.072   5.910
17736SOL     OW53233   3.143   9.655   6.530
17736SOL    HW153234   3.057   9.605   6.517
17736SOL    HW253235   3.205   9.601   6.586
17737SOL     OW53236   3.438  10.972   5.893
17737SOL    HW153237   3.527  11.018   5.896
17737SOL    HW253238   3.417  10.948   5.798
17738SOL     OW53239   2.669   9.915   7.051
17738SOL    HW153240   2.622   9.912   7.140
17738SOL    HW253241   2.618   9.860   6.985
17739SOL     OW53242   3.256   9.779   7.260
17739SOL    HW153243   3.236   9.822   7.348
17739SOL    HW253244   3.334   9.717   7.269
17740SOL     OW53245   2.835  10.200   7.158
17740SOL    HW153246   2.881  10.116   7.129
17740SOL    HW253247   2.779  10.234   7.083
17741SOL     OW53248   2.853   9.720   6.828
17741SOL    HW153249   2.776   9.754   6.882
17741SOL    HW253250   2.819   9.669   6.749
17742SOL     OW53251   2.903  10.011   6.015
17742SOL    HW153252   2.929  10.007   6.111
17742SOL    HW253253   2.818   9.960   6.001
17743SOL     OW53254   1.938  10.121   6.375
17743SOL    HW153255   2.037  10.109   6.384
17743SOL    HW253256   1.914  10.216   6.396
17744SOL     OW53257   1.992  11.131   7.157
17744SOL    HW153258   1.982  11.116   7.256
17744SOL    HW253259   1.906  11.167   7.121
17745SOL     OW53260   2.727   9.658   5.781
17745SOL    HW153261   2.786   9.721   5.732
17745SOL    HW253262   2.746   9.564   5.752
17746SOL     OW53263   3.581   9.895   7.417
17746SOL    HW153264   3.555   9.984   7.381
17746SOL    HW253265   3.579   9.827   7.344
17747SOL     OW53266   3.224  10.454   6.131
17747SOL    HW153267   3.307  10.425   6.083
17747SOL    HW253268   3.175  10.521   6.075
17748SOL     OW53269   2.412   9.506   6.471
17748SOL    HW153270   2.407   9.501   6.571
17748SOL    HW253271   2.414   9.602   6.442
17749SOL     OW53272   2.870  10.766   6.063
17749SOL    HW153273   2.824  10.838   6.011
17749SOL    HW253274   2.866  10.786   6.161
17750SOL     OW53275   2.213  11.111   6.439
17750SOL    HW153276   2.263  11.025   6.445
17750SOL    HW253277   2.278  11.188   6.436
17751SOL     OW53278   3.657  10.376   6.459
17751SOL    HW153279   3.595  10.361   6.383
17751SOL    HW253280   3.605  10.387   6.544
17752SOL     OW53281   3.089  10.860   7.092
17752SOL    HW153282   3.095  10.783   7.156
17752SOL    HW253283   3.037  10.834   7.012
17753SOL     OW53284   2.183  10.253   5.828
17753SOL    HW153285   2.265  10.292   5.786
17753SOL    HW253286   2.156  10.171   5.779
17754SOL     OW53287   3.320  10.045   6.314
17754SOL    HW153288   3.315   9.980   6.389
17754SOL    HW253289   3.400  10.104   6.327
17755SOL     OW53290   2.323  10.576   7.313
17755SOL    HW153291   2.273  10.577   7.227
17755SOL    HW253292   2.260  10.558   7.389
17756SOL     OW53293   2.973  11.086   5.823
17756SOL    HW153294   2.913  11.024   5.873
17756SOL    HW253295   3.004  11.042   5.738
17757SOL     OW53296   2.064   9.595   7.084
17757SOL    HW153297   1.984   9.655   7.071
17757SOL    HW253298   2.054   9.546   7.170
17758SOL     OW53299   3.494  10.687   5.667
17758SOL    HW153300   3.462  10.781   5.657
17758SOL    HW253301   3.418  10.624   5.655
17759SOL     OW53302   2.326  11.053   5.909
17759SOL    HW153303   2.359  11.092   5.995
17759SOL    HW253304   2.402  11.046   5.844
17760SOL     OW53305   3.262   9.417   6.012
17760SOL    HW153306   3.238   9.380   5.922
17760SOL    HW253307   3.361   9.433   6.016
17761SOL     OW53308   2.111  11.095   6.827
17761SOL    HW153309   2.168  11.030   6.877
17761SOL    HW253310   2.095  11.062   6.734
17762SOL     OW53311   2.802  11.008   6.490
17762SOL    HW153312   2.882  10.951   6.511
17762SOL    HW253313   2.753  10.968   6.413
17763SOL     OW53314   2.244  10.010   6.066
17763SOL    HW153315   2.289   9.920   6.063
17763SOL    HW253316   2.150   9.999   6.099
17764SOL     OW53317   3.409   9.532   7.315
17764SOL    HW153318   3.404   9.569   7.407
17764SOL    HW253319   3.337   9.463   7.303
17765SOL     OW53320   2.476   9.432   5.703
17765SOL    HW153321   2.574   9.410   5.710
17765SOL    HW253322   2.445   9.415   5.610
17766SOL     OW53323   2.643   9.574   7.335
17766SOL    HW153324   2.710   9.513   7.378
17766SOL    HW253325   2.570   9.593   7.400
17767SOL     OW53326   2.750  10.824   6.781
17767SOL    HW153327   2.727  10.799   6.687
17767SOL    HW253328   2.811  10.755   6.820
17768SOL     OW53329   3.213   9.900   7.019
17768SOL    HW153330   3.241   9.857   7.104
17768SOL    HW253331   3.238   9.996   7.020
17769SOL     OW53332   2.665  10.712   6.510
17769SOL    HW153333   2.755  10.726   6.468
17769SOL    HW253334   2.594  10.714   6.439
17770SOL     OW53335   2.784   9.813   6.485
17770SOL    HW153336   2.759   9.804   6.389
17770SOL    HW253337   2.832   9.731   6.516
17771SOL     OW53338   2.401   9.374   6.098
17771SOL    HW153339   2.320   9.375   6.156
17771SOL    HW253340   2.404   9.457   6.043
17772SOL     OW53341   3.296  10.498   5.627
17772SOL    HW153342   3.328  10.422   5.684
17772SOL    HW253343   3.204  10.525   5.657
17773SOL     OW53344   2.159   9.345   5.757
17773SOL    HW153345   2.208   9.429   5.736
17773SOL    HW253346   2.221   9.280   5.802
17774SOL     OW53347   2.797   9.546   6.066
17774SOL    HW153348   2.749   9.587   5.988
17774SOL    HW253349   2.896   9.544   6.047
17775SOL     OW53350   2.938   9.993   7.050
17775SOL    HW153351   2.858   9.932   7.053
17775SOL    HW253352   3.019   9.940   7.026
17776SOL     OW53353   3.089  10.880   6.379
17776SOL    HW153354   3.110  10.954   6.314
17776SOL    HW253355   3.157  10.880   6.452
17777SOL     OW53356   2.321  10.462   6.327
17777SOL    HW153357   2.250  10.435   6.392
17777SOL    HW253358   2.295  10.434   6.234
17778SOL     OW53359   3.133  11.107   6.177
17778SOL    HW153360   3.177  11.171   6.113
17778SOL    HW253361   3.083  11.159   6.247
17779SOL     OW53362   2.894   9.859   5.602
17779SOL    HW153363   2.853   9.941   5.563
17779SOL    HW253364   2.958   9.885   5.675
17780SOL     OW53365   1.940   9.866   6.972
17780SOL    HW153366   2.032   9.865   6.931
17780SOL    HW253367   1.934   9.940   7.039
17781SOL     OW53368   2.423   9.532   6.733
17781SOL    HW153369   2.461   9.448   6.770
17781SOL    HW253370   2.335   9.551   6.777
17782SOL     OW53371   2.728   9.764   6.228
17782SOL    HW153372   2.696   9.836   6.166
17782SOL    HW253373   2.752   9.683   6.175
17783SOL     OW53374   2.879   9.349   6.339
17783SOL    HW153375   2.807   9.354   6.270
17783SOL    HW253376   2.855   9.280   6.408
17784SOL     OW53377   3.291  10.483   6.453
17784SOL    HW153378   3.236  10.399   6.446
17784SOL    HW253379   3.317  10.512   6.361
17785SOL     OW53380   3.328   9.900   6.578
17785SOL    HW153381   3.298   9.805   6.585
17785SOL    HW253382   3.401   9.916   6.644
17786SOL     OW53383   3.719  10.143   5.963
17786SOL    HW153384   3.761  10.079   6.027
17786SOL    HW253385   3.681  10.092   5.885
17787SOL     OW53386   2.350  10.695   5.760
17787SOL    HW153387   2.263  10.680   5.807
17787SOL    HW253388   2.333  10.721   5.665
17788SOL     OW53389   3.526  10.590   6.243
17788SOL    HW153390   3.625  10.598   6.257
17788SOL    HW253391   3.481  10.674   6.274
17789SOL     OW53392   3.252   9.885   5.664
17789SOL    HW153393   3.198   9.864   5.745
17789SOL    HW253394   3.343   9.844   5.673
17790SOL     OW53395   2.389   9.566   5.914
17790SOL    HW153396   2.416   9.507   5.839
17790SOL    HW253397   2.389   9.661   5.883
17791SOL     OW53398   3.616  10.533   7.174
17791SOL    HW153399   3.707  10.494   7.161
17791SOL    HW253400   3.624  10.629   7.198
17792SOL     OW53401   2.926  10.657   6.926
17792SOL    HW153402   2.846  10.634   6.981
17792SOL    HW253403   3.009  10.631   6.975
17793SOL     OW53404   3.454  10.939   7.211
17793SOL    HW153405   3.481  10.973   7.121
17793SOL    HW253406   3.533  10.901   7.257
17794SOL     OW53407   2.973  10.505   6.686
17794SOL    HW153408   2.933  10.549   6.767
17794SOL    HW253409   2.932  10.542   6.603
17795SOL     OW53410   3.500  10.409   6.665
17795SOL    HW153411   3.505  10.490   6.724
17795SOL    HW253412   3.414  10.411   6.614
17796SOL     OW53413   2.777   9.399   6.988
17796SOL    HW153414   2.802   9.379   6.893
17796SOL    HW253415   2.849   9.455   7.030
17797SOL     OW53416   2.842  10.426   7.305
17797SOL    HW153417   2.743  10.432   7.315
17797SOL    HW253418   2.865  10.346   7.249
17798SOL     OW53419   2.567  10.360   5.954
17798SOL    HW153420   2.553  10.367   6.053
17798SOL    HW253421   2.651  10.309   5.936
17799SOL     OW53422   2.272  10.123   6.837
17799SOL    HW153423   2.358  10.135   6.887
17799SOL    HW253424   2.230  10.036   6.864
17800SOL     OW53425   3.136   9.696   6.848
17800SOL    HW153426   3.157   9.770   6.912
17800SOL    HW253427   3.047   9.713   6.805
17801SOL     OW53428   1.926  10.874   6.917
17801SOL    HW153429   1.880  10.956   6.883
17801SOL    HW253430   2.024  10.893   6.926
17802SOL     OW53431   2.229  10.410   6.087
17802SOL    HW153432   2.222  10.493   6.031
17802SOL    HW253433   2.233  10.330   6.027
17803SOL     OW53434   2.428   9.847   6.451
17803SOL    HW153435   2.440   9.913   6.377
17803SOL    HW253436   2.474   9.881   6.534
17804SOL     OW53437   3.114  10.658   5.974
17804SOL    HW153438   3.164  10.735   6.014
17804SOL    HW253439   3.019  10.660   6.006
17805SOL     OW53440   3.134  10.755   6.728
17805SOL    HW153441   3.181  10.768   6.815
17805SOL    HW253442   3.068  10.681   6.737
17806SOL     OW53443   3.444   9.949   6.058
17806SOL    HW153444   3.413  10.010   6.131
17806SOL    HW253445   3.494  10.001   5.989
17807SOL     OW53446   2.216  10.820   6.915
17807SOL    HW153447   2.195  10.776   6.828
17807SOL    HW253448   2.313  10.846   6.918
17808SOL     OW53449   2.264  10.061   7.184
17808SOL    HW153450   2.332  10.116   7.137
17808SOL    HW253451   2.304   9.973   7.211
17809SOL     OW53452   3.449  10.089   7.256
17809SOL    HW153453   3.357  10.127   7.251
17809SOL    HW253454   3.509  10.136   7.191
17810SOL     OW53455   2.875   9.415   7.356
17810SOL    HW153456   2.881   9.500   7.304
17810SOL    HW253457   2.907   9.339   7.299
17811SOL     OW53458   2.366   9.360   7.326
17811SOL    HW153459   2.324   9.303   7.256
17811SOL    HW253460   2.300   9.429   7.358
17812SOL     OW53461   2.435  10.180   6.615
17812SOL    HW153462   2.479  10.269   6.606
17812SOL    HW253463   2.372  10.180   6.692
17813SOL     OW53464   3.222  10.172   6.631
17813SOL    HW153465   3.147  10.172   6.565
17813SOL    HW253466   3.259  10.080   6.640
17814SOL     OW53467   3.071   9.835   5.861
17814SOL    HW153468   3.084   9.751   5.915
17814SOL    HW253469   3.042   9.909   5.921
17815SOL     OW53470   2.169   9.523   6.817
17815SOL    HW153471   2.146   9.560   6.907
17815SOL    HW253472   2.139   9.428   6.811
17816SOL     OW53473   1.899  10.620   6.868
17816SOL    HW153474   1.952  10.571   6.936
17816SOL    HW253475   1.921  10.718   6.873
17817SOL     OW53476   2.594   9.944   6.650
17817SOL    HW153477   2.653   9.918   6.574
17817SOL    HW253478   2.566  10.040   6.639
17818SOL     OW53479   3.590  10.245   7.440
17818SOL    HW153480   3.544  10.238   7.351
17818SOL    HW253481   3.528  10.289   7.506
17819SOL     OW53482   2.169   9.373   6.204
17819SOL    HW153483   2.158   9.467   6.237
17819SOL    HW253484   2.164   9.310   6.281
17820SOL     OW53485   3.484   9.677   5.960
17820SOL    HW153486   3.486   9.601   6.024
17820SOL    HW253487   3.436   9.754   6.000
17821SOL     OW53488   2.885  10.076   6.552
17821SOL    HW153489   2.900  10.097   6.648
17821SOL    HW253490   2.855   9.981   6.543
17822SOL     OW53491   2.842  10.883   7.286
17822SOL    HW153492   2.822  10.927   7.198
17822SOL    HW253493   2.881  10.792   7.270
17823SOL     OW53494   3.721  10.828   7.191
17823SOL    HW153495   3.735  10.855   7.096
17823SOL    HW253496   3.804  10.850   7.244
17824SOL     OW53497   2.212  10.208   7.390
17824SOL    HW153498   2.288  10.252   7.438
17824SOL    HW253499   2.247  10.161   7.308
17825SOL     OW53500   3.402   9.584   5.711
17825SOL    HW153501   3.341   9.509   5.734
17825SOL    HW253502   3.424   9.636   5.794
17826SOL     OW53503   3.165  10.148   5.628
17826SOL    HW153504   3.199  10.055   5.643
17826SOL    HW253505   3.183  10.175   5.533
17827SOL     OW53506   2.930  10.643   6.435
17827SOL    HW153507   2.937  10.559   6.380
17827SOL    HW253508   2.992  10.712   6.399
17828SOL     OW53509   2.181  10.120   6.535
17828SOL    HW153510   2.274  10.156   6.540
17828SOL    HW253511   2.175  10.035   6.587
17829SOL     OW53512   2.201   9.819   6.592
17829SOL    HW153513   2.149   9.736   6.575
17829SOL    HW253514   2.278   9.824   6.528
17830SOL     OW53515   3.000   9.690   7.264
17830SOL    HW153516   2.955   9.753   7.328
17830SOL    HW253517   3.093   9.721   7.247
17831SOL     OW53518   3.022   9.517   7.063
17831SOL    HW153519   3.022   9.581   7.140
17831SOL    HW253520   3.050   9.565   6.980
17832SOL     OW53521   1.870  10.636   5.786
17832SOL    HW153522   1.777  10.657   5.755
17832SOL    HW253523   1.880  10.537   5.799
17833SOL     OW53524   1.950  11.111   6.513
17833SOL    HW153525   1.908  11.025   6.486
17833SOL    HW253526   2.044  11.114   6.479
17834SOL     OW53527   2.366  10.878   6.496
17834SOL    HW153528   2.432  10.952   6.505
17834SOL    HW253529   2.410  10.799   6.454
17835SOL     OW53530   2.864  10.106   6.824
17835SOL    HW153531   2.905  10.074   6.910
17835SOL    HW253532   2.768  10.079   6.821
17836SOL     OW53533   1.902   9.854   6.700
17836SOL    HW153534   1.987   9.821   6.659
17836SOL    HW253535   1.915   9.869   6.798
17837SOL     OW53536   2.051   9.830   7.308
17837SOL    HW153537   2.110   9.790   7.238
17837SOL    HW253538   1.993   9.901   7.267
17838SOL     OW53539   3.231  10.260   7.246
17838SOL    HW153540   3.270  10.349   7.266
17838SOL    HW253541   3.241  10.240   7.149
17839SOL     OW53542   2.677   9.882   5.911
17839SOL    HW153543   2.684   9.793   5.865
17839SOL    HW253544   2.583   9.916   5.903
17840SOL     OW53545   3.519   9.914   6.792
17840SOL    HW153546   3.481   9.845   6.854
17840SOL    HW253547   3.601   9.878   6.748
17841SOL     OW53548   2.114  10.874   7.330
17841SOL    HW153549   2.084  10.931   7.406
17841SOL    HW253550   2.107  10.777   7.356
17842SOL     OW53551   2.533   9.774   6.855
17842SOL    HW153552   2.499   9.685   6.825
17842SOL    HW253553   2.559   9.828   6.775
17843SOL     OW53554   2.792  10.988   7.051
17843SOL    HW153555   2.768  10.970   6.956
17843SOL    HW253556   2.822  11.082   7.061
17844SOL     OW53557   2.335   9.810   5.777
17844SOL    HW153558   2.396   9.890   5.781
17844SOL    HW253559   2.240   9.841   5.784
17845SOL     OW53560   2.021  10.447   7.052
17845SOL    HW153561   2.043  10.386   7.128
17845SOL    HW253562   2.031  10.398   6.966
17846SOL     OW53563   3.209  10.369   6.820
17846SOL    HW153564   3.233  10.306   6.746
17846SOL    HW253565   3.119  10.409   6.802
17847SOL     OW53566   3.164  10.165   5.895
17847SOL    HW153567   3.078  10.134   5.937
17847SOL    HW253568   3.160  10.151   5.796
17848SOL     OW53569   3.621  11.057   6.740
17848SOL    HW153570   3.682  11.087   6.667
17848SOL    HW253571   3.583  10.968   6.718
17849SOL     OW53572   3.114  11.041   6.714
17849SOL    HW153573   3.198  11.046   6.660
17849SOL    HW253574   3.091  10.945   6.732
17850SOL     OW53575   1.945  10.568   6.608
17850SOL    HW153576   1.940  10.567   6.708
17850SOL    HW253577   1.862  10.527   6.570
17851SOL     OW53578   2.550  10.972   7.302
17851SOL    HW153579   2.494  11.053   7.311
17851SOL    HW253580   2.602  10.976   7.216
17852SOL     OW53581   3.588   9.445   6.109
17852SOL    HW153582   3.661   9.428   6.042
17852SOL    HW253583   3.557   9.358   6.147
17853SOL     OW53584   3.250  10.883   6.063
17853SOL    HW153585   3.317  10.895   5.989
17853SOL    HW253586   3.210  10.972   6.086
17854SOL     OW53587   1.992  11.104   7.437
17854SOL    HW153588   1.951  11.030   7.490
17854SOL    HW253589   2.056  11.155   7.495
17855SOL     OW53590   3.142  10.237   6.258
17855SOL    HW153591   3.202  10.156   6.260
17855SOL    HW253592   3.182  10.306   6.198
17856SOL     OW53593   2.692  10.583   7.008
17856SOL    HW153594   2.687  10.616   7.103
17856SOL    HW253595   2.606  10.602   6.962
17857SOL     OW53596   2.534  10.926   5.740
17857SOL    HW153597   2.543  10.936   5.641
17857SOL    HW253598   2.494  10.837   5.761
17858SOL     OW53599   3.512  11.030   6.980
17858SOL    HW153600   3.565  11.040   6.896
17858SOL    HW253601   3.485  11.120   7.014
17859SOL     OW53602   3.703   9.485   6.549
17859SOL    HW153603   3.742   9.400   6.513
17859SOL    HW253604   3.605   9.487   6.530
17860SOL     OW53605   2.125   9.636   6.306
17860SOL    HW153606   2.046   9.687   6.272
17860SOL    HW253607   2.116   9.621   6.404
17861SOL     OW53608   3.056  10.922   5.617
17861SOL    HW153609   3.062  10.829   5.654
17861SOL    HW253610   2.997  10.922   5.537
17862SOL     OW53611   2.684  10.312   6.958
17862SOL    HW153612   2.724  10.311   6.866
17862SOL    HW253613   2.694  10.404   6.998
17863SOL     OW53614   2.778  10.220   5.877
17863SOL    HW153615   2.841  10.258   5.809
17863SOL    HW253616   2.818  10.137   5.916
17864SOL     OW53617   3.366  10.917   5.630
17864SOL    HW153618   3.274  10.954   5.637
17864SOL    HW253619   3.404  10.937   5.540
17865SOL     OW53620   2.234  10.598   7.076
17865SOL    HW153621   2.221  10.691   7.042
17865SOL    HW253622   2.150  10.546   7.063
17866SOL     OW53623   3.476  10.602   6.875
17866SOL    HW153624   3.536  10.605   6.955
17866SOL    HW253625   3.401  10.666   6.888
17867SOL     OW53626   2.901  10.408   6.282
17867SOL    HW153627   2.831  10.361   6.336
17867SOL    HW253628   2.960  10.340   6.239
17868SOL     OW53629   2.876   9.546   6.557
17868SOL    HW153630   2.868   9.510   6.464
17868SOL    HW253631   2.874   9.470   6.622
17869SOL     OW53632   2.452  10.797   6.077
17869SOL    HW153633   2.494  10.739   6.007
17869SOL    HW253634   2.408  10.876   6.033
17870SOL     OW53635   3.571   9.695   6.967
17870SOL    HW153636   3.644   9.764   6.971
17870SOL    HW253637   3.599   9.620   6.908
17871SOL     OW53638   2.117  10.658   5.876
17871SOL    HW153639   2.021  10.659   5.849
17871SOL    HW253640   2.129  10.711   5.960
17872SOL     OW53641   1.967  10.323   7.312
17872SOL    HW153642   1.890  10.290   7.366
17872SOL    HW253643   2.052  10.293   7.354
17873SOL     OW53644   2.534   9.513   7.075
17873SOL    HW153645   2.624   9.497   7.035
17873SOL    HW253646   2.542   9.518   7.174
17874SOL     OW53647   1.937   9.655   5.619
17874SOL    HW153648   1.845   9.627   5.590
17874SOL    HW253649   1.968   9.732   5.563
17875SOL     OW53650   3.302  10.166   6.984
17875SOL    HW153651   3.245  10.218   6.921
17875SOL    HW253652   3.398  10.178   6.960
17876SOL     OW53653   1.934   9.476   5.904
17876SOL    HW153654   1.917   9.559   5.850
17876SOL    HW253655   2.024   9.439   5.882
17877SOL     OW53656   3.045  10.645   5.705
17877SOL    HW153657   2.946  10.634   5.707
17877SOL    HW253658   3.079  10.660   5.798
17878SOL     OW53659   2.475  10.152   7.017
17878SOL    HW153660   2.531  10.233   7.000
17878SOL    HW253661   2.534  10.072   7.020
17879SOL     OW53662   3.355  11.077   6.545
17879SOL    HW153663   3.388  11.141   6.476
17879SOL    HW253664   3.421  11.071   6.620
17880SOL     OW53665   2.578   9.875   7.294
17880SOL    HW153666   2.597   9.940   7.368
17880SOL    HW253667   2.638   9.795   7.303
17881SOL     OW53668   3.312  10.530   7.219
17881SOL    HW153669   3.303  10.520   7.318
17881SOL    HW253670   3.408  10.523   7.193
17882SOL     OW53671   2.252  11.051   7.146
17882SOL    HW153672   2.161  11.092   7.144
17882SOL    HW253673   2.245  10.957   7.178
17883SOL     OW53674   3.536  10.193   6.840
17883SOL    HW153675   3.509  10.104   6.803
17883SOL    HW253676   3.537  10.261   6.767
17884SOL     OW53677   3.087   9.635   6.035
17884SOL    HW153678   3.152   9.561   6.024
17884SOL    HW253679   3.107   9.685   6.119
17885SOL     OW53680   2.456  10.055   6.238
17885SOL    HW153681   2.506  10.140   6.219
17885SOL    HW253682   2.368  10.057   6.190
17886SOL     OW53683   3.639   9.652   7.228
17886SOL    HW153684   3.622   9.683   7.134
17886SOL    HW253685   3.555   9.615   7.266
17887SOL     OW53686   3.592  10.244   7.103
17887SOL    HW153687   3.630  10.335   7.118
17887SOL    HW253688   3.584  10.227   7.004
17888SOL     OW53689   2.721  10.684   5.602
17888SOL    HW153690   2.675  10.699   5.690
17888SOL    HW253691   2.765  10.769   5.572
17889SOL     OW53692   2.523  11.100   6.539
17889SOL    HW153693   2.477  11.188   6.526
17889SOL    HW253694   2.622  11.112   6.532
17890SOL     OW53695   2.721  10.266   6.447
17890SOL    HW153696   2.775  10.197   6.495
17890SOL    HW253697   2.689  10.335   6.513
17891SOL     OW53698   2.945  10.294   5.673
17891SOL    HW153699   2.922  10.347   5.591
17891SOL    HW253700   3.026  10.238   5.654
17892SOL     OW53701   3.723  10.879   6.437
17892SOL    HW153702   3.652  10.867   6.367
17892SOL    HW253703   3.724  10.800   6.497
17893SOL     OW53704   2.083  10.624   7.430
17893SOL    HW153705   2.018  10.551   7.409
17893SOL    HW253706   2.087  10.638   7.528
17894SOL     OW53707   1.941  10.550   6.239
17894SOL    HW153708   1.940  10.503   6.327
17894SOL    HW253709   2.023  10.522   6.188
17895SOL     OW53710   2.534  10.701   7.210
17895SOL    HW153711   2.456  10.651   7.248
17895SOL    HW253712   2.531  10.796   7.241
17896SOL     OW53713   3.686   9.502   6.813
17896SOL    HW153714   3.682   9.412   6.857
17896SOL    HW253715   3.689   9.491   6.714
17897SOL     OW53716   2.290   9.734   6.106
17897SOL    HW153717   2.320   9.662   6.044
17897SOL    HW253718   2.251   9.694   6.189
17898SOL     OW53719   3.567  10.797   6.690
17898SOL    HW153720   3.474  10.772   6.663
17898SOL    HW253721   3.593  10.747   6.772
17899SOL     OW53722   2.179   9.857   6.866
17899SOL    HW153723   2.217   9.798   6.938
17899SOL    HW253724   2.219   9.831   6.778
17900SOL     OW53725   2.674  10.896   6.273
17900SOL    HW153726   2.706  10.906   6.179
17900SOL    HW253727   2.595  10.834   6.275
17901SOL     OW53728   3.286   9.524   6.698
17901SOL    HW153729   3.338   9.459   6.753
17901SOL    HW253730   3.237   9.587   6.759
17902SOL     OW53731   2.863   9.344   6.740
17902SOL    HW153732   2.800   9.272   6.709
17902SOL    HW253733   2.956   9.308   6.740
17903SOL     OW53734   2.632  10.640   5.887
17903SOL    HW153735   2.586  10.553   5.904
17903SOL    HW253736   2.723  10.637   5.928
17904SOL     OW53737   2.480  10.877   6.870
17904SOL    HW153738   2.475  10.959   6.927
17904SOL    HW253739   2.569  10.874   6.825
17905SOL     OW53740   3.214   9.362   5.754
17905SOL    HW153741   3.249   9.321   5.670
17905SOL    HW253742   3.124   9.324   5.774
17906SOL     OW53743   3.162   9.763   6.277
17906SOL    HW153744   3.103   9.843   6.281
17906SOL    HW253745   3.177   9.728   6.370
17907SOL     OW53746   3.455   9.531   6.468
17907SOL    HW153747   3.371   9.530   6.522
17907SOL    HW253748   3.457   9.614   6.412
17908SOL     OW53749   1.901  10.387   5.886
17908SOL    HW153750   2.000  10.376   5.877
17908SOL    HW253751   1.861  10.301   5.918
17909SOL     OW53752   2.737  10.956   5.923
17909SOL    HW153753   2.660  10.921   5.869
17909SOL    HW253754   2.705  11.027   5.985
17910SOL     OW53755   2.092   9.938   7.561
17910SOL    HW153756   1.999   9.936   7.598
17910SOL    HW253757   2.093   9.899   7.469
17911SOL     OW53758   2.087   9.585   8.444
17911SOL    HW153759   2.122   9.568   8.536
17911SOL    HW253760   1.999   9.540   8.432
17912SOL     OW53761   1.881   9.678   8.095
17912SOL    HW153762   1.799   9.721   8.134
17912SOL    HW253763   1.853   9.605   8.032
17913SOL     OW53764   2.431  10.585   8.613
17913SOL    HW153765   2.338  10.578   8.576
17913SOL    HW253766   2.442  10.674   8.657
17914SOL     OW53767   3.417  10.821   8.151
17914SOL    HW153768   3.360  10.805   8.232
17914SOL    HW253769   3.358  10.831   8.071
17915SOL     OW53770   2.997  10.013   8.165
17915SOL    HW153771   3.054  10.091   8.140
17915SOL    HW253772   2.937  10.039   8.241
17916SOL     OW53773   3.617   9.917   7.679
17916SOL    HW153774   3.605   9.904   7.580
17916SOL    HW253775   3.587   9.836   7.728
17917SOL     OW53776   2.630  10.454   8.471
17917SOL    HW153777   2.552  10.471   8.531
17917SOL    HW253778   2.664  10.541   8.435
17918SOL     OW53779   2.712  10.108   9.271
17918SOL    HW153780   2.708  10.184   9.336
17918SOL    HW253781   2.734  10.144   9.180
17919SOL     OW53782   2.547  10.322   8.113
17919SOL    HW153783   2.616  10.306   8.183
17919SOL    HW253784   2.474  10.379   8.151
17920SOL     OW53785   2.548  10.471   9.251
17920SOL    HW153786   2.608  10.550   9.265
17920SOL    HW253787   2.462  10.502   9.210
17921SOL     OW53788   2.197  10.745   8.509
17921SOL    HW153789   2.119  10.714   8.456
17921SOL    HW253790   2.255  10.803   8.452
17922SOL     OW53791   3.322  10.815   8.787
17922SOL    HW153792   3.346  10.909   8.813
17922SOL    HW253793   3.306  10.761   8.869
17923SOL     OW53794   2.300   9.702   8.947
17923SOL    HW153795   2.382   9.646   8.956
17923SOL    HW253796   2.219   9.644   8.951
17924SOL     OW53797   3.465   9.757   8.185
17924SOL    HW153798   3.391   9.803   8.135
17924SOL    HW253799   3.516   9.825   8.238
17925SOL     OW53800   2.093  11.023   7.931
17925SOL    HW153801   2.127  11.100   7.985
17925SOL    HW253802   2.137  11.023   7.841
17926SOL     OW53803   2.989  10.651   9.138
17926SOL    HW153804   3.036  10.651   9.226
17926SOL    HW253805   2.941  10.564   9.127
17927SOL     OW53806   2.092  10.744   7.986
17927SOL    HW153807   2.066  10.840   7.986
17927SOL    HW253808   2.021  10.690   8.031
17928SOL     OW53809   2.102  10.401   8.334
17928SOL    HW153810   2.116  10.317   8.386
17928SOL    HW253811   2.047  10.465   8.389
17929SOL     OW53812   2.482  11.096   8.887
17929SOL    HW153813   2.390  11.079   8.922
17929SOL    HW253814   2.510  11.188   8.913
17930SOL     OW53815   2.468  10.274   7.571
17930SOL    HW153816   2.475  10.358   7.517
17930SOL    HW253817   2.514  10.287   7.659
17931SOL     OW53818   3.456   9.424   8.928
17931SOL    HW153819   3.438   9.491   8.856
17931SOL    HW253820   3.453   9.470   9.017
17932SOL     OW53821   1.984   9.953   8.011
17932SOL    HW153822   1.939   9.865   8.028
17932SOL    HW253823   1.983  10.007   8.095
17933SOL     OW53824   3.704  11.077   7.807
17933SOL    HW153825   3.758  11.048   7.887
17933SOL    HW253826   3.734  11.167   7.778
17934SOL     OW53827   1.889  10.906   7.565
17934SOL    HW153828   1.870  10.810   7.586
17934SOL    HW253829   1.856  10.964   7.640
17935SOL     OW53830   3.551  10.232   8.060
17935SOL    HW153831   3.646  10.203   8.068
17935SOL    HW253832   3.543  10.297   7.985
17936SOL     OW53833   3.503  10.418   7.880
17936SOL    HW153834   3.589  10.420   7.828
17936SOL    HW253835   3.517  10.465   7.968
17937SOL     OW53836   1.975  10.047   9.045
17937SOL    HW153837   2.063  10.034   9.090
17937SOL    HW253838   1.962  10.144   9.023
17938SOL     OW53839   2.475  10.675   8.174
17938SOL    HW153840   2.426  10.588   8.183
17938SOL    HW253841   2.452  10.718   8.087
17939SOL     OW53842   3.155  10.538   8.871
17939SOL    HW153843   3.192  10.465   8.813
17939SOL    HW253844   3.207  10.543   8.956
17940SOL     OW53845   2.671   9.314   7.950
17940SOL    HW153846   2.711   9.405   7.941
17940SOL    HW253847   2.571   9.322   7.956
17941SOL     OW53848   2.059  10.286   8.712
17941SOL    HW153849   2.148  10.241   8.698
17941SOL    HW253850   1.986  10.221   8.693
17942SOL     OW53851   3.387  10.309   7.638
17942SOL    HW153852   3.324  10.233   7.651
17942SOL    HW253853   3.435  10.327   7.724
17943SOL     OW53854   3.049  11.102   9.064
17943SOL    HW153855   3.073  11.162   8.988
17943SOL    HW253856   3.056  11.007   9.034
17944SOL     OW53857   2.179   9.561   9.249
17944SOL    HW153858   2.250   9.632   9.255
17944SOL    HW253859   2.091   9.600   9.277
17945SOL     OW53860   3.328  10.727   8.401
17945SOL    HW153861   3.269  10.733   8.481
17945SOL    HW253862   3.313  10.639   8.355
17946SOL     OW53863   3.529  11.024   8.020
17946SOL    HW153864   3.488  11.001   7.932
17946SOL    HW253865   3.511  10.950   8.085
17947SOL     OW53866   2.460  10.039   7.718
17947SOL    HW153867   2.484  10.108   7.650
17947SOL    HW253868   2.382  10.072   7.772
17948SOL     OW53869   3.143   9.655   8.392
17948SOL    HW153870   3.057   9.605   8.379
17948SOL    HW253871   3.205   9.601   8.448
17949SOL     OW53872   3.438  10.972   7.755
17949SOL    HW153873   3.527  11.018   7.758
17949SOL    HW253874   3.417  10.948   7.660
17950SOL     OW53875   2.669   9.915   8.913
17950SOL    HW153876   2.622   9.912   9.002
17950SOL    HW253877   2.618   9.860   8.847
17951SOL     OW53878   3.256   9.779   9.122
17951SOL    HW153879   3.236   9.822   9.210
17951SOL    HW253880   3.334   9.717   9.131
17952SOL     OW53881   2.835  10.200   9.020
17952SOL    HW153882   2.881  10.116   8.991
17952SOL    HW253883   2.779  10.234   8.945
17953SOL     OW53884   2.853   9.720   8.690
17953SOL    HW153885   2.776   9.754   8.744
17953SOL    HW253886   2.819   9.669   8.611
17954SOL     OW53887   2.903  10.011   7.877
17954SOL    HW153888   2.929  10.007   7.973
17954SOL    HW253889   2.818   9.960   7.863
17955SOL     OW53890   1.938  10.121   8.237
17955SOL    HW153891   2.037  10.109   8.246
17955SOL    HW253892   1.914  10.216   8.258
17956SOL     OW53893   1.992  11.131   9.019
17956SOL    HW153894   1.982  11.116   9.118
17956SOL    HW253895   1.906  11.167   8.983
17957SOL     OW53896   2.727   9.658   7.643
17957SOL    HW153897   2.786   9.721   7.594
17957SOL    HW253898   2.746   9.564   7.614
17958SOL     OW53899   3.581   9.895   9.279
17958SOL    HW153900   3.555   9.984   9.243
17958SOL    HW253901   3.579   9.827   9.206
17959SOL     OW53902   3.224  10.454   7.993
17959SOL    HW153903   3.307  10.425   7.945
17959SOL    HW253904   3.175  10.521   7.937
17960SOL     OW53905   2.412   9.506   8.333
17960SOL    HW153906   2.407   9.501   8.433
17960SOL    HW253907   2.414   9.602   8.304
17961SOL     OW53908   2.870  10.766   7.925
17961SOL    HW153909   2.824  10.838   7.873
17961SOL    HW253910   2.866  10.786   8.023
17962SOL     OW53911   2.213  11.111   8.301
17962SOL    HW153912   2.263  11.025   8.307
17962SOL    HW253913   2.278  11.188   8.298
17963SOL     OW53914   3.657  10.376   8.321
17963SOL    HW153915   3.595  10.361   8.245
17963SOL    HW253916   3.605  10.387   8.406
17964SOL     OW53917   3.089  10.860   8.954
17964SOL    HW153918   3.095  10.783   9.018
17964SOL    HW253919   3.037  10.834   8.874
17965SOL     OW53920   2.183  10.253   7.690
17965SOL    HW153921   2.265  10.292   7.648
17965SOL    HW253922   2.156  10.171   7.641
17966SOL     OW53923   3.320  10.045   8.176
17966SOL    HW153924   3.315   9.980   8.251
17966SOL    HW253925   3.400  10.104   8.189
17967SOL     OW53926   2.323  10.576   9.175
17967SOL    HW153927   2.273  10.577   9.089
17967SOL    HW253928   2.260  10.558   9.251
17968SOL     OW53929   2.973  11.086   7.685
17968SOL    HW153930   2.913  11.024   7.735
17968SOL    HW253931   3.004  11.042   7.600
17969SOL     OW53932   2.064   9.595   8.946
17969SOL    HW153933   1.984   9.655   8.933
17969SOL    HW253934   2.054   9.546   9.032
17970SOL     OW53935   2.326  11.053   7.771
17970SOL    HW153936   2.359  11.092   7.857
17970SOL    HW253937   2.402  11.046   7.706
17971SOL     OW53938   3.262   9.417   7.874
17971SOL    HW153939   3.238   9.380   7.784
17971SOL    HW253940   3.361   9.433   7.878
17972SOL     OW53941   2.111  11.095   8.689
17972SOL    HW153942   2.168  11.030   8.739
17972SOL    HW253943   2.095  11.062   8.596
17973SOL     OW53944   2.802  11.008   8.352
17973SOL    HW153945   2.882  10.951   8.373
17973SOL    HW253946   2.753  10.968   8.275
17974SOL     OW53947   2.244  10.010   7.928
17974SOL    HW153948   2.289   9.920   7.925
17974SOL    HW253949   2.150   9.999   7.961
17975SOL     OW53950   3.409   9.532   9.177
17975SOL    HW153951   3.404   9.569   9.269
17975SOL    HW253952   3.337   9.463   9.165
17976SOL     OW53953   2.476   9.432   7.565
17976SOL    HW153954   2.574   9.410   7.572
17976SOL    HW253955   2.445   9.415   7.472
17977SOL     OW53956   2.643   9.574   9.197
17977SOL    HW153957   2.710   9.513   9.240
17977SOL    HW253958   2.570   9.593   9.262
17978SOL     OW53959   2.750  10.824   8.643
17978SOL    HW153960   2.727  10.799   8.549
17978SOL    HW253961   2.811  10.755   8.682
17979SOL     OW53962   3.213   9.900   8.881
17979SOL    HW153963   3.241   9.857   8.966
17979SOL    HW253964   3.238   9.996   8.882
17980SOL     OW53965   2.665  10.712   8.372
17980SOL    HW153966   2.755  10.726   8.330
17980SOL    HW253967   2.594  10.714   8.301
17981SOL     OW53968   2.784   9.813   8.347
17981SOL    HW153969   2.759   9.804   8.251
17981SOL    HW253970   2.832   9.731   8.378
17982SOL     OW53971   2.401   9.374   7.960
17982SOL    HW153972   2.320   9.375   8.018
17982SOL    HW253973   2.404   9.457   7.905
17983SOL     OW53974   3.296  10.498   7.489
17983SOL    HW153975   3.328  10.422   7.546
17983SOL    HW253976   3.204  10.525   7.519
17984SOL     OW53977   2.159   9.345   7.619
17984SOL    HW153978   2.208   9.429   7.598
17984SOL    HW253979   2.221   9.280   7.664
17985SOL     OW53980   2.797   9.546   7.928
17985SOL    HW153981   2.749   9.587   7.850
17985SOL    HW253982   2.896   9.544   7.909
17986SOL     OW53983   3.089  10.880   8.241
17986SOL    HW153984   3.110  10.954   8.176
17986SOL    HW253985   3.157  10.880   8.314
17987SOL     OW53986   2.321  10.462   8.189
17987SOL    HW153987   2.250  10.435   8.254
17987SOL    HW253988   2.295  10.434   8.096
17988SOL     OW53989   3.133  11.107   8.039
17988SOL    HW153990   3.177  11.171   7.975
17988SOL    HW253991   3.083  11.159   8.109
17989SOL     OW53992   2.894   9.859   7.464
17989SOL    HW153993   2.853   9.941   7.425
17989SOL    HW253994   2.958   9.885   7.537
17990SOL     OW53995   1.940   9.866   8.834
17990SOL    HW153996   2.032   9.865   8.793
17990SOL    HW253997   1.934   9.940   8.901
17991SOL     OW53998   2.423   9.532   8.595
17991SOL    HW153999   2.461   9.448   8.632
17991SOL    HW254000   2.335   9.551   8.639
17992SOL     OW54001   2.728   9.764   8.090
17992SOL    HW154002   2.696   9.836   8.028
17992SOL    HW254003   2.752   9.683   8.037
17993SOL     OW54004   2.879   9.349   8.201
17993SOL    HW154005   2.807   9.354   8.132
17993SOL    HW254006   2.855   9.280   8.270
17994SOL     OW54007   3.291  10.483   8.315
17994SOL    HW154008   3.236  10.399   8.308
17994SOL    HW254009   3.317  10.512   8.223
17995SOL     OW54010   3.328   9.900   8.440
17995SOL    HW154011   3.298   9.805   8.447
17995SOL    HW254012   3.401   9.916   8.506
17996SOL     OW54013   3.719  10.143   7.825
17996SOL    HW154014   3.761  10.079   7.889
17996SOL    HW254015   3.681  10.092   7.747
17997SOL     OW54016   2.350  10.695   7.622
17997SOL    HW154017   2.263  10.680   7.669
17997SOL    HW254018   2.333  10.721   7.527
17998SOL     OW54019   3.526  10.590   8.105
17998SOL    HW154020   3.625  10.598   8.119
17998SOL    HW254021   3.481  10.674   8.136
17999SOL     OW54022   3.252   9.885   7.526
17999SOL    HW154023   3.198   9.864   7.607
17999SOL    HW254024   3.343   9.844   7.535
18000SOL     OW54025   2.389   9.566   7.776
18000SOL    HW154026   2.416   9.507   7.701
18000SOL    HW254027   2.389   9.661   7.745
18001SOL     OW54028   3.616  10.533   9.036
18001SOL    HW154029   3.707  10.494   9.023
18001SOL    HW254030   3.624  10.629   9.060
18002SOL     OW54031   2.926  10.657   8.788
18002SOL    HW154032   2.846  10.634   8.843
18002SOL    HW254033   3.009  10.631   8.837
18003SOL     OW54034   3.454  10.939   9.073
18003SOL    HW154035   3.481  10.973   8.983
18003SOL    HW254036   3.533  10.901   9.119
18004SOL     OW54037   2.973  10.505   8.548
18004SOL    HW154038   2.933  10.549   8.629
18004SOL    HW254039   2.932  10.542   8.465
18005SOL     OW54040   3.500  10.409   8.527
18005SOL    HW154041   3.505  10.490   8.586
18005SOL    HW254042   3.414  10.411   8.476
18006SOL     OW54043   2.777   9.399   8.850
18006SOL    HW154044   2.802   9.379   8.755
18006SOL    HW254045   2.849   9.455   8.892
18007SOL     OW54046   2.842  10.426   9.167
18007SOL    HW154047   2.743  10.432   9.177
18007SOL    HW254048   2.865  10.346   9.111
18008SOL     OW54049   2.567  10.360   7.816
18008SOL    HW154050   2.553  10.367   7.915
18008SOL    HW254051   2.651  10.309   7.798
18009SOL     OW54052   2.272  10.123   8.699
18009SOL    HW154053   2.358  10.135   8.749
18009SOL    HW254054   2.230  10.036   8.726
18010SOL     OW54055   3.136   9.696   8.710
18010SOL    HW154056   3.157   9.770   8.774
18010SOL    HW254057   3.047   9.713   8.667
18011SOL     OW54058   1.926  10.874   8.779
18011SOL    HW154059   1.880  10.956   8.745
18011SOL    HW254060   2.024  10.893   8.788
18012SOL     OW54061   2.229  10.410   7.949
18012SOL    HW154062   2.222  10.493   7.893
18012SOL    HW254063   2.233  10.330   7.889
18013SOL     OW54064   2.428   9.847   8.313
18013SOL    HW154065   2.440   9.913   8.239
18013SOL    HW254066   2.474   9.881   8.396
18014SOL     OW54067   3.114  10.658   7.836
18014SOL    HW154068   3.164  10.735   7.876
18014SOL    HW254069   3.019  10.660   7.868
18015SOL     OW54070   3.134  10.755   8.590
18015SOL    HW154071   3.181  10.768   8.677
18015SOL    HW254072   3.068  10.681   8.599
18016SOL     OW54073   3.444   9.949   7.920
18016SOL    HW154074   3.413  10.010   7.993
18016SOL    HW254075   3.494  10.001   7.851
18017SOL     OW54076   2.216  10.820   8.777
18017SOL    HW154077   2.195  10.776   8.690
18017SOL    HW254078   2.313  10.846   8.780
18018SOL     OW54079   2.264  10.061   9.046
18018SOL    HW154080   2.332  10.116   8.999
18018SOL    HW254081   2.304   9.973   9.073
18019SOL     OW54082   3.449  10.089   9.118
18019SOL    HW154083   3.357  10.127   9.113
18019SOL    HW254084   3.509  10.136   9.053
18020SOL     OW54085   2.875   9.415   9.218
18020SOL    HW154086   2.881   9.500   9.166
18020SOL    HW254087   2.907   9.339   9.161
18021SOL     OW54088   2.366   9.360   9.188
18021SOL    HW154089   2.324   9.303   9.118
18021SOL    HW254090   2.300   9.429   9.220
18022SOL     OW54091   2.435  10.180   8.477
18022SOL    HW154092   2.479  10.269   8.468
18022SOL    HW254093   2.372  10.180   8.554
18023SOL     OW54094   3.222  10.172   8.493
18023SOL    HW154095   3.147  10.172   8.427
18023SOL    HW254096   3.259  10.080   8.502
18024SOL     OW54097   3.071   9.835   7.723
18024SOL    HW154098   3.084   9.751   7.777
18024SOL    HW254099   3.042   9.909   7.783
18025SOL     OW54100   2.169   9.523   8.679
18025SOL    HW154101   2.146   9.560   8.769
18025SOL    HW254102   2.139   9.428   8.673
18026SOL     OW54103   1.899  10.620   8.730
18026SOL    HW154104   1.952  10.571   8.798
18026SOL    HW254105   1.921  10.718   8.735
18027SOL     OW54106   2.594   9.944   8.512
18027SOL    HW154107   2.653   9.918   8.436
18027SOL    HW254108   2.566  10.040   8.501
18028SOL     OW54109   3.590  10.245   9.302
18028SOL    HW154110   3.544  10.238   9.213
18028SOL    HW254111   3.528  10.289   9.368
18029SOL     OW54112   2.169   9.373   8.066
18029SOL    HW154113   2.158   9.467   8.099
18029SOL    HW254114   2.164   9.310   8.143
18030SOL     OW54115   3.484   9.677   7.822
18030SOL    HW154116   3.486   9.601   7.886
18030SOL    HW254117   3.436   9.754   7.862
18031SOL     OW54118   2.885  10.076   8.414
18031SOL    HW154119   2.900  10.097   8.510
18031SOL    HW254120   2.855   9.981   8.405
18032SOL     OW54121   2.842  10.883   9.148
18032SOL    HW154122   2.822  10.927   9.060
18032SOL    HW254123   2.881  10.792   9.132
18033SOL     OW54124   3.721  10.828   9.053
18033SOL    HW154125   3.735  10.855   8.958
18033SOL    HW254126   3.804  10.850   9.106
18034SOL     OW54127   2.212  10.208   9.252
18034SOL    HW154128   2.288  10.252   9.300
18034SOL    HW254129   2.247  10.161   9.170
18035SOL     OW54130   3.402   9.584   7.573
18035SOL    HW154131   3.341   9.509   7.596
18035SOL    HW254132   3.424   9.636   7.656
18036SOL     OW54133   3.165  10.148   7.490
18036SOL    HW154134   3.199  10.055   7.505
18036SOL    HW254135   3.183  10.175   7.395
18037SOL     OW54136   2.930  10.643   8.297
18037SOL    HW154137   2.937  10.559   8.242
18037SOL    HW254138   2.992  10.712   8.261
18038SOL     OW54139   2.181  10.120   8.397
18038SOL    HW154140   2.274  10.156   8.402
18038SOL    HW254141   2.175  10.035   8.449
18039SOL     OW54142   2.201   9.819   8.454
18039SOL    HW154143   2.149   9.736   8.437
18039SOL    HW254144   2.278   9.824   8.390
18040SOL     OW54145   3.000   9.690   9.126
18040SOL    HW154146   2.955   9.753   9.190
18040SOL    HW254147   3.093   9.721   9.109
18041SOL     OW54148   3.022   9.517   8.925
18041SOL    HW154149   3.022   9.581   9.002
18041SOL    HW254150   3.050   9.565   8.842
18042SOL     OW54151   1.870  10.636   7.648
18042SOL    HW154152   1.777  10.657   7.617
18042SOL    HW254153   1.880  10.537   7.661
18043SOL     OW54154   1.950  11.111   8.375
18043SOL    HW154155   1.908  11.025   8.348
18043SOL    HW254156   2.044  11.114   8.341
18044SOL     OW54157   2.366  10.878   8.358
18044SOL    HW154158   2.432  10.952   8.367
18044SOL    HW254159   2.410  10.799   8.316
18045SOL     OW54160   2.864  10.106   8.686
18045SOL    HW154161   2.905  10.074   8.772
18045SOL    HW254162   2.768  10.079   8.683
18046SOL     OW54163   1.902   9.854   8.562
18046SOL    HW154164   1.987   9.821   8.521
18046SOL    HW254165   1.915   9.869   8.660
18047SOL     OW54166   2.051   9.830   9.170
18047SOL    HW154167   2.110   9.790   9.100
18047SOL    HW254168   1.993   9.901   9.129
18048SOL     OW54169   3.231  10.260   9.108
18048SOL    HW154170   3.270  10.349   9.128
18048SOL    HW254171   3.241  10.240   9.011
18049SOL     OW54172   2.677   9.882   7.773
18049SOL    HW154173   2.684   9.793   7.727
18049SOL    HW254174   2.583   9.916   7.765
18050SOL     OW54175   3.519   9.914   8.654
18050SOL    HW154176   3.481   9.845   8.716
18050SOL    HW254177   3.601   9.878   8.610
18051SOL     OW54178   2.114  10.874   9.192
18051SOL    HW154179   2.084  10.931   9.268
18051SOL    HW254180   2.107  10.777   9.218
18052SOL     OW54181   2.533   9.774   8.717
18052SOL    HW154182   2.499   9.685   8.687
18052SOL    HW254183   2.559   9.828   8.637
18053SOL     OW54184   2.792  10.988   8.913
18053SOL    HW154185   2.768  10.970   8.818
18053SOL    HW254186   2.822  11.082   8.923
18054SOL     OW54187   2.335   9.810   7.639
18054SOL    HW154188   2.396   9.890   7.643
18054SOL    HW254189   2.240   9.841   7.646
18055SOL     OW54190   2.021  10.447   8.914
18055SOL    HW154191   2.043  10.386   8.990
18055SOL    HW254192   2.031  10.398   8.828
18056SOL     OW54193   3.209  10.369   8.682
18056SOL    HW154194   3.233  10.306   8.608
18056SOL    HW254195   3.119  10.409   8.664
18057SOL     OW54196   3.164  10.165   7.757
18057SOL    HW154197   3.078  10.134   7.799
18057SOL    HW254198   3.160  10.151   7.658
18058SOL     OW54199   3.621  11.057   8.602
18058SOL    HW154200   3.682  11.087   8.529
18058SOL    HW254201   3.583  10.968   8.580
18059SOL     OW54202   3.114  11.041   8.576
18059SOL    HW154203   3.198  11.046   8.522
18059SOL    HW254204   3.091  10.945   8.594
18060SOL     OW54205   1.945  10.568   8.470
18060SOL    HW154206   1.940  10.567   8.570
18060SOL    HW254207   1.862  10.527   8.432
18061SOL     OW54208   2.550  10.972   9.164
18061SOL    HW154209   2.494  11.053   9.173
18061SOL    HW254210   2.602  10.976   9.078
18062SOL     OW54211   3.588   9.445   7.971
18062SOL    HW154212   3.661   9.428   7.904
18062SOL    HW254213   3.557   9.358   8.009
18063SOL     OW54214   3.250  10.883   7.925
18063SOL    HW154215   3.317  10.895   7.851
18063SOL    HW254216   3.210  10.972   7.948
18064SOL     OW54217   1.992  11.104   9.299
18064SOL    HW154218   1.951  11.030   9.352
18064SOL    HW254219   2.056  11.155   9.357
18065SOL     OW54220   3.142  10.237   8.120
18065SOL    HW154221   3.202  10.156   8.122
18065SOL    HW254222   3.182  10.306   8.060
18066SOL     OW54223   2.692  10.583   8.870
18066SOL    HW154224   2.687  10.616   8.965
18066SOL    HW254225   2.606  10.602   8.824
18067SOL     OW54226   2.534  10.926   7.602
18067SOL    HW154227   2.543  10.936   7.503
18067SOL    HW254228   2.494  10.837   7.623
18068SOL     OW54229   3.512  11.030   8.842
18068SOL    HW154230   3.565  11.040   8.758
18068SOL    HW254231   3.485  11.120   8.876
18069SOL     OW54232   3.703   9.485   8.411
18069SOL    HW154233   3.742   9.400   8.375
18069SOL    HW254234   3.605   9.487   8.392
18070SOL     OW54235   2.125   9.636   8.168
18070SOL    HW154236   2.046   9.687   8.134
18070SOL    HW254237   2.116   9.621   8.266
18071SOL     OW54238   3.056  10.922   7.479
18071SOL    HW154239   3.062  10.829   7.516
18071SOL    HW254240   2.997  10.922   7.399
18072SOL     OW54241   2.684  10.312   8.820
18072SOL    HW154242   2.724  10.311   8.728
18072SOL    HW254243   2.694  10.404   8.860
18073SOL     OW54244   2.778  10.220   7.739
18073SOL    HW154245   2.841  10.258   7.671
18073SOL    HW254246   2.818  10.137   7.778
18074SOL     OW54247   3.366  10.917   7.492
18074SOL    HW154248   3.274  10.954   7.499
18074SOL    HW254249   3.404  10.937   7.402
18075SOL     OW54250   2.234  10.598   8.938
18075SOL    HW154251   2.221  10.691   8.904
18075SOL    HW254252   2.150  10.546   8.925
18076SOL     OW54253   3.476  10.602   8.737
18076SOL    HW154254   3.536  10.605   8.817
18076SOL    HW254255   3.401  10.666   8.750
18077SOL     OW54256   2.901  10.408   8.144
18077SOL    HW154257   2.831  10.361   8.198
18077SOL    HW254258   2.960  10.340   8.101
18078SOL     OW54259   2.876   9.546   8.419
18078SOL    HW154260   2.868   9.510   8.326
18078SOL    HW254261   2.874   9.470   8.484
18079SOL     OW54262   2.452  10.797   7.939
18079SOL    HW154263   2.494  10.739   7.869
18079SOL    HW254264   2.408  10.876   7.895
18080SOL     OW54265   3.571   9.695   8.829
18080SOL    HW154266   3.644   9.764   8.833
18080SOL    HW254267   3.599   9.620   8.770
18081SOL     OW54268   2.117  10.658   7.738
18081SOL    HW154269   2.021  10.659   7.711
18081SOL    HW254270   2.129  10.711   7.822
18082SOL     OW54271   1.967  10.323   9.174
18082SOL    HW154272   1.890  10.290   9.228
18082SOL    HW254273   2.052  10.293   9.216
18083SOL     OW54274   2.534   9.513   8.937
18083SOL    HW154275   2.624   9.497   8.897
18083SOL    HW254276   2.542   9.518   9.036
18084SOL     OW54277   1.937   9.655   7.481
18084SOL    HW154278   1.845   9.627   7.452
18084SOL    HW254279   1.968   9.732   7.425
18085SOL     OW54280   3.302  10.166   8.846
18085SOL    HW154281   3.245  10.218   8.783
18085SOL    HW254282   3.398  10.178   8.822
18086SOL     OW54283   1.934   9.476   7.766
18086SOL    HW154284   1.917   9.559   7.712
18086SOL    HW254285   2.024   9.439   7.744
18087SOL     OW54286   3.045  10.645   7.567
18087SOL    HW154287   2.946  10.634   7.569
18087SOL    HW254288   3.079  10.660   7.660
18088SOL     OW54289   2.475  10.152   8.879
18088SOL    HW154290   2.531  10.233   8.862
18088SOL    HW254291   2.534  10.072   8.882
18089SOL     OW54292   3.355  11.077   8.407
18089SOL    HW154293   3.388  11.141   8.338
18089SOL    HW254294   3.421  11.071   8.482
18090SOL     OW54295   2.578   9.875   9.156
18090SOL    HW154296   2.597   9.940   9.230
18090SOL    HW254297   2.638   9.795   9.165
18091SOL     OW54298   3.312  10.530   9.081
18091SOL    HW154299   3.303  10.520   9.180
18091SOL    HW254300   3.408  10.523   9.055
18092SOL     OW54301   2.252  11.051   9.008
18092SOL    HW154302   2.161  11.092   9.006
18092SOL    HW254303   2.245  10.957   9.040
18093SOL     OW54304   3.536  10.193   8.702
18093SOL    HW154305   3.509  10.104   8.665
18093SOL    HW254306   3.537  10.261   8.629
18094SOL     OW54307   3.087   9.635   7.897
18094SOL    HW154308   3.152   9.561   7.886
18094SOL    HW254309   3.107   9.685   7.981
18095SOL     OW54310   2.456  10.055   8.100
18095SOL    HW154311   2.506  10.140   8.081
18095SOL    HW254312   2.368  10.057   8.052
18096SOL     OW54313   3.639   9.652   9.090
18096SOL    HW154314   3.622   9.683   8.996
18096SOL    HW254315   3.555   9.615   9.128
18097SOL     OW54316   3.592  10.244   8.965
18097SOL    HW154317   3.630  10.335   8.980
18097SOL    HW254318   3.584  10.227   8.866
18098SOL     OW54319   2.721  10.684   7.464
18098SOL    HW154320   2.675  10.699   7.552
18098SOL    HW254321   2.765  10.769   7.434
18099SOL     OW54322   2.523  11.100   8.401
18099SOL    HW154323   2.477  11.188   8.388
18099SOL    HW254324   2.622  11.112   8.394
18100SOL     OW54325   2.721  10.266   8.309
18100SOL    HW154326   2.775  10.197   8.357
18100SOL    HW254327   2.689  10.335   8.375
18101SOL     OW54328   2.945  10.294   7.535
18101SOL    HW154329   2.922  10.347   7.453
18101SOL    HW254330   3.026  10.238   7.516
18102SOL     OW54331   3.723  10.879   8.299
18102SOL    HW154332   3.652  10.867   8.229
18102SOL    HW254333   3.724  10.800   8.359
18103SOL     OW54334   2.083  10.624   9.292
18103SOL    HW154335   2.018  10.551   9.271
18103SOL    HW254336   2.087  10.638   9.390
18104SOL     OW54337   1.941  10.550   8.101
18104SOL    HW154338   1.940  10.503   8.189
18104SOL    HW254339   2.023  10.522   8.050
18105SOL     OW54340   2.534  10.701   9.072
18105SOL    HW154341   2.456  10.651   9.110
18105SOL    HW254342   2.531  10.796   9.103
18106SOL     OW54343   3.686   9.502   8.675
18106SOL    HW154344   3.682   9.412   8.719
18106SOL    HW254345   3.689   9.491   8.576
18107SOL     OW54346   2.290   9.734   7.968
18107SOL    HW154347   2.320   9.662   7.906
18107SOL    HW254348   2.251   9.694   8.051
18108SOL     OW54349   3.567  10.797   8.552
18108SOL    HW154350   3.474  10.772   8.525
18108SOL    HW254351   3.593  10.747   8.634
18109SOL     OW54352   2.179   9.857   8.728
18109SOL    HW154353   2.217   9.798   8.800
18109SOL    HW254354   2.219   9.831   8.640
18110SOL     OW54355   2.674  10.896   8.135
18110SOL    HW154356   2.706  10.906   8.041
18110SOL    HW254357   2.595  10.834   8.137
18111SOL     OW54358   3.286   9.524   8.560
18111SOL    HW154359   3.338   9.459   8.615
18111SOL    HW254360   3.237   9.587   8.621
18112SOL     OW54361   2.863   9.344   8.602
18112SOL    HW154362   2.800   9.272   8.571
18112SOL    HW254363   2.956   9.308   8.602
18113SOL     OW54364   2.632  10.640   7.749
18113SOL    HW154365   2.586  10.553   7.766
18113SOL    HW254366   2.723  10.637   7.790
18114SOL     OW54367   2.480  10.877   8.732
18114SOL    HW154368   2.475  10.959   8.789
18114SOL    HW254369   2.569  10.874   8.687
18115SOL     OW54370   3.214   9.362   7.616
18115SOL    HW154371   3.249   9.321   7.532
18115SOL    HW254372   3.124   9.324   7.636
18116SOL     OW54373   3.162   9.763   8.139
18116SOL    HW154374   3.103   9.843   8.143
18116SOL    HW254375   3.177   9.728   8.232
18117SOL     OW54376   3.455   9.531   8.330
18117SOL    HW154377   3.371   9.530   8.384
18117SOL    HW254378   3.457   9.614   8.274
18118SOL     OW54379   1.901  10.387   7.748
18118SOL    HW154380   2.000  10.376   7.739
18118SOL    HW254381   1.861  10.301   7.780
18119SOL     OW54382   2.737  10.956   7.785
18119SOL    HW154383   2.660  10.921   7.731
18119SOL    HW254384   2.705  11.027   7.847
18120SOL     OW54385   2.092   9.938   9.423
18120SOL    HW154386   1.999   9.936   9.460
18120SOL    HW254387   2.093   9.899   9.331
18121SOL     OW54388   2.087   9.585  10.306
18121SOL    HW154389   2.122   9.568  10.398
18121SOL    HW254390   1.999   9.540  10.294
18122SOL     OW54391   1.881   9.678   9.957
18122SOL    HW154392   1.799   9.721   9.996
18122SOL    HW254393   1.853   9.605   9.894
18123SOL     OW54394   2.431  10.585  10.475
18123SOL    HW154395   2.338  10.578  10.438
18123SOL    HW254396   2.442  10.674  10.519
18124SOL     OW54397   3.417  10.821  10.013
18124SOL    HW154398   3.360  10.805  10.094
18124SOL    HW254399   3.358  10.831   9.933
18125SOL     OW54400   2.997  10.013  10.027
18125SOL    HW154401   3.054  10.091  10.002
18125SOL    HW254402   2.937  10.039  10.103
18126SOL     OW54403   3.617   9.917   9.541
18126SOL    HW154404   3.605   9.904   9.442
18126SOL    HW254405   3.587   9.836   9.590
18127SOL     OW54406   2.630  10.454  10.333
18127SOL    HW154407   2.552  10.471  10.393
18127SOL    HW254408   2.664  10.541  10.297
18128SOL     OW54409   2.712  10.108  11.133
18128SOL    HW154410   2.708  10.184  11.198
18128SOL    HW254411   2.734  10.144  11.042
18129SOL     OW54412   2.547  10.322   9.975
18129SOL    HW154413   2.616  10.306  10.045
18129SOL    HW254414   2.474  10.379  10.013
18130SOL     OW54415   2.548  10.471  11.113
18130SOL    HW154416   2.608  10.550  11.127
18130SOL    HW254417   2.462  10.502  11.072
18131SOL     OW54418   2.197  10.745  10.371
18131SOL    HW154419   2.119  10.714  10.318
18131SOL    HW254420   2.255  10.803  10.314
18132SOL     OW54421   3.322  10.815  10.649
18132SOL    HW154422   3.346  10.909  10.675
18132SOL    HW254423   3.306  10.761  10.731
18133SOL     OW54424   2.300   9.702  10.809
18133SOL    HW154425   2.382   9.646  10.818
18133SOL    HW254426   2.219   9.644  10.813
18134SOL     OW54427   3.465   9.757  10.047
18134SOL    HW154428   3.391   9.803   9.997
18134SOL    HW254429   3.516   9.825  10.100
18135SOL     OW54430   2.093  11.023   9.793
18135SOL    HW154431   2.127  11.100   9.847
18135SOL    HW254432   2.137  11.023   9.703
18136SOL     OW54433   2.989  10.651  11.000
18136SOL    HW154434   3.036  10.651  11.088
18136SOL    HW254435   2.941  10.564  10.989
18137SOL     OW54436   2.092  10.744   9.848
18137SOL    HW154437   2.066  10.840   9.848
18137SOL    HW254438   2.021  10.690   9.893
18138SOL     OW54439   2.102  10.401  10.196
18138SOL    HW154440   2.116  10.317  10.248
18138SOL    HW254441   2.047  10.465  10.251
18139SOL     OW54442   2.482  11.096  10.749
18139SOL    HW154443   2.390  11.079  10.784
18139SOL    HW254444   2.510  11.188  10.775
18140SOL     OW54445   2.468  10.274   9.433
18140SOL    HW154446   2.475  10.358   9.379
18140SOL    HW254447   2.514  10.287   9.521
18141SOL     OW54448   3.456   9.424  10.790
18141SOL    HW154449   3.438   9.491  10.718
18141SOL    HW254450   3.453   9.470  10.879
18142SOL     OW54451   1.984   9.953   9.873
18142SOL    HW154452   1.939   9.865   9.890
18142SOL    HW254453   1.983  10.007   9.957
18143SOL     OW54454   3.704  11.077   9.669
18143SOL    HW154455   3.758  11.048   9.749
18143SOL    HW254456   3.734  11.167   9.640
18144SOL     OW54457   1.889  10.906   9.427
18144SOL    HW154458   1.870  10.810   9.448
18144SOL    HW254459   1.856  10.964   9.502
18145SOL     OW54460   3.551  10.232   9.922
18145SOL    HW154461   3.646  10.203   9.930
18145SOL    HW254462   3.543  10.297   9.847
18146SOL     OW54463   3.503  10.418   9.742
18146SOL    HW154464   3.589  10.420   9.690
18146SOL    HW254465   3.517  10.465   9.830
18147SOL     OW54466   1.975  10.047  10.907
18147SOL    HW154467   2.063  10.034  10.952
18147SOL    HW254468   1.962  10.144  10.885
18148SOL     OW54469   2.475  10.675  10.036
18148SOL    HW154470   2.426  10.588  10.045
18148SOL    HW254471   2.452  10.718   9.949
18149SOL     OW54472   3.155  10.538  10.733
18149SOL    HW154473   3.192  10.465  10.675
18149SOL    HW254474   3.207  10.543  10.818
18150SOL     OW54475   2.671   9.314   9.812
18150SOL    HW154476   2.711   9.405   9.803
18150SOL    HW254477   2.571   9.322   9.818
18151SOL     OW54478   2.059  10.286  10.574
18151SOL    HW154479   2.148  10.241  10.560
18151SOL    HW254480   1.986  10.221  10.555
18152SOL     OW54481   3.387  10.309   9.500
18152SOL    HW154482   3.324  10.233   9.513
18152SOL    HW254483   3.435  10.327   9.586
18153SOL     OW54484   3.049  11.102  10.926
18153SOL    HW154485   3.073  11.162  10.850
18153SOL    HW254486   3.056  11.007  10.896
18154SOL     OW54487   2.179   9.561  11.111
18154SOL    HW154488   2.250   9.632  11.117
18154SOL    HW254489   2.091   9.600  11.139
18155SOL     OW54490   3.328  10.727  10.263
18155SOL    HW154491   3.269  10.733  10.343
18155SOL    HW254492   3.313  10.639  10.217
18156SOL     OW54493   3.529  11.024   9.882
18156SOL    HW154494   3.488  11.001   9.794
18156SOL    HW254495   3.511  10.950   9.947
18157SOL     OW54496   2.460  10.039   9.580
18157SOL    HW154497   2.484  10.108   9.512
18157SOL    HW254498   2.382  10.072   9.634
18158SOL     OW54499   3.143   9.655  10.254
18158SOL    HW154500   3.057   9.605  10.241
18158SOL    HW254501   3.205   9.601  10.310
18159SOL     OW54502   3.438  10.972   9.617
18159SOL    HW154503   3.527  11.018   9.620
18159SOL    HW254504   3.417  10.948   9.522
18160SOL     OW54505   2.669   9.915  10.775
18160SOL    HW154506   2.622   9.912  10.864
18160SOL    HW254507   2.618   9.860  10.709
18161SOL     OW54508   3.256   9.779  10.984
18161SOL    HW154509   3.236   9.822  11.072
18161SOL    HW254510   3.334   9.717  10.993
18162SOL     OW54511   2.835  10.200  10.882
18162SOL    HW154512   2.881  10.116  10.853
18162SOL    HW254513   2.779  10.234  10.807
18163SOL     OW54514   2.853   9.720  10.552
18163SOL    HW154515   2.776   9.754  10.606
18163SOL    HW254516   2.819   9.669  10.473
18164SOL     OW54517   2.903  10.011   9.739
18164SOL    HW154518   2.929  10.007   9.835
18164SOL    HW254519   2.818   9.960   9.725
18165SOL     OW54520   1.938  10.121  10.099
18165SOL    HW154521   2.037  10.109  10.108
18165SOL    HW254522   1.914  10.216  10.120
18166SOL     OW54523   1.992  11.131  10.881
18166SOL    HW154524   1.982  11.116  10.980
18166SOL    HW254525   1.906  11.167  10.845
18167SOL     OW54526   2.727   9.658   9.505
18167SOL    HW154527   2.786   9.721   9.456
18167SOL    HW254528   2.746   9.564   9.476
18168SOL     OW54529   3.581   9.895  11.141
18168SOL    HW154530   3.555   9.984  11.105
18168SOL    HW254531   3.579   9.827  11.068
18169SOL     OW54532   3.224  10.454   9.855
18169SOL    HW154533   3.307  10.425   9.807
18169SOL    HW254534   3.175  10.521   9.799
18170SOL     OW54535   2.412   9.506  10.195
18170SOL    HW154536   2.407   9.501  10.295
18170SOL    HW254537   2.414   9.602  10.166
18171SOL     OW54538   2.870  10.766   9.787
18171SOL    HW154539   2.824  10.838   9.735
18171SOL    HW254540   2.866  10.786   9.885
18172SOL     OW54541   2.213  11.111  10.163
18172SOL    HW154542   2.263  11.025  10.169
18172SOL    HW254543   2.278  11.188  10.160
18173SOL     OW54544   3.657  10.376  10.183
18173SOL    HW154545   3.595  10.361  10.107
18173SOL    HW254546   3.605  10.387  10.268
18174SOL     OW54547   3.089  10.860  10.816
18174SOL    HW154548   3.095  10.783  10.880
18174SOL    HW254549   3.037  10.834  10.736
18175SOL     OW54550   2.183  10.253   9.552
18175SOL    HW154551   2.265  10.292   9.510
18175SOL    HW254552   2.156  10.171   9.503
18176SOL     OW54553   3.320  10.045  10.038
18176SOL    HW154554   3.315   9.980  10.113
18176SOL    HW254555   3.400  10.104  10.051
18177SOL     OW54556   2.323  10.576  11.037
18177SOL    HW154557   2.273  10.577  10.951
18177SOL    HW254558   2.260  10.558  11.113
18178SOL     OW54559   2.973  11.086   9.547
18178SOL    HW154560   2.913  11.024   9.597
18178SOL    HW254561   3.004  11.042   9.462
18179SOL     OW54562   2.064   9.595  10.808
18179SOL    HW154563   1.984   9.655  10.795
18179SOL    HW254564   2.054   9.546  10.894
18180SOL     OW54565   3.494  10.687   9.391
18180SOL    HW154566   3.462  10.781   9.381
18180SOL    HW254567   3.418  10.624   9.379
18181SOL     OW54568   2.326  11.053   9.633
18181SOL    HW154569   2.359  11.092   9.719
18181SOL    HW254570   2.402  11.046   9.568
18182SOL     OW54571   3.262   9.417   9.736
18182SOL    HW154572   3.238   9.380   9.646
18182SOL    HW254573   3.361   9.433   9.740
18183SOL     OW54574   2.111  11.095  10.551
18183SOL    HW154575   2.168  11.030  10.601
18183SOL    HW254576   2.095  11.062  10.458
18184SOL     OW54577   2.802  11.008  10.214
18184SOL    HW154578   2.882  10.951  10.235
18184SOL    HW254579   2.753  10.968  10.137
18185SOL     OW54580   2.244  10.010   9.790
18185SOL    HW154581   2.289   9.920   9.787
18185SOL    HW254582   2.150   9.999   9.823
18186SOL     OW54583   3.409   9.532  11.039
18186SOL    HW154584   3.404   9.569  11.131
18186SOL    HW254585   3.337   9.463  11.027
18187SOL     OW54586   2.476   9.432   9.427
18187SOL    HW154587   2.574   9.410   9.434
18187SOL    HW254588   2.445   9.415   9.334
18188SOL     OW54589   2.643   9.574  11.059
18188SOL    HW154590   2.710   9.513  11.102
18188SOL    HW254591   2.570   9.593  11.124
18189SOL     OW54592   2.750  10.824  10.505
18189SOL    HW154593   2.727  10.799  10.411
18189SOL    HW254594   2.811  10.755  10.544
18190SOL     OW54595   3.213   9.900  10.743
18190SOL    HW154596   3.241   9.857  10.828
18190SOL    HW254597   3.238   9.996  10.744
18191SOL     OW54598   2.665  10.712  10.234
18191SOL    HW154599   2.755  10.726  10.192
18191SOL    HW254600   2.594  10.714  10.163
18192SOL     OW54601   2.784   9.813  10.209
18192SOL    HW154602   2.759   9.804  10.113
18192SOL    HW254603   2.832   9.731  10.240
18193SOL     OW54604   2.401   9.374   9.822
18193SOL    HW154605   2.320   9.375   9.880
18193SOL    HW254606   2.404   9.457   9.767
18194SOL     OW54607   3.296  10.498   9.351
18194SOL    HW154608   3.328  10.422   9.408
18194SOL    HW254609   3.204  10.525   9.381
18195SOL     OW54610   2.159   9.345   9.481
18195SOL    HW154611   2.208   9.429   9.460
18195SOL    HW254612   2.221   9.280   9.526
18196SOL     OW54613   2.797   9.546   9.790
18196SOL    HW154614   2.749   9.587   9.712
18196SOL    HW254615   2.896   9.544   9.771
18197SOL     OW54616   2.938   9.993  10.774
18197SOL    HW154617   2.858   9.932  10.777
18197SOL    HW254618   3.019   9.940  10.750
18198SOL     OW54619   3.089  10.880  10.103
18198SOL    HW154620   3.110  10.954  10.038
18198SOL    HW254621   3.157  10.880  10.176
18199SOL     OW54622   2.321  10.462  10.051
18199SOL    HW154623   2.250  10.435  10.116
18199SOL    HW254624   2.295  10.434   9.958
18200SOL     OW54625   3.133  11.107   9.901
18200SOL    HW154626   3.177  11.171   9.837
18200SOL    HW254627   3.083  11.159   9.971
18201SOL     OW54628   2.894   9.859   9.326
18201SOL    HW154629   2.853   9.941   9.287
18201SOL    HW254630   2.958   9.885   9.399
18202SOL     OW54631   1.940   9.866  10.696
18202SOL    HW154632   2.032   9.865  10.655
18202SOL    HW254633   1.934   9.940  10.763
18203SOL     OW54634   2.423   9.532  10.457
18203SOL    HW154635   2.461   9.448  10.494
18203SOL    HW254636   2.335   9.551  10.501
18204SOL     OW54637   2.728   9.764   9.952
18204SOL    HW154638   2.696   9.836   9.890
18204SOL    HW254639   2.752   9.683   9.899
18205SOL     OW54640   2.879   9.349  10.063
18205SOL    HW154641   2.807   9.354   9.994
18205SOL    HW254642   2.855   9.280  10.132
18206SOL     OW54643   3.291  10.483  10.177
18206SOL    HW154644   3.236  10.399  10.170
18206SOL    HW254645   3.317  10.512  10.085
18207SOL     OW54646   3.328   9.900  10.302
18207SOL    HW154647   3.298   9.805  10.309
18207SOL    HW254648   3.401   9.916  10.368
18208SOL     OW54649   3.719  10.143   9.687
18208SOL    HW154650   3.761  10.079   9.751
18208SOL    HW254651   3.681  10.092   9.609
18209SOL     OW54652   2.350  10.695   9.484
18209SOL    HW154653   2.263  10.680   9.531
18209SOL    HW254654   2.333  10.721   9.389
18210SOL     OW54655   3.526  10.590   9.967
18210SOL    HW154656   3.625  10.598   9.981
18210SOL    HW254657   3.481  10.674   9.998
18211SOL     OW54658   3.252   9.885   9.388
18211SOL    HW154659   3.198   9.864   9.469
18211SOL    HW254660   3.343   9.844   9.397
18212SOL     OW54661   2.389   9.566   9.638
18212SOL    HW154662   2.416   9.507   9.563
18212SOL    HW254663   2.389   9.661   9.607
18213SOL     OW54664   3.616  10.533  10.898
18213SOL    HW154665   3.707  10.494  10.885
18213SOL    HW254666   3.624  10.629  10.922
18214SOL     OW54667   2.926  10.657  10.650
18214SOL    HW154668   2.846  10.634  10.705
18214SOL    HW254669   3.009  10.631  10.699
18215SOL     OW54670   3.454  10.939  10.935
18215SOL    HW154671   3.481  10.973  10.845
18215SOL    HW254672   3.533  10.901  10.981
18216SOL     OW54673   2.973  10.505  10.410
18216SOL    HW154674   2.933  10.549  10.491
18216SOL    HW254675   2.932  10.542  10.327
18217SOL     OW54676   3.500  10.409  10.389
18217SOL    HW154677   3.505  10.490  10.448
18217SOL    HW254678   3.414  10.411  10.338
18218SOL     OW54679   2.777   9.399  10.712
18218SOL    HW154680   2.802   9.379  10.617
18218SOL    HW254681   2.849   9.455  10.754
18219SOL     OW54682   2.842  10.426  11.029
18219SOL    HW154683   2.743  10.432  11.039
18219SOL    HW254684   2.865  10.346  10.973
18220SOL     OW54685   2.567  10.360   9.678
18220SOL    HW154686   2.553  10.367   9.777
18220SOL    HW254687   2.651  10.309   9.660
18221SOL     OW54688   2.272  10.123  10.561
18221SOL    HW154689   2.358  10.135  10.611
18221SOL    HW254690   2.230  10.036  10.588
18222SOL     OW54691   3.136   9.696  10.572
18222SOL    HW154692   3.157   9.770  10.636
18222SOL    HW254693   3.047   9.713  10.529
18223SOL     OW54694   1.926  10.874  10.641
18223SOL    HW154695   1.880  10.956  10.607
18223SOL    HW254696   2.024  10.893  10.650
18224SOL     OW54697   2.229  10.410   9.811
18224SOL    HW154698   2.222  10.493   9.755
18224SOL    HW254699   2.233  10.330   9.751
18225SOL     OW54700   2.428   9.847  10.175
18225SOL    HW154701   2.440   9.913  10.101
18225SOL    HW254702   2.474   9.881  10.258
18226SOL     OW54703   3.114  10.658   9.698
18226SOL    HW154704   3.164  10.735   9.738
18226SOL    HW254705   3.019  10.660   9.730
18227SOL     OW54706   3.134  10.755  10.452
18227SOL    HW154707   3.181  10.768  10.539
18227SOL    HW254708   3.068  10.681  10.461
18228SOL     OW54709   3.444   9.949   9.782
18228SOL    HW154710   3.413  10.010   9.855
18228SOL    HW254711   3.494  10.001   9.713
18229SOL     OW54712   2.216  10.820  10.639
18229SOL    HW154713   2.195  10.776  10.552
18229SOL    HW254714   2.313  10.846  10.642
18230SOL     OW54715   2.264  10.061  10.908
18230SOL    HW154716   2.332  10.116  10.861
18230SOL    HW254717   2.304   9.973  10.935
18231SOL     OW54718   3.449  10.089  10.980
18231SOL    HW154719   3.357  10.127  10.975
18231SOL    HW254720   3.509  10.136  10.915
18232SOL     OW54721   2.875   9.415  11.080
18232SOL    HW154722   2.881   9.500  11.028
18232SOL    HW254723   2.907   9.339  11.023
18233SOL     OW54724   2.366   9.360  11.050
18233SOL    HW154725   2.324   9.303  10.980
18233SOL    HW254726   2.300   9.429  11.082
18234SOL     OW54727   2.435  10.180  10.339
18234SOL    HW154728   2.479  10.269  10.330
18234SOL    HW254729   2.372  10.180  10.416
18235SOL     OW54730   3.222  10.172  10.355
18235SOL    HW154731   3.147  10.172  10.289
18235SOL    HW254732   3.259  10.080  10.364
18236SOL     OW54733   3.071   9.835   9.585
18236SOL    HW154734   3.084   9.751   9.639
18236SOL    HW254735   3.042   9.909   9.645
18237SOL     OW54736   2.169   9.523  10.541
18237SOL    HW154737   2.146   9.560  10.631
18237SOL    HW254738   2.139   9.428  10.535
18238SOL     OW54739   1.899  10.620  10.592
18238SOL    HW154740   1.952  10.571  10.660
18238SOL    HW254741   1.921  10.718  10.597
18239SOL     OW54742   2.594   9.944  10.374
18239SOL    HW154743   2.653   9.918  10.298
18239SOL    HW254744   2.566  10.040  10.363
18240SOL     OW54745   3.590  10.245  11.164
18240SOL    HW154746   3.544  10.238  11.075
18240SOL    HW254747   3.528  10.289  11.230
18241SOL     OW54748   2.169   9.373   9.928
18241SOL    HW154749   2.158   9.467   9.961
18241SOL    HW254750   2.164   9.310  10.005
18242SOL     OW54751   3.484   9.677   9.684
18242SOL    HW154752   3.486   9.601   9.748
18242SOL    HW254753   3.436   9.754   9.724
18243SOL     OW54754   2.885  10.076  10.276
18243SOL    HW154755   2.900  10.097  10.372
18243SOL    HW254756   2.855   9.981  10.267
18244SOL     OW54757   2.842  10.883  11.010
18244SOL    HW154758   2.822  10.927  10.922
18244SOL    HW254759   2.881  10.792  10.994
18245SOL     OW54760   3.721  10.828  10.915
18245SOL    HW154761   3.735  10.855  10.820
18245SOL    HW254762   3.804  10.850  10.968
18246SOL     OW54763   2.212  10.208  11.114
18246SOL    HW154764   2.288  10.252  11.162
18246SOL    HW254765   2.247  10.161  11.032
18247SOL     OW54766   3.402   9.584   9.435
18247SOL    HW154767   3.341   9.509   9.458
18247SOL    HW254768   3.424   9.636   9.518
18248SOL     OW54769   3.165  10.148   9.352
18248SOL    HW154770   3.199  10.055   9.367
18248SOL    HW254771   3.183  10.175   9.257
18249SOL     OW54772   2.930  10.643  10.159
18249SOL    HW154773   2.937  10.559  10.104
18249SOL    HW254774   2.992  10.712  10.123
18250SOL     OW54775   2.181  10.120  10.259
18250SOL    HW154776   2.274  10.156  10.264
18250SOL    HW254777   2.175  10.035  10.311
18251SOL     OW54778   2.201   9.819  10.316
18251SOL    HW154779   2.149   9.736  10.299
18251SOL    HW254780   2.278   9.824  10.252
18252SOL     OW54781   3.000   9.690  10.988
18252SOL    HW154782   2.955   9.753  11.052
18252SOL    HW254783   3.093   9.721  10.971
18253SOL     OW54784   3.022   9.517  10.787
18253SOL    HW154785   3.022   9.581  10.864
18253SOL    HW254786   3.050   9.565  10.704
18254SOL     OW54787   1.870  10.636   9.510
18254SOL    HW154788   1.777  10.657   9.479
18254SOL    HW254789   1.880  10.537   9.523
18255SOL     OW54790   1.950  11.111  10.237
18255SOL    HW154791   1.908  11.025  10.210
18255SOL    HW254792   2.044  11.114  10.203
18256SOL     OW54793   2.366  10.878  10.220
18256SOL    HW154794   2.432  10.952  10.229
18256SOL    HW254795   2.410  10.799  10.178
18257SOL     OW54796   2.864  10.106  10.548
18257SOL    HW154797   2.905  10.074  10.634
18257SOL    HW254798   2.768  10.079  10.545
18258SOL     OW54799   1.902   9.854  10.424
18258SOL    HW154800   1.987   9.821  10.383
18258SOL    HW254801   1.915   9.869  10.522
18259SOL     OW54802   2.051   9.830  11.032
18259SOL    HW154803   2.110   9.790  10.962
18259SOL    HW254804   1.993   9.901  10.991
18260SOL     OW54805   3.231  10.260  10.970
18260SOL    HW154806   3.270  10.349  10.990
18260SOL    HW254807   3.241  10.240  10.873
18261SOL     OW54808   2.677   9.882   9.635
18261SOL    HW154809   2.684   9.793   9.589
18261SOL    HW254810   2.583   9.916   9.627
18262SOL     OW54811   3.519   9.914  10.516
18262SOL    HW154812   3.481   9.845  10.578
18262SOL    HW254813   3.601   9.878  10.472
18263SOL     OW54814   2.114  10.874  11.054
18263SOL    HW154815   2.084  10.931  11.130
18263SOL    HW254816   2.107  10.777  11.080
18264SOL     OW54817   2.533   9.774  10.579
18264SOL    HW154818   2.499   9.685  10.549
18264SOL    HW254819   2.559   9.828  10.499
18265SOL     OW54820   2.792  10.988  10.775
18265SOL    HW154821   2.768  10.970  10.680
18265SOL    HW254822   2.822  11.082  10.785
18266SOL     OW54823   2.335   9.810   9.501
18266SOL    HW154824   2.396   9.890   9.505
18266SOL    HW254825   2.240   9.841   9.508
18267SOL     OW54826   2.021  10.447  10.776
18267SOL    HW154827   2.043  10.386  10.852
18267SOL    HW254828   2.031  10.398  10.690
18268SOL     OW54829   3.209  10.369  10.544
18268SOL    HW154830   3.233  10.306  10.470
18268SOL    HW254831   3.119  10.409  10.526
18269SOL     OW54832   3.164  10.165   9.619
18269SOL    HW154833   3.078  10.134   9.661
18269SOL    HW254834   3.160  10.151   9.520
18270SOL     OW54835   3.621  11.057  10.464
18270SOL    HW154836   3.682  11.087  10.391
18270SOL    HW254837   3.583  10.968  10.442
18271SOL     OW54838   3.114  11.041  10.438
18271SOL    HW154839   3.198  11.046  10.384
18271SOL    HW254840   3.091  10.945  10.456
18272SOL     OW54841   1.945  10.568  10.332
18272SOL    HW154842   1.940  10.567  10.432
18272SOL    HW254843   1.862  10.527  10.294
18273SOL     OW54844   2.550  10.972  11.026
18273SOL    HW154845   2.494  11.053  11.035
18273SOL    HW254846   2.602  10.976  10.940
18274SOL     OW54847   3.588   9.445   9.833
18274SOL    HW154848   3.661   9.428   9.766
18274SOL    HW254849   3.557   9.358   9.871
18275SOL     OW54850   3.250  10.883   9.787
18275SOL    HW154851   3.317  10.895   9.713
18275SOL    HW254852   3.210  10.972   9.810
18276SOL     OW54853   1.992  11.104  11.161
18276SOL    HW154854   1.951  11.030  11.214
18276SOL    HW254855   2.056  11.155  11.219
18277SOL     OW54856   3.142  10.237   9.982
18277SOL    HW154857   3.202  10.156   9.984
18277SOL    HW254858   3.182  10.306   9.922
18278SOL     OW54859   2.692  10.583  10.732
18278SOL    HW154860   2.687  10.616  10.827
18278SOL    HW254861   2.606  10.602  10.686
18279SOL     OW54862   2.534  10.926   9.464
18279SOL    HW154863   2.543  10.936   9.365
18279SOL    HW254864   2.494  10.837   9.485
18280SOL     OW54865   3.512  11.030  10.704
18280SOL    HW154866   3.565  11.040  10.620
18280SOL    HW254867   3.485  11.120  10.738
18281SOL     OW54868   3.703   9.485  10.273
18281SOL    HW154869   3.742   9.400  10.237
18281SOL    HW254870   3.605   9.487  10.254
18282SOL     OW54871   2.125   9.636  10.030
18282SOL    HW154872   2.046   9.687   9.996
18282SOL    HW254873   2.116   9.621  10.128
18283SOL     OW54874   3.056  10.922   9.341
18283SOL    HW154875   3.062  10.829   9.378
18283SOL    HW254876   2.997  10.922   9.261
18284SOL     OW54877   2.684  10.312  10.682
18284SOL    HW154878   2.724  10.311  10.590
18284SOL    HW254879   2.694  10.404  10.722
18285SOL     OW54880   2.778  10.220   9.601
18285SOL    HW154881   2.841  10.258   9.533
18285SOL    HW254882   2.818  10.137   9.640
18286SOL     OW54883   3.366  10.917   9.354
18286SOL    HW154884   3.274  10.954   9.361
18286SOL    HW254885   3.404  10.937   9.264
18287SOL     OW54886   2.234  10.598  10.800
18287SOL    HW154887   2.221  10.691  10.766
18287SOL    HW254888   2.150  10.546  10.787
18288SOL     OW54889   3.476  10.602  10.599
18288SOL    HW154890   3.536  10.605  10.679
18288SOL    HW254891   3.401  10.666  10.612
18289SOL     OW54892   2.901  10.408  10.006
18289SOL    HW154893   2.831  10.361  10.060
18289SOL    HW254894   2.960  10.340   9.963
18290SOL     OW54895   2.876   9.546  10.281
18290SOL    HW154896   2.868   9.510  10.188
18290SOL    HW254897   2.874   9.470  10.346
18291SOL     OW54898   2.452  10.797   9.801
18291SOL    HW154899   2.494  10.739   9.731
18291SOL    HW254900   2.408  10.876   9.757
18292SOL     OW54901   3.571   9.695  10.691
18292SOL    HW154902   3.644   9.764  10.695
18292SOL    HW254903   3.599   9.620  10.632
18293SOL     OW54904   2.117  10.658   9.600
18293SOL    HW154905   2.021  10.659   9.573
18293SOL    HW254906   2.129  10.711   9.684
18294SOL     OW54907   1.967  10.323  11.036
18294SOL    HW154908   1.890  10.290  11.090
18294SOL    HW254909   2.052  10.293  11.078
18295SOL     OW54910   2.534   9.513  10.799
18295SOL    HW154911   2.624   9.497  10.759
18295SOL    HW254912   2.542   9.518  10.898
18296SOL     OW54913   1.937   9.655   9.343
18296SOL    HW154914   1.845   9.627   9.314
18296SOL    HW254915   1.968   9.732   9.287
18297SOL     OW54916   3.302  10.166  10.708
18297SOL    HW154917   3.245  10.218  10.645
18297SOL    HW254918   3.398  10.178  10.684
18298SOL     OW54919   1.934   9.476   9.628
18298SOL    HW154920   1.917   9.559   9.574
18298SOL    HW254921   2.024   9.439   9.606
18299SOL     OW54922   3.045  10.645   9.429
18299SOL    HW154923   2.946  10.634   9.431
18299SOL    HW254924   3.079  10.660   9.522
18300SOL     OW54925   2.475  10.152  10.741
18300SOL    HW154926   2.531  10.233  10.724
18300SOL    HW254927   2.534  10.072  10.744
18301SOL     OW54928   3.355  11.077  10.269
18301SOL    HW154929   3.388  11.141  10.200
18301SOL    HW254930   3.421  11.071  10.344
18302SOL     OW54931   2.578   9.875  11.018
18302SOL    HW154932   2.597   9.940  11.092
18302SOL    HW254933   2.638   9.795  11.027
18303SOL     OW54934   3.312  10.530  10.943
18303SOL    HW154935   3.303  10.520  11.042
18303SOL    HW254936   3.408  10.523  10.917
18304SOL     OW54937   2.252  11.051  10.870
18304SOL    HW154938   2.161  11.092  10.868
18304SOL    HW254939   2.245  10.957  10.902
18305SOL     OW54940   3.536  10.193  10.564
18305SOL    HW154941   3.509  10.104  10.527
18305SOL    HW254942   3.537  10.261  10.491
18306SOL     OW54943   3.087   9.635   9.759
18306SOL    HW154944   3.152   9.561   9.748
18306SOL    HW254945   3.107   9.685   9.843
18307SOL     OW54946   2.456  10.055   9.962
18307SOL    HW154947   2.506  10.140   9.943
18307SOL    HW254948   2.368  10.057   9.914
18308SOL     OW54949   3.639   9.652  10.952
18308SOL    HW154950   3.622   9.683  10.858
18308SOL    HW254951   3.555   9.615  10.990
18309SOL     OW54952   3.592  10.244  10.827
18309SOL    HW154953   3.630  10.335  10.842
18309SOL    HW254954   3.584  10.227  10.728
18310SOL     OW54955   2.721  10.684   9.326
18310SOL    HW154956   2.675  10.699   9.414
18310SOL    HW254957   2.765  10.769   9.296
18311SOL     OW54958   2.523  11.100  10.263
18311SOL    HW154959   2.477  11.188  10.250
18311SOL    HW254960   2.622  11.112  10.256
18312SOL     OW54961   2.721  10.266  10.171
18312SOL    HW154962   2.775  10.197  10.219
18312SOL    HW254963   2.689  10.335  10.237
18313SOL     OW54964   2.945  10.294   9.397
18313SOL    HW154965   2.922  10.347   9.315
18313SOL    HW254966   3.026  10.238   9.378
18314SOL     OW54967   3.723  10.879  10.161
18314SOL    HW154968   3.652  10.867  10.091
18314SOL    HW254969   3.724  10.800  10.221
18315SOL     OW54970   2.083  10.624  11.154
18315SOL    HW154971   2.018  10.551  11.133
18315SOL    HW254972   2.087  10.638  11.252
18316SOL     OW54973   1.941  10.550   9.963
18316SOL    HW154974   1.940  10.503  10.051
18316SOL    HW254975   2.023  10.522   9.912
18317SOL     OW54976   2.534  10.701  10.934
18317SOL    HW154977   2.456  10.651  10.972
18317SOL    HW254978   2.531  10.796  10.965
18318SOL     OW54979   3.686   9.502  10.537
18318SOL    HW154980   3.682   9.412  10.581
18318SOL    HW254981   3.689   9.491  10.438
18319SOL     OW54982   2.290   9.734   9.830
18319SOL    HW154983   2.320   9.662   9.768
18319SOL    HW254984   2.251   9.694   9.913
18320SOL     OW54985   3.567  10.797  10.414
18320SOL    HW154986   3.474  10.772  10.387
18320SOL    HW254987   3.593  10.747  10.496
18321SOL     OW54988   2.179   9.857  10.590
18321SOL    HW154989   2.217   9.798  10.662
18321SOL    HW254990   2.219   9.831  10.502
18322SOL     OW54991   2.674  10.896   9.997
18322SOL    HW154992   2.706  10.906   9.903
18322SOL    HW254993   2.595  10.834   9.999
18323SOL     OW54994   3.286   9.524  10.422
18323SOL    HW154995   3.338   9.459  10.477
18323SOL    HW254996   3.237   9.587  10.483
18324SOL     OW54997   2.863   9.344  10.464
18324SOL    HW154998   2.800   9.272  10.433
18324SOL    HW254999   2.956   9.308  10.464
18325SOL     OW55000   2.632  10.640   9.611
18325SOL    HW155001   2.586  10.553   9.628
18325SOL    HW255002   2.723  10.637   9.652
18326SOL     OW55003   2.480  10.877  10.594
18326SOL    HW155004   2.475  10.959  10.651
18326SOL    HW255005   2.569  10.874  10.549
18327SOL     OW55006   3.214   9.362   9.478
18327SOL    HW155007   3.249   9.321   9.394
18327SOL    HW255008   3.124   9.324   9.498
18328SOL     OW55009   3.162   9.763  10.001
18328SOL    HW155010   3.103   9.843  10.005
18328SOL    HW255011   3.177   9.728  10.094
18329SOL     OW55012   3.455   9.531  10.192
18329SOL    HW155013   3.371   9.530  10.246
18329SOL    HW255014   3.457   9.614  10.136
18330SOL     OW55015   1.901  10.387   9.610
18330SOL    HW155016   2.000  10.376   9.601
18330SOL    HW255017   1.861  10.301   9.642
18331SOL     OW55018   2.737  10.956   9.647
18331SOL    HW155019   2.660  10.921   9.593
18331SOL    HW255020   2.705  11.027   9.709
18332SOL     OW55021   2.092   9.938  11.285
18332SOL    HW155022   1.999   9.936  11.322
18332SOL    HW255023   2.093   9.899  11.193
18333SOL     OW55024   2.087   9.585  12.168
18333SOL    HW155025   2.122   9.568  12.260
18333SOL    HW255026   1.999   9.540  12.156
18334SOL     OW55027   1.881   9.678  11.819
18334SOL    HW155028   1.799   9.721  11.858
18334SOL    HW255029   1.853   9.605  11.756
18335SOL     OW55030   2.431  10.585  12.337
18335SOL    HW155031   2.338  10.578  12.300
18335SOL    HW255032   2.442  10.674  12.381
18336SOL     OW55033   3.417  10.821  11.875
18336SOL    HW155034   3.360  10.805  11.956
18336SOL    HW255035   3.358  10.831  11.795
18337SOL     OW55036   2.997  10.013  11.889
18337SOL    HW155037   3.054  10.091  11.864
18337SOL    HW255038   2.937  10.039  11.965
18338SOL     OW55039   3.617   9.917  11.403
18338SOL    HW155040   3.605   9.904  11.304
18338SOL    HW255041   3.587   9.836  11.452
18339SOL     OW55042   2.630  10.454  12.195
18339SOL    HW155043   2.552  10.471  12.255
18339SOL    HW255044   2.664  10.541  12.159
18340SOL     OW55045   2.547  10.322  11.837
18340SOL    HW155046   2.616  10.306  11.907
18340SOL    HW255047   2.474  10.379  11.875
18341SOL     OW55048   2.197  10.745  12.233
18341SOL    HW155049   2.119  10.714  12.180
18341SOL    HW255050   2.255  10.803  12.176
18342SOL     OW55051   3.322  10.815  12.511
18342SOL    HW155052   3.346  10.909  12.537
18342SOL    HW255053   3.306  10.761  12.593
18343SOL     OW55054   2.300   9.702  12.671
18343SOL    HW155055   2.382   9.646  12.680
18343SOL    HW255056   2.219   9.644  12.675
18344SOL     OW55057   3.465   9.757  11.909
18344SOL    HW155058   3.391   9.803  11.859
18344SOL    HW255059   3.516   9.825  11.962
18345SOL     OW55060   2.093  11.023  11.655
18345SOL    HW155061   2.127  11.100  11.709
18345SOL    HW255062   2.137  11.023  11.565
18346SOL     OW55063   2.092  10.744  11.710
18346SOL    HW155064   2.066  10.840  11.710
18346SOL    HW255065   2.021  10.690  11.755
18347SOL     OW55066   2.102  10.401  12.058
18347SOL    HW155067   2.116  10.317  12.110
18347SOL    HW255068   2.047  10.465  12.113
18348SOL     OW55069   2.482  11.096  12.611
18348SOL    HW155070   2.390  11.079  12.646
18348SOL    HW255071   2.510  11.188  12.637
18349SOL     OW55072   2.468  10.274  11.295
18349SOL    HW155073   2.475  10.358  11.241
18349SOL    HW255074   2.514  10.287  11.383
18350SOL     OW55075   3.456   9.424  12.652
18350SOL    HW155076   3.438   9.491  12.580
18350SOL    HW255077   3.453   9.470  12.741
18351SOL     OW55078   1.984   9.953  11.735
18351SOL    HW155079   1.939   9.865  11.752
18351SOL    HW255080   1.983  10.007  11.819
18352SOL     OW55081   3.704  11.077  11.531
18352SOL    HW155082   3.758  11.048  11.611
18352SOL    HW255083   3.734  11.167  11.502
18353SOL     OW55084   1.889  10.906  11.289
18353SOL    HW155085   1.870  10.810  11.310
18353SOL    HW255086   1.856  10.964  11.364
18354SOL     OW55087   3.551  10.232  11.784
18354SOL    HW155088   3.646  10.203  11.792
18354SOL    HW255089   3.543  10.297  11.709
18355SOL     OW55090   3.503  10.418  11.604
18355SOL    HW155091   3.589  10.420  11.552
18355SOL    HW255092   3.517  10.465  11.692
18356SOL     OW55093   2.475  10.675  11.898
18356SOL    HW155094   2.426  10.588  11.907
18356SOL    HW255095   2.452  10.718  11.811
18357SOL     OW55096   2.671   9.314  11.674
18357SOL    HW155097   2.711   9.405  11.665
18357SOL    HW255098   2.571   9.322  11.680
18358SOL     OW55099   2.059  10.286  12.436
18358SOL    HW155100   2.148  10.241  12.422
18358SOL    HW255101   1.986  10.221  12.417
18359SOL     OW55102   3.387  10.309  11.362
18359SOL    HW155103   3.324  10.233  11.375
18359SOL    HW255104   3.435  10.327  11.448
18360SOL     OW55105   2.179   9.561  12.973
18360SOL    HW155106   2.250   9.632  12.979
18360SOL    HW255107   2.091   9.600  13.001
18361SOL     OW55108   3.328  10.727  12.125
18361SOL    HW155109   3.269  10.733  12.205
18361SOL    HW255110   3.313  10.639  12.079
18362SOL     OW55111   3.529  11.024  11.744
18362SOL    HW155112   3.488  11.001  11.656
18362SOL    HW255113   3.511  10.950  11.809
18363SOL     OW55114   2.460  10.039  11.442
18363SOL    HW155115   2.484  10.108  11.374
18363SOL    HW255116   2.382  10.072  11.496
18364SOL     OW55117   3.143   9.655  12.116
18364SOL    HW155118   3.057   9.605  12.103
18364SOL    HW255119   3.205   9.601  12.172
18365SOL     OW55120   3.438  10.972  11.479
18365SOL    HW155121   3.527  11.018  11.482
18365SOL    HW255122   3.417  10.948  11.384
18366SOL     OW55123   2.669   9.915  12.637
18366SOL    HW155124   2.622   9.912  12.726
18366SOL    HW255125   2.618   9.860  12.571
18367SOL     OW55126   2.853   9.720  12.414
18367SOL    HW155127   2.776   9.754  12.468
18367SOL    HW255128   2.819   9.669  12.335
18368SOL     OW55129   2.903  10.011  11.601
18368SOL    HW155130   2.929  10.007  11.697
18368SOL    HW255131   2.818   9.960  11.587
18369SOL     OW55132   1.938  10.121  11.961
18369SOL    HW155133   2.037  10.109  11.970
18369SOL    HW255134   1.914  10.216  11.982
18370SOL     OW55135   1.992  11.131  12.743
18370SOL    HW155136   1.982  11.116  12.842
18370SOL    HW255137   1.906  11.167  12.707
18371SOL     OW55138   2.727   9.658  11.367
18371SOL    HW155139   2.786   9.721  11.318
18371SOL    HW255140   2.746   9.564  11.338
18372SOL     OW55141   3.224  10.454  11.717
18372SOL    HW155142   3.307  10.425  11.669
18372SOL    HW255143   3.175  10.521  11.661
18373SOL     OW55144   2.412   9.506  12.057
18373SOL    HW155145   2.407   9.501  12.157
18373SOL    HW255146   2.414   9.602  12.028
18374SOL     OW55147   2.870  10.766  11.649
18374SOL    HW155148   2.824  10.838  11.597
18374SOL    HW255149   2.866  10.786  11.747
18375SOL     OW55150   2.213  11.111  12.025
18375SOL    HW155151   2.263  11.025  12.031
18375SOL    HW255152   2.278  11.188  12.022
18376SOL     OW55153   3.657  10.376  12.045
18376SOL    HW155154   3.595  10.361  11.969
18376SOL    HW255155   3.605  10.387  12.130
18377SOL     OW55156   2.183  10.253  11.414
18377SOL    HW155157   2.265  10.292  11.372
18377SOL    HW255158   2.156  10.171  11.365
18378SOL     OW55159   3.320  10.045  11.900
18378SOL    HW155160   3.315   9.980  11.975
18378SOL    HW255161   3.400  10.104  11.913
18379SOL     OW55162   2.973  11.086  11.409
18379SOL    HW155163   2.913  11.024  11.459
18379SOL    HW255164   3.004  11.042  11.324
18380SOL     OW55165   2.064   9.595  12.670
18380SOL    HW155166   1.984   9.655  12.657
18380SOL    HW255167   2.054   9.546  12.756
18381SOL     OW55168   3.494  10.687  11.253
18381SOL    HW155169   3.462  10.781  11.243
18381SOL    HW255170   3.418  10.624  11.241
18382SOL     OW55171   2.326  11.053  11.495
18382SOL    HW155172   2.359  11.092  11.581
18382SOL    HW255173   2.402  11.046  11.430
18383SOL     OW55174   3.262   9.417  11.598
18383SOL    HW155175   3.238   9.380  11.508
18383SOL    HW255176   3.361   9.433  11.602
18384SOL     OW55177   2.111  11.095  12.413
18384SOL    HW155178   2.168  11.030  12.463
18384SOL    HW255179   2.095  11.062  12.320
18385SOL     OW55180   2.802  11.008  12.076
18385SOL    HW155181   2.882  10.951  12.097
18385SOL    HW255182   2.753  10.968  11.999
18386SOL     OW55183   2.244  10.010  11.652
18386SOL    HW155184   2.289   9.920  11.649
18386SOL    HW255185   2.150   9.999  11.685
18387SOL     OW55186   2.476   9.432  11.289
18387SOL    HW155187   2.574   9.410  11.296
18387SOL    HW255188   2.445   9.415  11.196
18388SOL     OW55189   2.750  10.824  12.367
18388SOL    HW155190   2.727  10.799  12.273
18388SOL    HW255191   2.811  10.755  12.406
18389SOL     OW55192   2.665  10.712  12.096
18389SOL    HW155193   2.755  10.726  12.054
18389SOL    HW255194   2.594  10.714  12.025
18390SOL     OW55195   2.784   9.813  12.071
18390SOL    HW155196   2.759   9.804  11.975
18390SOL    HW255197   2.832   9.731  12.102
18391SOL     OW55198   2.401   9.374  11.684
18391SOL    HW155199   2.320   9.375  11.742
18391SOL    HW255200   2.404   9.457  11.629
18392SOL     OW55201   3.296  10.498  11.213
18392SOL    HW155202   3.328  10.422  11.270
18392SOL    HW255203   3.204  10.525  11.243
18393SOL     OW55204   2.159   9.345  11.343
18393SOL    HW155205   2.208   9.429  11.322
18393SOL    HW255206   2.221   9.280  11.388
18394SOL     OW55207   2.797   9.546  11.652
18394SOL    HW155208   2.749   9.587  11.574
18394SOL    HW255209   2.896   9.544  11.633
18395SOL     OW55210   3.089  10.880  11.965
18395SOL    HW155211   3.110  10.954  11.900
18395SOL    HW255212   3.157  10.880  12.038
18396SOL     OW55213   2.321  10.462  11.913
18396SOL    HW155214   2.250  10.435  11.978
18396SOL    HW255215   2.295  10.434  11.820
18397SOL     OW55216   3.133  11.107  11.763
18397SOL    HW155217   3.177  11.171  11.699
18397SOL    HW255218   3.083  11.159  11.833
18398SOL     OW55219   2.894   9.859  11.188
18398SOL    HW155220   2.853   9.941  11.149
18398SOL    HW255221   2.958   9.885  11.261
18399SOL     OW55222   1.940   9.866  12.558
18399SOL    HW155223   2.032   9.865  12.517
18399SOL    HW255224   1.934   9.940  12.625
18400SOL     OW55225   2.423   9.532  12.319
18400SOL    HW155226   2.461   9.448  12.356
18400SOL    HW255227   2.335   9.551  12.363
18401SOL     OW55228   2.728   9.764  11.814
18401SOL    HW155229   2.696   9.836  11.752
18401SOL    HW255230   2.752   9.683  11.761
18402SOL     OW55231   2.879   9.349  11.925
18402SOL    HW155232   2.807   9.354  11.856
18402SOL    HW255233   2.855   9.280  11.994
18403SOL     OW55234   3.291  10.483  12.039
18403SOL    HW155235   3.236  10.399  12.032
18403SOL    HW255236   3.317  10.512  11.947
18404SOL     OW55237   3.328   9.900  12.164
18404SOL    HW155238   3.298   9.805  12.171
18404SOL    HW255239   3.401   9.916  12.230
18405SOL     OW55240   3.719  10.143  11.549
18405SOL    HW155241   3.761  10.079  11.613
18405SOL    HW255242   3.681  10.092  11.471
18406SOL     OW55243   2.350  10.695  11.346
18406SOL    HW155244   2.263  10.680  11.393
18406SOL    HW255245   2.333  10.721  11.251
18407SOL     OW55246   3.526  10.590  11.829
18407SOL    HW155247   3.625  10.598  11.843
18407SOL    HW255248   3.481  10.674  11.860
18408SOL     OW55249   3.252   9.885  11.250
18408SOL    HW155250   3.198   9.864  11.331
18408SOL    HW255251   3.343   9.844  11.259
18409SOL     OW55252   2.389   9.566  11.500
18409SOL    HW155253   2.416   9.507  11.425
18409SOL    HW255254   2.389   9.661  11.469
18410SOL     OW55255   2.926  10.657  12.512
18410SOL    HW155256   2.846  10.634  12.567
18410SOL    HW255257   3.009  10.631  12.561
18411SOL     OW55258   2.973  10.505  12.272
18411SOL    HW155259   2.933  10.549  12.353
18411SOL    HW255260   2.932  10.542  12.189
18412SOL     OW55261   3.500  10.409  12.251
18412SOL    HW155262   3.505  10.490  12.310
18412SOL    HW255263   3.414  10.411  12.200
18413SOL     OW55264   2.777   9.399  12.574
18413SOL    HW155265   2.802   9.379  12.479
18413SOL    HW255266   2.849   9.455  12.616
18414SOL     OW55267   2.567  10.360  11.540
18414SOL    HW155268   2.553  10.367  11.639
18414SOL    HW255269   2.651  10.309  11.522
18415SOL     OW55270   2.272  10.123  12.423
18415SOL    HW155271   2.358  10.135  12.473
18415SOL    HW255272   2.230  10.036  12.450
18416SOL     OW55273   3.136   9.696  12.434
18416SOL    HW155274   3.157   9.770  12.498
18416SOL    HW255275   3.047   9.713  12.391
18417SOL     OW55276   1.926  10.874  12.503
18417SOL    HW155277   1.880  10.956  12.469
18417SOL    HW255278   2.024  10.893  12.512
18418SOL     OW55279   2.229  10.410  11.673
18418SOL    HW155280   2.222  10.493  11.617
18418SOL    HW255281   2.233  10.330  11.613
18419SOL     OW55282   2.428   9.847  12.037
18419SOL    HW155283   2.440   9.913  11.963
18419SOL    HW255284   2.474   9.881  12.120
18420SOL     OW55285   3.114  10.658  11.560
18420SOL    HW155286   3.164  10.735  11.600
18420SOL    HW255287   3.019  10.660  11.592
18421SOL     OW55288   3.134  10.755  12.314
18421SOL    HW155289   3.181  10.768  12.401
18421SOL    HW255290   3.068  10.681  12.323
18422SOL     OW55291   3.444   9.949  11.644
18422SOL    HW155292   3.413  10.010  11.717
18422SOL    HW255293   3.494  10.001  11.575
18423SOL     OW55294   2.216  10.820  12.501
18423SOL    HW155295   2.195  10.776  12.414
18423SOL    HW255296   2.313  10.846  12.504
18424SOL     OW55297   2.264  10.061  12.770
18424SOL    HW155298   2.332  10.116  12.723
18424SOL    HW255299   2.304   9.973  12.797
18425SOL     OW55300   3.449  10.089  12.842
18425SOL    HW155301   3.357  10.127  12.837
18425SOL    HW255302   3.509  10.136  12.777
18426SOL     OW55303   2.435  10.180  12.201
18426SOL    HW155304   2.479  10.269  12.192
18426SOL    HW255305   2.372  10.180  12.278
18427SOL     OW55306   3.222  10.172  12.217
18427SOL    HW155307   3.147  10.172  12.151
18427SOL    HW255308   3.259  10.080  12.226
18428SOL     OW55309   3.071   9.835  11.447
18428SOL    HW155310   3.084   9.751  11.501
18428SOL    HW255311   3.042   9.909  11.507
18429SOL     OW55312   2.169   9.523  12.403
18429SOL    HW155313   2.146   9.560  12.493
18429SOL    HW255314   2.139   9.428  12.397
18430SOL     OW55315   1.899  10.620  12.454
18430SOL    HW155316   1.952  10.571  12.522
18430SOL    HW255317   1.921  10.718  12.459
18431SOL     OW55318   2.594   9.944  12.236
18431SOL    HW155319   2.653   9.918  12.160
18431SOL    HW255320   2.566  10.040  12.225
18432SOL     OW55321   2.169   9.373  11.790
18432SOL    HW155322   2.158   9.467  11.823
18432SOL    HW255323   2.164   9.310  11.867
18433SOL     OW55324   3.484   9.677  11.546
18433SOL    HW155325   3.486   9.601  11.610
18433SOL    HW255326   3.436   9.754  11.586
18434SOL     OW55327   2.885  10.076  12.138
18434SOL    HW155328   2.900  10.097  12.234
18434SOL    HW255329   2.855   9.981  12.129
18435SOL     OW55330   2.842  10.883  12.872
18435SOL    HW155331   2.822  10.927  12.784
18435SOL    HW255332   2.881  10.792  12.856
18436SOL     OW55333   3.402   9.584  11.297
18436SOL    HW155334   3.341   9.509  11.320
18436SOL    HW255335   3.424   9.636  11.380
18437SOL     OW55336   3.165  10.148  11.214
18437SOL    HW155337   3.199  10.055  11.229
18437SOL    HW255338   3.183  10.175  11.119
18438SOL     OW55339   2.930  10.643  12.021
18438SOL    HW155340   2.937  10.559  11.966
18438SOL    HW255341   2.992  10.712  11.985
18439SOL     OW55342   2.181  10.120  12.121
18439SOL    HW155343   2.274  10.156  12.126
18439SOL    HW255344   2.175  10.035  12.173
18440SOL     OW55345   2.201   9.819  12.178
18440SOL    HW155346   2.149   9.736  12.161
18440SOL    HW255347   2.278   9.824  12.114
18441SOL     OW55348   3.000   9.690  12.850
18441SOL    HW155349   2.955   9.753  12.914
18441SOL    HW255350   3.093   9.721  12.833
18442SOL     OW55351   3.022   9.517  12.649
18442SOL    HW155352   3.022   9.581  12.726
18442SOL    HW255353   3.050   9.565  12.566
18443SOL     OW55354   1.870  10.636  11.372
18443SOL    HW155355   1.777  10.657  11.341
18443SOL    HW255356   1.880  10.537  11.385
18444SOL     OW55357   1.950  11.111  12.099
18444SOL    HW155358   1.908  11.025  12.072
18444SOL    HW255359   2.044  11.114  12.065
18445SOL     OW55360   2.366  10.878  12.082
18445SOL    HW155361   2.432  10.952  12.091
18445SOL    HW255362   2.410  10.799  12.040
18446SOL     OW55363   2.864  10.106  12.410
18446SOL    HW155364   2.905  10.074  12.496
18446SOL    HW255365   2.768  10.079  12.407
18447SOL     OW55366   1.902   9.854  12.286
18447SOL    HW155367   1.987   9.821  12.245
18447SOL    HW255368   1.915   9.869  12.384
18448SOL     OW55369   2.677   9.882  11.497
18448SOL    HW155370   2.684   9.793  11.451
18448SOL    HW255371   2.583   9.916  11.489
18449SOL     OW55372   3.519   9.914  12.378
18449SOL    HW155373   3.481   9.845  12.440
18449SOL    HW255374   3.601   9.878  12.334
18450SOL     OW55375   2.533   9.774  12.441
18450SOL    HW155376   2.499   9.685  12.411
18450SOL    HW255377   2.559   9.828  12.361
18451SOL     OW55378   2.792  10.988  12.637
18451SOL    HW155379   2.768  10.970  12.542
18451SOL    HW255380   2.822  11.082  12.647
18452SOL     OW55381   2.335   9.810  11.363
18452SOL    HW155382   2.396   9.890  11.367
18452SOL    HW255383   2.240   9.841  11.370
18453SOL     OW55384   2.021  10.447  12.638
18453SOL    HW155385   2.043  10.386  12.714
18453SOL    HW255386   2.031  10.398  12.552
18454SOL     OW55387   3.209  10.369  12.406
18454SOL    HW155388   3.233  10.306  12.332
18454SOL    HW255389   3.119  10.409  12.388
18455SOL     OW55390   3.164  10.165  11.481
18455SOL    HW155391   3.078  10.134  11.523
18455SOL    HW255392   3.160  10.151  11.382
18456SOL     OW55393   3.621  11.057  12.326
18456SOL    HW155394   3.682  11.087  12.253
18456SOL    HW255395   3.583  10.968  12.304
18457SOL     OW55396   3.114  11.041  12.300
18457SOL    HW155397   3.198  11.046  12.246
18457SOL    HW255398   3.091  10.945  12.318
18458SOL     OW55399   1.945  10.568  12.194
18458SOL    HW155400   1.940  10.567  12.294
18458SOL    HW255401   1.862  10.527  12.156
18459SOL     OW55402   3.588   9.445  11.695
18459SOL    HW155403   3.661   9.428  11.628
18459SOL    HW255404   3.557   9.358  11.733
18460SOL     OW55405   3.250  10.883  11.649
18460SOL    HW155406   3.317  10.895  11.575
18460SOL    HW255407   3.210  10.972  11.672
18461SOL     OW55408   3.142  10.237  11.844
18461SOL    HW155409   3.202  10.156  11.846
18461SOL    HW255410   3.182  10.306  11.784
18462SOL     OW55411   2.534  10.926  11.326
18462SOL    HW155412   2.543  10.936  11.227
18462SOL    HW255413   2.494  10.837  11.347
18463SOL     OW55414   3.512  11.030  12.566
18463SOL    HW155415   3.565  11.040  12.482
18463SOL    HW255416   3.485  11.120  12.600
18464SOL     OW55417   3.703   9.485  12.135
18464SOL    HW155418   3.742   9.400  12.099
18464SOL    HW255419   3.605   9.487  12.116
18465SOL     OW55420   2.125   9.636  11.892
18465SOL    HW155421   2.046   9.687  11.858
18465SOL    HW255422   2.116   9.621  11.990
18466SOL     OW55423   3.056  10.922  11.203
18466SOL    HW155424   3.062  10.829  11.240
18466SOL    HW255425   2.997  10.922  11.123
18467SOL     OW55426   2.684  10.312  12.544
18467SOL    HW155427   2.724  10.311  12.452
18467SOL    HW255428   2.694  10.404  12.584
18468SOL     OW55429   2.778  10.220  11.463
18468SOL    HW155430   2.841  10.258  11.395
18468SOL    HW255431   2.818  10.137  11.502
18469SOL     OW55432   3.366  10.917  11.216
18469SOL    HW155433   3.274  10.954  11.223
18469SOL    HW255434   3.404  10.937  11.126
18470SOL     OW55435   2.234  10.598  12.662
18470SOL    HW155436   2.221  10.691  12.628
18470SOL    HW255437   2.150  10.546  12.649
18471SOL     OW55438   3.476  10.602  12.461
18471SOL    HW155439   3.536  10.605  12.541
18471SOL    HW255440   3.401  10.666  12.474
18472SOL     OW55441   2.901  10.408  11.868
18472SOL    HW155442   2.831  10.361  11.922
18472SOL    HW255443   2.960  10.340  11.825
18473SOL     OW55444   2.876   9.546  12.143
18473SOL    HW155445   2.868   9.510  12.050
18473SOL    HW255446   2.874   9.470  12.208
18474SOL     OW55447   2.452  10.797  11.663
18474SOL    HW155448   2.494  10.739  11.593
18474SOL    HW255449   2.408  10.876  11.619
18475SOL     OW55450   3.571   9.695  12.553
18475SOL    HW155451   3.644   9.764  12.557
18475SOL    HW255452   3.599   9.620  12.494
18476SOL     OW55453   2.117  10.658  11.462
18476SOL    HW155454   2.021  10.659  11.435
18476SOL    HW255455   2.129  10.711  11.546
18477SOL     OW55456   1.937   9.655  11.205
18477SOL    HW155457   1.845   9.627  11.176
18477SOL    HW255458   1.968   9.732  11.149
18478SOL     OW55459   3.302  10.166  12.570
18478SOL    HW155460   3.245  10.218  12.507
18478SOL    HW255461   3.398  10.178  12.546
18479SOL     OW55462   1.934   9.476  11.490
18479SOL    HW155463   1.917   9.559  11.436
18479SOL    HW255464   2.024   9.439  11.468
18480SOL     OW55465   3.045  10.645  11.291
18480SOL    HW155466   2.946  10.634  11.293
18480SOL    HW255467   3.079  10.660  11.384
18481SOL     OW55468   2.475  10.152  12.603
18481SOL    HW155469   2.531  10.233  12.586
18481SOL    HW255470   2.534  10.072  12.606
18482SOL     OW55471   3.355  11.077  12.131
18482SOL    HW155472   3.388  11.141  12.062
18482SOL    HW255473   3.421  11.071  12.206
18483SOL     OW55474   2.252  11.051  12.732
18483SOL    HW155475   2.161  11.092  12.730
18483SOL    HW255476   2.245  10.957  12.764
18484SOL     OW55477   3.536  10.193  12.426
18484SOL    HW155478   3.509  10.104  12.389
18484SOL    HW255479   3.537  10.261  12.353
18485SOL     OW55480   3.087   9.635  11.621
18485SOL    HW155481   3.152   9.561  11.610
18485SOL    HW255482   3.107   9.685  11.705
18486SOL     OW55483   2.456  10.055  11.824
18486SOL    HW155484   2.506  10.140  11.805
18486SOL    HW255485   2.368  10.057  11.776
18487SOL     OW55486   3.639   9.652  12.814
18487SOL    HW155487   3.622   9.683  12.720
18487SOL    HW255488   3.555   9.615  12.852
18488SOL     OW55489   3.592  10.244  12.689
18488SOL    HW155490   3.630  10.335  12.704
18488SOL    HW255491   3.584  10.227  12.590
18489SOL     OW55492   2.721  10.684  11.188
18489SOL    HW155493   2.675  10.699  11.276
18489SOL    HW255494   2.765  10.769  11.158
18490SOL     OW55495   2.523  11.100  12.125
18490SOL    HW155496   2.477  11.188  12.112
18490SOL    HW255497   2.622  11.112  12.118
18491SOL     OW55498   2.721  10.266  12.033
18491SOL    HW155499   2.775  10.197  12.081
18491SOL    HW255500   2.689  10.335  12.099
18492SOL     OW55501   2.945  10.294  11.259
18492SOL    HW155502   2.922  10.347  11.177
18492SOL    HW255503   3.026  10.238  11.240
18493SOL     OW55504   3.723  10.879  12.023
18493SOL    HW155505   3.652  10.867  11.953
18493SOL    HW255506   3.724  10.800  12.083
18494SOL     OW55507   1.941  10.550  11.825
18494SOL    HW155508   1.940  10.503  11.913
18494SOL    HW255509   2.023  10.522  11.774
18495SOL     OW55510   3.686   9.502  12.399
18495SOL    HW155511   3.682   9.412  12.443
18495SOL    HW255512   3.689   9.491  12.300
18496SOL     OW55513   2.290   9.734  11.692
18496SOL    HW155514   2.320   9.662  11.630
18496SOL    HW255515   2.251   9.694  11.775
18497SOL     OW55516   3.567  10.797  12.276
18497SOL    HW155517   3.474  10.772  12.249
18497SOL    HW255518   3.593  10.747  12.358
18498SOL     OW55519   2.179   9.857  12.452
18498SOL    HW155520   2.217   9.798  12.524
18498SOL    HW255521   2.219   9.831  12.364
18499SOL     OW55522   2.674  10.896  11.859
18499SOL    HW155523   2.706  10.906  11.765
18499SOL    HW255524   2.595  10.834  11.861
18500SOL     OW55525   3.286   9.524  12.284
18500SOL    HW155526   3.338   9.459  12.339
18500SOL    HW255527   3.237   9.587  12.345
18501SOL     OW55528   2.863   9.344  12.326
18501SOL    HW155529   2.800   9.272  12.295
18501SOL    HW255530   2.956   9.308  12.326
18502SOL     OW55531   2.632  10.640  11.473
18502SOL    HW155532   2.586  10.553  11.490
18502SOL    HW255533   2.723  10.637  11.514
18503SOL     OW55534   2.480  10.877  12.456
18503SOL    HW155535   2.475  10.959  12.513
18503SOL    HW255536   2.569  10.874  12.411
18504SOL     OW55537   3.214   9.362  11.340
18504SOL    HW155538   3.249   9.321  11.256
18504SOL    HW255539   3.124   9.324  11.360
18505SOL     OW55540   3.162   9.763  11.863
18505SOL    HW155541   3.103   9.843  11.867
18505SOL    HW255542   3.177   9.728  11.956
18506SOL     OW55543   3.455   9.531  12.054
18506SOL    HW155544   3.371   9.530  12.108
18506SOL    HW255545   3.457   9.614  11.998
18507SOL     OW55546   1.901  10.387  11.472
18507SOL    HW155547   2.000  10.376  11.463
18507SOL    HW255548   1.861  10.301  11.504
18508SOL     OW55549   2.737  10.956  11.509
18508SOL    HW155550   2.660  10.921  11.455
18508SOL    HW255551   2.705  11.027  11.571
18509SOL     OW55552   2.092  11.800   0.113
18509SOL    HW155553   1.999  11.798   0.150
18509SOL    HW255554   2.093  11.761   0.021
18510SOL     OW55555   2.087  11.447   0.996
18510SOL    HW155556   2.122  11.430   1.088
18510SOL    HW255557   1.999  11.402   0.984
18511SOL     OW55558   1.881  11.540   0.647
18511SOL    HW155559   1.799  11.583   0.686
18511SOL    HW255560   1.853  11.467   0.584
18512SOL     OW55561   2.431  12.447   1.165
18512SOL    HW155562   2.338  12.440   1.128
18512SOL    HW255563   2.442  12.536   1.209
18513SOL     OW55564   3.417  12.683   0.703
18513SOL    HW155565   3.360  12.667   0.784
18513SOL    HW255566   3.358  12.693   0.623
18514SOL     OW55567   2.997  11.875   0.717
18514SOL    HW155568   3.054  11.953   0.692
18514SOL    HW255569   2.937  11.901   0.793
18515SOL     OW55570   3.617  11.779   0.231
18515SOL    HW155571   3.605  11.766   0.132
18515SOL    HW255572   3.587  11.698   0.280
18516SOL     OW55573   2.630  12.316   1.023
18516SOL    HW155574   2.552  12.333   1.083
18516SOL    HW255575   2.664  12.403   0.987
18517SOL     OW55576   2.712  11.970   1.823
18517SOL    HW155577   2.708  12.046   1.888
18517SOL    HW255578   2.734  12.006   1.732
18518SOL     OW55579   2.547  12.184   0.665
18518SOL    HW155580   2.616  12.168   0.735
18518SOL    HW255581   2.474  12.241   0.703
18519SOL     OW55582   2.548  12.333   1.803
18519SOL    HW155583   2.608  12.412   1.817
18519SOL    HW255584   2.462  12.364   1.762
18520SOL     OW55585   2.197  12.607   1.061
18520SOL    HW155586   2.119  12.576   1.008
18520SOL    HW255587   2.255  12.665   1.004
18521SOL     OW55588   3.322  12.677   1.339
18521SOL    HW155589   3.346  12.771   1.365
18521SOL    HW255590   3.306  12.623   1.421
18522SOL     OW55591   2.300  11.564   1.499
18522SOL    HW155592   2.382  11.508   1.508
18522SOL    HW255593   2.219  11.506   1.503
18523SOL     OW55594   3.465  11.619   0.737
18523SOL    HW155595   3.391  11.665   0.687
18523SOL    HW255596   3.516  11.687   0.790
18524SOL     OW55597   2.093  12.885   0.483
18524SOL    HW155598   2.127  12.962   0.537
18524SOL    HW255599   2.137  12.885   0.393
18525SOL     OW55600   2.989  12.513   1.690
18525SOL    HW155601   3.036  12.513   1.778
18525SOL    HW255602   2.941  12.426   1.679
18526SOL     OW55603   2.092  12.606   0.538
18526SOL    HW155604   2.066  12.702   0.538
18526SOL    HW255605   2.021  12.552   0.583
18527SOL     OW55606   2.102  12.263   0.886
18527SOL    HW155607   2.116  12.179   0.938
18527SOL    HW255608   2.047  12.327   0.941
18528SOL     OW55609   2.468  12.136   0.123
18528SOL    HW155610   2.475  12.220   0.069
18528SOL    HW255611   2.514  12.149   0.211
18529SOL     OW55612   3.456  11.286   1.480
18529SOL    HW155613   3.438  11.353   1.408
18529SOL    HW255614   3.453  11.332   1.569
18530SOL     OW55615   1.984  11.815   0.563
18530SOL    HW155616   1.939  11.727   0.580
18530SOL    HW255617   1.983  11.869   0.647
18531SOL     OW55618   1.889  12.768   0.117
18531SOL    HW155619   1.870  12.672   0.138
18531SOL    HW255620   1.856  12.826   0.192
18532SOL     OW55621   3.551  12.094   0.612
18532SOL    HW155622   3.646  12.065   0.620
18532SOL    HW255623   3.543  12.159   0.537
18533SOL     OW55624   3.503  12.280   0.432
18533SOL    HW155625   3.589  12.282   0.380
18533SOL    HW255626   3.517  12.327   0.520
18534SOL     OW55627   1.975  11.909   1.597
18534SOL    HW155628   2.063  11.896   1.642
18534SOL    HW255629   1.962  12.006   1.575
18535SOL     OW55630   2.475  12.537   0.726
18535SOL    HW155631   2.426  12.450   0.735
18535SOL    HW255632   2.452  12.580   0.639
18536SOL     OW55633   3.155  12.400   1.423
18536SOL    HW155634   3.192  12.327   1.365
18536SOL    HW255635   3.207  12.405   1.508
18537SOL     OW55636   2.671  11.176   0.502
18537SOL    HW155637   2.711  11.267   0.493
18537SOL    HW255638   2.571  11.184   0.508
18538SOL     OW55639   2.059  12.148   1.264
18538SOL    HW155640   2.148  12.103   1.250
18538SOL    HW255641   1.986  12.083   1.245
18539SOL     OW55642   3.387  12.171   0.190
18539SOL    HW155643   3.324  12.095   0.203
18539SOL    HW255644   3.435  12.189   0.276
18540SOL     OW55645   2.179  11.423   1.801
18540SOL    HW155646   2.250  11.494   1.807
18540SOL    HW255647   2.091  11.462   1.829
18541SOL     OW55648   3.328  12.589   0.953
18541SOL    HW155649   3.269  12.595   1.033
18541SOL    HW255650   3.313  12.501   0.907
18542SOL     OW55651   2.460  11.901   0.270
18542SOL    HW155652   2.484  11.970   0.202
18542SOL    HW255653   2.382  11.934   0.324
18543SOL     OW55654   3.143  11.517   0.944
18543SOL    HW155655   3.057  11.467   0.931
18543SOL    HW255656   3.205  11.463   1.000
18544SOL     OW55657   2.669  11.777   1.465
18544SOL    HW155658   2.622  11.774   1.554
18544SOL    HW255659   2.618  11.722   1.399
18545SOL     OW55660   3.256  11.641   1.674
18545SOL    HW155661   3.236  11.684   1.762
18545SOL    HW255662   3.334  11.579   1.683
18546SOL     OW55663   2.835  12.062   1.572
18546SOL    HW155664   2.881  11.978   1.543
18546SOL    HW255665   2.779  12.096   1.497
18547SOL     OW55666   2.853  11.582   1.242
18547SOL    HW155667   2.776  11.616   1.296
18547SOL    HW255668   2.819  11.531   1.163
18548SOL     OW55669   2.903  11.873   0.429
18548SOL    HW155670   2.929  11.869   0.525
18548SOL    HW255671   2.818  11.822   0.415
18549SOL     OW55672   1.938  11.983   0.789
18549SOL    HW155673   2.037  11.971   0.798
18549SOL    HW255674   1.914  12.078   0.810
18550SOL     OW55675   2.727  11.520   0.195
18550SOL    HW155676   2.786  11.583   0.146
18550SOL    HW255677   2.746  11.426   0.166
18551SOL     OW55678   3.581  11.757   1.831
18551SOL    HW155679   3.555  11.846   1.795
18551SOL    HW255680   3.579  11.689   1.758
18552SOL     OW55681   3.224  12.316   0.545
18552SOL    HW155682   3.307  12.287   0.497
18552SOL    HW255683   3.175  12.383   0.489
18553SOL     OW55684   2.412  11.368   0.885
18553SOL    HW155685   2.407  11.363   0.985
18553SOL    HW255686   2.414  11.464   0.856
18554SOL     OW55687   2.870  12.628   0.477
18554SOL    HW155688   2.824  12.700   0.425
18554SOL    HW255689   2.866  12.648   0.575
18555SOL     OW55690   3.657  12.238   0.873
18555SOL    HW155691   3.595  12.223   0.797
18555SOL    HW255692   3.605  12.249   0.958
18556SOL     OW55693   3.089  12.722   1.506
18556SOL    HW155694   3.095  12.645   1.570
18556SOL    HW255695   3.037  12.696   1.426
18557SOL     OW55696   2.183  12.115   0.242
18557SOL    HW155697   2.265  12.154   0.200
18557SOL    HW255698   2.156  12.033   0.193
18558SOL     OW55699   3.320  11.907   0.728
18558SOL    HW155700   3.315  11.842   0.803
18558SOL    HW255701   3.400  11.966   0.741
18559SOL     OW55702   2.323  12.438   1.727
18559SOL    HW155703   2.273  12.439   1.641
18559SOL    HW255704   2.260  12.420   1.803
18560SOL     OW55705   2.973  12.948   0.237
18560SOL    HW155706   2.913  12.886   0.287
18560SOL    HW255707   3.004  12.904   0.152
18561SOL     OW55708   2.064  11.457   1.498
18561SOL    HW155709   1.984  11.517   1.485
18561SOL    HW255710   2.054  11.408   1.584
18562SOL     OW55711   3.494  12.549   0.081
18562SOL    HW155712   3.462  12.643   0.071
18562SOL    HW255713   3.418  12.486   0.069
18563SOL     OW55714   3.262  11.279   0.426
18563SOL    HW155715   3.238  11.242   0.336
18563SOL    HW255716   3.361  11.295   0.430
18564SOL     OW55717   2.244  11.872   0.480
18564SOL    HW155718   2.289  11.782   0.477
18564SOL    HW255719   2.150  11.861   0.513
18565SOL     OW55720   3.409  11.394   1.729
18565SOL    HW155721   3.404  11.431   1.821
18565SOL    HW255722   3.337  11.325   1.717
18566SOL     OW55723   2.476  11.294   0.117
18566SOL    HW155724   2.574  11.272   0.124
18566SOL    HW255725   2.445  11.277   0.024
18567SOL     OW55726   2.643  11.436   1.749
18567SOL    HW155727   2.710  11.375   1.792
18567SOL    HW255728   2.570  11.455   1.814
18568SOL     OW55729   3.213  11.762   1.433
18568SOL    HW155730   3.241  11.719   1.518
18568SOL    HW255731   3.238  11.858   1.434
18569SOL     OW55732   2.665  12.574   0.924
18569SOL    HW155733   2.755  12.588   0.882
18569SOL    HW255734   2.594  12.576   0.853
18570SOL     OW55735   2.784  11.675   0.899
18570SOL    HW155736   2.759  11.666   0.803
18570SOL    HW255737   2.832  11.593   0.930
18571SOL     OW55738   2.401  11.236   0.512
18571SOL    HW155739   2.320  11.237   0.570
18571SOL    HW255740   2.404  11.319   0.457
18572SOL     OW55741   3.296  12.360   0.041
18572SOL    HW155742   3.328  12.284   0.098
18572SOL    HW255743   3.204  12.387   0.071
18573SOL     OW55744   2.159  11.207   0.171
18573SOL    HW155745   2.208  11.291   0.150
18573SOL    HW255746   2.221  11.142   0.216
18574SOL     OW55747   2.797  11.408   0.480
18574SOL    HW155748   2.749  11.449   0.402
18574SOL    HW255749   2.896  11.406   0.461
18575SOL     OW55750   2.938  11.855   1.464
18575SOL    HW155751   2.858  11.794   1.467
18575SOL    HW255752   3.019  11.802   1.440
18576SOL     OW55753   3.089  12.742   0.793
18576SOL    HW155754   3.110  12.816   0.728
18576SOL    HW255755   3.157  12.742   0.866
18577SOL     OW55756   2.321  12.324   0.741
18577SOL    HW155757   2.250  12.297   0.806
18577SOL    HW255758   2.295  12.296   0.648
18578SOL     OW55759   2.894  11.721   0.016
18578SOL    HW155760   2.853  11.803  -0.023
18578SOL    HW255761   2.958  11.747   0.089
18579SOL     OW55762   1.940  11.728   1.386
18579SOL    HW155763   2.032  11.727   1.345
18579SOL    HW255764   1.934  11.802   1.453
18580SOL     OW55765   2.423  11.394   1.147
18580SOL    HW155766   2.461  11.310   1.184
18580SOL    HW255767   2.335  11.413   1.191
18581SOL     OW55768   2.728  11.626   0.642
18581SOL    HW155769   2.696  11.698   0.580
18581SOL    HW255770   2.752  11.545   0.589
18582SOL     OW55771   2.879  11.211   0.753
18582SOL    HW155772   2.807  11.216   0.684
18582SOL    HW255773   2.855  11.142   0.822
18583SOL     OW55774   3.291  12.345   0.867
18583SOL    HW155775   3.236  12.261   0.860
18583SOL    HW255776   3.317  12.374   0.775
18584SOL     OW55777   3.328  11.762   0.992
18584SOL    HW155778   3.298  11.667   0.999
18584SOL    HW255779   3.401  11.778   1.058
18585SOL     OW55780   3.719  12.005   0.377
18585SOL    HW155781   3.761  11.941   0.441
18585SOL    HW255782   3.681  11.954   0.299
18586SOL     OW55783   2.350  12.557   0.174
18586SOL    HW155784   2.263  12.542   0.221
18586SOL    HW255785   2.333  12.583   0.079
18587SOL     OW55786   3.526  12.452   0.657
18587SOL    HW155787   3.625  12.460   0.671
18587SOL    HW255788   3.481  12.536   0.688
18588SOL     OW55789   3.252  11.747   0.078
18588SOL    HW155790   3.198  11.726   0.159
18588SOL    HW255791   3.343  11.706   0.087
18589SOL     OW55792   2.389  11.428   0.328
18589SOL    HW155793   2.416  11.369   0.253
18589SOL    HW255794   2.389  11.523   0.297
18590SOL     OW55795   3.616  12.395   1.588
18590SOL    HW155796   3.707  12.356   1.575
18590SOL    HW255797   3.624  12.491   1.612
18591SOL     OW55798   2.926  12.519   1.340
18591SOL    HW155799   2.846  12.496   1.395
18591SOL    HW255800   3.009  12.493   1.389
18592SOL     OW55801   2.973  12.367   1.100
18592SOL    HW155802   2.933  12.411   1.181
18592SOL    HW255803   2.932  12.404   1.017
18593SOL     OW55804   3.500  12.271   1.079
18593SOL    HW155805   3.505  12.352   1.138
18593SOL    HW255806   3.414  12.273   1.028
18594SOL     OW55807   2.777  11.261   1.402
18594SOL    HW155808   2.802  11.241   1.307
18594SOL    HW255809   2.849  11.317   1.444
18595SOL     OW55810   2.842  12.288   1.719
18595SOL    HW155811   2.743  12.294   1.729
18595SOL    HW255812   2.865  12.208   1.663
18596SOL     OW55813   2.567  12.222   0.368
18596SOL    HW155814   2.553  12.229   0.467
18596SOL    HW255815   2.651  12.171   0.350
18597SOL     OW55816   2.272  11.985   1.251
18597SOL    HW155817   2.358  11.997   1.301
18597SOL    HW255818   2.230  11.898   1.278
18598SOL     OW55819   3.136  11.558   1.262
18598SOL    HW155820   3.157  11.632   1.326
18598SOL    HW255821   3.047  11.575   1.219
18599SOL     OW55822   2.229  12.272   0.501
18599SOL    HW155823   2.222  12.355   0.445
18599SOL    HW255824   2.233  12.192   0.441
18600SOL     OW55825   2.428  11.709   0.865
18600SOL    HW155826   2.440  11.775   0.791
18600SOL    HW255827   2.474  11.743   0.948
18601SOL     OW55828   3.114  12.520   0.388
18601SOL    HW155829   3.164  12.597   0.428
18601SOL    HW255830   3.019  12.522   0.420
18602SOL     OW55831   3.134  12.617   1.142
18602SOL    HW155832   3.181  12.630   1.229
18602SOL    HW255833   3.068  12.543   1.151
18603SOL     OW55834   3.444  11.811   0.472
18603SOL    HW155835   3.413  11.872   0.545
18603SOL    HW255836   3.494  11.863   0.403
18604SOL     OW55837   2.216  12.682   1.329
18604SOL    HW155838   2.195  12.638   1.242
18604SOL    HW255839   2.313  12.708   1.332
18605SOL     OW55840   2.264  11.923   1.598
18605SOL    HW155841   2.332  11.978   1.551
18605SOL    HW255842   2.304  11.835   1.625
18606SOL     OW55843   3.449  11.951   1.670
18606SOL    HW155844   3.357  11.989   1.665
18606SOL    HW255845   3.509  11.998   1.605
18607SOL     OW55846   2.875  11.277   1.770
18607SOL    HW155847   2.881  11.362   1.718
18607SOL    HW255848   2.907  11.201   1.713
18608SOL     OW55849   2.366  11.222   1.740
18608SOL    HW155850   2.324  11.165   1.670
18608SOL    HW255851   2.300  11.291   1.772
18609SOL     OW55852   2.435  12.042   1.029
18609SOL    HW155853   2.479  12.131   1.020
18609SOL    HW255854   2.372  12.042   1.106
18610SOL     OW55855   3.222  12.034   1.045
18610SOL    HW155856   3.147  12.034   0.979
18610SOL    HW255857   3.259  11.942   1.054
18611SOL     OW55858   3.071  11.697   0.275
18611SOL    HW155859   3.084  11.613   0.329
18611SOL    HW255860   3.042  11.771   0.335
18612SOL     OW55861   2.169  11.385   1.231
18612SOL    HW155862   2.146  11.422   1.321
18612SOL    HW255863   2.139  11.290   1.225
18613SOL     OW55864   1.899  12.482   1.282
18613SOL    HW155865   1.952  12.433   1.350
18613SOL    HW255866   1.921  12.580   1.287
18614SOL     OW55867   2.594  11.806   1.064
18614SOL    HW155868   2.653  11.780   0.988
18614SOL    HW255869   2.566  11.902   1.053
18615SOL     OW55870   3.590  12.107   1.854
18615SOL    HW155871   3.544  12.100   1.765
18615SOL    HW255872   3.528  12.151   1.920
18616SOL     OW55873   2.169  11.235   0.618
18616SOL    HW155874   2.158  11.329   0.651
18616SOL    HW255875   2.164  11.172   0.695
18617SOL     OW55876   3.484  11.539   0.374
18617SOL    HW155877   3.486  11.463   0.438
18617SOL    HW255878   3.436  11.616   0.414
18618SOL     OW55879   2.885  11.938   0.966
18618SOL    HW155880   2.900  11.959   1.062
18618SOL    HW255881   2.855  11.843   0.957
18619SOL     OW55882   3.721  12.690   1.605
18619SOL    HW155883   3.735  12.717   1.510
18619SOL    HW255884   3.804  12.712   1.658
18620SOL     OW55885   2.212  12.070   1.804
18620SOL    HW155886   2.288  12.114   1.852
18620SOL    HW255887   2.247  12.023   1.722
18621SOL     OW55888   3.402  11.446   0.125
18621SOL    HW155889   3.341  11.371   0.148
18621SOL    HW255890   3.424  11.498   0.208
18622SOL     OW55891   3.165  12.010   0.042
18622SOL    HW155892   3.199  11.917   0.057
18622SOL    HW255893   3.183  12.037  -0.053
18623SOL     OW55894   2.930  12.505   0.849
18623SOL    HW155895   2.937  12.421   0.794
18623SOL    HW255896   2.992  12.574   0.813
18624SOL     OW55897   2.181  11.982   0.949
18624SOL    HW155898   2.274  12.018   0.954
18624SOL    HW255899   2.175  11.897   1.001
18625SOL     OW55900   2.201  11.681   1.006
18625SOL    HW155901   2.149  11.598   0.989
18625SOL    HW255902   2.278  11.686   0.942
18626SOL     OW55903   3.000  11.552   1.678
18626SOL    HW155904   2.955  11.615   1.742
18626SOL    HW255905   3.093  11.583   1.661
18627SOL     OW55906   3.022  11.379   1.477
18627SOL    HW155907   3.022  11.443   1.554
18627SOL    HW255908   3.050  11.427   1.394
18628SOL     OW55909   1.870  12.498   0.200
18628SOL    HW155910   1.777  12.519   0.169
18628SOL    HW255911   1.880  12.399   0.213
18629SOL     OW55912   2.864  11.968   1.238
18629SOL    HW155913   2.905  11.936   1.324
18629SOL    HW255914   2.768  11.941   1.235
18630SOL     OW55915   1.902  11.716   1.114
18630SOL    HW155916   1.987  11.683   1.073
18630SOL    HW255917   1.915  11.731   1.212
18631SOL     OW55918   2.051  11.692   1.722
18631SOL    HW155919   2.110  11.652   1.652
18631SOL    HW255920   1.993  11.763   1.681
18632SOL     OW55921   3.231  12.122   1.660
18632SOL    HW155922   3.270  12.211   1.680
18632SOL    HW255923   3.241  12.102   1.563
18633SOL     OW55924   2.677  11.744   0.325
18633SOL    HW155925   2.684  11.655   0.279
18633SOL    HW255926   2.583  11.778   0.317
18634SOL     OW55927   3.519  11.776   1.206
18634SOL    HW155928   3.481  11.707   1.268
18634SOL    HW255929   3.601  11.740   1.162
18635SOL     OW55930   2.114  12.736   1.744
18635SOL    HW155931   2.084  12.793   1.820
18635SOL    HW255932   2.107  12.639   1.770
18636SOL     OW55933   2.533  11.636   1.269
18636SOL    HW155934   2.499  11.547   1.239
18636SOL    HW255935   2.559  11.690   1.189
18637SOL     OW55936   2.335  11.672   0.191
18637SOL    HW155937   2.396  11.752   0.195
18637SOL    HW255938   2.240  11.703   0.198
18638SOL     OW55939   3.209  12.231   1.234
18638SOL    HW155940   3.233  12.168   1.160
18638SOL    HW255941   3.119  12.271   1.216
18639SOL     OW55942   3.164  12.027   0.309
18639SOL    HW155943   3.078  11.996   0.351
18639SOL    HW255944   3.160  12.013   0.210
18640SOL     OW55945   1.945  12.430   1.022
18640SOL    HW155946   1.940  12.429   1.122
18640SOL    HW255947   1.862  12.389   0.984
18641SOL     OW55948   2.765  11.258   0.133
18641SOL    HW155949   2.816  11.259   0.047
18641SOL    HW255950   2.821  11.216   0.204
18642SOL     OW55951   3.588  11.307   0.523
18642SOL    HW155952   3.661  11.290   0.456
18642SOL    HW255953   3.557  11.220   0.561
18643SOL     OW55954   3.142  12.099   0.672
18643SOL    HW155955   3.202  12.018   0.674
18643SOL    HW255956   3.182  12.168   0.612
18644SOL     OW55957   2.692  12.445   1.422
18644SOL    HW155958   2.687  12.478   1.517
18644SOL    HW255959   2.606  12.464   1.376
18645SOL     OW55960   3.703  11.347   0.963
18645SOL    HW155961   3.742  11.262   0.927
18645SOL    HW255962   3.605  11.349   0.944
18646SOL     OW55963   2.125  11.498   0.720
18646SOL    HW155964   2.046  11.549   0.686
18646SOL    HW255965   2.116  11.483   0.818
18647SOL     OW55966   3.056  12.784   0.031
18647SOL    HW155967   3.062  12.691   0.068
18647SOL    HW255968   2.997  12.784  -0.049
18648SOL     OW55969   2.684  12.174   1.372
18648SOL    HW155970   2.724  12.173   1.280
18648SOL    HW255971   2.694  12.266   1.412
18649SOL     OW55972   2.778  12.082   0.291
18649SOL    HW155973   2.841  12.120   0.223
18649SOL    HW255974   2.818  11.999   0.330
18650SOL     OW55975   2.234  12.460   1.490
18650SOL    HW155976   2.221  12.553   1.456
18650SOL    HW255977   2.150  12.408   1.477
18651SOL     OW55978   3.476  12.464   1.289
18651SOL    HW155979   3.536  12.467   1.369
18651SOL    HW255980   3.401  12.528   1.302
18652SOL     OW55981   2.901  12.270   0.696
18652SOL    HW155982   2.831  12.223   0.750
18652SOL    HW255983   2.960  12.202   0.653
18653SOL     OW55984   2.876  11.408   0.971
18653SOL    HW155985   2.868  11.372   0.878
18653SOL    HW255986   2.874  11.332   1.036
18654SOL     OW55987   3.571  11.557   1.381
18654SOL    HW155988   3.644  11.626   1.385
18654SOL    HW255989   3.599  11.482   1.322
18655SOL     OW55990   2.117  12.520   0.290
18655SOL    HW155991   2.021  12.521   0.263
18655SOL    HW255992   2.129  12.573   0.374
18656SOL     OW55993   1.967  12.185   1.726
18656SOL    HW155994   1.890  12.152   1.780
18656SOL    HW255995   2.052  12.155   1.768
18657SOL     OW55996   2.534  11.375   1.489
18657SOL    HW155997   2.624  11.359   1.449
18657SOL    HW255998   2.542  11.380   1.588
18658SOL     OW55999   3.302  12.028   1.398
18658SOL    HW156000   3.245  12.080   1.335
18658SOL    HW256001   3.398  12.040   1.374
18659SOL     OW56002   1.934  11.338   0.318
18659SOL    HW156003   1.917  11.421   0.264
18659SOL    HW256004   2.024  11.301   0.296
18660SOL     OW56005   3.045  12.507   0.119
18660SOL    HW156006   2.946  12.496   0.121
18660SOL    HW256007   3.079  12.522   0.212
18661SOL     OW56008   2.475  12.014   1.431
18661SOL    HW156009   2.531  12.095   1.414
18661SOL    HW256010   2.534  11.934   1.434
18662SOL     OW56011   2.578  11.737   1.708
18662SOL    HW156012   2.597  11.802   1.782
18662SOL    HW256013   2.638  11.657   1.717
18663SOL     OW56014   3.312  12.392   1.633
18663SOL    HW156015   3.303  12.382   1.732
18663SOL    HW256016   3.408  12.385   1.607
18664SOL     OW56017   3.536  12.055   1.254
18664SOL    HW156018   3.509  11.966   1.217
18664SOL    HW256019   3.537  12.123   1.181
18665SOL     OW56020   3.087  11.497   0.449
18665SOL    HW156021   3.152  11.423   0.438
18665SOL    HW256022   3.107  11.547   0.533
18666SOL     OW56023   2.456  11.917   0.652
18666SOL    HW156024   2.506  12.002   0.633
18666SOL    HW256025   2.368  11.919   0.604
18667SOL     OW56026   3.639  11.514   1.642
18667SOL    HW156027   3.622  11.545   1.548
18667SOL    HW256028   3.555  11.477   1.680
18668SOL     OW56029   3.592  12.106   1.517
18668SOL    HW156030   3.630  12.197   1.532
18668SOL    HW256031   3.584  12.089   1.418
18669SOL     OW56032   2.721  12.546   0.016
18669SOL    HW156033   2.675  12.561   0.104
18669SOL    HW256034   2.765  12.631  -0.014
18670SOL     OW56035   2.721  12.128   0.861
18670SOL    HW156036   2.775  12.059   0.909
18670SOL    HW256037   2.689  12.197   0.927
18671SOL     OW56038   2.945  12.156   0.087
18671SOL    HW156039   2.922  12.209   0.005
18671SOL    HW256040   3.026  12.100   0.068
18672SOL     OW56041   2.083  12.486   1.844
18672SOL    HW156042   2.018  12.413   1.823
18672SOL    HW256043   2.087  12.500   1.942
18673SOL     OW56044   1.941  12.412   0.653
18673SOL    HW156045   1.940  12.365   0.741
18673SOL    HW256046   2.023  12.384   0.602
18674SOL     OW56047   2.534  12.563   1.624
18674SOL    HW156048   2.456  12.513   1.662
18674SOL    HW256049   2.531  12.658   1.655
18675SOL     OW56050   3.686  11.364   1.227
18675SOL    HW156051   3.682  11.274   1.271
18675SOL    HW256052   3.689  11.353   1.128
18676SOL     OW56053   2.290  11.596   0.520
18676SOL    HW156054   2.320  11.524   0.458
18676SOL    HW256055   2.251  11.556   0.603
18677SOL     OW56056   3.567  12.659   1.104
18677SOL    HW156057   3.474  12.634   1.077
18677SOL    HW256058   3.593  12.609   1.186
18678SOL     OW56059   2.179  11.719   1.280
18678SOL    HW156060   2.217  11.660   1.352
18678SOL    HW256061   2.219  11.693   1.192
18679SOL     OW56062   3.286  11.386   1.112
18679SOL    HW156063   3.338  11.321   1.167
18679SOL    HW256064   3.237  11.449   1.173
18680SOL     OW56065   2.863  11.206   1.154
18680SOL    HW156066   2.800  11.134   1.123
18680SOL    HW256067   2.956  11.170   1.154
18681SOL     OW56068   2.632  12.502   0.301
18681SOL    HW156069   2.586  12.415   0.318
18681SOL    HW256070   2.723  12.499   0.342
18682SOL     OW56071   2.480  12.739   1.284
18682SOL    HW156072   2.475  12.821   1.341
18682SOL    HW256073   2.569  12.736   1.239
18683SOL     OW56074   3.214  11.224   0.168
18683SOL    HW156075   3.249  11.183   0.084
18683SOL    HW256076   3.124  11.186   0.188
18684SOL     OW56077   3.162  11.625   0.691
18684SOL    HW156078   3.103  11.705   0.695
18684SOL    HW256079   3.177  11.590   0.784
18685SOL     OW56080   1.901  12.249   0.300
18685SOL    HW156081   2.000  12.238   0.291
18685SOL    HW256082   1.861  12.163   0.332
18686SOL     OW56083   2.092  11.800   1.975
18686SOL    HW156084   1.999  11.798   2.012
18686SOL    HW256085   2.093  11.761   1.883
18687SOL     OW56086   2.087  11.447   2.858
18687SOL    HW156087   2.122  11.430   2.950
18687SOL    HW256088   1.999  11.402   2.846
18688SOL     OW56089   1.881  11.540   2.509
18688SOL    HW156090   1.799  11.583   2.548
18688SOL    HW256091   1.853  11.467   2.446
18689SOL     OW56092   2.431  12.447   3.027
18689SOL    HW156093   2.338  12.440   2.990
18689SOL    HW256094   2.442  12.536   3.071
18690SOL     OW56095   3.417  12.683   2.565
18690SOL    HW156096   3.360  12.667   2.646
18690SOL    HW256097   3.358  12.693   2.485
18691SOL     OW56098   2.997  11.875   2.579
18691SOL    HW156099   3.054  11.953   2.554
18691SOL    HW256100   2.937  11.901   2.655
18692SOL     OW56101   3.617  11.779   2.093
18692SOL    HW156102   3.605  11.766   1.994
18692SOL    HW256103   3.587  11.698   2.142
18693SOL     OW56104   2.630  12.316   2.885
18693SOL    HW156105   2.552  12.333   2.945
18693SOL    HW256106   2.664  12.403   2.849
18694SOL     OW56107   2.712  11.970   3.685
18694SOL    HW156108   2.708  12.046   3.750
18694SOL    HW256109   2.734  12.006   3.594
18695SOL     OW56110   2.547  12.184   2.527
18695SOL    HW156111   2.616  12.168   2.597
18695SOL    HW256112   2.474  12.241   2.565
18696SOL     OW56113   2.548  12.333   3.665
18696SOL    HW156114   2.608  12.412   3.679
18696SOL    HW256115   2.462  12.364   3.624
18697SOL     OW56116   2.197  12.607   2.923
18697SOL    HW156117   2.119  12.576   2.870
18697SOL    HW256118   2.255  12.665   2.866
18698SOL     OW56119   3.322  12.677   3.201
18698SOL    HW156120   3.346  12.771   3.227
18698SOL    HW256121   3.306  12.623   3.283
18699SOL     OW56122   2.300  11.564   3.361
18699SOL    HW156123   2.382  11.508   3.370
18699SOL    HW256124   2.219  11.506   3.365
18700SOL     OW56125   3.465  11.619   2.599
18700SOL    HW156126   3.391  11.665   2.549
18700SOL    HW256127   3.516  11.687   2.652
18701SOL     OW56128   2.093  12.885   2.345
18701SOL    HW156129   2.127  12.962   2.399
18701SOL    HW256130   2.137  12.885   2.255
18702SOL     OW56131   2.989  12.513   3.552
18702SOL    HW156132   3.036  12.513   3.640
18702SOL    HW256133   2.941  12.426   3.541
18703SOL     OW56134   2.092  12.606   2.400
18703SOL    HW156135   2.066  12.702   2.400
18703SOL    HW256136   2.021  12.552   2.445
18704SOL     OW56137   2.102  12.263   2.748
18704SOL    HW156138   2.116  12.179   2.800
18704SOL    HW256139   2.047  12.327   2.803
18705SOL     OW56140   2.468  12.136   1.985
18705SOL    HW156141   2.475  12.220   1.931
18705SOL    HW256142   2.514  12.149   2.073
18706SOL     OW56143   3.456  11.286   3.342
18706SOL    HW156144   3.438  11.353   3.270
18706SOL    HW256145   3.453  11.332   3.431
18707SOL     OW56146   1.984  11.815   2.425
18707SOL    HW156147   1.939  11.727   2.442
18707SOL    HW256148   1.983  11.869   2.509
18708SOL     OW56149   1.889  12.768   1.979
18708SOL    HW156150   1.870  12.672   2.000
18708SOL    HW256151   1.856  12.826   2.054
18709SOL     OW56152   3.551  12.094   2.474
18709SOL    HW156153   3.646  12.065   2.482
18709SOL    HW256154   3.543  12.159   2.399
18710SOL     OW56155   3.503  12.280   2.294
18710SOL    HW156156   3.589  12.282   2.242
18710SOL    HW256157   3.517  12.327   2.382
18711SOL     OW56158   1.975  11.909   3.459
18711SOL    HW156159   2.063  11.896   3.504
18711SOL    HW256160   1.962  12.006   3.437
18712SOL     OW56161   2.475  12.537   2.588
18712SOL    HW156162   2.426  12.450   2.597
18712SOL    HW256163   2.452  12.580   2.501
18713SOL     OW56164   3.155  12.400   3.285
18713SOL    HW156165   3.192  12.327   3.227
18713SOL    HW256166   3.207  12.405   3.370
18714SOL     OW56167   2.671  11.176   2.364
18714SOL    HW156168   2.711  11.267   2.355
18714SOL    HW256169   2.571  11.184   2.370
18715SOL     OW56170   2.059  12.148   3.126
18715SOL    HW156171   2.148  12.103   3.112
18715SOL    HW256172   1.986  12.083   3.107
18716SOL     OW56173   3.387  12.171   2.052
18716SOL    HW156174   3.324  12.095   2.065
18716SOL    HW256175   3.435  12.189   2.138
18717SOL     OW56176   2.179  11.423   3.663
18717SOL    HW156177   2.250  11.494   3.669
18717SOL    HW256178   2.091  11.462   3.691
18718SOL     OW56179   3.328  12.589   2.815
18718SOL    HW156180   3.269  12.595   2.895
18718SOL    HW256181   3.313  12.501   2.769
18719SOL     OW56182   2.460  11.901   2.132
18719SOL    HW156183   2.484  11.970   2.064
18719SOL    HW256184   2.382  11.934   2.186
18720SOL     OW56185   3.143  11.517   2.806
18720SOL    HW156186   3.057  11.467   2.793
18720SOL    HW256187   3.205  11.463   2.862
18721SOL     OW56188   2.669  11.777   3.327
18721SOL    HW156189   2.622  11.774   3.416
18721SOL    HW256190   2.618  11.722   3.261
18722SOL     OW56191   3.256  11.641   3.536
18722SOL    HW156192   3.236  11.684   3.624
18722SOL    HW256193   3.334  11.579   3.545
18723SOL     OW56194   2.835  12.062   3.434
18723SOL    HW156195   2.881  11.978   3.405
18723SOL    HW256196   2.779  12.096   3.359
18724SOL     OW56197   2.853  11.582   3.104
18724SOL    HW156198   2.776  11.616   3.158
18724SOL    HW256199   2.819  11.531   3.025
18725SOL     OW56200   2.903  11.873   2.291
18725SOL    HW156201   2.929  11.869   2.387
18725SOL    HW256202   2.818  11.822   2.277
18726SOL     OW56203   1.938  11.983   2.651
18726SOL    HW156204   2.037  11.971   2.660
18726SOL    HW256205   1.914  12.078   2.672
18727SOL     OW56206   2.727  11.520   2.057
18727SOL    HW156207   2.786  11.583   2.008
18727SOL    HW256208   2.746  11.426   2.028
18728SOL     OW56209   3.581  11.757   3.693
18728SOL    HW156210   3.555  11.846   3.657
18728SOL    HW256211   3.579  11.689   3.620
18729SOL     OW56212   3.224  12.316   2.407
18729SOL    HW156213   3.307  12.287   2.359
18729SOL    HW256214   3.175  12.383   2.351
18730SOL     OW56215   2.412  11.368   2.747
18730SOL    HW156216   2.407  11.363   2.847
18730SOL    HW256217   2.414  11.464   2.718
18731SOL     OW56218   2.870  12.628   2.339
18731SOL    HW156219   2.824  12.700   2.287
18731SOL    HW256220   2.866  12.648   2.437
18732SOL     OW56221   3.657  12.238   2.735
18732SOL    HW156222   3.595  12.223   2.659
18732SOL    HW256223   3.605  12.249   2.820
18733SOL     OW56224   3.089  12.722   3.368
18733SOL    HW156225   3.095  12.645   3.432
18733SOL    HW256226   3.037  12.696   3.288
18734SOL     OW56227   2.183  12.115   2.104
18734SOL    HW156228   2.265  12.154   2.062
18734SOL    HW256229   2.156  12.033   2.055
18735SOL     OW56230   3.320  11.907   2.590
18735SOL    HW156231   3.315  11.842   2.665
18735SOL    HW256232   3.400  11.966   2.603
18736SOL     OW56233   2.323  12.438   3.589
18736SOL    HW156234   2.273  12.439   3.503
18736SOL    HW256235   2.260  12.420   3.665
18737SOL     OW56236   2.973  12.948   2.099
18737SOL    HW156237   2.913  12.886   2.149
18737SOL    HW256238   3.004  12.904   2.014
18738SOL     OW56239   2.064  11.457   3.360
18738SOL    HW156240   1.984  11.517   3.347
18738SOL    HW256241   2.054  11.408   3.446
18739SOL     OW56242   3.494  12.549   1.943
18739SOL    HW156243   3.462  12.643   1.933
18739SOL    HW256244   3.418  12.486   1.931
18740SOL     OW56245   3.262  11.279   2.288
18740SOL    HW156246   3.238  11.242   2.198
18740SOL    HW256247   3.361  11.295   2.292
18741SOL     OW56248   2.244  11.872   2.342
18741SOL    HW156249   2.289  11.782   2.339
18741SOL    HW256250   2.150  11.861   2.375
18742SOL     OW56251   3.409  11.394   3.591
18742SOL    HW156252   3.404  11.431   3.683
18742SOL    HW256253   3.337  11.325   3.579
18743SOL     OW56254   2.476  11.294   1.979
18743SOL    HW156255   2.574  11.272   1.986
18743SOL    HW256256   2.445  11.277   1.886
18744SOL     OW56257   3.213  11.762   3.295
18744SOL    HW156258   3.241  11.719   3.380
18744SOL    HW256259   3.238  11.858   3.296
18745SOL     OW56260   2.665  12.574   2.786
18745SOL    HW156261   2.755  12.588   2.744
18745SOL    HW256262   2.594  12.576   2.715
18746SOL     OW56263   2.784  11.675   2.761
18746SOL    HW156264   2.759  11.666   2.665
18746SOL    HW256265   2.832  11.593   2.792
18747SOL     OW56266   2.401  11.236   2.374
18747SOL    HW156267   2.320  11.237   2.432
18747SOL    HW256268   2.404  11.319   2.319
18748SOL     OW56269   3.296  12.360   1.903
18748SOL    HW156270   3.328  12.284   1.960
18748SOL    HW256271   3.204  12.387   1.933
18749SOL     OW56272   2.159  11.207   2.033
18749SOL    HW156273   2.208  11.291   2.012
18749SOL    HW256274   2.221  11.142   2.078
18750SOL     OW56275   2.797  11.408   2.342
18750SOL    HW156276   2.749  11.449   2.264
18750SOL    HW256277   2.896  11.406   2.323
18751SOL     OW56278   2.938  11.855   3.326
18751SOL    HW156279   2.858  11.794   3.329
18751SOL    HW256280   3.019  11.802   3.302
18752SOL     OW56281   3.089  12.742   2.655
18752SOL    HW156282   3.110  12.816   2.590
18752SOL    HW256283   3.157  12.742   2.728
18753SOL     OW56284   2.321  12.324   2.603
18753SOL    HW156285   2.250  12.297   2.668
18753SOL    HW256286   2.295  12.296   2.510
18754SOL     OW56287   2.894  11.721   1.878
18754SOL    HW156288   2.853  11.803   1.839
18754SOL    HW256289   2.958  11.747   1.951
18755SOL     OW56290   1.940  11.728   3.248
18755SOL    HW156291   2.032  11.727   3.207
18755SOL    HW256292   1.934  11.802   3.315
18756SOL     OW56293   2.423  11.394   3.009
18756SOL    HW156294   2.461  11.310   3.046
18756SOL    HW256295   2.335  11.413   3.053
18757SOL     OW56296   2.728  11.626   2.504
18757SOL    HW156297   2.696  11.698   2.442
18757SOL    HW256298   2.752  11.545   2.451
18758SOL     OW56299   2.879  11.211   2.615
18758SOL    HW156300   2.807  11.216   2.546
18758SOL    HW256301   2.855  11.142   2.684
18759SOL     OW56302   3.291  12.345   2.729
18759SOL    HW156303   3.236  12.261   2.722
18759SOL    HW256304   3.317  12.374   2.637
18760SOL     OW56305   3.328  11.762   2.854
18760SOL    HW156306   3.298  11.667   2.861
18760SOL    HW256307   3.401  11.778   2.920
18761SOL     OW56308   3.719  12.005   2.239
18761SOL    HW156309   3.761  11.941   2.303
18761SOL    HW256310   3.681  11.954   2.161
18762SOL     OW56311   2.350  12.557   2.036
18762SOL    HW156312   2.263  12.542   2.083
18762SOL    HW256313   2.333  12.583   1.941
18763SOL     OW56314   3.526  12.452   2.519
18763SOL    HW156315   3.625  12.460   2.533
18763SOL    HW256316   3.481  12.536   2.550
18764SOL     OW56317   3.252  11.747   1.940
18764SOL    HW156318   3.198  11.726   2.021
18764SOL    HW256319   3.343  11.706   1.949
18765SOL     OW56320   2.389  11.428   2.190
18765SOL    HW156321   2.416  11.369   2.115
18765SOL    HW256322   2.389  11.523   2.159
18766SOL     OW56323   3.616  12.395   3.450
18766SOL    HW156324   3.707  12.356   3.437
18766SOL    HW256325   3.624  12.491   3.474
18767SOL     OW56326   2.926  12.519   3.202
18767SOL    HW156327   2.846  12.496   3.257
18767SOL    HW256328   3.009  12.493   3.251
18768SOL     OW56329   2.973  12.367   2.962
18768SOL    HW156330   2.933  12.411   3.043
18768SOL    HW256331   2.932  12.404   2.879
18769SOL     OW56332   3.500  12.271   2.941
18769SOL    HW156333   3.505  12.352   3.000
18769SOL    HW256334   3.414  12.273   2.890
18770SOL     OW56335   2.777  11.261   3.264
18770SOL    HW156336   2.802  11.241   3.169
18770SOL    HW256337   2.849  11.317   3.306
18771SOL     OW56338   2.842  12.288   3.581
18771SOL    HW156339   2.743  12.294   3.591
18771SOL    HW256340   2.865  12.208   3.525
18772SOL     OW56341   2.567  12.222   2.230
18772SOL    HW156342   2.553  12.229   2.329
18772SOL    HW256343   2.651  12.171   2.212
18773SOL     OW56344   2.272  11.985   3.113
18773SOL    HW156345   2.358  11.997   3.163
18773SOL    HW256346   2.230  11.898   3.140
18774SOL     OW56347   3.136  11.558   3.124
18774SOL    HW156348   3.157  11.632   3.188
18774SOL    HW256349   3.047  11.575   3.081
18775SOL     OW56350   2.229  12.272   2.363
18775SOL    HW156351   2.222  12.355   2.307
18775SOL    HW256352   2.233  12.192   2.303
18776SOL     OW56353   2.428  11.709   2.727
18776SOL    HW156354   2.440  11.775   2.653
18776SOL    HW256355   2.474  11.743   2.810
18777SOL     OW56356   3.114  12.520   2.250
18777SOL    HW156357   3.164  12.597   2.290
18777SOL    HW256358   3.019  12.522   2.282
18778SOL     OW56359   3.134  12.617   3.004
18778SOL    HW156360   3.181  12.630   3.091
18778SOL    HW256361   3.068  12.543   3.013
18779SOL     OW56362   3.444  11.811   2.334
18779SOL    HW156363   3.413  11.872   2.407
18779SOL    HW256364   3.494  11.863   2.265
18780SOL     OW56365   2.216  12.682   3.191
18780SOL    HW156366   2.195  12.638   3.104
18780SOL    HW256367   2.313  12.708   3.194
18781SOL     OW56368   2.264  11.923   3.460
18781SOL    HW156369   2.332  11.978   3.413
18781SOL    HW256370   2.304  11.835   3.487
18782SOL     OW56371   3.449  11.951   3.532
18782SOL    HW156372   3.357  11.989   3.527
18782SOL    HW256373   3.509  11.998   3.467
18783SOL     OW56374   2.875  11.277   3.632
18783SOL    HW156375   2.881  11.362   3.580
18783SOL    HW256376   2.907  11.201   3.575
18784SOL     OW56377   2.366  11.222   3.602
18784SOL    HW156378   2.324  11.165   3.532
18784SOL    HW256379   2.300  11.291   3.634
18785SOL     OW56380   2.435  12.042   2.891
18785SOL    HW156381   2.479  12.131   2.882
18785SOL    HW256382   2.372  12.042   2.968
18786SOL     OW56383   3.222  12.034   2.907
18786SOL    HW156384   3.147  12.034   2.841
18786SOL    HW256385   3.259  11.942   2.916
18787SOL     OW56386   3.071  11.697   2.137
18787SOL    HW156387   3.084  11.613   2.191
18787SOL    HW256388   3.042  11.771   2.197
18788SOL     OW56389   2.169  11.385   3.093
18788SOL    HW156390   2.146  11.422   3.183
18788SOL    HW256391   2.139  11.290   3.087
18789SOL     OW56392   1.899  12.482   3.144
18789SOL    HW156393   1.952  12.433   3.212
18789SOL    HW256394   1.921  12.580   3.149
18790SOL     OW56395   2.594  11.806   2.926
18790SOL    HW156396   2.653  11.780   2.850
18790SOL    HW256397   2.566  11.902   2.915
18791SOL     OW56398   3.590  12.107   3.716
18791SOL    HW156399   3.544  12.100   3.627
18791SOL    HW256400   3.528  12.151   3.782
18792SOL     OW56401   2.169  11.235   2.480
18792SOL    HW156402   2.158  11.329   2.513
18792SOL    HW256403   2.164  11.172   2.557
18793SOL     OW56404   3.484  11.539   2.236
18793SOL    HW156405   3.486  11.463   2.300
18793SOL    HW256406   3.436  11.616   2.276
18794SOL     OW56407   2.885  11.938   2.828
18794SOL    HW156408   2.900  11.959   2.924
18794SOL    HW256409   2.855  11.843   2.819
18795SOL     OW56410   3.721  12.690   3.467
18795SOL    HW156411   3.735  12.717   3.372
18795SOL    HW256412   3.804  12.712   3.520
18796SOL     OW56413   2.212  12.070   3.666
18796SOL    HW156414   2.288  12.114   3.714
18796SOL    HW256415   2.247  12.023   3.584
18797SOL     OW56416   3.402  11.446   1.987
18797SOL    HW156417   3.341  11.371   2.010
18797SOL    HW256418   3.424  11.498   2.070
18798SOL     OW56419   3.165  12.010   1.904
18798SOL    HW156420   3.199  11.917   1.919
18798SOL    HW256421   3.183  12.037   1.809
18799SOL     OW56422   2.930  12.505   2.711
18799SOL    HW156423   2.937  12.421   2.656
18799SOL    HW256424   2.992  12.574   2.675
18800SOL     OW56425   2.181  11.982   2.811
18800SOL    HW156426   2.274  12.018   2.816
18800SOL    HW256427   2.175  11.897   2.863
18801SOL     OW56428   2.201  11.681   2.868
18801SOL    HW156429   2.149  11.598   2.851
18801SOL    HW256430   2.278  11.686   2.804
18802SOL     OW56431   3.000  11.552   3.540
18802SOL    HW156432   2.955  11.615   3.604
18802SOL    HW256433   3.093  11.583   3.523
18803SOL     OW56434   3.022  11.379   3.339
18803SOL    HW156435   3.022  11.443   3.416
18803SOL    HW256436   3.050  11.427   3.256
18804SOL     OW56437   1.870  12.498   2.062
18804SOL    HW156438   1.777  12.519   2.031
18804SOL    HW256439   1.880  12.399   2.075
18805SOL     OW56440   2.864  11.968   3.100
18805SOL    HW156441   2.905  11.936   3.186
18805SOL    HW256442   2.768  11.941   3.097
18806SOL     OW56443   1.902  11.716   2.976
18806SOL    HW156444   1.987  11.683   2.935
18806SOL    HW256445   1.915  11.731   3.074
18807SOL     OW56446   2.051  11.692   3.584
18807SOL    HW156447   2.110  11.652   3.514
18807SOL    HW256448   1.993  11.763   3.543
18808SOL     OW56449   3.231  12.122   3.522
18808SOL    HW156450   3.270  12.211   3.542
18808SOL    HW256451   3.241  12.102   3.425
18809SOL     OW56452   2.677  11.744   2.187
18809SOL    HW156453   2.684  11.655   2.141
18809SOL    HW256454   2.583  11.778   2.179
18810SOL     OW56455   3.519  11.776   3.068
18810SOL    HW156456   3.481  11.707   3.130
18810SOL    HW256457   3.601  11.740   3.024
18811SOL     OW56458   2.114  12.736   3.606
18811SOL    HW156459   2.084  12.793   3.682
18811SOL    HW256460   2.107  12.639   3.632
18812SOL     OW56461   2.533  11.636   3.131
18812SOL    HW156462   2.499  11.547   3.101
18812SOL    HW256463   2.559  11.690   3.051
18813SOL     OW56464   2.335  11.672   2.053
18813SOL    HW156465   2.396  11.752   2.057
18813SOL    HW256466   2.240  11.703   2.060
18814SOL     OW56467   2.021  12.309   3.328
18814SOL    HW156468   2.043  12.248   3.404
18814SOL    HW256469   2.031  12.260   3.242
18815SOL     OW56470   3.209  12.231   3.096
18815SOL    HW156471   3.233  12.168   3.022
18815SOL    HW256472   3.119  12.271   3.078
18816SOL     OW56473   3.164  12.027   2.171
18816SOL    HW156474   3.078  11.996   2.213
18816SOL    HW256475   3.160  12.013   2.072
18817SOL     OW56476   1.945  12.430   2.884
18817SOL    HW156477   1.940  12.429   2.984
18817SOL    HW256478   1.862  12.389   2.846
18818SOL     OW56479   3.588  11.307   2.385
18818SOL    HW156480   3.661  11.290   2.318
18818SOL    HW256481   3.557  11.220   2.423
18819SOL     OW56482   3.142  12.099   2.534
18819SOL    HW156483   3.202  12.018   2.536
18819SOL    HW256484   3.182  12.168   2.474
18820SOL     OW56485   2.692  12.445   3.284
18820SOL    HW156486   2.687  12.478   3.379
18820SOL    HW256487   2.606  12.464   3.238
18821SOL     OW56488   3.703  11.347   2.825
18821SOL    HW156489   3.742  11.262   2.789
18821SOL    HW256490   3.605  11.349   2.806
18822SOL     OW56491   2.125  11.498   2.582
18822SOL    HW156492   2.046  11.549   2.548
18822SOL    HW256493   2.116  11.483   2.680
18823SOL     OW56494   2.684  12.174   3.234
18823SOL    HW156495   2.724  12.173   3.142
18823SOL    HW256496   2.694  12.266   3.274
18824SOL     OW56497   2.778  12.082   2.153
18824SOL    HW156498   2.841  12.120   2.085
18824SOL    HW256499   2.818  11.999   2.192
18825SOL     OW56500   2.234  12.460   3.352
18825SOL    HW156501   2.221  12.553   3.318
18825SOL    HW256502   2.150  12.408   3.339
18826SOL     OW56503   3.476  12.464   3.151
18826SOL    HW156504   3.536  12.467   3.231
18826SOL    HW256505   3.401  12.528   3.164
18827SOL     OW56506   2.901  12.270   2.558
18827SOL    HW156507   2.831  12.223   2.612
18827SOL    HW256508   2.960  12.202   2.515
18828SOL     OW56509   2.876  11.408   2.833
18828SOL    HW156510   2.868  11.372   2.740
18828SOL    HW256511   2.874  11.332   2.898
18829SOL     OW56512   3.571  11.557   3.243
18829SOL    HW156513   3.644  11.626   3.247
18829SOL    HW256514   3.599  11.482   3.184
18830SOL     OW56515   2.117  12.520   2.152
18830SOL    HW156516   2.021  12.521   2.125
18830SOL    HW256517   2.129  12.573   2.236
18831SOL     OW56518   1.967  12.185   3.588
18831SOL    HW156519   1.890  12.152   3.642
18831SOL    HW256520   2.052  12.155   3.630
18832SOL     OW56521   2.534  11.375   3.351
18832SOL    HW156522   2.624  11.359   3.311
18832SOL    HW256523   2.542  11.380   3.450
18833SOL     OW56524   1.937  11.517   1.895
18833SOL    HW156525   1.845  11.489   1.866
18833SOL    HW256526   1.968  11.594   1.839
18834SOL     OW56527   3.302  12.028   3.260
18834SOL    HW156528   3.245  12.080   3.197
18834SOL    HW256529   3.398  12.040   3.236
18835SOL     OW56530   1.934  11.338   2.180
18835SOL    HW156531   1.917  11.421   2.126
18835SOL    HW256532   2.024  11.301   2.158
18836SOL     OW56533   3.045  12.507   1.981
18836SOL    HW156534   2.946  12.496   1.983
18836SOL    HW256535   3.079  12.522   2.074
18837SOL     OW56536   2.475  12.014   3.293
18837SOL    HW156537   2.531  12.095   3.276
18837SOL    HW256538   2.534  11.934   3.296
18838SOL     OW56539   2.578  11.737   3.570
18838SOL    HW156540   2.597  11.802   3.644
18838SOL    HW256541   2.638  11.657   3.579
18839SOL     OW56542   3.312  12.392   3.495
18839SOL    HW156543   3.303  12.382   3.594
18839SOL    HW256544   3.408  12.385   3.469
18840SOL     OW56545   3.536  12.055   3.116
18840SOL    HW156546   3.509  11.966   3.079
18840SOL    HW256547   3.537  12.123   3.043
18841SOL     OW56548   3.087  11.497   2.311
18841SOL    HW156549   3.152  11.423   2.300
18841SOL    HW256550   3.107  11.547   2.395
18842SOL     OW56551   2.456  11.917   2.514
18842SOL    HW156552   2.506  12.002   2.495
18842SOL    HW256553   2.368  11.919   2.466
18843SOL     OW56554   3.639  11.514   3.504
18843SOL    HW156555   3.622  11.545   3.410
18843SOL    HW256556   3.555  11.477   3.542
18844SOL     OW56557   3.592  12.106   3.379
18844SOL    HW156558   3.630  12.197   3.394
18844SOL    HW256559   3.584  12.089   3.280
18845SOL     OW56560   2.721  12.546   1.878
18845SOL    HW156561   2.675  12.561   1.966
18845SOL    HW256562   2.765  12.631   1.848
18846SOL     OW56563   2.721  12.128   2.723
18846SOL    HW156564   2.775  12.059   2.771
18846SOL    HW256565   2.689  12.197   2.789
18847SOL     OW56566   2.945  12.156   1.949
18847SOL    HW156567   2.922  12.209   1.867
18847SOL    HW256568   3.026  12.100   1.930
18848SOL     OW56569   2.083  12.486   3.706
18848SOL    HW156570   2.018  12.413   3.685
18848SOL    HW256571   2.087  12.500   3.804
18849SOL     OW56572   1.941  12.412   2.515
18849SOL    HW156573   1.940  12.365   2.603
18849SOL    HW256574   2.023  12.384   2.464
18850SOL     OW56575   2.534  12.563   3.486
18850SOL    HW156576   2.456  12.513   3.524
18850SOL    HW256577   2.531  12.658   3.517
18851SOL     OW56578   3.686  11.364   3.089
18851SOL    HW156579   3.682  11.274   3.133
18851SOL    HW256580   3.689  11.353   2.990
18852SOL     OW56581   2.290  11.596   2.382
18852SOL    HW156582   2.320  11.524   2.320
18852SOL    HW256583   2.251  11.556   2.465
18853SOL     OW56584   3.567  12.659   2.966
18853SOL    HW156585   3.474  12.634   2.939
18853SOL    HW256586   3.593  12.609   3.048
18854SOL     OW56587   2.179  11.719   3.142
18854SOL    HW156588   2.217  11.660   3.214
18854SOL    HW256589   2.219  11.693   3.054
18855SOL     OW56590   3.286  11.386   2.974
18855SOL    HW156591   3.338  11.321   3.029
18855SOL    HW256592   3.237  11.449   3.035
18856SOL     OW56593   2.863  11.206   3.016
18856SOL    HW156594   2.800  11.134   2.985
18856SOL    HW256595   2.956  11.170   3.016
18857SOL     OW56596   2.632  12.502   2.163
18857SOL    HW156597   2.586  12.415   2.180
18857SOL    HW256598   2.723  12.499   2.204
18858SOL     OW56599   2.480  12.739   3.146
18858SOL    HW156600   2.475  12.821   3.203
18858SOL    HW256601   2.569  12.736   3.101
18859SOL     OW56602   3.214  11.224   2.030
18859SOL    HW156603   3.249  11.183   1.946
18859SOL    HW256604   3.124  11.186   2.050
18860SOL     OW56605   3.162  11.625   2.553
18860SOL    HW156606   3.103  11.705   2.557
18860SOL    HW256607   3.177  11.590   2.646
18861SOL     OW56608   3.455  11.393   2.744
18861SOL    HW156609   3.371  11.392   2.798
18861SOL    HW256610   3.457  11.476   2.688
18862SOL     OW56611   1.901  12.249   2.162
18862SOL    HW156612   2.000  12.238   2.153
18862SOL    HW256613   1.861  12.163   2.194
18863SOL     OW56614   2.092  11.800   3.837
18863SOL    HW156615   1.999  11.798   3.874
18863SOL    HW256616   2.093  11.761   3.745
18864SOL     OW56617   2.087  11.447   4.720
18864SOL    HW156618   2.122  11.430   4.812
18864SOL    HW256619   1.999  11.402   4.708
18865SOL     OW56620   1.881  11.540   4.371
18865SOL    HW156621   1.799  11.583   4.410
18865SOL    HW256622   1.853  11.467   4.308
18866SOL     OW56623   2.431  12.447   4.889
18866SOL    HW156624   2.338  12.440   4.852
18866SOL    HW256625   2.442  12.536   4.933
18867SOL     OW56626   3.417  12.683   4.427
18867SOL    HW156627   3.360  12.667   4.508
18867SOL    HW256628   3.358  12.693   4.347
18868SOL     OW56629   2.997  11.875   4.441
18868SOL    HW156630   3.054  11.953   4.416
18868SOL    HW256631   2.937  11.901   4.517
18869SOL     OW56632   3.617  11.779   3.955
18869SOL    HW156633   3.605  11.766   3.856
18869SOL    HW256634   3.587  11.698   4.004
18870SOL     OW56635   2.630  12.316   4.747
18870SOL    HW156636   2.552  12.333   4.807
18870SOL    HW256637   2.664  12.403   4.711
18871SOL     OW56638   2.712  11.970   5.547
18871SOL    HW156639   2.708  12.046   5.612
18871SOL    HW256640   2.734  12.006   5.456
18872SOL     OW56641   2.547  12.184   4.389
18872SOL    HW156642   2.616  12.168   4.459
18872SOL    HW256643   2.474  12.241   4.427
18873SOL     OW56644   2.548  12.333   5.527
18873SOL    HW156645   2.608  12.412   5.541
18873SOL    HW256646   2.462  12.364   5.486
18874SOL     OW56647   2.197  12.607   4.785
18874SOL    HW156648   2.119  12.576   4.732
18874SOL    HW256649   2.255  12.665   4.728
18875SOL     OW56650   3.322  12.677   5.063
18875SOL    HW156651   3.346  12.771   5.089
18875SOL    HW256652   3.306  12.623   5.145
18876SOL     OW56653   2.300  11.564   5.223
18876SOL    HW156654   2.382  11.508   5.232
18876SOL    HW256655   2.219  11.506   5.227
18877SOL     OW56656   3.465  11.619   4.461
18877SOL    HW156657   3.391  11.665   4.411
18877SOL    HW256658   3.516  11.687   4.514
18878SOL     OW56659   2.093  12.885   4.207
18878SOL    HW156660   2.127  12.962   4.261
18878SOL    HW256661   2.137  12.885   4.117
18879SOL     OW56662   2.989  12.513   5.414
18879SOL    HW156663   3.036  12.513   5.502
18879SOL    HW256664   2.941  12.426   5.403
18880SOL     OW56665   2.092  12.606   4.262
18880SOL    HW156666   2.066  12.702   4.262
18880SOL    HW256667   2.021  12.552   4.307
18881SOL     OW56668   2.102  12.263   4.610
18881SOL    HW156669   2.116  12.179   4.662
18881SOL    HW256670   2.047  12.327   4.665
18882SOL     OW56671   2.468  12.136   3.847
18882SOL    HW156672   2.475  12.220   3.793
18882SOL    HW256673   2.514  12.149   3.935
18883SOL     OW56674   3.456  11.286   5.204
18883SOL    HW156675   3.438  11.353   5.132
18883SOL    HW256676   3.453  11.332   5.293
18884SOL     OW56677   1.984  11.815   4.287
18884SOL    HW156678   1.939  11.727   4.304
18884SOL    HW256679   1.983  11.869   4.371
18885SOL     OW56680   1.889  12.768   3.841
18885SOL    HW156681   1.870  12.672   3.862
18885SOL    HW256682   1.856  12.826   3.916
18886SOL     OW56683   3.551  12.094   4.336
18886SOL    HW156684   3.646  12.065   4.344
18886SOL    HW256685   3.543  12.159   4.261
18887SOL     OW56686   3.503  12.280   4.156
18887SOL    HW156687   3.589  12.282   4.104
18887SOL    HW256688   3.517  12.327   4.244
18888SOL     OW56689   1.975  11.909   5.321
18888SOL    HW156690   2.063  11.896   5.366
18888SOL    HW256691   1.962  12.006   5.299
18889SOL     OW56692   2.475  12.537   4.450
18889SOL    HW156693   2.426  12.450   4.459
18889SOL    HW256694   2.452  12.580   4.363
18890SOL     OW56695   3.155  12.400   5.147
18890SOL    HW156696   3.192  12.327   5.089
18890SOL    HW256697   3.207  12.405   5.232
18891SOL     OW56698   2.671  11.176   4.226
18891SOL    HW156699   2.711  11.267   4.217
18891SOL    HW256700   2.571  11.184   4.232
18892SOL     OW56701   2.059  12.148   4.988
18892SOL    HW156702   2.148  12.103   4.974
18892SOL    HW256703   1.986  12.083   4.969
18893SOL     OW56704   3.387  12.171   3.914
18893SOL    HW156705   3.324  12.095   3.927
18893SOL    HW256706   3.435  12.189   4.000
18894SOL     OW56707   2.179  11.423   5.525
18894SOL    HW156708   2.250  11.494   5.531
18894SOL    HW256709   2.091  11.462   5.553
18895SOL     OW56710   3.328  12.589   4.677
18895SOL    HW156711   3.269  12.595   4.757
18895SOL    HW256712   3.313  12.501   4.631
18896SOL     OW56713   2.460  11.901   3.994
18896SOL    HW156714   2.484  11.970   3.926
18896SOL    HW256715   2.382  11.934   4.048
18897SOL     OW56716   3.143  11.517   4.668
18897SOL    HW156717   3.057  11.467   4.655
18897SOL    HW256718   3.205  11.463   4.724
18898SOL     OW56719   2.669  11.777   5.189
18898SOL    HW156720   2.622  11.774   5.278
18898SOL    HW256721   2.618  11.722   5.123
18899SOL     OW56722   3.256  11.641   5.398
18899SOL    HW156723   3.236  11.684   5.486
18899SOL    HW256724   3.334  11.579   5.407
18900SOL     OW56725   2.835  12.062   5.296
18900SOL    HW156726   2.881  11.978   5.267
18900SOL    HW256727   2.779  12.096   5.221
18901SOL     OW56728   2.853  11.582   4.966
18901SOL    HW156729   2.776  11.616   5.020
18901SOL    HW256730   2.819  11.531   4.887
18902SOL     OW56731   2.903  11.873   4.153
18902SOL    HW156732   2.929  11.869   4.249
18902SOL    HW256733   2.818  11.822   4.139
18903SOL     OW56734   1.938  11.983   4.513
18903SOL    HW156735   2.037  11.971   4.522
18903SOL    HW256736   1.914  12.078   4.534
18904SOL     OW56737   2.727  11.520   3.919
18904SOL    HW156738   2.786  11.583   3.870
18904SOL    HW256739   2.746  11.426   3.890
18905SOL     OW56740   3.581  11.757   5.555
18905SOL    HW156741   3.555  11.846   5.519
18905SOL    HW256742   3.579  11.689   5.482
18906SOL     OW56743   3.224  12.316   4.269
18906SOL    HW156744   3.307  12.287   4.221
18906SOL    HW256745   3.175  12.383   4.213
18907SOL     OW56746   2.412  11.368   4.609
18907SOL    HW156747   2.407  11.363   4.709
18907SOL    HW256748   2.414  11.464   4.580
18908SOL     OW56749   2.870  12.628   4.201
18908SOL    HW156750   2.824  12.700   4.149
18908SOL    HW256751   2.866  12.648   4.299
18909SOL     OW56752   3.657  12.238   4.597
18909SOL    HW156753   3.595  12.223   4.521
18909SOL    HW256754   3.605  12.249   4.682
18910SOL     OW56755   3.089  12.722   5.230
18910SOL    HW156756   3.095  12.645   5.294
18910SOL    HW256757   3.037  12.696   5.150
18911SOL     OW56758   2.183  12.115   3.966
18911SOL    HW156759   2.265  12.154   3.924
18911SOL    HW256760   2.156  12.033   3.917
18912SOL     OW56761   3.320  11.907   4.452
18912SOL    HW156762   3.315  11.842   4.527
18912SOL    HW256763   3.400  11.966   4.465
18913SOL     OW56764   2.323  12.438   5.451
18913SOL    HW156765   2.273  12.439   5.365
18913SOL    HW256766   2.260  12.420   5.527
18914SOL     OW56767   2.973  12.948   3.961
18914SOL    HW156768   2.913  12.886   4.011
18914SOL    HW256769   3.004  12.904   3.876
18915SOL     OW56770   2.064  11.457   5.222
18915SOL    HW156771   1.984  11.517   5.209
18915SOL    HW256772   2.054  11.408   5.308
18916SOL     OW56773   3.494  12.549   3.805
18916SOL    HW156774   3.462  12.643   3.795
18916SOL    HW256775   3.418  12.486   3.793
18917SOL     OW56776   3.262  11.279   4.150
18917SOL    HW156777   3.238  11.242   4.060
18917SOL    HW256778   3.361  11.295   4.154
18918SOL     OW56779   2.244  11.872   4.204
18918SOL    HW156780   2.289  11.782   4.201
18918SOL    HW256781   2.150  11.861   4.237
18919SOL     OW56782   3.409  11.394   5.453
18919SOL    HW156783   3.404  11.431   5.545
18919SOL    HW256784   3.337  11.325   5.441
18920SOL     OW56785   2.476  11.294   3.841
18920SOL    HW156786   2.574  11.272   3.848
18920SOL    HW256787   2.445  11.277   3.748
18921SOL     OW56788   2.643  11.436   5.473
18921SOL    HW156789   2.710  11.375   5.516
18921SOL    HW256790   2.570  11.455   5.538
18922SOL     OW56791   3.213  11.762   5.157
18922SOL    HW156792   3.241  11.719   5.242
18922SOL    HW256793   3.238  11.858   5.158
18923SOL     OW56794   2.665  12.574   4.648
18923SOL    HW156795   2.755  12.588   4.606
18923SOL    HW256796   2.594  12.576   4.577
18924SOL     OW56797   2.784  11.675   4.623
18924SOL    HW156798   2.759  11.666   4.527
18924SOL    HW256799   2.832  11.593   4.654
18925SOL     OW56800   2.401  11.236   4.236
18925SOL    HW156801   2.320  11.237   4.294
18925SOL    HW256802   2.404  11.319   4.181
18926SOL     OW56803   3.296  12.360   3.765
18926SOL    HW156804   3.328  12.284   3.822
18926SOL    HW256805   3.204  12.387   3.795
18927SOL     OW56806   2.159  11.207   3.895
18927SOL    HW156807   2.208  11.291   3.874
18927SOL    HW256808   2.221  11.142   3.940
18928SOL     OW56809   2.797  11.408   4.204
18928SOL    HW156810   2.749  11.449   4.126
18928SOL    HW256811   2.896  11.406   4.185
18929SOL     OW56812   2.938  11.855   5.188
18929SOL    HW156813   2.858  11.794   5.191
18929SOL    HW256814   3.019  11.802   5.164
18930SOL     OW56815   3.089  12.742   4.517
18930SOL    HW156816   3.110  12.816   4.452
18930SOL    HW256817   3.157  12.742   4.590
18931SOL     OW56818   2.321  12.324   4.465
18931SOL    HW156819   2.250  12.297   4.530
18931SOL    HW256820   2.295  12.296   4.372
18932SOL     OW56821   2.894  11.721   3.740
18932SOL    HW156822   2.853  11.803   3.701
18932SOL    HW256823   2.958  11.747   3.813
18933SOL     OW56824   1.940  11.728   5.110
18933SOL    HW156825   2.032  11.727   5.069
18933SOL    HW256826   1.934  11.802   5.177
18934SOL     OW56827   2.423  11.394   4.871
18934SOL    HW156828   2.461  11.310   4.908
18934SOL    HW256829   2.335  11.413   4.915
18935SOL     OW56830   2.728  11.626   4.366
18935SOL    HW156831   2.696  11.698   4.304
18935SOL    HW256832   2.752  11.545   4.313
18936SOL     OW56833   2.879  11.211   4.477
18936SOL    HW156834   2.807  11.216   4.408
18936SOL    HW256835   2.855  11.142   4.546
18937SOL     OW56836   3.291  12.345   4.591
18937SOL    HW156837   3.236  12.261   4.584
18937SOL    HW256838   3.317  12.374   4.499
18938SOL     OW56839   3.328  11.762   4.716
18938SOL    HW156840   3.298  11.667   4.723
18938SOL    HW256841   3.401  11.778   4.782
18939SOL     OW56842   3.719  12.005   4.101
18939SOL    HW156843   3.761  11.941   4.165
18939SOL    HW256844   3.681  11.954   4.023
18940SOL     OW56845   2.350  12.557   3.898
18940SOL    HW156846   2.263  12.542   3.945
18940SOL    HW256847   2.333  12.583   3.803
18941SOL     OW56848   3.526  12.452   4.381
18941SOL    HW156849   3.625  12.460   4.395
18941SOL    HW256850   3.481  12.536   4.412
18942SOL     OW56851   3.252  11.747   3.802
18942SOL    HW156852   3.198  11.726   3.883
18942SOL    HW256853   3.343  11.706   3.811
18943SOL     OW56854   2.389  11.428   4.052
18943SOL    HW156855   2.416  11.369   3.977
18943SOL    HW256856   2.389  11.523   4.021
18944SOL     OW56857   3.616  12.395   5.312
18944SOL    HW156858   3.707  12.356   5.299
18944SOL    HW256859   3.624  12.491   5.336
18945SOL     OW56860   2.926  12.519   5.064
18945SOL    HW156861   2.846  12.496   5.119
18945SOL    HW256862   3.009  12.493   5.113
18946SOL     OW56863   2.973  12.367   4.824
18946SOL    HW156864   2.933  12.411   4.905
18946SOL    HW256865   2.932  12.404   4.741
18947SOL     OW56866   3.500  12.271   4.803
18947SOL    HW156867   3.505  12.352   4.862
18947SOL    HW256868   3.414  12.273   4.752
18948SOL     OW56869   2.777  11.261   5.126
18948SOL    HW156870   2.802  11.241   5.031
18948SOL    HW256871   2.849  11.317   5.168
18949SOL     OW56872   2.842  12.288   5.443
18949SOL    HW156873   2.743  12.294   5.453
18949SOL    HW256874   2.865  12.208   5.387
18950SOL     OW56875   2.567  12.222   4.092
18950SOL    HW156876   2.553  12.229   4.191
18950SOL    HW256877   2.651  12.171   4.074
18951SOL     OW56878   2.272  11.985   4.975
18951SOL    HW156879   2.358  11.997   5.025
18951SOL    HW256880   2.230  11.898   5.002
18952SOL     OW56881   3.136  11.558   4.986
18952SOL    HW156882   3.157  11.632   5.050
18952SOL    HW256883   3.047  11.575   4.943
18953SOL     OW56884   2.229  12.272   4.225
18953SOL    HW156885   2.222  12.355   4.169
18953SOL    HW256886   2.233  12.192   4.165
18954SOL     OW56887   2.428  11.709   4.589
18954SOL    HW156888   2.440  11.775   4.515
18954SOL    HW256889   2.474  11.743   4.672
18955SOL     OW56890   3.114  12.520   4.112
18955SOL    HW156891   3.164  12.597   4.152
18955SOL    HW256892   3.019  12.522   4.144
18956SOL     OW56893   3.134  12.617   4.866
18956SOL    HW156894   3.181  12.630   4.953
18956SOL    HW256895   3.068  12.543   4.875
18957SOL     OW56896   3.444  11.811   4.196
18957SOL    HW156897   3.413  11.872   4.269
18957SOL    HW256898   3.494  11.863   4.127
18958SOL     OW56899   2.216  12.682   5.053
18958SOL    HW156900   2.195  12.638   4.966
18958SOL    HW256901   2.313  12.708   5.056
18959SOL     OW56902   2.264  11.923   5.322
18959SOL    HW156903   2.332  11.978   5.275
18959SOL    HW256904   2.304  11.835   5.349
18960SOL     OW56905   3.449  11.951   5.394
18960SOL    HW156906   3.357  11.989   5.389
18960SOL    HW256907   3.509  11.998   5.329
18961SOL     OW56908   2.875  11.277   5.494
18961SOL    HW156909   2.881  11.362   5.442
18961SOL    HW256910   2.907  11.201   5.437
18962SOL     OW56911   2.366  11.222   5.464
18962SOL    HW156912   2.324  11.165   5.394
18962SOL    HW256913   2.300  11.291   5.496
18963SOL     OW56914   2.435  12.042   4.753
18963SOL    HW156915   2.479  12.131   4.744
18963SOL    HW256916   2.372  12.042   4.830
18964SOL     OW56917   3.222  12.034   4.769
18964SOL    HW156918   3.147  12.034   4.703
18964SOL    HW256919   3.259  11.942   4.778
18965SOL     OW56920   3.071  11.697   3.999
18965SOL    HW156921   3.084  11.613   4.053
18965SOL    HW256922   3.042  11.771   4.059
18966SOL     OW56923   2.169  11.385   4.955
18966SOL    HW156924   2.146  11.422   5.045
18966SOL    HW256925   2.139  11.290   4.949
18967SOL     OW56926   1.899  12.482   5.006
18967SOL    HW156927   1.952  12.433   5.074
18967SOL    HW256928   1.921  12.580   5.011
18968SOL     OW56929   2.594  11.806   4.788
18968SOL    HW156930   2.653  11.780   4.712
18968SOL    HW256931   2.566  11.902   4.777
18969SOL     OW56932   3.590  12.107   5.578
18969SOL    HW156933   3.544  12.100   5.489
18969SOL    HW256934   3.528  12.151   5.644
18970SOL     OW56935   2.169  11.235   4.342
18970SOL    HW156936   2.158  11.329   4.375
18970SOL    HW256937   2.164  11.172   4.419
18971SOL     OW56938   3.484  11.539   4.098
18971SOL    HW156939   3.486  11.463   4.162
18971SOL    HW256940   3.436  11.616   4.138
18972SOL     OW56941   2.885  11.938   4.690
18972SOL    HW156942   2.900  11.959   4.786
18972SOL    HW256943   2.855  11.843   4.681
18973SOL     OW56944   3.721  12.690   5.329
18973SOL    HW156945   3.735  12.717   5.234
18973SOL    HW256946   3.804  12.712   5.382
18974SOL     OW56947   2.212  12.070   5.528
18974SOL    HW156948   2.288  12.114   5.576
18974SOL    HW256949   2.247  12.023   5.446
18975SOL     OW56950   3.402  11.446   3.849
18975SOL    HW156951   3.341  11.371   3.872
18975SOL    HW256952   3.424  11.498   3.932
18976SOL     OW56953   3.165  12.010   3.766
18976SOL    HW156954   3.199  11.917   3.781
18976SOL    HW256955   3.183  12.037   3.671
18977SOL     OW56956   2.930  12.505   4.573
18977SOL    HW156957   2.937  12.421   4.518
18977SOL    HW256958   2.992  12.574   4.537
18978SOL     OW56959   2.181  11.982   4.673
18978SOL    HW156960   2.274  12.018   4.678
18978SOL    HW256961   2.175  11.897   4.725
18979SOL     OW56962   2.201  11.681   4.730
18979SOL    HW156963   2.149  11.598   4.713
18979SOL    HW256964   2.278  11.686   4.666
18980SOL     OW56965   3.000  11.552   5.402
18980SOL    HW156966   2.955  11.615   5.466
18980SOL    HW256967   3.093  11.583   5.385
18981SOL     OW56968   3.022  11.379   5.201
18981SOL    HW156969   3.022  11.443   5.278
18981SOL    HW256970   3.050  11.427   5.118
18982SOL     OW56971   1.870  12.498   3.924
18982SOL    HW156972   1.777  12.519   3.893
18982SOL    HW256973   1.880  12.399   3.937
18983SOL     OW56974   2.864  11.968   4.962
18983SOL    HW156975   2.905  11.936   5.048
18983SOL    HW256976   2.768  11.941   4.959
18984SOL     OW56977   1.902  11.716   4.838
18984SOL    HW156978   1.987  11.683   4.797
18984SOL    HW256979   1.915  11.731   4.936
18985SOL     OW56980   2.051  11.692   5.446
18985SOL    HW156981   2.110  11.652   5.376
18985SOL    HW256982   1.993  11.763   5.405
18986SOL     OW56983   3.231  12.122   5.384
18986SOL    HW156984   3.270  12.211   5.404
18986SOL    HW256985   3.241  12.102   5.287
18987SOL     OW56986   2.677  11.744   4.049
18987SOL    HW156987   2.684  11.655   4.003
18987SOL    HW256988   2.583  11.778   4.041
18988SOL     OW56989   3.519  11.776   4.930
18988SOL    HW156990   3.481  11.707   4.992
18988SOL    HW256991   3.601  11.740   4.886
18989SOL     OW56992   2.114  12.736   5.468
18989SOL    HW156993   2.084  12.793   5.544
18989SOL    HW256994   2.107  12.639   5.494
18990SOL     OW56995   2.533  11.636   4.993
18990SOL    HW156996   2.499  11.547   4.963
18990SOL    HW256997   2.559  11.690   4.913
18991SOL     OW56998   2.335  11.672   3.915
18991SOL    HW156999   2.396  11.752   3.919
18991SOL    HW257000   2.240  11.703   3.922
18992SOL     OW57001   2.021  12.309   5.190
18992SOL    HW157002   2.043  12.248   5.266
18992SOL    HW257003   2.031  12.260   5.104
18993SOL     OW57004   3.209  12.231   4.958
18993SOL    HW157005   3.233  12.168   4.884
18993SOL    HW257006   3.119  12.271   4.940
18994SOL     OW57007   3.164  12.027   4.033
18994SOL    HW157008   3.078  11.996   4.075
18994SOL    HW257009   3.160  12.013   3.934
18995SOL     OW57010   1.945  12.430   4.746
18995SOL    HW157011   1.940  12.429   4.846
18995SOL    HW257012   1.862  12.389   4.708
18996SOL     OW57013   3.588  11.307   4.247
18996SOL    HW157014   3.661  11.290   4.180
18996SOL    HW257015   3.557  11.220   4.285
18997SOL     OW57016   3.142  12.099   4.396
18997SOL    HW157017   3.202  12.018   4.398
18997SOL    HW257018   3.182  12.168   4.336
18998SOL     OW57019   2.692  12.445   5.146
18998SOL    HW157020   2.687  12.478   5.241
18998SOL    HW257021   2.606  12.464   5.100
18999SOL     OW57022   3.703  11.347   4.687
18999SOL    HW157023   3.742  11.262   4.651
18999SOL    HW257024   3.605  11.349   4.668
19000SOL     OW57025   2.125  11.498   4.444
19000SOL    HW157026   2.046  11.549   4.410
19000SOL    HW257027   2.116  11.483   4.542
19001SOL     OW57028   2.684  12.174   5.096
19001SOL    HW157029   2.724  12.173   5.004
19001SOL    HW257030   2.694  12.266   5.136
19002SOL     OW57031   2.778  12.082   4.015
19002SOL    HW157032   2.841  12.120   3.947
19002SOL    HW257033   2.818  11.999   4.054
19003SOL     OW57034   2.234  12.460   5.214
19003SOL    HW157035   2.221  12.553   5.180
19003SOL    HW257036   2.150  12.408   5.201
19004SOL     OW57037   3.476  12.464   5.013
19004SOL    HW157038   3.536  12.467   5.093
19004SOL    HW257039   3.401  12.528   5.026
19005SOL     OW57040   2.901  12.270   4.420
19005SOL    HW157041   2.831  12.223   4.474
19005SOL    HW257042   2.960  12.202   4.377
19006SOL     OW57043   2.876  11.408   4.695
19006SOL    HW157044   2.868  11.372   4.602
19006SOL    HW257045   2.874  11.332   4.760
19007SOL     OW57046   3.571  11.557   5.105
19007SOL    HW157047   3.644  11.626   5.109
19007SOL    HW257048   3.599  11.482   5.046
19008SOL     OW57049   2.117  12.520   4.014
19008SOL    HW157050   2.021  12.521   3.987
19008SOL    HW257051   2.129  12.573   4.098
19009SOL     OW57052   1.967  12.185   5.450
19009SOL    HW157053   1.890  12.152   5.504
19009SOL    HW257054   2.052  12.155   5.492
19010SOL     OW57055   2.534  11.375   5.213
19010SOL    HW157056   2.624  11.359   5.173
19010SOL    HW257057   2.542  11.380   5.312
19011SOL     OW57058   1.937  11.517   3.757
19011SOL    HW157059   1.845  11.489   3.728
19011SOL    HW257060   1.968  11.594   3.701
19012SOL     OW57061   3.302  12.028   5.122
19012SOL    HW157062   3.245  12.080   5.059
19012SOL    HW257063   3.398  12.040   5.098
19013SOL     OW57064   1.934  11.338   4.042
19013SOL    HW157065   1.917  11.421   3.988
19013SOL    HW257066   2.024  11.301   4.020
19014SOL     OW57067   3.045  12.507   3.843
19014SOL    HW157068   2.946  12.496   3.845
19014SOL    HW257069   3.079  12.522   3.936
19015SOL     OW57070   2.475  12.014   5.155
19015SOL    HW157071   2.531  12.095   5.138
19015SOL    HW257072   2.534  11.934   5.158
19016SOL     OW57073   2.578  11.737   5.432
19016SOL    HW157074   2.597  11.802   5.506
19016SOL    HW257075   2.638  11.657   5.441
19017SOL     OW57076   3.312  12.392   5.357
19017SOL    HW157077   3.303  12.382   5.456
19017SOL    HW257078   3.408  12.385   5.331
19018SOL     OW57079   3.536  12.055   4.978
19018SOL    HW157080   3.509  11.966   4.941
19018SOL    HW257081   3.537  12.123   4.905
19019SOL     OW57082   3.087  11.497   4.173
19019SOL    HW157083   3.152  11.423   4.162
19019SOL    HW257084   3.107  11.547   4.257
19020SOL     OW57085   2.456  11.917   4.376
19020SOL    HW157086   2.506  12.002   4.357
19020SOL    HW257087   2.368  11.919   4.328
19021SOL     OW57088   3.639  11.514   5.366
19021SOL    HW157089   3.622  11.545   5.272
19021SOL    HW257090   3.555  11.477   5.404
19022SOL     OW57091   3.592  12.106   5.241
19022SOL    HW157092   3.630  12.197   5.256
19022SOL    HW257093   3.584  12.089   5.142
19023SOL     OW57094   2.721  12.546   3.740
19023SOL    HW157095   2.675  12.561   3.828
19023SOL    HW257096   2.765  12.631   3.710
19024SOL     OW57097   2.721  12.128   4.585
19024SOL    HW157098   2.775  12.059   4.633
19024SOL    HW257099   2.689  12.197   4.651
19025SOL     OW57100   2.945  12.156   3.811
19025SOL    HW157101   2.922  12.209   3.729
19025SOL    HW257102   3.026  12.100   3.792
19026SOL     OW57103   2.083  12.486   5.568
19026SOL    HW157104   2.018  12.413   5.547
19026SOL    HW257105   2.087  12.500   5.666
19027SOL     OW57106   1.941  12.412   4.377
19027SOL    HW157107   1.940  12.365   4.465
19027SOL    HW257108   2.023  12.384   4.326
19028SOL     OW57109   2.534  12.563   5.348
19028SOL    HW157110   2.456  12.513   5.386
19028SOL    HW257111   2.531  12.658   5.379
19029SOL     OW57112   3.686  11.364   4.951
19029SOL    HW157113   3.682  11.274   4.995
19029SOL    HW257114   3.689  11.353   4.852
19030SOL     OW57115   2.290  11.596   4.244
19030SOL    HW157116   2.320  11.524   4.182
19030SOL    HW257117   2.251  11.556   4.327
19031SOL     OW57118   3.567  12.659   4.828
19031SOL    HW157119   3.474  12.634   4.801
19031SOL    HW257120   3.593  12.609   4.910
19032SOL     OW57121   2.179  11.719   5.004
19032SOL    HW157122   2.217  11.660   5.076
19032SOL    HW257123   2.219  11.693   4.916
19033SOL     OW57124   3.286  11.386   4.836
19033SOL    HW157125   3.338  11.321   4.891
19033SOL    HW257126   3.237  11.449   4.897
19034SOL     OW57127   2.863  11.206   4.878
19034SOL    HW157128   2.800  11.134   4.847
19034SOL    HW257129   2.956  11.170   4.878
19035SOL     OW57130   2.632  12.502   4.025
19035SOL    HW157131   2.586  12.415   4.042
19035SOL    HW257132   2.723  12.499   4.066
19036SOL     OW57133   2.480  12.739   5.008
19036SOL    HW157134   2.475  12.821   5.065
19036SOL    HW257135   2.569  12.736   4.963
19037SOL     OW57136   3.214  11.224   3.892
19037SOL    HW157137   3.249  11.183   3.808
19037SOL    HW257138   3.124  11.186   3.912
19038SOL     OW57139   3.162  11.625   4.415
19038SOL    HW157140   3.103  11.705   4.419
19038SOL    HW257141   3.177  11.590   4.508
19039SOL     OW57142   3.455  11.393   4.606
19039SOL    HW157143   3.371  11.392   4.660
19039SOL    HW257144   3.457  11.476   4.550
19040SOL     OW57145   1.901  12.249   4.024
19040SOL    HW157146   2.000  12.238   4.015
19040SOL    HW257147   1.861  12.163   4.056
19041SOL     OW57148   2.092  11.800   5.699
19041SOL    HW157149   1.999  11.798   5.736
19041SOL    HW257150   2.093  11.761   5.607
19042SOL     OW57151   2.087  11.447   6.582
19042SOL    HW157152   2.122  11.430   6.674
19042SOL    HW257153   1.999  11.402   6.570
19043SOL     OW57154   1.881  11.540   6.233
19043SOL    HW157155   1.799  11.583   6.272
19043SOL    HW257156   1.853  11.467   6.170
19044SOL     OW57157   2.431  12.447   6.751
19044SOL    HW157158   2.338  12.440   6.714
19044SOL    HW257159   2.442  12.536   6.795
19045SOL     OW57160   3.417  12.683   6.289
19045SOL    HW157161   3.360  12.667   6.370
19045SOL    HW257162   3.358  12.693   6.209
19046SOL     OW57163   2.997  11.875   6.303
19046SOL    HW157164   3.054  11.953   6.278
19046SOL    HW257165   2.937  11.901   6.379
19047SOL     OW57166   3.617  11.779   5.817
19047SOL    HW157167   3.605  11.766   5.718
19047SOL    HW257168   3.587  11.698   5.866
19048SOL     OW57169   2.630  12.316   6.609
19048SOL    HW157170   2.552  12.333   6.669
19048SOL    HW257171   2.664  12.403   6.573
19049SOL     OW57172   2.712  11.970   7.409
19049SOL    HW157173   2.708  12.046   7.474
19049SOL    HW257174   2.734  12.006   7.318
19050SOL     OW57175   2.547  12.184   6.251
19050SOL    HW157176   2.616  12.168   6.321
19050SOL    HW257177   2.474  12.241   6.289
19051SOL     OW57178   2.548  12.333   7.389
19051SOL    HW157179   2.608  12.412   7.403
19051SOL    HW257180   2.462  12.364   7.348
19052SOL     OW57181   2.197  12.607   6.647
19052SOL    HW157182   2.119  12.576   6.594
19052SOL    HW257183   2.255  12.665   6.590
19053SOL     OW57184   3.322  12.677   6.925
19053SOL    HW157185   3.346  12.771   6.951
19053SOL    HW257186   3.306  12.623   7.007
19054SOL     OW57187   2.300  11.564   7.085
19054SOL    HW157188   2.382  11.508   7.094
19054SOL    HW257189   2.219  11.506   7.089
19055SOL     OW57190   3.465  11.619   6.323
19055SOL    HW157191   3.391  11.665   6.273
19055SOL    HW257192   3.516  11.687   6.376
19056SOL     OW57193   2.093  12.885   6.069
19056SOL    HW157194   2.127  12.962   6.123
19056SOL    HW257195   2.137  12.885   5.979
19057SOL     OW57196   2.989  12.513   7.276
19057SOL    HW157197   3.036  12.513   7.364
19057SOL    HW257198   2.941  12.426   7.265
19058SOL     OW57199   2.092  12.606   6.124
19058SOL    HW157200   2.066  12.702   6.124
19058SOL    HW257201   2.021  12.552   6.169
19059SOL     OW57202   2.102  12.263   6.472
19059SOL    HW157203   2.116  12.179   6.524
19059SOL    HW257204   2.047  12.327   6.527
19060SOL     OW57205   2.468  12.136   5.709
19060SOL    HW157206   2.475  12.220   5.655
19060SOL    HW257207   2.514  12.149   5.797
19061SOL     OW57208   3.456  11.286   7.066
19061SOL    HW157209   3.438  11.353   6.994
19061SOL    HW257210   3.453  11.332   7.155
19062SOL     OW57211   1.984  11.815   6.149
19062SOL    HW157212   1.939  11.727   6.166
19062SOL    HW257213   1.983  11.869   6.233
19063SOL     OW57214   1.889  12.768   5.703
19063SOL    HW157215   1.870  12.672   5.724
19063SOL    HW257216   1.856  12.826   5.778
19064SOL     OW57217   3.551  12.094   6.198
19064SOL    HW157218   3.646  12.065   6.206
19064SOL    HW257219   3.543  12.159   6.123
19065SOL     OW57220   3.503  12.280   6.018
19065SOL    HW157221   3.589  12.282   5.966
19065SOL    HW257222   3.517  12.327   6.106
19066SOL     OW57223   1.975  11.909   7.183
19066SOL    HW157224   2.063  11.896   7.228
19066SOL    HW257225   1.962  12.006   7.161
19067SOL     OW57226   2.475  12.537   6.312
19067SOL    HW157227   2.426  12.450   6.321
19067SOL    HW257228   2.452  12.580   6.225
19068SOL     OW57229   3.155  12.400   7.009
19068SOL    HW157230   3.192  12.327   6.951
19068SOL    HW257231   3.207  12.405   7.094
19069SOL     OW57232   2.671  11.176   6.088
19069SOL    HW157233   2.711  11.267   6.079
19069SOL    HW257234   2.571  11.184   6.094
19070SOL     OW57235   2.059  12.148   6.850
19070SOL    HW157236   2.148  12.103   6.836
19070SOL    HW257237   1.986  12.083   6.831
19071SOL     OW57238   3.387  12.171   5.776
19071SOL    HW157239   3.324  12.095   5.789
19071SOL    HW257240   3.435  12.189   5.862
19072SOL     OW57241   2.179  11.423   7.387
19072SOL    HW157242   2.250  11.494   7.393
19072SOL    HW257243   2.091  11.462   7.415
19073SOL     OW57244   3.328  12.589   6.539
19073SOL    HW157245   3.269  12.595   6.619
19073SOL    HW257246   3.313  12.501   6.493
19074SOL     OW57247   2.460  11.901   5.856
19074SOL    HW157248   2.484  11.970   5.788
19074SOL    HW257249   2.382  11.934   5.910
19075SOL     OW57250   3.143  11.517   6.530
19075SOL    HW157251   3.057  11.467   6.517
19075SOL    HW257252   3.205  11.463   6.586
19076SOL     OW57253   2.669  11.777   7.051
19076SOL    HW157254   2.622  11.774   7.140
19076SOL    HW257255   2.618  11.722   6.985
19077SOL     OW57256   3.256  11.641   7.260
19077SOL    HW157257   3.236  11.684   7.348
19077SOL    HW257258   3.334  11.579   7.269
19078SOL     OW57259   2.835  12.062   7.158
19078SOL    HW157260   2.881  11.978   7.129
19078SOL    HW257261   2.779  12.096   7.083
19079SOL     OW57262   2.853  11.582   6.828
19079SOL    HW157263   2.776  11.616   6.882
19079SOL    HW257264   2.819  11.531   6.749
19080SOL     OW57265   2.903  11.873   6.015
19080SOL    HW157266   2.929  11.869   6.111
19080SOL    HW257267   2.818  11.822   6.001
19081SOL     OW57268   1.938  11.983   6.375
19081SOL    HW157269   2.037  11.971   6.384
19081SOL    HW257270   1.914  12.078   6.396
19082SOL     OW57271   2.727  11.520   5.781
19082SOL    HW157272   2.786  11.583   5.732
19082SOL    HW257273   2.746  11.426   5.752
19083SOL     OW57274   3.581  11.757   7.417
19083SOL    HW157275   3.555  11.846   7.381
19083SOL    HW257276   3.579  11.689   7.344
19084SOL     OW57277   3.224  12.316   6.131
19084SOL    HW157278   3.307  12.287   6.083
19084SOL    HW257279   3.175  12.383   6.075
19085SOL     OW57280   2.412  11.368   6.471
19085SOL    HW157281   2.407  11.363   6.571
19085SOL    HW257282   2.414  11.464   6.442
19086SOL     OW57283   2.870  12.628   6.063
19086SOL    HW157284   2.824  12.700   6.011
19086SOL    HW257285   2.866  12.648   6.161
19087SOL     OW57286   3.657  12.238   6.459
19087SOL    HW157287   3.595  12.223   6.383
19087SOL    HW257288   3.605  12.249   6.544
19088SOL     OW57289   3.089  12.722   7.092
19088SOL    HW157290   3.095  12.645   7.156
19088SOL    HW257291   3.037  12.696   7.012
19089SOL     OW57292   2.183  12.115   5.828
19089SOL    HW157293   2.265  12.154   5.786
19089SOL    HW257294   2.156  12.033   5.779
19090SOL     OW57295   3.320  11.907   6.314
19090SOL    HW157296   3.315  11.842   6.389
19090SOL    HW257297   3.400  11.966   6.327
19091SOL     OW57298   2.323  12.438   7.313
19091SOL    HW157299   2.273  12.439   7.227
19091SOL    HW257300   2.260  12.420   7.389
19092SOL     OW57301   2.973  12.948   5.823
19092SOL    HW157302   2.913  12.886   5.873
19092SOL    HW257303   3.004  12.904   5.738
19093SOL     OW57304   2.064  11.457   7.084
19093SOL    HW157305   1.984  11.517   7.071
19093SOL    HW257306   2.054  11.408   7.170
19094SOL     OW57307   3.494  12.549   5.667
19094SOL    HW157308   3.462  12.643   5.657
19094SOL    HW257309   3.418  12.486   5.655
19095SOL     OW57310   3.262  11.279   6.012
19095SOL    HW157311   3.238  11.242   5.922
19095SOL    HW257312   3.361  11.295   6.016
19096SOL     OW57313   2.244  11.872   6.066
19096SOL    HW157314   2.289  11.782   6.063
19096SOL    HW257315   2.150  11.861   6.099
19097SOL     OW57316   3.409  11.394   7.315
19097SOL    HW157317   3.404  11.431   7.407
19097SOL    HW257318   3.337  11.325   7.303
19098SOL     OW57319   2.476  11.294   5.703
19098SOL    HW157320   2.574  11.272   5.710
19098SOL    HW257321   2.445  11.277   5.610
19099SOL     OW57322   2.643  11.436   7.335
19099SOL    HW157323   2.710  11.375   7.378
19099SOL    HW257324   2.570  11.455   7.400
19100SOL     OW57325   3.213  11.762   7.019
19100SOL    HW157326   3.241  11.719   7.104
19100SOL    HW257327   3.238  11.858   7.020
19101SOL     OW57328   2.665  12.574   6.510
19101SOL    HW157329   2.755  12.588   6.468
19101SOL    HW257330   2.594  12.576   6.439
19102SOL     OW57331   2.784  11.675   6.485
19102SOL    HW157332   2.759  11.666   6.389
19102SOL    HW257333   2.832  11.593   6.516
19103SOL     OW57334   2.401  11.236   6.098
19103SOL    HW157335   2.320  11.237   6.156
19103SOL    HW257336   2.404  11.319   6.043
19104SOL     OW57337   3.296  12.360   5.627
19104SOL    HW157338   3.328  12.284   5.684
19104SOL    HW257339   3.204  12.387   5.657
19105SOL     OW57340   2.159  11.207   5.757
19105SOL    HW157341   2.208  11.291   5.736
19105SOL    HW257342   2.221  11.142   5.802
19106SOL     OW57343   2.797  11.408   6.066
19106SOL    HW157344   2.749  11.449   5.988
19106SOL    HW257345   2.896  11.406   6.047
19107SOL     OW57346   2.938  11.855   7.050
19107SOL    HW157347   2.858  11.794   7.053
19107SOL    HW257348   3.019  11.802   7.026
19108SOL     OW57349   3.089  12.742   6.379
19108SOL    HW157350   3.110  12.816   6.314
19108SOL    HW257351   3.157  12.742   6.452
19109SOL     OW57352   2.321  12.324   6.327
19109SOL    HW157353   2.250  12.297   6.392
19109SOL    HW257354   2.295  12.296   6.234
19110SOL     OW57355   1.940  11.728   6.972
19110SOL    HW157356   2.032  11.727   6.931
19110SOL    HW257357   1.934  11.802   7.039
19111SOL     OW57358   2.423  11.394   6.733
19111SOL    HW157359   2.461  11.310   6.770
19111SOL    HW257360   2.335  11.413   6.777
19112SOL     OW57361   2.728  11.626   6.228
19112SOL    HW157362   2.696  11.698   6.166
19112SOL    HW257363   2.752  11.545   6.175
19113SOL     OW57364   2.879  11.211   6.339
19113SOL    HW157365   2.807  11.216   6.270
19113SOL    HW257366   2.855  11.142   6.408
19114SOL     OW57367   3.291  12.345   6.453
19114SOL    HW157368   3.236  12.261   6.446
19114SOL    HW257369   3.317  12.374   6.361
19115SOL     OW57370   3.328  11.762   6.578
19115SOL    HW157371   3.298  11.667   6.585
19115SOL    HW257372   3.401  11.778   6.644
19116SOL     OW57373   3.719  12.005   5.963
19116SOL    HW157374   3.761  11.941   6.027
19116SOL    HW257375   3.681  11.954   5.885
19117SOL     OW57376   2.350  12.557   5.760
19117SOL    HW157377   2.263  12.542   5.807
19117SOL    HW257378   2.333  12.583   5.665
19118SOL     OW57379   3.526  12.452   6.243
19118SOL    HW157380   3.625  12.460   6.257
19118SOL    HW257381   3.481  12.536   6.274
19119SOL     OW57382   3.252  11.747   5.664
19119SOL    HW157383   3.198  11.726   5.745
19119SOL    HW257384   3.343  11.706   5.673
19120SOL     OW57385   2.389  11.428   5.914
19120SOL    HW157386   2.416  11.369   5.839
19120SOL    HW257387   2.389  11.523   5.883
19121SOL     OW57388   3.616  12.395   7.174
19121SOL    HW157389   3.707  12.356   7.161
19121SOL    HW257390   3.624  12.491   7.198
19122SOL     OW57391   2.926  12.519   6.926
19122SOL    HW157392   2.846  12.496   6.981
19122SOL    HW257393   3.009  12.493   6.975
19123SOL     OW57394   2.973  12.367   6.686
19123SOL    HW157395   2.933  12.411   6.767
19123SOL    HW257396   2.932  12.404   6.603
19124SOL     OW57397   3.500  12.271   6.665
19124SOL    HW157398   3.505  12.352   6.724
19124SOL    HW257399   3.414  12.273   6.614
19125SOL     OW57400   2.777  11.261   6.988
19125SOL    HW157401   2.802  11.241   6.893
19125SOL    HW257402   2.849  11.317   7.030
19126SOL     OW57403   2.842  12.288   7.305
19126SOL    HW157404   2.743  12.294   7.315
19126SOL    HW257405   2.865  12.208   7.249
19127SOL     OW57406   2.567  12.222   5.954
19127SOL    HW157407   2.553  12.229   6.053
19127SOL    HW257408   2.651  12.171   5.936
19128SOL     OW57409   2.272  11.985   6.837
19128SOL    HW157410   2.358  11.997   6.887
19128SOL    HW257411   2.230  11.898   6.864
19129SOL     OW57412   3.136  11.558   6.848
19129SOL    HW157413   3.157  11.632   6.912
19129SOL    HW257414   3.047  11.575   6.805
19130SOL     OW57415   2.229  12.272   6.087
19130SOL    HW157416   2.222  12.355   6.031
19130SOL    HW257417   2.233  12.192   6.027
19131SOL     OW57418   2.428  11.709   6.451
19131SOL    HW157419   2.440  11.775   6.377
19131SOL    HW257420   2.474  11.743   6.534
19132SOL     OW57421   3.114  12.520   5.974
19132SOL    HW157422   3.164  12.597   6.014
19132SOL    HW257423   3.019  12.522   6.006
19133SOL     OW57424   3.134  12.617   6.728
19133SOL    HW157425   3.181  12.630   6.815
19133SOL    HW257426   3.068  12.543   6.737
19134SOL     OW57427   3.444  11.811   6.058
19134SOL    HW157428   3.413  11.872   6.131
19134SOL    HW257429   3.494  11.863   5.989
19135SOL     OW57430   2.216  12.682   6.915
19135SOL    HW157431   2.195  12.638   6.828
19135SOL    HW257432   2.313  12.708   6.918
19136SOL     OW57433   2.264  11.923   7.184
19136SOL    HW157434   2.332  11.978   7.137
19136SOL    HW257435   2.304  11.835   7.211
19137SOL     OW57436   3.449  11.951   7.256
19137SOL    HW157437   3.357  11.989   7.251
19137SOL    HW257438   3.509  11.998   7.191
19138SOL     OW57439   2.875  11.277   7.356
19138SOL    HW157440   2.881  11.362   7.304
19138SOL    HW257441   2.907  11.201   7.299
19139SOL     OW57442   2.366  11.222   7.326
19139SOL    HW157443   2.324  11.165   7.256
19139SOL    HW257444   2.300  11.291   7.358
19140SOL     OW57445   2.435  12.042   6.615
19140SOL    HW157446   2.479  12.131   6.606
19140SOL    HW257447   2.372  12.042   6.692
19141SOL     OW57448   3.222  12.034   6.631
19141SOL    HW157449   3.147  12.034   6.565
19141SOL    HW257450   3.259  11.942   6.640
19142SOL     OW57451   3.071  11.697   5.861
19142SOL    HW157452   3.084  11.613   5.915
19142SOL    HW257453   3.042  11.771   5.921
19143SOL     OW57454   2.169  11.385   6.817
19143SOL    HW157455   2.146  11.422   6.907
19143SOL    HW257456   2.139  11.290   6.811
19144SOL     OW57457   1.899  12.482   6.868
19144SOL    HW157458   1.952  12.433   6.936
19144SOL    HW257459   1.921  12.580   6.873
19145SOL     OW57460   2.594  11.806   6.650
19145SOL    HW157461   2.653  11.780   6.574
19145SOL    HW257462   2.566  11.902   6.639
19146SOL     OW57463   3.590  12.107   7.440
19146SOL    HW157464   3.544  12.100   7.351
19146SOL    HW257465   3.528  12.151   7.506
19147SOL     OW57466   2.169  11.235   6.204
19147SOL    HW157467   2.158  11.329   6.237
19147SOL    HW257468   2.164  11.172   6.281
19148SOL     OW57469   3.484  11.539   5.960
19148SOL    HW157470   3.486  11.463   6.024
19148SOL    HW257471   3.436  11.616   6.000
19149SOL     OW57472   2.885  11.938   6.552
19149SOL    HW157473   2.900  11.959   6.648
19149SOL    HW257474   2.855  11.843   6.543
19150SOL     OW57475   3.721  12.690   7.191
19150SOL    HW157476   3.735  12.717   7.096
19150SOL    HW257477   3.804  12.712   7.244
19151SOL     OW57478   2.212  12.070   7.390
19151SOL    HW157479   2.288  12.114   7.438
19151SOL    HW257480   2.247  12.023   7.308
19152SOL     OW57481   3.402  11.446   5.711
19152SOL    HW157482   3.341  11.371   5.734
19152SOL    HW257483   3.424  11.498   5.794
19153SOL     OW57484   3.165  12.010   5.628
19153SOL    HW157485   3.199  11.917   5.643
19153SOL    HW257486   3.183  12.037   5.533
19154SOL     OW57487   2.930  12.505   6.435
19154SOL    HW157488   2.937  12.421   6.380
19154SOL    HW257489   2.992  12.574   6.399
19155SOL     OW57490   2.181  11.982   6.535
19155SOL    HW157491   2.274  12.018   6.540
19155SOL    HW257492   2.175  11.897   6.587
19156SOL     OW57493   2.201  11.681   6.592
19156SOL    HW157494   2.149  11.598   6.575
19156SOL    HW257495   2.278  11.686   6.528
19157SOL     OW57496   3.000  11.552   7.264
19157SOL    HW157497   2.955  11.615   7.328
19157SOL    HW257498   3.093  11.583   7.247
19158SOL     OW57499   3.022  11.379   7.063
19158SOL    HW157500   3.022  11.443   7.140
19158SOL    HW257501   3.050  11.427   6.980
19159SOL     OW57502   1.870  12.498   5.786
19159SOL    HW157503   1.777  12.519   5.755
19159SOL    HW257504   1.880  12.399   5.799
19160SOL     OW57505   2.864  11.968   6.824
19160SOL    HW157506   2.905  11.936   6.910
19160SOL    HW257507   2.768  11.941   6.821
19161SOL     OW57508   1.902  11.716   6.700
19161SOL    HW157509   1.987  11.683   6.659
19161SOL    HW257510   1.915  11.731   6.798
19162SOL     OW57511   2.051  11.692   7.308
19162SOL    HW157512   2.110  11.652   7.238
19162SOL    HW257513   1.993  11.763   7.267
19163SOL     OW57514   3.231  12.122   7.246
19163SOL    HW157515   3.270  12.211   7.266
19163SOL    HW257516   3.241  12.102   7.149
19164SOL     OW57517   2.677  11.744   5.911
19164SOL    HW157518   2.684  11.655   5.865
19164SOL    HW257519   2.583  11.778   5.903
19165SOL     OW57520   3.519  11.776   6.792
19165SOL    HW157521   3.481  11.707   6.854
19165SOL    HW257522   3.601  11.740   6.748
19166SOL     OW57523   2.114  12.736   7.330
19166SOL    HW157524   2.084  12.793   7.406
19166SOL    HW257525   2.107  12.639   7.356
19167SOL     OW57526   2.533  11.636   6.855
19167SOL    HW157527   2.499  11.547   6.825
19167SOL    HW257528   2.559  11.690   6.775
19168SOL     OW57529   2.335  11.672   5.777
19168SOL    HW157530   2.396  11.752   5.781
19168SOL    HW257531   2.240  11.703   5.784
19169SOL     OW57532   2.021  12.309   7.052
19169SOL    HW157533   2.043  12.248   7.128
19169SOL    HW257534   2.031  12.260   6.966
19170SOL     OW57535   3.209  12.231   6.820
19170SOL    HW157536   3.233  12.168   6.746
19170SOL    HW257537   3.119  12.271   6.802
19171SOL     OW57538   3.164  12.027   5.895
19171SOL    HW157539   3.078  11.996   5.937
19171SOL    HW257540   3.160  12.013   5.796
19172SOL     OW57541   1.945  12.430   6.608
19172SOL    HW157542   1.940  12.429   6.708
19172SOL    HW257543   1.862  12.389   6.570
19173SOL     OW57544   3.588  11.307   6.109
19173SOL    HW157545   3.661  11.290   6.042
19173SOL    HW257546   3.557  11.220   6.147
19174SOL     OW57547   3.142  12.099   6.258
19174SOL    HW157548   3.202  12.018   6.260
19174SOL    HW257549   3.182  12.168   6.198
19175SOL     OW57550   2.692  12.445   7.008
19175SOL    HW157551   2.687  12.478   7.103
19175SOL    HW257552   2.606  12.464   6.962
19176SOL     OW57553   3.703  11.347   6.549
19176SOL    HW157554   3.742  11.262   6.513
19176SOL    HW257555   3.605  11.349   6.530
19177SOL     OW57556   2.125  11.498   6.306
19177SOL    HW157557   2.046  11.549   6.272
19177SOL    HW257558   2.116  11.483   6.404
19178SOL     OW57559   2.684  12.174   6.958
19178SOL    HW157560   2.724  12.173   6.866
19178SOL    HW257561   2.694  12.266   6.998
19179SOL     OW57562   2.778  12.082   5.877
19179SOL    HW157563   2.841  12.120   5.809
19179SOL    HW257564   2.818  11.999   5.916
19180SOL     OW57565   2.234  12.460   7.076
19180SOL    HW157566   2.221  12.553   7.042
19180SOL    HW257567   2.150  12.408   7.063
19181SOL     OW57568   3.476  12.464   6.875
19181SOL    HW157569   3.536  12.467   6.955
19181SOL    HW257570   3.401  12.528   6.888
19182SOL     OW57571   2.901  12.270   6.282
19182SOL    HW157572   2.831  12.223   6.336
19182SOL    HW257573   2.960  12.202   6.239
19183SOL     OW57574   2.876  11.408   6.557
19183SOL    HW157575   2.868  11.372   6.464
19183SOL    HW257576   2.874  11.332   6.622
19184SOL     OW57577   3.571  11.557   6.967
19184SOL    HW157578   3.644  11.626   6.971
19184SOL    HW257579   3.599  11.482   6.908
19185SOL     OW57580   2.117  12.520   5.876
19185SOL    HW157581   2.021  12.521   5.849
19185SOL    HW257582   2.129  12.573   5.960
19186SOL     OW57583   1.967  12.185   7.312
19186SOL    HW157584   1.890  12.152   7.366
19186SOL    HW257585   2.052  12.155   7.354
19187SOL     OW57586   2.534  11.375   7.075
19187SOL    HW157587   2.624  11.359   7.035
19187SOL    HW257588   2.542  11.380   7.174
19188SOL     OW57589   1.937  11.517   5.619
19188SOL    HW157590   1.845  11.489   5.590
19188SOL    HW257591   1.968  11.594   5.563
19189SOL     OW57592   3.302  12.028   6.984
19189SOL    HW157593   3.245  12.080   6.921
19189SOL    HW257594   3.398  12.040   6.960
19190SOL     OW57595   1.934  11.338   5.904
19190SOL    HW157596   1.917  11.421   5.850
19190SOL    HW257597   2.024  11.301   5.882
19191SOL     OW57598   3.045  12.507   5.705
19191SOL    HW157599   2.946  12.496   5.707
19191SOL    HW257600   3.079  12.522   5.798
19192SOL     OW57601   2.475  12.014   7.017
19192SOL    HW157602   2.531  12.095   7.000
19192SOL    HW257603   2.534  11.934   7.020
19193SOL     OW57604   2.578  11.737   7.294
19193SOL    HW157605   2.597  11.802   7.368
19193SOL    HW257606   2.638  11.657   7.303
19194SOL     OW57607   3.312  12.392   7.219
19194SOL    HW157608   3.303  12.382   7.318
19194SOL    HW257609   3.408  12.385   7.193
19195SOL     OW57610   3.536  12.055   6.840
19195SOL    HW157611   3.509  11.966   6.803
19195SOL    HW257612   3.537  12.123   6.767
19196SOL     OW57613   3.087  11.497   6.035
19196SOL    HW157614   3.152  11.423   6.024
19196SOL    HW257615   3.107  11.547   6.119
19197SOL     OW57616   2.456  11.917   6.238
19197SOL    HW157617   2.506  12.002   6.219
19197SOL    HW257618   2.368  11.919   6.190
19198SOL     OW57619   3.639  11.514   7.228
19198SOL    HW157620   3.622  11.545   7.134
19198SOL    HW257621   3.555  11.477   7.266
19199SOL     OW57622   3.592  12.106   7.103
19199SOL    HW157623   3.630  12.197   7.118
19199SOL    HW257624   3.584  12.089   7.004
19200SOL     OW57625   2.721  12.546   5.602
19200SOL    HW157626   2.675  12.561   5.690
19200SOL    HW257627   2.765  12.631   5.572
19201SOL     OW57628   2.721  12.128   6.447
19201SOL    HW157629   2.775  12.059   6.495
19201SOL    HW257630   2.689  12.197   6.513
19202SOL     OW57631   2.945  12.156   5.673
19202SOL    HW157632   2.922  12.209   5.591
19202SOL    HW257633   3.026  12.100   5.654
19203SOL     OW57634   2.083  12.486   7.430
19203SOL    HW157635   2.018  12.413   7.409
19203SOL    HW257636   2.087  12.500   7.528
19204SOL     OW57637   1.941  12.412   6.239
19204SOL    HW157638   1.940  12.365   6.327
19204SOL    HW257639   2.023  12.384   6.188
19205SOL     OW57640   2.534  12.563   7.210
19205SOL    HW157641   2.456  12.513   7.248
19205SOL    HW257642   2.531  12.658   7.241
19206SOL     OW57643   3.686  11.364   6.813
19206SOL    HW157644   3.682  11.274   6.857
19206SOL    HW257645   3.689  11.353   6.714
19207SOL     OW57646   2.290  11.596   6.106
19207SOL    HW157647   2.320  11.524   6.044
19207SOL    HW257648   2.251  11.556   6.189
19208SOL     OW57649   3.567  12.659   6.690
19208SOL    HW157650   3.474  12.634   6.663
19208SOL    HW257651   3.593  12.609   6.772
19209SOL     OW57652   2.179  11.719   6.866
19209SOL    HW157653   2.217  11.660   6.938
19209SOL    HW257654   2.219  11.693   6.778
19210SOL     OW57655   3.286  11.386   6.698
19210SOL    HW157656   3.338  11.321   6.753
19210SOL    HW257657   3.237  11.449   6.759
19211SOL     OW57658   2.863  11.206   6.740
19211SOL    HW157659   2.800  11.134   6.709
19211SOL    HW257660   2.956  11.170   6.740
19212SOL     OW57661   2.632  12.502   5.887
19212SOL    HW157662   2.586  12.415   5.904
19212SOL    HW257663   2.723  12.499   5.928
19213SOL     OW57664   2.480  12.739   6.870
19213SOL    HW157665   2.475  12.821   6.927
19213SOL    HW257666   2.569  12.736   6.825
19214SOL     OW57667   3.214  11.224   5.754
19214SOL    HW157668   3.249  11.183   5.670
19214SOL    HW257669   3.124  11.186   5.774
19215SOL     OW57670   3.162  11.625   6.277
19215SOL    HW157671   3.103  11.705   6.281
19215SOL    HW257672   3.177  11.590   6.370
19216SOL     OW57673   3.455  11.393   6.468
19216SOL    HW157674   3.371  11.392   6.522
19216SOL    HW257675   3.457  11.476   6.412
19217SOL     OW57676   1.901  12.249   5.886
19217SOL    HW157677   2.000  12.238   5.877
19217SOL    HW257678   1.861  12.163   5.918
19218SOL     OW57679   2.092  11.800   7.561
19218SOL    HW157680   1.999  11.798   7.598
19218SOL    HW257681   2.093  11.761   7.469
19219SOL     OW57682   2.087  11.447   8.444
19219SOL    HW157683   2.122  11.430   8.536
19219SOL    HW257684   1.999  11.402   8.432
19220SOL     OW57685   1.881  11.540   8.095
19220SOL    HW157686   1.799  11.583   8.134
19220SOL    HW257687   1.853  11.467   8.032
19221SOL     OW57688   2.431  12.447   8.613
19221SOL    HW157689   2.338  12.440   8.576
19221SOL    HW257690   2.442  12.536   8.657
19222SOL     OW57691   3.417  12.683   8.151
19222SOL    HW157692   3.360  12.667   8.232
19222SOL    HW257693   3.358  12.693   8.071
19223SOL     OW57694   2.997  11.875   8.165
19223SOL    HW157695   3.054  11.953   8.140
19223SOL    HW257696   2.937  11.901   8.241
19224SOL     OW57697   3.617  11.779   7.679
19224SOL    HW157698   3.605  11.766   7.580
19224SOL    HW257699   3.587  11.698   7.728
19225SOL     OW57700   2.712  11.970   9.271
19225SOL    HW157701   2.708  12.046   9.336
19225SOL    HW257702   2.734  12.006   9.180
19226SOL     OW57703   2.547  12.184   8.113
19226SOL    HW157704   2.616  12.168   8.183
19226SOL    HW257705   2.474  12.241   8.151
19227SOL     OW57706   2.548  12.333   9.251
19227SOL    HW157707   2.608  12.412   9.265
19227SOL    HW257708   2.462  12.364   9.210
19228SOL     OW57709   2.197  12.607   8.509
19228SOL    HW157710   2.119  12.576   8.456
19228SOL    HW257711   2.255  12.665   8.452
19229SOL     OW57712   3.322  12.677   8.787
19229SOL    HW157713   3.346  12.771   8.813
19229SOL    HW257714   3.306  12.623   8.869
19230SOL     OW57715   2.300  11.564   8.947
19230SOL    HW157716   2.382  11.508   8.956
19230SOL    HW257717   2.219  11.506   8.951
19231SOL     OW57718   3.465  11.619   8.185
19231SOL    HW157719   3.391  11.665   8.135
19231SOL    HW257720   3.516  11.687   8.238
19232SOL     OW57721   2.093  12.885   7.931
19232SOL    HW157722   2.127  12.962   7.985
19232SOL    HW257723   2.137  12.885   7.841
19233SOL     OW57724   2.989  12.513   9.138
19233SOL    HW157725   3.036  12.513   9.226
19233SOL    HW257726   2.941  12.426   9.127
19234SOL     OW57727   2.092  12.606   7.986
19234SOL    HW157728   2.066  12.702   7.986
19234SOL    HW257729   2.021  12.552   8.031
19235SOL     OW57730   2.102  12.263   8.334
19235SOL    HW157731   2.116  12.179   8.386
19235SOL    HW257732   2.047  12.327   8.389
19236SOL     OW57733   2.468  12.136   7.571
19236SOL    HW157734   2.475  12.220   7.517
19236SOL    HW257735   2.514  12.149   7.659
19237SOL     OW57736   3.456  11.286   8.928
19237SOL    HW157737   3.438  11.353   8.856
19237SOL    HW257738   3.453  11.332   9.017
19238SOL     OW57739   1.984  11.815   8.011
19238SOL    HW157740   1.939  11.727   8.028
19238SOL    HW257741   1.983  11.869   8.095
19239SOL     OW57742   1.889  12.768   7.565
19239SOL    HW157743   1.870  12.672   7.586
19239SOL    HW257744   1.856  12.826   7.640
19240SOL     OW57745   3.551  12.094   8.060
19240SOL    HW157746   3.646  12.065   8.068
19240SOL    HW257747   3.543  12.159   7.985
19241SOL     OW57748   3.503  12.280   7.880
19241SOL    HW157749   3.589  12.282   7.828
19241SOL    HW257750   3.517  12.327   7.968
19242SOL     OW57751   1.975  11.909   9.045
19242SOL    HW157752   2.063  11.896   9.090
19242SOL    HW257753   1.962  12.006   9.023
19243SOL     OW57754   2.475  12.537   8.174
19243SOL    HW157755   2.426  12.450   8.183
19243SOL    HW257756   2.452  12.580   8.087
19244SOL     OW57757   3.155  12.400   8.871
19244SOL    HW157758   3.192  12.327   8.813
19244SOL    HW257759   3.207  12.405   8.956
19245SOL     OW57760   2.671  11.176   7.950
19245SOL    HW157761   2.711  11.267   7.941
19245SOL    HW257762   2.571  11.184   7.956
19246SOL     OW57763   2.059  12.148   8.712
19246SOL    HW157764   2.148  12.103   8.698
19246SOL    HW257765   1.986  12.083   8.693
19247SOL     OW57766   3.387  12.171   7.638
19247SOL    HW157767   3.324  12.095   7.651
19247SOL    HW257768   3.435  12.189   7.724
19248SOL     OW57769   2.179  11.423   9.249
19248SOL    HW157770   2.250  11.494   9.255
19248SOL    HW257771   2.091  11.462   9.277
19249SOL     OW57772   3.328  12.589   8.401
19249SOL    HW157773   3.269  12.595   8.481
19249SOL    HW257774   3.313  12.501   8.355
19250SOL     OW57775   2.460  11.901   7.718
19250SOL    HW157776   2.484  11.970   7.650
19250SOL    HW257777   2.382  11.934   7.772
19251SOL     OW57778   3.143  11.517   8.392
19251SOL    HW157779   3.057  11.467   8.379
19251SOL    HW257780   3.205  11.463   8.448
19252SOL     OW57781   2.669  11.777   8.913
19252SOL    HW157782   2.622  11.774   9.002
19252SOL    HW257783   2.618  11.722   8.847
19253SOL     OW57784   3.256  11.641   9.122
19253SOL    HW157785   3.236  11.684   9.210
19253SOL    HW257786   3.334  11.579   9.131
19254SOL     OW57787   2.835  12.062   9.020
19254SOL    HW157788   2.881  11.978   8.991
19254SOL    HW257789   2.779  12.096   8.945
19255SOL     OW57790   2.853  11.582   8.690
19255SOL    HW157791   2.776  11.616   8.744
19255SOL    HW257792   2.819  11.531   8.611
19256SOL     OW57793   2.903  11.873   7.877
19256SOL    HW157794   2.929  11.869   7.973
19256SOL    HW257795   2.818  11.822   7.863
19257SOL     OW57796   1.938  11.983   8.237
19257SOL    HW157797   2.037  11.971   8.246
19257SOL    HW257798   1.914  12.078   8.258
19258SOL     OW57799   2.727  11.520   7.643
19258SOL    HW157800   2.786  11.583   7.594
19258SOL    HW257801   2.746  11.426   7.614
19259SOL     OW57802   3.581  11.757   9.279
19259SOL    HW157803   3.555  11.846   9.243
19259SOL    HW257804   3.579  11.689   9.206
19260SOL     OW57805   3.224  12.316   7.993
19260SOL    HW157806   3.307  12.287   7.945
19260SOL    HW257807   3.175  12.383   7.937
19261SOL     OW57808   2.412  11.368   8.333
19261SOL    HW157809   2.407  11.363   8.433
19261SOL    HW257810   2.414  11.464   8.304
19262SOL     OW57811   2.870  12.628   7.925
19262SOL    HW157812   2.824  12.700   7.873
19262SOL    HW257813   2.866  12.648   8.023
19263SOL     OW57814   3.657  12.238   8.321
19263SOL    HW157815   3.595  12.223   8.245
19263SOL    HW257816   3.605  12.249   8.406
19264SOL     OW57817   3.089  12.722   8.954
19264SOL    HW157818   3.095  12.645   9.018
19264SOL    HW257819   3.037  12.696   8.874
19265SOL     OW57820   2.183  12.115   7.690
19265SOL    HW157821   2.265  12.154   7.648
19265SOL    HW257822   2.156  12.033   7.641
19266SOL     OW57823   3.320  11.907   8.176
19266SOL    HW157824   3.315  11.842   8.251
19266SOL    HW257825   3.400  11.966   8.189
19267SOL     OW57826   2.323  12.438   9.175
19267SOL    HW157827   2.273  12.439   9.089
19267SOL    HW257828   2.260  12.420   9.251
19268SOL     OW57829   2.973  12.948   7.685
19268SOL    HW157830   2.913  12.886   7.735
19268SOL    HW257831   3.004  12.904   7.600
19269SOL     OW57832   2.064  11.457   8.946
19269SOL    HW157833   1.984  11.517   8.933
19269SOL    HW257834   2.054  11.408   9.032
19270SOL     OW57835   3.494  12.549   7.529
19270SOL    HW157836   3.462  12.643   7.519
19270SOL    HW257837   3.418  12.486   7.517
19271SOL     OW57838   3.262  11.279   7.874
19271SOL    HW157839   3.238  11.242   7.784
19271SOL    HW257840   3.361  11.295   7.878
19272SOL     OW57841   2.244  11.872   7.928
19272SOL    HW157842   2.289  11.782   7.925
19272SOL    HW257843   2.150  11.861   7.961
19273SOL     OW57844   3.409  11.394   9.177
19273SOL    HW157845   3.404  11.431   9.269
19273SOL    HW257846   3.337  11.325   9.165
19274SOL     OW57847   2.476  11.294   7.565
19274SOL    HW157848   2.574  11.272   7.572
19274SOL    HW257849   2.445  11.277   7.472
19275SOL     OW57850   2.643  11.436   9.197
19275SOL    HW157851   2.710  11.375   9.240
19275SOL    HW257852   2.570  11.455   9.262
19276SOL     OW57853   3.213  11.762   8.881
19276SOL    HW157854   3.241  11.719   8.966
19276SOL    HW257855   3.238  11.858   8.882
19277SOL     OW57856   2.665  12.574   8.372
19277SOL    HW157857   2.755  12.588   8.330
19277SOL    HW257858   2.594  12.576   8.301
19278SOL     OW57859   2.784  11.675   8.347
19278SOL    HW157860   2.759  11.666   8.251
19278SOL    HW257861   2.832  11.593   8.378
19279SOL     OW57862   2.401  11.236   7.960
19279SOL    HW157863   2.320  11.237   8.018
19279SOL    HW257864   2.404  11.319   7.905
19280SOL     OW57865   3.296  12.360   7.489
19280SOL    HW157866   3.328  12.284   7.546
19280SOL    HW257867   3.204  12.387   7.519
19281SOL     OW57868   2.159  11.207   7.619
19281SOL    HW157869   2.208  11.291   7.598
19281SOL    HW257870   2.221  11.142   7.664
19282SOL     OW57871   2.797  11.408   7.928
19282SOL    HW157872   2.749  11.449   7.850
19282SOL    HW257873   2.896  11.406   7.909
19283SOL     OW57874   2.938  11.855   8.912
19283SOL    HW157875   2.858  11.794   8.915
19283SOL    HW257876   3.019  11.802   8.888
19284SOL     OW57877   3.089  12.742   8.241
19284SOL    HW157878   3.110  12.816   8.176
19284SOL    HW257879   3.157  12.742   8.314
19285SOL     OW57880   2.321  12.324   8.189
19285SOL    HW157881   2.250  12.297   8.254
19285SOL    HW257882   2.295  12.296   8.096
19286SOL     OW57883   2.894  11.721   7.464
19286SOL    HW157884   2.853  11.803   7.425
19286SOL    HW257885   2.958  11.747   7.537
19287SOL     OW57886   1.940  11.728   8.834
19287SOL    HW157887   2.032  11.727   8.793
19287SOL    HW257888   1.934  11.802   8.901
19288SOL     OW57889   2.423  11.394   8.595
19288SOL    HW157890   2.461  11.310   8.632
19288SOL    HW257891   2.335  11.413   8.639
19289SOL     OW57892   2.728  11.626   8.090
19289SOL    HW157893   2.696  11.698   8.028
19289SOL    HW257894   2.752  11.545   8.037
19290SOL     OW57895   2.879  11.211   8.201
19290SOL    HW157896   2.807  11.216   8.132
19290SOL    HW257897   2.855  11.142   8.270
19291SOL     OW57898   3.291  12.345   8.315
19291SOL    HW157899   3.236  12.261   8.308
19291SOL    HW257900   3.317  12.374   8.223
19292SOL     OW57901   3.328  11.762   8.440
19292SOL    HW157902   3.298  11.667   8.447
19292SOL    HW257903   3.401  11.778   8.506
19293SOL     OW57904   3.719  12.005   7.825
19293SOL    HW157905   3.761  11.941   7.889
19293SOL    HW257906   3.681  11.954   7.747
19294SOL     OW57907   2.350  12.557   7.622
19294SOL    HW157908   2.263  12.542   7.669
19294SOL    HW257909   2.333  12.583   7.527
19295SOL     OW57910   3.526  12.452   8.105
19295SOL    HW157911   3.625  12.460   8.119
19295SOL    HW257912   3.481  12.536   8.136
19296SOL     OW57913   3.252  11.747   7.526
19296SOL    HW157914   3.198  11.726   7.607
19296SOL    HW257915   3.343  11.706   7.535
19297SOL     OW57916   2.389  11.428   7.776
19297SOL    HW157917   2.416  11.369   7.701
19297SOL    HW257918   2.389  11.523   7.745
19298SOL     OW57919   3.616  12.395   9.036
19298SOL    HW157920   3.707  12.356   9.023
19298SOL    HW257921   3.624  12.491   9.060
19299SOL     OW57922   2.926  12.519   8.788
19299SOL    HW157923   2.846  12.496   8.843
19299SOL    HW257924   3.009  12.493   8.837
19300SOL     OW57925   2.973  12.367   8.548
19300SOL    HW157926   2.933  12.411   8.629
19300SOL    HW257927   2.932  12.404   8.465
19301SOL     OW57928   3.500  12.271   8.527
19301SOL    HW157929   3.505  12.352   8.586
19301SOL    HW257930   3.414  12.273   8.476
19302SOL     OW57931   2.777  11.261   8.850
19302SOL    HW157932   2.802  11.241   8.755
19302SOL    HW257933   2.849  11.317   8.892
19303SOL     OW57934   2.842  12.288   9.167
19303SOL    HW157935   2.743  12.294   9.177
19303SOL    HW257936   2.865  12.208   9.111
19304SOL     OW57937   2.567  12.222   7.816
19304SOL    HW157938   2.553  12.229   7.915
19304SOL    HW257939   2.651  12.171   7.798
19305SOL     OW57940   2.272  11.985   8.699
19305SOL    HW157941   2.358  11.997   8.749
19305SOL    HW257942   2.230  11.898   8.726
19306SOL     OW57943   3.136  11.558   8.710
19306SOL    HW157944   3.157  11.632   8.774
19306SOL    HW257945   3.047  11.575   8.667
19307SOL     OW57946   2.229  12.272   7.949
19307SOL    HW157947   2.222  12.355   7.893
19307SOL    HW257948   2.233  12.192   7.889
19308SOL     OW57949   2.428  11.709   8.313
19308SOL    HW157950   2.440  11.775   8.239
19308SOL    HW257951   2.474  11.743   8.396
19309SOL     OW57952   3.114  12.520   7.836
19309SOL    HW157953   3.164  12.597   7.876
19309SOL    HW257954   3.019  12.522   7.868
19310SOL     OW57955   3.134  12.617   8.590
19310SOL    HW157956   3.181  12.630   8.677
19310SOL    HW257957   3.068  12.543   8.599
19311SOL     OW57958   3.444  11.811   7.920
19311SOL    HW157959   3.413  11.872   7.993
19311SOL    HW257960   3.494  11.863   7.851
19312SOL     OW57961   2.216  12.682   8.777
19312SOL    HW157962   2.195  12.638   8.690
19312SOL    HW257963   2.313  12.708   8.780
19313SOL     OW57964   2.264  11.923   9.046
19313SOL    HW157965   2.332  11.978   8.999
19313SOL    HW257966   2.304  11.835   9.073
19314SOL     OW57967   3.449  11.951   9.118
19314SOL    HW157968   3.357  11.989   9.113
19314SOL    HW257969   3.509  11.998   9.053
19315SOL     OW57970   2.875  11.277   9.218
19315SOL    HW157971   2.881  11.362   9.166
19315SOL    HW257972   2.907  11.201   9.161
19316SOL     OW57973   2.366  11.222   9.188
19316SOL    HW157974   2.324  11.165   9.118
19316SOL    HW257975   2.300  11.291   9.220
19317SOL     OW57976   2.435  12.042   8.477
19317SOL    HW157977   2.479  12.131   8.468
19317SOL    HW257978   2.372  12.042   8.554
19318SOL     OW57979   3.222  12.034   8.493
19318SOL    HW157980   3.147  12.034   8.427
19318SOL    HW257981   3.259  11.942   8.502
19319SOL     OW57982   3.071  11.697   7.723
19319SOL    HW157983   3.084  11.613   7.777
19319SOL    HW257984   3.042  11.771   7.783
19320SOL     OW57985   2.169  11.385   8.679
19320SOL    HW157986   2.146  11.422   8.769
19320SOL    HW257987   2.139  11.290   8.673
19321SOL     OW57988   1.899  12.482   8.730
19321SOL    HW157989   1.952  12.433   8.798
19321SOL    HW257990   1.921  12.580   8.735
19322SOL     OW57991   2.594  11.806   8.512
19322SOL    HW157992   2.653  11.780   8.436
19322SOL    HW257993   2.566  11.902   8.501
19323SOL     OW57994   3.590  12.107   9.302
19323SOL    HW157995   3.544  12.100   9.213
19323SOL    HW257996   3.528  12.151   9.368
19324SOL     OW57997   2.169  11.235   8.066
19324SOL    HW157998   2.158  11.329   8.099
19324SOL    HW257999   2.164  11.172   8.143
19325SOL     OW58000   3.484  11.539   7.822
19325SOL    HW158001   3.486  11.463   7.886
19325SOL    HW258002   3.436  11.616   7.862
19326SOL     OW58003   2.885  11.938   8.414
19326SOL    HW158004   2.900  11.959   8.510
19326SOL    HW258005   2.855  11.843   8.405
19327SOL     OW58006   3.721  12.690   9.053
19327SOL    HW158007   3.735  12.717   8.958
19327SOL    HW258008   3.804  12.712   9.106
19328SOL     OW58009   2.212  12.070   9.252
19328SOL    HW158010   2.288  12.114   9.300
19328SOL    HW258011   2.247  12.023   9.170
19329SOL     OW58012   3.402  11.446   7.573
19329SOL    HW158013   3.341  11.371   7.596
19329SOL    HW258014   3.424  11.498   7.656
19330SOL     OW58015   3.165  12.010   7.490
19330SOL    HW158016   3.199  11.917   7.505
19330SOL    HW258017   3.183  12.037   7.395
19331SOL     OW58018   2.930  12.505   8.297
19331SOL    HW158019   2.937  12.421   8.242
19331SOL    HW258020   2.992  12.574   8.261
19332SOL     OW58021   2.181  11.982   8.397
19332SOL    HW158022   2.274  12.018   8.402
19332SOL    HW258023   2.175  11.897   8.449
19333SOL     OW58024   2.201  11.681   8.454
19333SOL    HW158025   2.149  11.598   8.437
19333SOL    HW258026   2.278  11.686   8.390
19334SOL     OW58027   3.000  11.552   9.126
19334SOL    HW158028   2.955  11.615   9.190
19334SOL    HW258029   3.093  11.583   9.109
19335SOL     OW58030   3.022  11.379   8.925
19335SOL    HW158031   3.022  11.443   9.002
19335SOL    HW258032   3.050  11.427   8.842
19336SOL     OW58033   1.870  12.498   7.648
19336SOL    HW158034   1.777  12.519   7.617
19336SOL    HW258035   1.880  12.399   7.661
19337SOL     OW58036   2.864  11.968   8.686
19337SOL    HW158037   2.905  11.936   8.772
19337SOL    HW258038   2.768  11.941   8.683
19338SOL     OW58039   1.902  11.716   8.562
19338SOL    HW158040   1.987  11.683   8.521
19338SOL    HW258041   1.915  11.731   8.660
19339SOL     OW58042   2.051  11.692   9.170
19339SOL    HW158043   2.110  11.652   9.100
19339SOL    HW258044   1.993  11.763   9.129
19340SOL     OW58045   3.231  12.122   9.108
19340SOL    HW158046   3.270  12.211   9.128
19340SOL    HW258047   3.241  12.102   9.011
19341SOL     OW58048   2.677  11.744   7.773
19341SOL    HW158049   2.684  11.655   7.727
19341SOL    HW258050   2.583  11.778   7.765
19342SOL     OW58051   3.519  11.776   8.654
19342SOL    HW158052   3.481  11.707   8.716
19342SOL    HW258053   3.601  11.740   8.610
19343SOL     OW58054   2.114  12.736   9.192
19343SOL    HW158055   2.084  12.793   9.268
19343SOL    HW258056   2.107  12.639   9.218
19344SOL     OW58057   2.533  11.636   8.717
19344SOL    HW158058   2.499  11.547   8.687
19344SOL    HW258059   2.559  11.690   8.637
19345SOL     OW58060   2.335  11.672   7.639
19345SOL    HW158061   2.396  11.752   7.643
19345SOL    HW258062   2.240  11.703   7.646
19346SOL     OW58063   2.021  12.309   8.914
19346SOL    HW158064   2.043  12.248   8.990
19346SOL    HW258065   2.031  12.260   8.828
19347SOL     OW58066   3.209  12.231   8.682
19347SOL    HW158067   3.233  12.168   8.608
19347SOL    HW258068   3.119  12.271   8.664
19348SOL     OW58069   1.945  12.430   8.470
19348SOL    HW158070   1.940  12.429   8.570
19348SOL    HW258071   1.862  12.389   8.432
19349SOL     OW58072   3.588  11.307   7.971
19349SOL    HW158073   3.661  11.290   7.904
19349SOL    HW258074   3.557  11.220   8.009
19350SOL     OW58075   3.142  12.099   8.120
19350SOL    HW158076   3.202  12.018   8.122
19350SOL    HW258077   3.182  12.168   8.060
19351SOL     OW58078   2.692  12.445   8.870
19351SOL    HW158079   2.687  12.478   8.965
19351SOL    HW258080   2.606  12.464   8.824
19352SOL     OW58081   3.703  11.347   8.411
19352SOL    HW158082   3.742  11.262   8.375
19352SOL    HW258083   3.605  11.349   8.392
19353SOL     OW58084   2.125  11.498   8.168
19353SOL    HW158085   2.046  11.549   8.134
19353SOL    HW258086   2.116  11.483   8.266
19354SOL     OW58087   2.684  12.174   8.820
19354SOL    HW158088   2.724  12.173   8.728
19354SOL    HW258089   2.694  12.266   8.860
19355SOL     OW58090   2.778  12.082   7.739
19355SOL    HW158091   2.841  12.120   7.671
19355SOL    HW258092   2.818  11.999   7.778
19356SOL     OW58093   2.234  12.460   8.938
19356SOL    HW158094   2.221  12.553   8.904
19356SOL    HW258095   2.150  12.408   8.925
19357SOL     OW58096   3.476  12.464   8.737
19357SOL    HW158097   3.536  12.467   8.817
19357SOL    HW258098   3.401  12.528   8.750
19358SOL     OW58099   2.901  12.270   8.144
19358SOL    HW158100   2.831  12.223   8.198
19358SOL    HW258101   2.960  12.202   8.101
19359SOL     OW58102   2.876  11.408   8.419
19359SOL    HW158103   2.868  11.372   8.326
19359SOL    HW258104   2.874  11.332   8.484
19360SOL     OW58105   3.571  11.557   8.829
19360SOL    HW158106   3.644  11.626   8.833
19360SOL    HW258107   3.599  11.482   8.770
19361SOL     OW58108   2.117  12.520   7.738
19361SOL    HW158109   2.021  12.521   7.711
19361SOL    HW258110   2.129  12.573   7.822
19362SOL     OW58111   1.967  12.185   9.174
19362SOL    HW158112   1.890  12.152   9.228
19362SOL    HW258113   2.052  12.155   9.216
19363SOL     OW58114   2.534  11.375   8.937
19363SOL    HW158115   2.624  11.359   8.897
19363SOL    HW258116   2.542  11.380   9.036
19364SOL     OW58117   1.937  11.517   7.481
19364SOL    HW158118   1.845  11.489   7.452
19364SOL    HW258119   1.968  11.594   7.425
19365SOL     OW58120   3.302  12.028   8.846
19365SOL    HW158121   3.245  12.080   8.783
19365SOL    HW258122   3.398  12.040   8.822
19366SOL     OW58123   1.934  11.338   7.766
19366SOL    HW158124   1.917  11.421   7.712
19366SOL    HW258125   2.024  11.301   7.744
19367SOL     OW58126   3.045  12.507   7.567
19367SOL    HW158127   2.946  12.496   7.569
19367SOL    HW258128   3.079  12.522   7.660
19368SOL     OW58129   2.475  12.014   8.879
19368SOL    HW158130   2.531  12.095   8.862
19368SOL    HW258131   2.534  11.934   8.882
19369SOL     OW58132   2.578  11.737   9.156
19369SOL    HW158133   2.597  11.802   9.230
19369SOL    HW258134   2.638  11.657   9.165
19370SOL     OW58135   3.312  12.392   9.081
19370SOL    HW158136   3.303  12.382   9.180
19370SOL    HW258137   3.408  12.385   9.055
19371SOL     OW58138   3.536  12.055   8.702
19371SOL    HW158139   3.509  11.966   8.665
19371SOL    HW258140   3.537  12.123   8.629
19372SOL     OW58141   3.087  11.497   7.897
19372SOL    HW158142   3.152  11.423   7.886
19372SOL    HW258143   3.107  11.547   7.981
19373SOL     OW58144   2.456  11.917   8.100
19373SOL    HW158145   2.506  12.002   8.081
19373SOL    HW258146   2.368  11.919   8.052
19374SOL     OW58147   3.639  11.514   9.090
19374SOL    HW158148   3.622  11.545   8.996
19374SOL    HW258149   3.555  11.477   9.128
19375SOL     OW58150   3.592  12.106   8.965
19375SOL    HW158151   3.630  12.197   8.980
19375SOL    HW258152   3.584  12.089   8.866
19376SOL     OW58153   2.721  12.546   7.464
19376SOL    HW158154   2.675  12.561   7.552
19376SOL    HW258155   2.765  12.631   7.434
19377SOL     OW58156   2.721  12.128   8.309
19377SOL    HW158157   2.775  12.059   8.357
19377SOL    HW258158   2.689  12.197   8.375
19378SOL     OW58159   2.945  12.156   7.535
19378SOL    HW158160   2.922  12.209   7.453
19378SOL    HW258161   3.026  12.100   7.516
19379SOL     OW58162   2.083  12.486   9.292
19379SOL    HW158163   2.018  12.413   9.271
19379SOL    HW258164   2.087  12.500   9.390
19380SOL     OW58165   1.941  12.412   8.101
19380SOL    HW158166   1.940  12.365   8.189
19380SOL    HW258167   2.023  12.384   8.050
19381SOL     OW58168   2.534  12.563   9.072
19381SOL    HW158169   2.456  12.513   9.110
19381SOL    HW258170   2.531  12.658   9.103
19382SOL     OW58171   3.686  11.364   8.675
19382SOL    HW158172   3.682  11.274   8.719
19382SOL    HW258173   3.689  11.353   8.576
19383SOL     OW58174   2.290  11.596   7.968
19383SOL    HW158175   2.320  11.524   7.906
19383SOL    HW258176   2.251  11.556   8.051
19384SOL     OW58177   3.567  12.659   8.552
19384SOL    HW158178   3.474  12.634   8.525
19384SOL    HW258179   3.593  12.609   8.634
19385SOL     OW58180   2.179  11.719   8.728
19385SOL    HW158181   2.217  11.660   8.800
19385SOL    HW258182   2.219  11.693   8.640
19386SOL     OW58183   3.286  11.386   8.560
19386SOL    HW158184   3.338  11.321   8.615
19386SOL    HW258185   3.237  11.449   8.621
19387SOL     OW58186   2.863  11.206   8.602
19387SOL    HW158187   2.800  11.134   8.571
19387SOL    HW258188   2.956  11.170   8.602
19388SOL     OW58189   2.632  12.502   7.749
19388SOL    HW158190   2.586  12.415   7.766
19388SOL    HW258191   2.723  12.499   7.790
19389SOL     OW58192   2.480  12.739   8.732
19389SOL    HW158193   2.475  12.821   8.789
19389SOL    HW258194   2.569  12.736   8.687
19390SOL     OW58195   3.214  11.224   7.616
19390SOL    HW158196   3.249  11.183   7.532
19390SOL    HW258197   3.124  11.186   7.636
19391SOL     OW58198   3.162  11.625   8.139
19391SOL    HW158199   3.103  11.705   8.143
19391SOL    HW258200   3.177  11.590   8.232
19392SOL     OW58201   3.455  11.393   8.330
19392SOL    HW158202   3.371  11.392   8.384
19392SOL    HW258203   3.457  11.476   8.274
19393SOL     OW58204   1.901  12.249   7.748
19393SOL    HW158205   2.000  12.238   7.739
19393SOL    HW258206   1.861  12.163   7.780
19394SOL     OW58207   2.092  11.800   9.423
19394SOL    HW158208   1.999  11.798   9.460
19394SOL    HW258209   2.093  11.761   9.331
19395SOL     OW58210   2.087  11.447  10.306
19395SOL    HW158211   2.122  11.430  10.398
19395SOL    HW258212   1.999  11.402  10.294
19396SOL     OW58213   2.431  12.447  10.475
19396SOL    HW158214   2.338  12.440  10.438
19396SOL    HW258215   2.442  12.536  10.519
19397SOL     OW58216   3.417  12.683  10.013
19397SOL    HW158217   3.360  12.667  10.094
19397SOL    HW258218   3.358  12.693   9.933
19398SOL     OW58219   2.997  11.875  10.027
19398SOL    HW158220   3.054  11.953  10.002
19398SOL    HW258221   2.937  11.901  10.103
19399SOL     OW58222   3.617  11.779   9.541
19399SOL    HW158223   3.605  11.766   9.442
19399SOL    HW258224   3.587  11.698   9.590
19400SOL     OW58225   2.630  12.316  10.333
19400SOL    HW158226   2.552  12.333  10.393
19400SOL    HW258227   2.664  12.403  10.297
19401SOL     OW58228   2.712  11.970  11.133
19401SOL    HW158229   2.708  12.046  11.198
19401SOL    HW258230   2.734  12.006  11.042
19402SOL     OW58231   2.547  12.184   9.975
19402SOL    HW158232   2.616  12.168  10.045
19402SOL    HW258233   2.474  12.241  10.013
19403SOL     OW58234   2.548  12.333  11.113
19403SOL    HW158235   2.608  12.412  11.127
19403SOL    HW258236   2.462  12.364  11.072
19404SOL     OW58237   2.197  12.607  10.371
19404SOL    HW158238   2.119  12.576  10.318
19404SOL    HW258239   2.255  12.665  10.314
19405SOL     OW58240   3.322  12.677  10.649
19405SOL    HW158241   3.346  12.771  10.675
19405SOL    HW258242   3.306  12.623  10.731
19406SOL     OW58243   2.300  11.564  10.809
19406SOL    HW158244   2.382  11.508  10.818
19406SOL    HW258245   2.219  11.506  10.813
19407SOL     OW58246   3.465  11.619  10.047
19407SOL    HW158247   3.391  11.665   9.997
19407SOL    HW258248   3.516  11.687  10.100
19408SOL     OW58249   2.093  12.885   9.793
19408SOL    HW158250   2.127  12.962   9.847
19408SOL    HW258251   2.137  12.885   9.703
19409SOL     OW58252   2.989  12.513  11.000
19409SOL    HW158253   3.036  12.513  11.088
19409SOL    HW258254   2.941  12.426  10.989
19410SOL     OW58255   2.092  12.606   9.848
19410SOL    HW158256   2.066  12.702   9.848
19410SOL    HW258257   2.021  12.552   9.893
19411SOL     OW58258   2.102  12.263  10.196
19411SOL    HW158259   2.116  12.179  10.248
19411SOL    HW258260   2.047  12.327  10.251
19412SOL     OW58261   2.468  12.136   9.433
19412SOL    HW158262   2.475  12.220   9.379
19412SOL    HW258263   2.514  12.149   9.521
19413SOL     OW58264   3.456  11.286  10.790
19413SOL    HW158265   3.438  11.353  10.718
19413SOL    HW258266   3.453  11.332  10.879
19414SOL     OW58267   1.984  11.815   9.873
19414SOL    HW158268   1.939  11.727   9.890
19414SOL    HW258269   1.983  11.869   9.957
19415SOL     OW58270   1.889  12.768   9.427
19415SOL    HW158271   1.870  12.672   9.448
19415SOL    HW258272   1.856  12.826   9.502
19416SOL     OW58273   3.551  12.094   9.922
19416SOL    HW158274   3.646  12.065   9.930
19416SOL    HW258275   3.543  12.159   9.847
19417SOL     OW58276   3.503  12.280   9.742
19417SOL    HW158277   3.589  12.282   9.690
19417SOL    HW258278   3.517  12.327   9.830
19418SOL     OW58279   1.975  11.909  10.907
19418SOL    HW158280   2.063  11.896  10.952
19418SOL    HW258281   1.962  12.006  10.885
19419SOL     OW58282   2.475  12.537  10.036
19419SOL    HW158283   2.426  12.450  10.045
19419SOL    HW258284   2.452  12.580   9.949
19420SOL     OW58285   3.155  12.400  10.733
19420SOL    HW158286   3.192  12.327  10.675
19420SOL    HW258287   3.207  12.405  10.818
19421SOL     OW58288   2.671  11.176   9.812
19421SOL    HW158289   2.711  11.267   9.803
19421SOL    HW258290   2.571  11.184   9.818
19422SOL     OW58291   2.059  12.148  10.574
19422SOL    HW158292   2.148  12.103  10.560
19422SOL    HW258293   1.986  12.083  10.555
19423SOL     OW58294   3.387  12.171   9.500
19423SOL    HW158295   3.324  12.095   9.513
19423SOL    HW258296   3.435  12.189   9.586
19424SOL     OW58297   2.179  11.423  11.111
19424SOL    HW158298   2.250  11.494  11.117
19424SOL    HW258299   2.091  11.462  11.139
19425SOL     OW58300   3.328  12.589  10.263
19425SOL    HW158301   3.269  12.595  10.343
19425SOL    HW258302   3.313  12.501  10.217
19426SOL     OW58303   2.460  11.901   9.580
19426SOL    HW158304   2.484  11.970   9.512
19426SOL    HW258305   2.382  11.934   9.634
19427SOL     OW58306   3.143  11.517  10.254
19427SOL    HW158307   3.057  11.467  10.241
19427SOL    HW258308   3.205  11.463  10.310
19428SOL     OW58309   2.669  11.777  10.775
19428SOL    HW158310   2.622  11.774  10.864
19428SOL    HW258311   2.618  11.722  10.709
19429SOL     OW58312   3.256  11.641  10.984
19429SOL    HW158313   3.236  11.684  11.072
19429SOL    HW258314   3.334  11.579  10.993
19430SOL     OW58315   2.835  12.062  10.882
19430SOL    HW158316   2.881  11.978  10.853
19430SOL    HW258317   2.779  12.096  10.807
19431SOL     OW58318   2.853  11.582  10.552
19431SOL    HW158319   2.776  11.616  10.606
19431SOL    HW258320   2.819  11.531  10.473
19432SOL     OW58321   2.903  11.873   9.739
19432SOL    HW158322   2.929  11.869   9.835
19432SOL    HW258323   2.818  11.822   9.725
19433SOL     OW58324   1.938  11.983  10.099
19433SOL    HW158325   2.037  11.971  10.108
19433SOL    HW258326   1.914  12.078  10.120
19434SOL     OW58327   2.727  11.520   9.505
19434SOL    HW158328   2.786  11.583   9.456
19434SOL    HW258329   2.746  11.426   9.476
19435SOL     OW58330   3.581  11.757  11.141
19435SOL    HW158331   3.555  11.846  11.105
19435SOL    HW258332   3.579  11.689  11.068
19436SOL     OW58333   3.224  12.316   9.855
19436SOL    HW158334   3.307  12.287   9.807
19436SOL    HW258335   3.175  12.383   9.799
19437SOL     OW58336   2.412  11.368  10.195
19437SOL    HW158337   2.407  11.363  10.295
19437SOL    HW258338   2.414  11.464  10.166
19438SOL     OW58339   2.870  12.628   9.787
19438SOL    HW158340   2.824  12.700   9.735
19438SOL    HW258341   2.866  12.648   9.885
19439SOL     OW58342   3.657  12.238  10.183
19439SOL    HW158343   3.595  12.223  10.107
19439SOL    HW258344   3.605  12.249  10.268
19440SOL     OW58345   3.089  12.722  10.816
19440SOL    HW158346   3.095  12.645  10.880
19440SOL    HW258347   3.037  12.696  10.736
19441SOL     OW58348   2.183  12.115   9.552
19441SOL    HW158349   2.265  12.154   9.510
19441SOL    HW258350   2.156  12.033   9.503
19442SOL     OW58351   3.320  11.907  10.038
19442SOL    HW158352   3.315  11.842  10.113
19442SOL    HW258353   3.400  11.966  10.051
19443SOL     OW58354   2.323  12.438  11.037
19443SOL    HW158355   2.273  12.439  10.951
19443SOL    HW258356   2.260  12.420  11.113
19444SOL     OW58357   2.973  12.948   9.547
19444SOL    HW158358   2.913  12.886   9.597
19444SOL    HW258359   3.004  12.904   9.462
19445SOL     OW58360   2.064  11.457  10.808
19445SOL    HW158361   1.984  11.517  10.795
19445SOL    HW258362   2.054  11.408  10.894
19446SOL     OW58363   3.494  12.549   9.391
19446SOL    HW158364   3.462  12.643   9.381
19446SOL    HW258365   3.418  12.486   9.379
19447SOL     OW58366   3.262  11.279   9.736
19447SOL    HW158367   3.238  11.242   9.646
19447SOL    HW258368   3.361  11.295   9.740
19448SOL     OW58369   2.244  11.872   9.790
19448SOL    HW158370   2.289  11.782   9.787
19448SOL    HW258371   2.150  11.861   9.823
19449SOL     OW58372   3.409  11.394  11.039
19449SOL    HW158373   3.404  11.431  11.131
19449SOL    HW258374   3.337  11.325  11.027
19450SOL     OW58375   2.476  11.294   9.427
19450SOL    HW158376   2.574  11.272   9.434
19450SOL    HW258377   2.445  11.277   9.334
19451SOL     OW58378   2.643  11.436  11.059
19451SOL    HW158379   2.710  11.375  11.102
19451SOL    HW258380   2.570  11.455  11.124
19452SOL     OW58381   3.213  11.762  10.743
19452SOL    HW158382   3.241  11.719  10.828
19452SOL    HW258383   3.238  11.858  10.744
19453SOL     OW58384   2.665  12.574  10.234
19453SOL    HW158385   2.755  12.588  10.192
19453SOL    HW258386   2.594  12.576  10.163
19454SOL     OW58387   2.784  11.675  10.209
19454SOL    HW158388   2.759  11.666  10.113
19454SOL    HW258389   2.832  11.593  10.240
19455SOL     OW58390   2.401  11.236   9.822
19455SOL    HW158391   2.320  11.237   9.880
19455SOL    HW258392   2.404  11.319   9.767
19456SOL     OW58393   3.296  12.360   9.351
19456SOL    HW158394   3.328  12.284   9.408
19456SOL    HW258395   3.204  12.387   9.381
19457SOL     OW58396   2.159  11.207   9.481
19457SOL    HW158397   2.208  11.291   9.460
19457SOL    HW258398   2.221  11.142   9.526
19458SOL     OW58399   2.938  11.855  10.774
19458SOL    HW158400   2.858  11.794  10.777
19458SOL    HW258401   3.019  11.802  10.750
19459SOL     OW58402   3.089  12.742  10.103
19459SOL    HW158403   3.110  12.816  10.038
19459SOL    HW258404   3.157  12.742  10.176
19460SOL     OW58405   2.321  12.324  10.051
19460SOL    HW158406   2.250  12.297  10.116
19460SOL    HW258407   2.295  12.296   9.958
19461SOL     OW58408   2.894  11.721   9.326
19461SOL    HW158409   2.853  11.803   9.287
19461SOL    HW258410   2.958  11.747   9.399
19462SOL     OW58411   1.940  11.728  10.696
19462SOL    HW158412   2.032  11.727  10.655
19462SOL    HW258413   1.934  11.802  10.763
19463SOL     OW58414   2.423  11.394  10.457
19463SOL    HW158415   2.461  11.310  10.494
19463SOL    HW258416   2.335  11.413  10.501
19464SOL     OW58417   2.728  11.626   9.952
19464SOL    HW158418   2.696  11.698   9.890
19464SOL    HW258419   2.752  11.545   9.899
19465SOL     OW58420   2.879  11.211  10.063
19465SOL    HW158421   2.807  11.216   9.994
19465SOL    HW258422   2.855  11.142  10.132
19466SOL     OW58423   3.291  12.345  10.177
19466SOL    HW158424   3.236  12.261  10.170
19466SOL    HW258425   3.317  12.374  10.085
19467SOL     OW58426   3.328  11.762  10.302
19467SOL    HW158427   3.298  11.667  10.309
19467SOL    HW258428   3.401  11.778  10.368
19468SOL     OW58429   3.719  12.005   9.687
19468SOL    HW158430   3.761  11.941   9.751
19468SOL    HW258431   3.681  11.954   9.609
19469SOL     OW58432   2.350  12.557   9.484
19469SOL    HW158433   2.263  12.542   9.531
19469SOL    HW258434   2.333  12.583   9.389
19470SOL     OW58435   3.526  12.452   9.967
19470SOL    HW158436   3.625  12.460   9.981
19470SOL    HW258437   3.481  12.536   9.998
19471SOL     OW58438   3.252  11.747   9.388
19471SOL    HW158439   3.198  11.726   9.469
19471SOL    HW258440   3.343  11.706   9.397
19472SOL     OW58441   2.389  11.428   9.638
19472SOL    HW158442   2.416  11.369   9.563
19472SOL    HW258443   2.389  11.523   9.607
19473SOL     OW58444   3.616  12.395  10.898
19473SOL    HW158445   3.707  12.356  10.885
19473SOL    HW258446   3.624  12.491  10.922
19474SOL     OW58447   2.926  12.519  10.650
19474SOL    HW158448   2.846  12.496  10.705
19474SOL    HW258449   3.009  12.493  10.699
19475SOL     OW58450   2.973  12.367  10.410
19475SOL    HW158451   2.933  12.411  10.491
19475SOL    HW258452   2.932  12.404  10.327
19476SOL     OW58453   3.500  12.271  10.389
19476SOL    HW158454   3.505  12.352  10.448
19476SOL    HW258455   3.414  12.273  10.338
19477SOL     OW58456   2.777  11.261  10.712
19477SOL    HW158457   2.802  11.241  10.617
19477SOL    HW258458   2.849  11.317  10.754
19478SOL     OW58459   2.842  12.288  11.029
19478SOL    HW158460   2.743  12.294  11.039
19478SOL    HW258461   2.865  12.208  10.973
19479SOL     OW58462   2.567  12.222   9.678
19479SOL    HW158463   2.553  12.229   9.777
19479SOL    HW258464   2.651  12.171   9.660
19480SOL     OW58465   2.272  11.985  10.561
19480SOL    HW158466   2.358  11.997  10.611
19480SOL    HW258467   2.230  11.898  10.588
19481SOL     OW58468   3.136  11.558  10.572
19481SOL    HW158469   3.157  11.632  10.636
19481SOL    HW258470   3.047  11.575  10.529
19482SOL     OW58471   2.229  12.272   9.811
19482SOL    HW158472   2.222  12.355   9.755
19482SOL    HW258473   2.233  12.192   9.751
19483SOL     OW58474   2.428  11.709  10.175
19483SOL    HW158475   2.440  11.775  10.101
19483SOL    HW258476   2.474  11.743  10.258
19484SOL     OW58477   3.114  12.520   9.698
19484SOL    HW158478   3.164  12.597   9.738
19484SOL    HW258479   3.019  12.522   9.730
19485SOL     OW58480   3.134  12.617  10.452
19485SOL    HW158481   3.181  12.630  10.539
19485SOL    HW258482   3.068  12.543  10.461
19486SOL     OW58483   3.444  11.811   9.782
19486SOL    HW158484   3.413  11.872   9.855
19486SOL    HW258485   3.494  11.863   9.713
19487SOL     OW58486   2.216  12.682  10.639
19487SOL    HW158487   2.195  12.638  10.552
19487SOL    HW258488   2.313  12.708  10.642
19488SOL     OW58489   2.264  11.923  10.908
19488SOL    HW158490   2.332  11.978  10.861
19488SOL    HW258491   2.304  11.835  10.935
19489SOL     OW58492   3.449  11.951  10.980
19489SOL    HW158493   3.357  11.989  10.975
19489SOL    HW258494   3.509  11.998  10.915
19490SOL     OW58495   2.875  11.277  11.080
19490SOL    HW158496   2.881  11.362  11.028
19490SOL    HW258497   2.907  11.201  11.023
19491SOL     OW58498   2.366  11.222  11.050
19491SOL    HW158499   2.324  11.165  10.980
19491SOL    HW258500   2.300  11.291  11.082
19492SOL     OW58501   2.435  12.042  10.339
19492SOL    HW158502   2.479  12.131  10.330
19492SOL    HW258503   2.372  12.042  10.416
19493SOL     OW58504   3.222  12.034  10.355
19493SOL    HW158505   3.147  12.034  10.289
19493SOL    HW258506   3.259  11.942  10.364
19494SOL     OW58507   3.071  11.697   9.585
19494SOL    HW158508   3.084  11.613   9.639
19494SOL    HW258509   3.042  11.771   9.645
19495SOL     OW58510   2.169  11.385  10.541
19495SOL    HW158511   2.146  11.422  10.631
19495SOL    HW258512   2.139  11.290  10.535
19496SOL     OW58513   1.899  12.482  10.592
19496SOL    HW158514   1.952  12.433  10.660
19496SOL    HW258515   1.921  12.580  10.597
19497SOL     OW58516   2.594  11.806  10.374
19497SOL    HW158517   2.653  11.780  10.298
19497SOL    HW258518   2.566  11.902  10.363
19498SOL     OW58519   3.590  12.107  11.164
19498SOL    HW158520   3.544  12.100  11.075
19498SOL    HW258521   3.528  12.151  11.230
19499SOL     OW58522   2.169  11.235   9.928
19499SOL    HW158523   2.158  11.329   9.961
19499SOL    HW258524   2.164  11.172  10.005
19500SOL     OW58525   3.484  11.539   9.684
19500SOL    HW158526   3.486  11.463   9.748
19500SOL    HW258527   3.436  11.616   9.724
19501SOL     OW58528   2.885  11.938  10.276
19501SOL    HW158529   2.900  11.959  10.372
19501SOL    HW258530   2.855  11.843  10.267
19502SOL     OW58531   3.721  12.690  10.915
19502SOL    HW158532   3.735  12.717  10.820
19502SOL    HW258533   3.804  12.712  10.968
19503SOL     OW58534   2.212  12.070  11.114
19503SOL    HW158535   2.288  12.114  11.162
19503SOL    HW258536   2.247  12.023  11.032
19504SOL     OW58537   3.402  11.446   9.435
19504SOL    HW158538   3.341  11.371   9.458
19504SOL    HW258539   3.424  11.498   9.518
19505SOL     OW58540   3.165  12.010   9.352
19505SOL    HW158541   3.199  11.917   9.367
19505SOL    HW258542   3.183  12.037   9.257
19506SOL     OW58543   2.930  12.505  10.159
19506SOL    HW158544   2.937  12.421  10.104
19506SOL    HW258545   2.992  12.574  10.123
19507SOL     OW58546   2.181  11.982  10.259
19507SOL    HW158547   2.274  12.018  10.264
19507SOL    HW258548   2.175  11.897  10.311
19508SOL     OW58549   2.201  11.681  10.316
19508SOL    HW158550   2.149  11.598  10.299
19508SOL    HW258551   2.278  11.686  10.252
19509SOL     OW58552   3.000  11.552  10.988
19509SOL    HW158553   2.955  11.615  11.052
19509SOL    HW258554   3.093  11.583  10.971
19510SOL     OW58555   3.022  11.379  10.787
19510SOL    HW158556   3.022  11.443  10.864
19510SOL    HW258557   3.050  11.427  10.704
19511SOL     OW58558   1.870  12.498   9.510
19511SOL    HW158559   1.777  12.519   9.479
19511SOL    HW258560   1.880  12.399   9.523
19512SOL     OW58561   2.864  11.968  10.548
19512SOL    HW158562   2.905  11.936  10.634
19512SOL    HW258563   2.768  11.941  10.545
19513SOL     OW58564   1.902  11.716  10.424
19513SOL    HW158565   1.987  11.683  10.383
19513SOL    HW258566   1.915  11.731  10.522
19514SOL     OW58567   2.051  11.692  11.032
19514SOL    HW158568   2.110  11.652  10.962
19514SOL    HW258569   1.993  11.763  10.991
19515SOL     OW58570   3.231  12.122  10.970
19515SOL    HW158571   3.270  12.211  10.990
19515SOL    HW258572   3.241  12.102  10.873
19516SOL     OW58573   2.677  11.744   9.635
19516SOL    HW158574   2.684  11.655   9.589
19516SOL    HW258575   2.583  11.778   9.627
19517SOL     OW58576   3.519  11.776  10.516
19517SOL    HW158577   3.481  11.707  10.578
19517SOL    HW258578   3.601  11.740  10.472
19518SOL     OW58579   2.114  12.736  11.054
19518SOL    HW158580   2.084  12.793  11.130
19518SOL    HW258581   2.107  12.639  11.080
19519SOL     OW58582   2.533  11.636  10.579
19519SOL    HW158583   2.499  11.547  10.549
19519SOL    HW258584   2.559  11.690  10.499
19520SOL     OW58585   2.335  11.672   9.501
19520SOL    HW158586   2.396  11.752   9.505
19520SOL    HW258587   2.240  11.703   9.508
19521SOL     OW58588   2.021  12.309  10.776
19521SOL    HW158589   2.043  12.248  10.852
19521SOL    HW258590   2.031  12.260  10.690
19522SOL     OW58591   3.209  12.231  10.544
19522SOL    HW158592   3.233  12.168  10.470
19522SOL    HW258593   3.119  12.271  10.526
19523SOL     OW58594   3.164  12.027   9.619
19523SOL    HW158595   3.078  11.996   9.661
19523SOL    HW258596   3.160  12.013   9.520
19524SOL     OW58597   1.945  12.430  10.332
19524SOL    HW158598   1.940  12.429  10.432
19524SOL    HW258599   1.862  12.389  10.294
19525SOL     OW58600   3.588  11.307   9.833
19525SOL    HW158601   3.661  11.290   9.766
19525SOL    HW258602   3.557  11.220   9.871
19526SOL     OW58603   3.142  12.099   9.982
19526SOL    HW158604   3.202  12.018   9.984
19526SOL    HW258605   3.182  12.168   9.922
19527SOL     OW58606   2.692  12.445  10.732
19527SOL    HW158607   2.687  12.478  10.827
19527SOL    HW258608   2.606  12.464  10.686
19528SOL     OW58609   3.703  11.347  10.273
19528SOL    HW158610   3.742  11.262  10.237
19528SOL    HW258611   3.605  11.349  10.254
19529SOL     OW58612   2.125  11.498  10.030
19529SOL    HW158613   2.046  11.549   9.996
19529SOL    HW258614   2.116  11.483  10.128
19530SOL     OW58615   2.684  12.174  10.682
19530SOL    HW158616   2.724  12.173  10.590
19530SOL    HW258617   2.694  12.266  10.722
19531SOL     OW58618   2.778  12.082   9.601
19531SOL    HW158619   2.841  12.120   9.533
19531SOL    HW258620   2.818  11.999   9.640
19532SOL     OW58621   2.234  12.460  10.800
19532SOL    HW158622   2.221  12.553  10.766
19532SOL    HW258623   2.150  12.408  10.787
19533SOL     OW58624   3.476  12.464  10.599
19533SOL    HW158625   3.536  12.467  10.679
19533SOL    HW258626   3.401  12.528  10.612
19534SOL     OW58627   2.901  12.270  10.006
19534SOL    HW158628   2.831  12.223  10.060
19534SOL    HW258629   2.960  12.202   9.963
19535SOL     OW58630   2.876  11.408  10.281
19535SOL    HW158631   2.868  11.372  10.188
19535SOL    HW258632   2.874  11.332  10.346
19536SOL     OW58633   3.571  11.557  10.691
19536SOL    HW158634   3.644  11.626  10.695
19536SOL    HW258635   3.599  11.482  10.632
19537SOL     OW58636   2.117  12.520   9.600
19537SOL    HW158637   2.021  12.521   9.573
19537SOL    HW258638   2.129  12.573   9.684
19538SOL     OW58639   1.967  12.185  11.036
19538SOL    HW158640   1.890  12.152  11.090
19538SOL    HW258641   2.052  12.155  11.078
19539SOL     OW58642   2.534  11.375  10.799
19539SOL    HW158643   2.624  11.359  10.759
19539SOL    HW258644   2.542  11.380  10.898
19540SOL     OW58645   1.937  11.517   9.343
19540SOL    HW158646   1.845  11.489   9.314
19540SOL    HW258647   1.968  11.594   9.287
19541SOL     OW58648   3.302  12.028  10.708
19541SOL    HW158649   3.245  12.080  10.645
19541SOL    HW258650   3.398  12.040  10.684
19542SOL     OW58651   1.934  11.338   9.628
19542SOL    HW158652   1.917  11.421   9.574
19542SOL    HW258653   2.024  11.301   9.606
19543SOL     OW58654   3.045  12.507   9.429
19543SOL    HW158655   2.946  12.496   9.431
19543SOL    HW258656   3.079  12.522   9.522
19544SOL     OW58657   2.475  12.014  10.741
19544SOL    HW158658   2.531  12.095  10.724
19544SOL    HW258659   2.534  11.934  10.744
19545SOL     OW58660   2.578  11.737  11.018
19545SOL    HW158661   2.597  11.802  11.092
19545SOL    HW258662   2.638  11.657  11.027
19546SOL     OW58663   3.312  12.392  10.943
19546SOL    HW158664   3.303  12.382  11.042
19546SOL    HW258665   3.408  12.385  10.917
19547SOL     OW58666   3.536  12.055  10.564
19547SOL    HW158667   3.509  11.966  10.527
19547SOL    HW258668   3.537  12.123  10.491
19548SOL     OW58669   3.087  11.497   9.759
19548SOL    HW158670   3.152  11.423   9.748
19548SOL    HW258671   3.107  11.547   9.843
19549SOL     OW58672   2.456  11.917   9.962
19549SOL    HW158673   2.506  12.002   9.943
19549SOL    HW258674   2.368  11.919   9.914
19550SOL     OW58675   3.639  11.514  10.952
19550SOL    HW158676   3.622  11.545  10.858
19550SOL    HW258677   3.555  11.477  10.990
19551SOL     OW58678   3.592  12.106  10.827
19551SOL    HW158679   3.630  12.197  10.842
19551SOL    HW258680   3.584  12.089  10.728
19552SOL     OW58681   2.721  12.546   9.326
19552SOL    HW158682   2.675  12.561   9.414
19552SOL    HW258683   2.765  12.631   9.296
19553SOL     OW58684   2.721  12.128  10.171
19553SOL    HW158685   2.775  12.059  10.219
19553SOL    HW258686   2.689  12.197  10.237
19554SOL     OW58687   2.945  12.156   9.397
19554SOL    HW158688   2.922  12.209   9.315
19554SOL    HW258689   3.026  12.100   9.378
19555SOL     OW58690   2.083  12.486  11.154
19555SOL    HW158691   2.018  12.413  11.133
19555SOL    HW258692   2.087  12.500  11.252
19556SOL     OW58693   1.941  12.412   9.963
19556SOL    HW158694   1.940  12.365  10.051
19556SOL    HW258695   2.023  12.384   9.912
19557SOL     OW58696   2.534  12.563  10.934
19557SOL    HW158697   2.456  12.513  10.972
19557SOL    HW258698   2.531  12.658  10.965
19558SOL     OW58699   3.686  11.364  10.537
19558SOL    HW158700   3.682  11.274  10.581
19558SOL    HW258701   3.689  11.353  10.438
19559SOL     OW58702   2.290  11.596   9.830
19559SOL    HW158703   2.320  11.524   9.768
19559SOL    HW258704   2.251  11.556   9.913
19560SOL     OW58705   3.567  12.659  10.414
19560SOL    HW158706   3.474  12.634  10.387
19560SOL    HW258707   3.593  12.609  10.496
19561SOL     OW58708   2.179  11.719  10.590
19561SOL    HW158709   2.217  11.660  10.662
19561SOL    HW258710   2.219  11.693  10.502
19562SOL     OW58711   3.286  11.386  10.422
19562SOL    HW158712   3.338  11.321  10.477
19562SOL    HW258713   3.237  11.449  10.483
19563SOL     OW58714   2.863  11.206  10.464
19563SOL    HW158715   2.800  11.134  10.433
19563SOL    HW258716   2.956  11.170  10.464
19564SOL     OW58717   2.632  12.502   9.611
19564SOL    HW158718   2.586  12.415   9.628
19564SOL    HW258719   2.723  12.499   9.652
19565SOL     OW58720   2.480  12.739  10.594
19565SOL    HW158721   2.475  12.821  10.651
19565SOL    HW258722   2.569  12.736  10.549
19566SOL     OW58723   3.214  11.224   9.478
19566SOL    HW158724   3.249  11.183   9.394
19566SOL    HW258725   3.124  11.186   9.498
19567SOL     OW58726   3.162  11.625  10.001
19567SOL    HW158727   3.103  11.705  10.005
19567SOL    HW258728   3.177  11.590  10.094
19568SOL     OW58729   3.455  11.393  10.192
19568SOL    HW158730   3.371  11.392  10.246
19568SOL    HW258731   3.457  11.476  10.136
19569SOL     OW58732   1.901  12.249   9.610
19569SOL    HW158733   2.000  12.238   9.601
19569SOL    HW258734   1.861  12.163   9.642
19570SOL     OW58735   2.092  11.800  11.285
19570SOL    HW158736   1.999  11.798  11.322
19570SOL    HW258737   2.093  11.761  11.193
19571SOL     OW58738   2.087  11.447  12.168
19571SOL    HW158739   2.122  11.430  12.260
19571SOL    HW258740   1.999  11.402  12.156
19572SOL     OW58741   1.881  11.540  11.819
19572SOL    HW158742   1.799  11.583  11.858
19572SOL    HW258743   1.853  11.467  11.756
19573SOL     OW58744   2.431  12.447  12.337
19573SOL    HW158745   2.338  12.440  12.300
19573SOL    HW258746   2.442  12.536  12.381
19574SOL     OW58747   3.417  12.683  11.875
19574SOL    HW158748   3.360  12.667  11.956
19574SOL    HW258749   3.358  12.693  11.795
19575SOL     OW58750   2.997  11.875  11.889
19575SOL    HW158751   3.054  11.953  11.864
19575SOL    HW258752   2.937  11.901  11.965
19576SOL     OW58753   3.617  11.779  11.403
19576SOL    HW158754   3.605  11.766  11.304
19576SOL    HW258755   3.587  11.698  11.452
19577SOL     OW58756   2.630  12.316  12.195
19577SOL    HW158757   2.552  12.333  12.255
19577SOL    HW258758   2.664  12.403  12.159
19578SOL     OW58759   2.547  12.184  11.837
19578SOL    HW158760   2.616  12.168  11.907
19578SOL    HW258761   2.474  12.241  11.875
19579SOL     OW58762   2.197  12.607  12.233
19579SOL    HW158763   2.119  12.576  12.180
19579SOL    HW258764   2.255  12.665  12.176
19580SOL     OW58765   3.322  12.677  12.511
19580SOL    HW158766   3.346  12.771  12.537
19580SOL    HW258767   3.306  12.623  12.593
19581SOL     OW58768   2.300  11.564  12.671
19581SOL    HW158769   2.382  11.508  12.680
19581SOL    HW258770   2.219  11.506  12.675
19582SOL     OW58771   3.465  11.619  11.909
19582SOL    HW158772   3.391  11.665  11.859
19582SOL    HW258773   3.516  11.687  11.962
19583SOL     OW58774   2.093  12.885  11.655
19583SOL    HW158775   2.127  12.962  11.709
19583SOL    HW258776   2.137  12.885  11.565
19584SOL     OW58777   2.092  12.606  11.710
19584SOL    HW158778   2.066  12.702  11.710
19584SOL    HW258779   2.021  12.552  11.755
19585SOL     OW58780   2.102  12.263  12.058
19585SOL    HW158781   2.116  12.179  12.110
19585SOL    HW258782   2.047  12.327  12.113
19586SOL     OW58783   2.468  12.136  11.295
19586SOL    HW158784   2.475  12.220  11.241
19586SOL    HW258785   2.514  12.149  11.383
19587SOL     OW58786   3.456  11.286  12.652
19587SOL    HW158787   3.438  11.353  12.580
19587SOL    HW258788   3.453  11.332  12.741
19588SOL     OW58789   1.984  11.815  11.735
19588SOL    HW158790   1.939  11.727  11.752
19588SOL    HW258791   1.983  11.869  11.819
19589SOL     OW58792   1.889  12.768  11.289
19589SOL    HW158793   1.870  12.672  11.310
19589SOL    HW258794   1.856  12.826  11.364
19590SOL     OW58795   3.551  12.094  11.784
19590SOL    HW158796   3.646  12.065  11.792
19590SOL    HW258797   3.543  12.159  11.709
19591SOL     OW58798   3.503  12.280  11.604
19591SOL    HW158799   3.589  12.282  11.552
19591SOL    HW258800   3.517  12.327  11.692
19592SOL     OW58801   2.475  12.537  11.898
19592SOL    HW158802   2.426  12.450  11.907
19592SOL    HW258803   2.452  12.580  11.811
19593SOL     OW58804   2.671  11.176  11.674
19593SOL    HW158805   2.711  11.267  11.665
19593SOL    HW258806   2.571  11.184  11.680
19594SOL     OW58807   2.059  12.148  12.436
19594SOL    HW158808   2.148  12.103  12.422
19594SOL    HW258809   1.986  12.083  12.417
19595SOL     OW58810   3.387  12.171  11.362
19595SOL    HW158811   3.324  12.095  11.375
19595SOL    HW258812   3.435  12.189  11.448
19596SOL     OW58813   2.179  11.423  12.973
19596SOL    HW158814   2.250  11.494  12.979
19596SOL    HW258815   2.091  11.462  13.001
19597SOL     OW58816   3.328  12.589  12.125
19597SOL    HW158817   3.269  12.595  12.205
19597SOL    HW258818   3.313  12.501  12.079
19598SOL     OW58819   2.460  11.901  11.442
19598SOL    HW158820   2.484  11.970  11.374
19598SOL    HW258821   2.382  11.934  11.496
19599SOL     OW58822   3.143  11.517  12.116
19599SOL    HW158823   3.057  11.467  12.103
19599SOL    HW258824   3.205  11.463  12.172
19600SOL     OW58825   2.669  11.777  12.637
19600SOL    HW158826   2.622  11.774  12.726
19600SOL    HW258827   2.618  11.722  12.571
19601SOL     OW58828   2.853  11.582  12.414
19601SOL    HW158829   2.776  11.616  12.468
19601SOL    HW258830   2.819  11.531  12.335
19602SOL     OW58831   2.903  11.873  11.601
19602SOL    HW158832   2.929  11.869  11.697
19602SOL    HW258833   2.818  11.822  11.587
19603SOL     OW58834   1.938  11.983  11.961
19603SOL    HW158835   2.037  11.971  11.970
19603SOL    HW258836   1.914  12.078  11.982
19604SOL     OW58837   2.727  11.520  11.367
19604SOL    HW158838   2.786  11.583  11.318
19604SOL    HW258839   2.746  11.426  11.338
19605SOL     OW58840   3.224  12.316  11.717
19605SOL    HW158841   3.307  12.287  11.669
19605SOL    HW258842   3.175  12.383  11.661
19606SOL     OW58843   2.412  11.368  12.057
19606SOL    HW158844   2.407  11.363  12.157
19606SOL    HW258845   2.414  11.464  12.028
19607SOL     OW58846   2.870  12.628  11.649
19607SOL    HW158847   2.824  12.700  11.597
19607SOL    HW258848   2.866  12.648  11.747
19608SOL     OW58849   3.657  12.238  12.045
19608SOL    HW158850   3.595  12.223  11.969
19608SOL    HW258851   3.605  12.249  12.130
19609SOL     OW58852   2.183  12.115  11.414
19609SOL    HW158853   2.265  12.154  11.372
19609SOL    HW258854   2.156  12.033  11.365
19610SOL     OW58855   3.320  11.907  11.900
19610SOL    HW158856   3.315  11.842  11.975
19610SOL    HW258857   3.400  11.966  11.913
19611SOL     OW58858   2.973  12.948  11.409
19611SOL    HW158859   2.913  12.886  11.459
19611SOL    HW258860   3.004  12.904  11.324
19612SOL     OW58861   2.064  11.457  12.670
19612SOL    HW158862   1.984  11.517  12.657
19612SOL    HW258863   2.054  11.408  12.756
19613SOL     OW58864   3.494  12.549  11.253
19613SOL    HW158865   3.462  12.643  11.243
19613SOL    HW258866   3.418  12.486  11.241
19614SOL     OW58867   3.262  11.279  11.598
19614SOL    HW158868   3.238  11.242  11.508
19614SOL    HW258869   3.361  11.295  11.602
19615SOL     OW58870   2.244  11.872  11.652
19615SOL    HW158871   2.289  11.782  11.649
19615SOL    HW258872   2.150  11.861  11.685
19616SOL     OW58873   2.476  11.294  11.289
19616SOL    HW158874   2.574  11.272  11.296
19616SOL    HW258875   2.445  11.277  11.196
19617SOL     OW58876   2.665  12.574  12.096
19617SOL    HW158877   2.755  12.588  12.054
19617SOL    HW258878   2.594  12.576  12.025
19618SOL     OW58879   2.784  11.675  12.071
19618SOL    HW158880   2.759  11.666  11.975
19618SOL    HW258881   2.832  11.593  12.102
19619SOL     OW58882   2.401  11.236  11.684
19619SOL    HW158883   2.320  11.237  11.742
19619SOL    HW258884   2.404  11.319  11.629
19620SOL     OW58885   3.296  12.360  11.213
19620SOL    HW158886   3.328  12.284  11.270
19620SOL    HW258887   3.204  12.387  11.243
19621SOL     OW58888   2.159  11.207  11.343
19621SOL    HW158889   2.208  11.291  11.322
19621SOL    HW258890   2.221  11.142  11.388
19622SOL     OW58891   2.797  11.408  11.652
19622SOL    HW158892   2.749  11.449  11.574
19622SOL    HW258893   2.896  11.406  11.633
19623SOL     OW58894   3.089  12.742  11.965
19623SOL    HW158895   3.110  12.816  11.900
19623SOL    HW258896   3.157  12.742  12.038
19624SOL     OW58897   2.321  12.324  11.913
19624SOL    HW158898   2.250  12.297  11.978
19624SOL    HW258899   2.295  12.296  11.820
19625SOL     OW58900   2.894  11.721  11.188
19625SOL    HW158901   2.853  11.803  11.149
19625SOL    HW258902   2.958  11.747  11.261
19626SOL     OW58903   1.940  11.728  12.558
19626SOL    HW158904   2.032  11.727  12.517
19626SOL    HW258905   1.934  11.802  12.625
19627SOL     OW58906   2.423  11.394  12.319
19627SOL    HW158907   2.461  11.310  12.356
19627SOL    HW258908   2.335  11.413  12.363
19628SOL     OW58909   2.728  11.626  11.814
19628SOL    HW158910   2.696  11.698  11.752
19628SOL    HW258911   2.752  11.545  11.761
19629SOL     OW58912   2.879  11.211  11.925
19629SOL    HW158913   2.807  11.216  11.856
19629SOL    HW258914   2.855  11.142  11.994
19630SOL     OW58915   3.291  12.345  12.039
19630SOL    HW158916   3.236  12.261  12.032
19630SOL    HW258917   3.317  12.374  11.947
19631SOL     OW58918   3.328  11.762  12.164
19631SOL    HW158919   3.298  11.667  12.171
19631SOL    HW258920   3.401  11.778  12.230
19632SOL     OW58921   3.719  12.005  11.549
19632SOL    HW158922   3.761  11.941  11.613
19632SOL    HW258923   3.681  11.954  11.471
19633SOL     OW58924   2.350  12.557  11.346
19633SOL    HW158925   2.263  12.542  11.393
19633SOL    HW258926   2.333  12.583  11.251
19634SOL     OW58927   3.526  12.452  11.829
19634SOL    HW158928   3.625  12.460  11.843
19634SOL    HW258929   3.481  12.536  11.860
19635SOL     OW58930   3.252  11.747  11.250
19635SOL    HW158931   3.198  11.726  11.331
19635SOL    HW258932   3.343  11.706  11.259
19636SOL     OW58933   2.389  11.428  11.500
19636SOL    HW158934   2.416  11.369  11.425
19636SOL    HW258935   2.389  11.523  11.469
19637SOL     OW58936   2.926  12.519  12.512
19637SOL    HW158937   2.846  12.496  12.567
19637SOL    HW258938   3.009  12.493  12.561
19638SOL     OW58939   2.973  12.367  12.272
19638SOL    HW158940   2.933  12.411  12.353
19638SOL    HW258941   2.932  12.404  12.189
19639SOL     OW58942   3.500  12.271  12.251
19639SOL    HW158943   3.505  12.352  12.310
19639SOL    HW258944   3.414  12.273  12.200
19640SOL     OW58945   2.777  11.261  12.574
19640SOL    HW158946   2.802  11.241  12.479
19640SOL    HW258947   2.849  11.317  12.616
19641SOL     OW58948   2.567  12.222  11.540
19641SOL    HW158949   2.553  12.229  11.639
19641SOL    HW258950   2.651  12.171  11.522
19642SOL     OW58951   2.272  11.985  12.423
19642SOL    HW158952   2.358  11.997  12.473
19642SOL    HW258953   2.230  11.898  12.450
19643SOL     OW58954   3.136  11.558  12.434
19643SOL    HW158955   3.157  11.632  12.498
19643SOL    HW258956   3.047  11.575  12.391
19644SOL     OW58957   2.229  12.272  11.673
19644SOL    HW158958   2.222  12.355  11.617
19644SOL    HW258959   2.233  12.192  11.613
19645SOL     OW58960   2.428  11.709  12.037
19645SOL    HW158961   2.440  11.775  11.963
19645SOL    HW258962   2.474  11.743  12.120
19646SOL     OW58963   3.114  12.520  11.560
19646SOL    HW158964   3.164  12.597  11.600
19646SOL    HW258965   3.019  12.522  11.592
19647SOL     OW58966   3.134  12.617  12.314
19647SOL    HW158967   3.181  12.630  12.401
19647SOL    HW258968   3.068  12.543  12.323
19648SOL     OW58969   3.444  11.811  11.644
19648SOL    HW158970   3.413  11.872  11.717
19648SOL    HW258971   3.494  11.863  11.575
19649SOL     OW58972   2.216  12.682  12.501
19649SOL    HW158973   2.195  12.638  12.414
19649SOL    HW258974   2.313  12.708  12.504
19650SOL     OW58975   2.264  11.923  12.770
19650SOL    HW158976   2.332  11.978  12.723
19650SOL    HW258977   2.304  11.835  12.797
19651SOL     OW58978   3.449  11.951  12.842
19651SOL    HW158979   3.357  11.989  12.837
19651SOL    HW258980   3.509  11.998  12.777
19652SOL     OW58981   2.435  12.042  12.201
19652SOL    HW158982   2.479  12.131  12.192
19652SOL    HW258983   2.372  12.042  12.278
19653SOL     OW58984   3.222  12.034  12.217
19653SOL    HW158985   3.147  12.034  12.151
19653SOL    HW258986   3.259  11.942  12.226
19654SOL     OW58987   3.071  11.697  11.447
19654SOL    HW158988   3.084  11.613  11.501
19654SOL    HW258989   3.042  11.771  11.507
19655SOL     OW58990   2.169  11.385  12.403
19655SOL    HW158991   2.146  11.422  12.493
19655SOL    HW258992   2.139  11.290  12.397
19656SOL     OW58993   1.899  12.482  12.454
19656SOL    HW158994   1.952  12.433  12.522
19656SOL    HW258995   1.921  12.580  12.459
19657SOL     OW58996   2.594  11.806  12.236
19657SOL    HW158997   2.653  11.780  12.160
19657SOL    HW258998   2.566  11.902  12.225
19658SOL     OW58999   2.169  11.235  11.790
19658SOL    HW159000   2.158  11.329  11.823
19658SOL    HW259001   2.164  11.172  11.867
19659SOL     OW59002   3.484  11.539  11.546
19659SOL    HW159003   3.486  11.463  11.610
19659SOL    HW259004   3.436  11.616  11.586
19660SOL     OW59005   2.885  11.938  12.138
19660SOL    HW159006   2.900  11.959  12.234
19660SOL    HW259007   2.855  11.843  12.129
19661SOL     OW59008   3.402  11.446  11.297
19661SOL    HW159009   3.341  11.371  11.320
19661SOL    HW259010   3.424  11.498  11.380
19662SOL     OW59011   2.930  12.505  12.021
19662SOL    HW159012   2.937  12.421  11.966
19662SOL    HW259013   2.992  12.574  11.985
19663SOL     OW59014   2.181  11.982  12.121
19663SOL    HW159015   2.274  12.018  12.126
19663SOL    HW259016   2.175  11.897  12.173
19664SOL     OW59017   2.201  11.681  12.178
19664SOL    HW159018   2.149  11.598  12.161
19664SOL    HW259019   2.278  11.686  12.114
19665SOL     OW59020   3.000  11.552  12.850
19665SOL    HW159021   2.955  11.615  12.914
19665SOL    HW259022   3.093  11.583  12.833
19666SOL     OW59023   3.022  11.379  12.649
19666SOL    HW159024   3.022  11.443  12.726
19666SOL    HW259025   3.050  11.427  12.566
19667SOL     OW59026   1.870  12.498  11.372
19667SOL    HW159027   1.777  12.519  11.341
19667SOL    HW259028   1.880  12.399  11.385
19668SOL     OW59029   2.864  11.968  12.410
19668SOL    HW159030   2.905  11.936  12.496
19668SOL    HW259031   2.768  11.941  12.407
19669SOL     OW59032   1.902  11.716  12.286
19669SOL    HW159033   1.987  11.683  12.245
19669SOL    HW259034   1.915  11.731  12.384
19670SOL     OW59035   2.677  11.744  11.497
19670SOL    HW159036   2.684  11.655  11.451
19670SOL    HW259037   2.583  11.778  11.489
19671SOL     OW59038   3.519  11.776  12.378
19671SOL    HW159039   3.481  11.707  12.440
19671SOL    HW259040   3.601  11.740  12.334
19672SOL     OW59041   2.533  11.636  12.441
19672SOL    HW159042   2.499  11.547  12.411
19672SOL    HW259043   2.559  11.690  12.361
19673SOL     OW59044   2.335  11.672  11.363
19673SOL    HW159045   2.396  11.752  11.367
19673SOL    HW259046   2.240  11.703  11.370
19674SOL     OW59047   2.021  12.309  12.638
19674SOL    HW159048   2.043  12.248  12.714
19674SOL    HW259049   2.031  12.260  12.552
19675SOL     OW59050   3.209  12.231  12.406
19675SOL    HW159051   3.233  12.168  12.332
19675SOL    HW259052   3.119  12.271  12.388
19676SOL     OW59053   3.164  12.027  11.481
19676SOL    HW159054   3.078  11.996  11.523
19676SOL    HW259055   3.160  12.013  11.382
19677SOL     OW59056   1.945  12.430  12.194
19677SOL    HW159057   1.940  12.429  12.294
19677SOL    HW259058   1.862  12.389  12.156
19678SOL     OW59059   3.588  11.307  11.695
19678SOL    HW159060   3.661  11.290  11.628
19678SOL    HW259061   3.557  11.220  11.733
19679SOL     OW59062   3.142  12.099  11.844
19679SOL    HW159063   3.202  12.018  11.846
19679SOL    HW259064   3.182  12.168  11.784
19680SOL     OW59065   3.703  11.347  12.135
19680SOL    HW159066   3.742  11.262  12.099
19680SOL    HW259067   3.605  11.349  12.116
19681SOL     OW59068   2.125  11.498  11.892
19681SOL    HW159069   2.046  11.549  11.858
19681SOL    HW259070   2.116  11.483  11.990
19682SOL     OW59071   2.684  12.174  12.544
19682SOL    HW159072   2.724  12.173  12.452
19682SOL    HW259073   2.694  12.266  12.584
19683SOL     OW59074   2.778  12.082  11.463
19683SOL    HW159075   2.841  12.120  11.395
19683SOL    HW259076   2.818  11.999  11.502
19684SOL     OW59077   2.234  12.460  12.662
19684SOL    HW159078   2.221  12.553  12.628
19684SOL    HW259079   2.150  12.408  12.649
19685SOL     OW59080   3.476  12.464  12.461
19685SOL    HW159081   3.536  12.467  12.541
19685SOL    HW259082   3.401  12.528  12.474
19686SOL     OW59083   2.901  12.270  11.868
19686SOL    HW159084   2.831  12.223  11.922
19686SOL    HW259085   2.960  12.202  11.825
19687SOL     OW59086   2.876  11.408  12.143
19687SOL    HW159087   2.868  11.372  12.050
19687SOL    HW259088   2.874  11.332  12.208
19688SOL     OW59089   3.571  11.557  12.553
19688SOL    HW159090   3.644  11.626  12.557
19688SOL    HW259091   3.599  11.482  12.494
19689SOL     OW59092   2.117  12.520  11.462
19689SOL    HW159093   2.021  12.521  11.435
19689SOL    HW259094   2.129  12.573  11.546
19690SOL     OW59095   1.937  11.517  11.205
19690SOL    HW159096   1.845  11.489  11.176
19690SOL    HW259097   1.968  11.594  11.149
19691SOL     OW59098   3.302  12.028  12.570
19691SOL    HW159099   3.245  12.080  12.507
19691SOL    HW259100   3.398  12.040  12.546
19692SOL     OW59101   1.934  11.338  11.490
19692SOL    HW159102   1.917  11.421  11.436
19692SOL    HW259103   2.024  11.301  11.468
19693SOL     OW59104   3.045  12.507  11.291
19693SOL    HW159105   2.946  12.496  11.293
19693SOL    HW259106   3.079  12.522  11.384
19694SOL     OW59107   2.475  12.014  12.603
19694SOL    HW159108   2.531  12.095  12.586
19694SOL    HW259109   2.534  11.934  12.606
19695SOL     OW59110   3.536  12.055  12.426
19695SOL    HW159111   3.509  11.966  12.389
19695SOL    HW259112   3.537  12.123  12.353
19696SOL     OW59113   3.087  11.497  11.621
19696SOL    HW159114   3.152  11.423  11.610
19696SOL    HW259115   3.107  11.547  11.705
19697SOL     OW59116   2.456  11.917  11.824
19697SOL    HW159117   2.506  12.002  11.805
19697SOL    HW259118   2.368  11.919  11.776
19698SOL     OW59119   3.639  11.514  12.814
19698SOL    HW159120   3.622  11.545  12.720
19698SOL    HW259121   3.555  11.477  12.852
19699SOL     OW59122   3.592  12.106  12.689
19699SOL    HW159123   3.630  12.197  12.704
19699SOL    HW259124   3.584  12.089  12.590
19700SOL     OW59125   2.721  12.546  11.188
19700SOL    HW159126   2.675  12.561  11.276
19700SOL    HW259127   2.765  12.631  11.158
19701SOL     OW59128   2.721  12.128  12.033
19701SOL    HW159129   2.775  12.059  12.081
19701SOL    HW259130   2.689  12.197  12.099
19702SOL     OW59131   2.945  12.156  11.259
19702SOL    HW159132   2.922  12.209  11.177
19702SOL    HW259133   3.026  12.100  11.240
19703SOL     OW59134   1.941  12.412  11.825
19703SOL    HW159135   1.940  12.365  11.913
19703SOL    HW259136   2.023  12.384  11.774
19704SOL     OW59137   3.686  11.364  12.399
19704SOL    HW159138   3.682  11.274  12.443
19704SOL    HW259139   3.689  11.353  12.300
19705SOL     OW59140   2.290  11.596  11.692
19705SOL    HW159141   2.320  11.524  11.630
19705SOL    HW259142   2.251  11.556  11.775
19706SOL     OW59143   3.567  12.659  12.276
19706SOL    HW159144   3.474  12.634  12.249
19706SOL    HW259145   3.593  12.609  12.358
19707SOL     OW59146   2.179  11.719  12.452
19707SOL    HW159147   2.217  11.660  12.524
19707SOL    HW259148   2.219  11.693  12.364
19708SOL     OW59149   3.286  11.386  12.284
19708SOL    HW159150   3.338  11.321  12.339
19708SOL    HW259151   3.237  11.449  12.345
19709SOL     OW59152   2.863  11.206  12.326
19709SOL    HW159153   2.800  11.134  12.295
19709SOL    HW259154   2.956  11.170  12.326
19710SOL     OW59155   2.632  12.502  11.473
19710SOL    HW159156   2.586  12.415  11.490
19710SOL    HW259157   2.723  12.499  11.514
19711SOL     OW59158   2.480  12.739  12.456
19711SOL    HW159159   2.475  12.821  12.513
19711SOL    HW259160   2.569  12.736  12.411
19712SOL     OW59161   3.214  11.224  11.340
19712SOL    HW159162   3.249  11.183  11.256
19712SOL    HW259163   3.124  11.186  11.360
19713SOL     OW59164   3.162  11.625  11.863
19713SOL    HW159165   3.103  11.705  11.867
19713SOL    HW259166   3.177  11.590  11.956
19714SOL     OW59167   3.455  11.393  12.054
19714SOL    HW159168   3.371  11.392  12.108
19714SOL    HW259169   3.457  11.476  11.998
19715SOL     OW59170   1.901  12.249  11.472
19715SOL    HW159171   2.000  12.238  11.463
19715SOL    HW259172   1.861  12.163  11.504
19716SOL     OW59173   3.954   0.628   0.113
19716SOL    HW159174   3.861   0.626   0.150
19716SOL    HW259175   3.955   0.589   0.021
19717SOL     OW59176   3.949   0.275   0.996
19717SOL    HW159177   3.984   0.258   1.088
19717SOL    HW259178   3.861   0.230   0.984
19718SOL     OW59179   3.743   0.368   0.647
19718SOL    HW159180   3.661   0.411   0.686
19718SOL    HW259181   3.715   0.295   0.584
19719SOL     OW59182   4.293   1.275   1.165
19719SOL    HW159183   4.200   1.268   1.128
19719SOL    HW259184   4.304   1.364   1.209
19720SOL     OW59185   5.279   1.511   0.703
19720SOL    HW159186   5.222   1.495   0.784
19720SOL    HW259187   5.220   1.521   0.623
19721SOL     OW59188   4.859   0.703   0.717
19721SOL    HW159189   4.916   0.781   0.692
19721SOL    HW259190   4.799   0.729   0.793
19722SOL     OW59191   5.479   0.607   0.231
19722SOL    HW159192   5.467   0.594   0.132
19722SOL    HW259193   5.449   0.526   0.280
19723SOL     OW59194   4.492   1.144   1.023
19723SOL    HW159195   4.414   1.161   1.083
19723SOL    HW259196   4.526   1.231   0.987
19724SOL     OW59197   4.409   1.012   0.665
19724SOL    HW159198   4.478   0.996   0.735
19724SOL    HW259199   4.336   1.069   0.703
19725SOL     OW59200   4.410   1.161   1.803
19725SOL    HW159201   4.470   1.240   1.817
19725SOL    HW259202   4.324   1.192   1.762
19726SOL     OW59203   4.059   1.435   1.061
19726SOL    HW159204   3.981   1.404   1.008
19726SOL    HW259205   4.117   1.493   1.004
19727SOL     OW59206   5.184   1.505   1.339
19727SOL    HW159207   5.208   1.599   1.365
19727SOL    HW259208   5.168   1.451   1.421
19728SOL     OW59209   4.162   0.392   1.499
19728SOL    HW159210   4.244   0.336   1.508
19728SOL    HW259211   4.081   0.334   1.503
19729SOL     OW59212   5.327   0.447   0.737
19729SOL    HW159213   5.253   0.493   0.687
19729SOL    HW259214   5.378   0.515   0.790
19730SOL     OW59215   3.955   1.713   0.483
19730SOL    HW159216   3.989   1.790   0.537
19730SOL    HW259217   3.999   1.713   0.393
19731SOL     OW59218   4.851   1.341   1.690
19731SOL    HW159219   4.898   1.341   1.778
19731SOL    HW259220   4.803   1.254   1.679
19732SOL     OW59221   3.954   1.434   0.538
19732SOL    HW159222   3.928   1.530   0.538
19732SOL    HW259223   3.883   1.380   0.583
19733SOL     OW59224   3.964   1.091   0.886
19733SOL    HW159225   3.978   1.007   0.938
19733SOL    HW259226   3.909   1.155   0.941
19734SOL     OW59227   4.344   1.786   1.439
19734SOL    HW159228   4.252   1.769   1.474
19734SOL    HW259229   4.372   1.878   1.465
19735SOL     OW59230   4.330   0.964   0.123
19735SOL    HW159231   4.337   1.048   0.069
19735SOL    HW259232   4.376   0.977   0.211
19736SOL     OW59233   5.318   0.114   1.480
19736SOL    HW159234   5.300   0.181   1.408
19736SOL    HW259235   5.315   0.160   1.569
19737SOL     OW59236   3.846   0.643   0.563
19737SOL    HW159237   3.801   0.555   0.580
19737SOL    HW259238   3.845   0.697   0.647
19738SOL     OW59239   5.566   1.767   0.359
19738SOL    HW159240   5.620   1.738   0.439
19738SOL    HW259241   5.596   1.857   0.330
19739SOL     OW59242   3.751   1.596   0.117
19739SOL    HW159243   3.732   1.500   0.138
19739SOL    HW259244   3.718   1.654   0.192
19740SOL     OW59245   5.413   0.922   0.612
19740SOL    HW159246   5.508   0.893   0.620
19740SOL    HW259247   5.405   0.987   0.537
19741SOL     OW59248   5.365   1.108   0.432
19741SOL    HW159249   5.451   1.110   0.380
19741SOL    HW259250   5.379   1.155   0.520
19742SOL     OW59251   3.837   0.737   1.597
19742SOL    HW159252   3.925   0.724   1.642
19742SOL    HW259253   3.824   0.834   1.575
19743SOL     OW59254   4.337   1.365   0.726
19743SOL    HW159255   4.288   1.278   0.735
19743SOL    HW259256   4.314   1.408   0.639
19744SOL     OW59257   5.017   1.228   1.423
19744SOL    HW159258   5.054   1.155   1.365
19744SOL    HW259259   5.069   1.233   1.508
19745SOL     OW59260   4.533   0.004   0.502
19745SOL    HW159261   4.573   0.095   0.493
19745SOL    HW259262   4.433   0.012   0.508
19746SOL     OW59263   3.921   0.976   1.264
19746SOL    HW159264   4.010   0.931   1.250
19746SOL    HW259265   3.848   0.911   1.245
19747SOL     OW59266   5.249   0.999   0.190
19747SOL    HW159267   5.186   0.923   0.203
19747SOL    HW259268   5.297   1.017   0.276
19748SOL     OW59269   4.911   1.792   1.616
19748SOL    HW159270   4.935   1.852   1.540
19748SOL    HW259271   4.918   1.697   1.586
19749SOL     OW59272   4.041   0.251   1.801
19749SOL    HW159273   4.112   0.322   1.807
19749SOL    HW259274   3.953   0.290   1.829
19750SOL     OW59275   5.190   1.417   0.953
19750SOL    HW159276   5.131   1.423   1.033
19750SOL    HW259277   5.175   1.329   0.907
19751SOL     OW59278   5.391   1.714   0.572
19751SOL    HW159279   5.350   1.691   0.484
19751SOL    HW259280   5.373   1.640   0.637
19752SOL     OW59281   4.322   0.729   0.270
19752SOL    HW159282   4.346   0.798   0.202
19752SOL    HW259283   4.244   0.762   0.324
19753SOL     OW59284   5.005   0.345   0.944
19753SOL    HW159285   4.919   0.295   0.931
19753SOL    HW259286   5.067   0.291   1.000
19754SOL     OW59287   5.300   1.662   0.307
19754SOL    HW159288   5.389   1.708   0.310
19754SOL    HW259289   5.279   1.638   0.212
19755SOL     OW59290   4.531   0.605   1.465
19755SOL    HW159291   4.484   0.602   1.554
19755SOL    HW259292   4.480   0.550   1.399
19756SOL     OW59293   5.118   0.469   1.674
19756SOL    HW159294   5.098   0.512   1.762
19756SOL    HW259295   5.196   0.407   1.683
19757SOL     OW59296   4.697   0.890   1.572
19757SOL    HW159297   4.743   0.806   1.543
19757SOL    HW259298   4.641   0.924   1.497
19758SOL     OW59299   4.715   0.410   1.242
19758SOL    HW159300   4.638   0.444   1.296
19758SOL    HW259301   4.681   0.359   1.163
19759SOL     OW59302   4.765   0.701   0.429
19759SOL    HW159303   4.791   0.697   0.525
19759SOL    HW259304   4.680   0.650   0.415
19760SOL     OW59305   3.800   0.811   0.789
19760SOL    HW159306   3.899   0.799   0.798
19760SOL    HW259307   3.776   0.906   0.810
19761SOL     OW59308   3.854   1.821   1.571
19761SOL    HW159309   3.844   1.806   1.670
19761SOL    HW259310   3.768   1.857   1.535
19762SOL     OW59311   4.589   0.348   0.195
19762SOL    HW159312   4.648   0.411   0.146
19762SOL    HW259313   4.608   0.254   0.166
19763SOL     OW59314   5.443   0.585   1.831
19763SOL    HW159315   5.417   0.674   1.795
19763SOL    HW259316   5.441   0.517   1.758
19764SOL     OW59317   5.086   1.144   0.545
19764SOL    HW159318   5.169   1.115   0.497
19764SOL    HW259319   5.037   1.211   0.489
19765SOL     OW59320   4.274   0.196   0.885
19765SOL    HW159321   4.269   0.191   0.985
19765SOL    HW259322   4.276   0.292   0.856
19766SOL     OW59323   4.732   1.456   0.477
19766SOL    HW159324   4.686   1.528   0.425
19766SOL    HW259325   4.728   1.476   0.575
19767SOL     OW59326   4.075   1.801   0.853
19767SOL    HW159327   4.125   1.715   0.859
19767SOL    HW259328   4.140   1.878   0.850
19768SOL     OW59329   5.519   1.066   0.873
19768SOL    HW159330   5.457   1.051   0.797
19768SOL    HW259331   5.467   1.077   0.958
19769SOL     OW59332   4.951   1.550   1.506
19769SOL    HW159333   4.957   1.473   1.570
19769SOL    HW259334   4.899   1.524   1.426
19770SOL     OW59335   4.045   0.943   0.242
19770SOL    HW159336   4.127   0.982   0.200
19770SOL    HW259337   4.018   0.861   0.193
19771SOL     OW59338   5.182   0.735   0.728
19771SOL    HW159339   5.177   0.670   0.803
19771SOL    HW259340   5.262   0.794   0.741
19772SOL     OW59341   4.185   1.266   1.727
19772SOL    HW159342   4.135   1.267   1.641
19772SOL    HW259343   4.122   1.248   1.803
19773SOL     OW59344   4.835   1.776   0.237
19773SOL    HW159345   4.775   1.714   0.287
19773SOL    HW259346   4.866   1.732   0.152
19774SOL     OW59347   3.926   0.285   1.498
19774SOL    HW159348   3.846   0.345   1.485
19774SOL    HW259349   3.916   0.236   1.584
19775SOL     OW59350   5.356   1.377   0.081
19775SOL    HW159351   5.324   1.471   0.071
19775SOL    HW259352   5.280   1.314   0.069
19776SOL     OW59353   4.188   1.743   0.323
19776SOL    HW159354   4.221   1.782   0.409
19776SOL    HW259355   4.264   1.736   0.258
19777SOL     OW59356   5.124   0.107   0.426
19777SOL    HW159357   5.100   0.070   0.336
19777SOL    HW259358   5.223   0.123   0.430
19778SOL     OW59359   3.973   1.785   1.241
19778SOL    HW159360   4.030   1.720   1.291
19778SOL    HW259361   3.957   1.752   1.148
19779SOL     OW59362   4.664   1.698   0.904
19779SOL    HW159363   4.744   1.641   0.925
19779SOL    HW259364   4.615   1.658   0.827
19780SOL     OW59365   4.106   0.700   0.480
19780SOL    HW159366   4.151   0.610   0.477
19780SOL    HW259367   4.012   0.689   0.513
19781SOL     OW59368   5.271   0.222   1.729
19781SOL    HW159369   5.266   0.259   1.821
19781SOL    HW259370   5.199   0.153   1.717
19782SOL     OW59371   4.338   0.122   0.117
19782SOL    HW159372   4.436   0.100   0.124
19782SOL    HW259373   4.307   0.105   0.024
19783SOL     OW59374   4.505   0.264   1.749
19783SOL    HW159375   4.572   0.203   1.792
19783SOL    HW259376   4.432   0.283   1.814
19784SOL     OW59377   4.612   1.514   1.195
19784SOL    HW159378   4.589   1.489   1.101
19784SOL    HW259379   4.673   1.445   1.234
19785SOL     OW59380   5.075   0.590   1.433
19785SOL    HW159381   5.103   0.547   1.518
19785SOL    HW259382   5.100   0.686   1.434
19786SOL     OW59383   4.527   1.402   0.924
19786SOL    HW159384   4.617   1.416   0.882
19786SOL    HW259385   4.456   1.404   0.853
19787SOL     OW59386   4.646   0.503   0.899
19787SOL    HW159387   4.621   0.494   0.803
19787SOL    HW259388   4.694   0.421   0.930
19788SOL     OW59389   4.263   0.064   0.512
19788SOL    HW159390   4.182   0.065   0.570
19788SOL    HW259391   4.266   0.147   0.457
19789SOL     OW59392   5.158   1.188   0.041
19789SOL    HW159393   5.190   1.112   0.098
19789SOL    HW259394   5.066   1.215   0.071
19790SOL     OW59395   4.021   0.035   0.171
19790SOL    HW159396   4.070   0.119   0.150
19790SOL    HW259397   4.083  -0.030   0.216
19791SOL     OW59398   4.659   0.236   0.480
19791SOL    HW159399   4.611   0.277   0.402
19791SOL    HW259400   4.758   0.234   0.461
19792SOL     OW59401   4.800   0.683   1.464
19792SOL    HW159402   4.720   0.622   1.467
19792SOL    HW259403   4.881   0.630   1.440
19793SOL     OW59404   4.951   1.570   0.793
19793SOL    HW159405   4.972   1.644   0.728
19793SOL    HW259406   5.019   1.570   0.866
19794SOL     OW59407   4.183   1.152   0.741
19794SOL    HW159408   4.112   1.125   0.806
19794SOL    HW259409   4.157   1.124   0.648
19795SOL     OW59410   4.995   1.797   0.591
19795SOL    HW159411   5.039   1.861   0.527
19795SOL    HW259412   4.945   1.849   0.661
19796SOL     OW59413   4.756   0.549   0.016
19796SOL    HW159414   4.715   0.631  -0.023
19796SOL    HW259415   4.820   0.575   0.089
19797SOL     OW59416   3.802   0.556   1.386
19797SOL    HW159417   3.894   0.555   1.345
19797SOL    HW259418   3.796   0.630   1.453
19798SOL     OW59419   4.285   0.222   1.147
19798SOL    HW159420   4.323   0.138   1.184
19798SOL    HW259421   4.197   0.241   1.191
19799SOL     OW59422   4.590   0.454   0.642
19799SOL    HW159423   4.558   0.526   0.580
19799SOL    HW259424   4.614   0.373   0.589
19800SOL     OW59425   4.741   0.039   0.753
19800SOL    HW159426   4.669   0.044   0.684
19800SOL    HW259427   4.717  -0.030   0.822
19801SOL     OW59428   5.153   1.173   0.867
19801SOL    HW159429   5.098   1.089   0.860
19801SOL    HW259430   5.179   1.202   0.775
19802SOL     OW59431   5.190   0.590   0.992
19802SOL    HW159432   5.160   0.495   0.999
19802SOL    HW259433   5.263   0.606   1.058
19803SOL     OW59434   5.581   0.833   0.377
19803SOL    HW159435   5.623   0.769   0.441
19803SOL    HW259436   5.543   0.782   0.299
19804SOL     OW59437   4.212   1.385   0.174
19804SOL    HW159438   4.125   1.370   0.221
19804SOL    HW259439   4.195   1.411   0.079
19805SOL     OW59440   5.388   1.280   0.657
19805SOL    HW159441   5.487   1.288   0.671
19805SOL    HW259442   5.343   1.364   0.688
19806SOL     OW59443   5.114   0.575   0.078
19806SOL    HW159444   5.060   0.554   0.159
19806SOL    HW259445   5.205   0.534   0.087
19807SOL     OW59446   4.251   0.256   0.328
19807SOL    HW159447   4.278   0.197   0.253
19807SOL    HW259448   4.251   0.351   0.297
19808SOL     OW59449   5.478   1.223   1.588
19808SOL    HW159450   5.569   1.184   1.575
19808SOL    HW259451   5.486   1.319   1.612
19809SOL     OW59452   4.788   1.347   1.340
19809SOL    HW159453   4.708   1.324   1.395
19809SOL    HW259454   4.871   1.321   1.389
19810SOL     OW59455   5.316   1.629   1.625
19810SOL    HW159456   5.343   1.663   1.535
19810SOL    HW259457   5.395   1.591   1.671
19811SOL     OW59458   4.835   1.195   1.100
19811SOL    HW159459   4.795   1.239   1.181
19811SOL    HW259460   4.794   1.232   1.017
19812SOL     OW59461   5.362   1.099   1.079
19812SOL    HW159462   5.367   1.180   1.138
19812SOL    HW259463   5.276   1.101   1.028
19813SOL     OW59464   4.639   0.089   1.402
19813SOL    HW159465   4.664   0.069   1.307
19813SOL    HW259466   4.711   0.145   1.444
19814SOL     OW59467   4.704   1.116   1.719
19814SOL    HW159468   4.605   1.122   1.729
19814SOL    HW259469   4.727   1.036   1.663
19815SOL     OW59470   4.429   1.050   0.368
19815SOL    HW159471   4.415   1.057   0.467
19815SOL    HW259472   4.513   0.999   0.350
19816SOL     OW59473   4.134   0.813   1.251
19816SOL    HW159474   4.220   0.825   1.301
19816SOL    HW259475   4.092   0.726   1.278
19817SOL     OW59476   4.998   0.386   1.262
19817SOL    HW159477   5.019   0.460   1.326
19817SOL    HW259478   4.909   0.403   1.219
19818SOL     OW59479   3.788   1.564   1.331
19818SOL    HW159480   3.742   1.646   1.297
19818SOL    HW259481   3.886   1.583   1.340
19819SOL     OW59482   4.091   1.100   0.501
19819SOL    HW159483   4.084   1.183   0.445
19819SOL    HW259484   4.095   1.020   0.441
19820SOL     OW59485   4.290   0.537   0.865
19820SOL    HW159486   4.302   0.603   0.791
19820SOL    HW259487   4.336   0.571   0.948
19821SOL     OW59488   4.976   1.348   0.388
19821SOL    HW159489   5.026   1.425   0.428
19821SOL    HW259490   4.881   1.350   0.420
19822SOL     OW59491   4.996   1.445   1.142
19822SOL    HW159492   5.043   1.458   1.229
19822SOL    HW259493   4.930   1.371   1.151
19823SOL     OW59494   5.306   0.639   0.472
19823SOL    HW159495   5.275   0.700   0.545
19823SOL    HW259496   5.356   0.691   0.403
19824SOL     OW59497   4.078   1.510   1.329
19824SOL    HW159498   4.057   1.466   1.242
19824SOL    HW259499   4.175   1.536   1.332
19825SOL     OW59500   4.126   0.751   1.598
19825SOL    HW159501   4.194   0.806   1.551
19825SOL    HW259502   4.166   0.663   1.625
19826SOL     OW59503   5.311   0.779   1.670
19826SOL    HW159504   5.219   0.817   1.665
19826SOL    HW259505   5.371   0.826   1.605
19827SOL     OW59506   4.737   0.105   1.770
19827SOL    HW159507   4.743   0.190   1.718
19827SOL    HW259508   4.769   0.029   1.713
19828SOL     OW59509   4.228   0.050   1.740
19828SOL    HW159510   4.186  -0.007   1.670
19828SOL    HW259511   4.162   0.119   1.772
19829SOL     OW59512   4.297   0.870   1.029
19829SOL    HW159513   4.341   0.959   1.020
19829SOL    HW259514   4.234   0.870   1.106
19830SOL     OW59515   5.084   0.862   1.045
19830SOL    HW159516   5.009   0.862   0.979
19830SOL    HW259517   5.121   0.770   1.054
19831SOL     OW59518   4.933   0.525   0.275
19831SOL    HW159519   4.946   0.441   0.329
19831SOL    HW259520   4.904   0.599   0.335
19832SOL     OW59521   4.031   0.213   1.231
19832SOL    HW159522   4.008   0.250   1.321
19832SOL    HW259523   4.001   0.118   1.225
19833SOL     OW59524   3.761   1.310   1.282
19833SOL    HW159525   3.814   1.261   1.350
19833SOL    HW259526   3.783   1.408   1.287
19834SOL     OW59527   4.456   0.634   1.064
19834SOL    HW159528   4.515   0.608   0.988
19834SOL    HW259529   4.428   0.730   1.053
19835SOL     OW59530   5.452   0.935   1.854
19835SOL    HW159531   5.406   0.928   1.765
19835SOL    HW259532   5.390   0.979   1.920
19836SOL     OW59533   4.031   0.063   0.618
19836SOL    HW159534   4.020   0.157   0.651
19836SOL    HW259535   4.026   0.000   0.695
19837SOL     OW59536   5.346   0.367   0.374
19837SOL    HW159537   5.348   0.291   0.438
19837SOL    HW259538   5.298   0.444   0.414
19838SOL     OW59539   4.747   0.766   0.966
19838SOL    HW159540   4.762   0.787   1.062
19838SOL    HW259541   4.717   0.671   0.957
19839SOL     OW59542   4.704   1.573   1.700
19839SOL    HW159543   4.684   1.617   1.612
19839SOL    HW259544   4.743   1.482   1.684
19840SOL     OW59545   5.583   1.518   1.605
19840SOL    HW159546   5.597   1.545   1.510
19840SOL    HW259547   5.666   1.540   1.658
19841SOL     OW59548   4.074   0.898   1.804
19841SOL    HW159549   4.150   0.942   1.852
19841SOL    HW259550   4.109   0.851   1.722
19842SOL     OW59551   5.264   0.274   0.125
19842SOL    HW159552   5.203   0.199   0.148
19842SOL    HW259553   5.286   0.326   0.208
19843SOL     OW59554   5.027   0.838   0.042
19843SOL    HW159555   5.061   0.745   0.057
19843SOL    HW259556   5.045   0.865  -0.053
19844SOL     OW59557   4.792   1.333   0.849
19844SOL    HW159558   4.799   1.249   0.794
19844SOL    HW259559   4.854   1.402   0.813
19845SOL     OW59560   4.043   0.810   0.949
19845SOL    HW159561   4.136   0.846   0.954
19845SOL    HW259562   4.037   0.725   1.001
19846SOL     OW59563   4.063   0.509   1.006
19846SOL    HW159564   4.011   0.426   0.989
19846SOL    HW259565   4.140   0.514   0.942
19847SOL     OW59566   4.862   0.380   1.678
19847SOL    HW159567   4.817   0.443   1.742
19847SOL    HW259568   4.955   0.411   1.661
19848SOL     OW59569   4.884   0.207   1.477
19848SOL    HW159570   4.884   0.271   1.554
19848SOL    HW259571   4.912   0.255   1.394
19849SOL     OW59572   3.732   1.326   0.200
19849SOL    HW159573   3.639   1.347   0.169
19849SOL    HW259574   3.742   1.227   0.213
19850SOL     OW59575   3.812   1.801   0.927
19850SOL    HW159576   3.770   1.715   0.900
19850SOL    HW259577   3.906   1.804   0.893
19851SOL     OW59578   4.228   1.568   0.910
19851SOL    HW159579   4.294   1.642   0.919
19851SOL    HW259580   4.272   1.489   0.868
19852SOL     OW59581   4.726   0.796   1.238
19852SOL    HW159582   4.767   0.764   1.324
19852SOL    HW259583   4.630   0.769   1.235
19853SOL     OW59584   3.764   0.544   1.114
19853SOL    HW159585   3.849   0.511   1.073
19853SOL    HW259586   3.777   0.559   1.212
19854SOL     OW59587   3.913   0.520   1.722
19854SOL    HW159588   3.972   0.480   1.652
19854SOL    HW259589   3.855   0.591   1.681
19855SOL     OW59590   5.093   0.950   1.660
19855SOL    HW159591   5.132   1.039   1.680
19855SOL    HW259592   5.103   0.930   1.563
19856SOL     OW59593   4.539   0.572   0.325
19856SOL    HW159594   4.546   0.483   0.279
19856SOL    HW259595   4.445   0.606   0.317
19857SOL     OW59596   5.381   0.604   1.206
19857SOL    HW159597   5.343   0.535   1.268
19857SOL    HW259598   5.463   0.568   1.162
19858SOL     OW59599   3.976   1.564   1.744
19858SOL    HW159600   3.946   1.621   1.820
19858SOL    HW259601   3.969   1.467   1.770
19859SOL     OW59602   4.395   0.464   1.269
19859SOL    HW159603   4.361   0.375   1.239
19859SOL    HW259604   4.421   0.518   1.189
19860SOL     OW59605   4.654   1.678   1.465
19860SOL    HW159606   4.630   1.660   1.370
19860SOL    HW259607   4.684   1.772   1.475
19861SOL     OW59608   4.197   0.500   0.191
19861SOL    HW159609   4.258   0.580   0.195
19861SOL    HW259610   4.102   0.531   0.198
19862SOL     OW59611   3.883   1.137   1.466
19862SOL    HW159612   3.905   1.076   1.542
19862SOL    HW259613   3.893   1.088   1.380
19863SOL     OW59614   5.071   1.059   1.234
19863SOL    HW159615   5.095   0.996   1.160
19863SOL    HW259616   4.981   1.099   1.216
19864SOL     OW59617   5.026   0.855   0.309
19864SOL    HW159618   4.940   0.824   0.351
19864SOL    HW259619   5.022   0.841   0.210
19865SOL     OW59620   5.483   1.747   1.154
19865SOL    HW159621   5.544   1.777   1.081
19865SOL    HW259622   5.445   1.658   1.132
19866SOL     OW59623   4.976   1.731   1.128
19866SOL    HW159624   5.060   1.736   1.074
19866SOL    HW259625   4.953   1.635   1.146
19867SOL     OW59626   3.807   1.258   1.022
19867SOL    HW159627   3.802   1.257   1.122
19867SOL    HW259628   3.724   1.217   0.984
19868SOL     OW59629   4.412   1.662   1.716
19868SOL    HW159630   4.356   1.743   1.725
19868SOL    HW259631   4.464   1.666   1.630
19869SOL     OW59632   4.627   0.086   0.133
19869SOL    HW159633   4.678   0.087   0.047
19869SOL    HW259634   4.683   0.044   0.204
19870SOL     OW59635   5.450   0.135   0.523
19870SOL    HW159636   5.523   0.118   0.456
19870SOL    HW259637   5.419   0.048   0.561
19871SOL     OW59638   5.112   1.573   0.477
19871SOL    HW159639   5.179   1.585   0.403
19871SOL    HW259640   5.072   1.662   0.500
19872SOL     OW59641   3.854   1.794   1.851
19872SOL    HW159642   3.813   1.720   1.904
19872SOL    HW259643   3.918   1.845   1.909
19873SOL     OW59644   5.004   0.927   0.672
19873SOL    HW159645   5.064   0.846   0.674
19873SOL    HW259646   5.044   0.996   0.612
19874SOL     OW59647   4.554   1.273   1.422
19874SOL    HW159648   4.549   1.306   1.517
19874SOL    HW259649   4.468   1.292   1.376
19875SOL     OW59650   4.396   1.616   0.154
19875SOL    HW159651   4.405   1.626   0.055
19875SOL    HW259652   4.356   1.527   0.175
19876SOL     OW59653   5.374   1.720   1.394
19876SOL    HW159654   5.427   1.730   1.310
19876SOL    HW259655   5.347   1.810   1.428
19877SOL     OW59656   5.565   0.175   0.963
19877SOL    HW159657   5.604   0.090   0.927
19877SOL    HW259658   5.467   0.177   0.944
19878SOL     OW59659   3.987   0.326   0.720
19878SOL    HW159660   3.908   0.377   0.686
19878SOL    HW259661   3.978   0.311   0.818
19879SOL     OW59662   4.918   1.612   0.031
19879SOL    HW159663   4.924   1.519   0.068
19879SOL    HW259664   4.859   1.612  -0.049
19880SOL     OW59665   4.546   1.002   1.372
19880SOL    HW159666   4.586   1.001   1.280
19880SOL    HW259667   4.556   1.094   1.412
19881SOL     OW59668   4.640   0.910   0.291
19881SOL    HW159669   4.703   0.948   0.223
19881SOL    HW259670   4.680   0.827   0.330
19882SOL     OW59671   5.228   1.607   0.044
19882SOL    HW159672   5.136   1.644   0.051
19882SOL    HW259673   5.266   1.627  -0.046
19883SOL     OW59674   4.096   1.288   1.490
19883SOL    HW159675   4.083   1.381   1.456
19883SOL    HW259676   4.012   1.236   1.477
19884SOL     OW59677   5.338   1.292   1.289
19884SOL    HW159678   5.398   1.295   1.369
19884SOL    HW259679   5.263   1.356   1.302
19885SOL     OW59680   4.763   1.098   0.696
19885SOL    HW159681   4.693   1.051   0.750
19885SOL    HW259682   4.822   1.030   0.653
19886SOL     OW59683   4.738   0.236   0.971
19886SOL    HW159684   4.730   0.200   0.878
19886SOL    HW259685   4.736   0.160   1.036
19887SOL     OW59686   4.314   1.487   0.491
19887SOL    HW159687   4.356   1.429   0.421
19887SOL    HW259688   4.270   1.566   0.447
19888SOL     OW59689   5.433   0.385   1.381
19888SOL    HW159690   5.506   0.454   1.385
19888SOL    HW259691   5.461   0.310   1.322
19889SOL     OW59692   3.979   1.348   0.290
19889SOL    HW159693   3.883   1.349   0.263
19889SOL    HW259694   3.991   1.401   0.374
19890SOL     OW59695   3.829   1.013   1.726
19890SOL    HW159696   3.752   0.980   1.780
19890SOL    HW259697   3.914   0.983   1.768
19891SOL     OW59698   4.396   0.203   1.489
19891SOL    HW159699   4.486   0.187   1.449
19891SOL    HW259700   4.404   0.208   1.588
19892SOL     OW59701   5.164   0.856   1.398
19892SOL    HW159702   5.107   0.908   1.335
19892SOL    HW259703   5.260   0.868   1.374
19893SOL     OW59704   3.796   0.166   0.318
19893SOL    HW159705   3.779   0.249   0.264
19893SOL    HW259706   3.886   0.129   0.296
19894SOL     OW59707   4.907   1.335   0.119
19894SOL    HW159708   4.808   1.324   0.121
19894SOL    HW259709   4.941   1.350   0.212
19895SOL     OW59710   4.337   0.842   1.431
19895SOL    HW159711   4.393   0.923   1.414
19895SOL    HW259712   4.396   0.762   1.434
19896SOL     OW59713   5.217   1.767   0.959
19896SOL    HW159714   5.250   1.831   0.890
19896SOL    HW259715   5.283   1.761   1.034
19897SOL     OW59716   4.440   0.565   1.708
19897SOL    HW159717   4.459   0.630   1.782
19897SOL    HW259718   4.500   0.485   1.717
19898SOL     OW59719   5.174   1.220   1.633
19898SOL    HW159720   5.165   1.210   1.732
19898SOL    HW259721   5.270   1.213   1.607
19899SOL     OW59722   4.114   1.741   1.560
19899SOL    HW159723   4.023   1.782   1.558
19899SOL    HW259724   4.107   1.647   1.592
19900SOL     OW59725   5.398   0.883   1.254
19900SOL    HW159726   5.371   0.794   1.217
19900SOL    HW259727   5.399   0.951   1.181
19901SOL     OW59728   4.949   0.325   0.449
19901SOL    HW159729   5.014   0.251   0.438
19901SOL    HW259730   4.969   0.375   0.533
19902SOL     OW59731   4.318   0.745   0.652
19902SOL    HW159732   4.368   0.830   0.633
19902SOL    HW259733   4.230   0.747   0.604
19903SOL     OW59734   5.501   0.342   1.642
19903SOL    HW159735   5.484   0.373   1.548
19903SOL    HW259736   5.417   0.305   1.680
19904SOL     OW59737   5.454   0.934   1.517
19904SOL    HW159738   5.492   1.025   1.532
19904SOL    HW259739   5.446   0.917   1.418
19905SOL     OW59740   4.583   1.374   0.016
19905SOL    HW159741   4.537   1.389   0.104
19905SOL    HW259742   4.627   1.459  -0.014
19906SOL     OW59743   4.385   1.790   0.953
19906SOL    HW159744   4.339   1.878   0.940
19906SOL    HW259745   4.484   1.802   0.946
19907SOL     OW59746   4.583   0.956   0.861
19907SOL    HW159747   4.637   0.887   0.909
19907SOL    HW259748   4.551   1.025   0.927
19908SOL     OW59749   4.807   0.984   0.087
19908SOL    HW159750   4.784   1.037   0.005
19908SOL    HW259751   4.888   0.928   0.068
19909SOL     OW59752   5.585   1.569   0.851
19909SOL    HW159753   5.514   1.557   0.781
19909SOL    HW259754   5.586   1.490   0.911
19910SOL     OW59755   3.945   1.314   1.844
19910SOL    HW159756   3.880   1.241   1.823
19910SOL    HW259757   3.949   1.328   1.942
19911SOL     OW59758   3.803   1.240   0.653
19911SOL    HW159759   3.802   1.193   0.741
19911SOL    HW259760   3.885   1.212   0.602
19912SOL     OW59761   4.396   1.391   1.624
19912SOL    HW159762   4.318   1.341   1.662
19912SOL    HW259763   4.393   1.486   1.655
19913SOL     OW59764   5.548   0.192   1.227
19913SOL    HW159765   5.544   0.102   1.271
19913SOL    HW259766   5.551   0.181   1.128
19914SOL     OW59767   4.152   0.424   0.520
19914SOL    HW159768   4.182   0.352   0.458
19914SOL    HW259769   4.113   0.384   0.603
19915SOL     OW59770   5.429   1.487   1.104
19915SOL    HW159771   5.336   1.462   1.077
19915SOL    HW259772   5.455   1.437   1.186
19916SOL     OW59773   4.041   0.547   1.280
19916SOL    HW159774   4.079   0.488   1.352
19916SOL    HW259775   4.081   0.521   1.192
19917SOL     OW59776   4.536   1.586   0.687
19917SOL    HW159777   4.568   1.596   0.593
19917SOL    HW259778   4.457   1.524   0.689
19918SOL     OW59779   5.148   0.214   1.112
19918SOL    HW159780   5.200   0.149   1.167
19918SOL    HW259781   5.099   0.277   1.173
19919SOL     OW59782   4.725   0.034   1.154
19919SOL    HW159783   4.662  -0.038   1.123
19919SOL    HW259784   4.818  -0.002   1.154
19920SOL     OW59785   4.494   1.330   0.301
19920SOL    HW159786   4.448   1.243   0.318
19920SOL    HW259787   4.585   1.327   0.342
19921SOL     OW59788   4.342   1.567   1.284
19921SOL    HW159789   4.337   1.649   1.341
19921SOL    HW259790   4.431   1.564   1.239
19922SOL     OW59791   5.076   0.052   0.168
19922SOL    HW159792   5.111   0.011   0.084
19922SOL    HW259793   4.986   0.014   0.188
19923SOL     OW59794   5.024   0.453   0.691
19923SOL    HW159795   4.965   0.533   0.695
19923SOL    HW259796   5.039   0.418   0.784
19924SOL     OW59797   5.317   0.221   0.882
19924SOL    HW159798   5.233   0.220   0.936
19924SOL    HW259799   5.319   0.304   0.826
19925SOL     OW59800   3.763   1.077   0.300
19925SOL    HW159801   3.862   1.066   0.291
19925SOL    HW259802   3.723   0.991   0.332
19926SOL     OW59803   4.599   1.646   0.337
19926SOL    HW159804   4.522   1.611   0.283
19926SOL    HW259805   4.567   1.717   0.399
19927SOL     OW59806   3.954   0.628   1.975
19927SOL    HW159807   3.861   0.626   2.012
19927SOL    HW259808   3.955   0.589   1.883
19928SOL     OW59809   3.949   0.275   2.858
19928SOL    HW159810   3.984   0.258   2.950
19928SOL    HW259811   3.861   0.230   2.846
19929SOL     OW59812   3.743   0.368   2.509
19929SOL    HW159813   3.661   0.411   2.548
19929SOL    HW259814   3.715   0.295   2.446
19930SOL     OW59815   4.293   1.275   3.027
19930SOL    HW159816   4.200   1.268   2.990
19930SOL    HW259817   4.304   1.364   3.071
19931SOL     OW59818   5.279   1.511   2.565
19931SOL    HW159819   5.222   1.495   2.646
19931SOL    HW259820   5.220   1.521   2.485
19932SOL     OW59821   4.859   0.703   2.579
19932SOL    HW159822   4.916   0.781   2.554
19932SOL    HW259823   4.799   0.729   2.655
19933SOL     OW59824   5.479   0.607   2.093
19933SOL    HW159825   5.467   0.594   1.994
19933SOL    HW259826   5.449   0.526   2.142
19934SOL     OW59827   4.492   1.144   2.885
19934SOL    HW159828   4.414   1.161   2.945
19934SOL    HW259829   4.526   1.231   2.849
19935SOL     OW59830   4.574   0.798   3.685
19935SOL    HW159831   4.570   0.874   3.750
19935SOL    HW259832   4.596   0.834   3.594
19936SOL     OW59833   4.409   1.012   2.527
19936SOL    HW159834   4.478   0.996   2.597
19936SOL    HW259835   4.336   1.069   2.565
19937SOL     OW59836   4.410   1.161   3.665
19937SOL    HW159837   4.470   1.240   3.679
19937SOL    HW259838   4.324   1.192   3.624
19938SOL     OW59839   4.059   1.435   2.923
19938SOL    HW159840   3.981   1.404   2.870
19938SOL    HW259841   4.117   1.493   2.866
19939SOL     OW59842   5.184   1.505   3.201
19939SOL    HW159843   5.208   1.599   3.227
19939SOL    HW259844   5.168   1.451   3.283
19940SOL     OW59845   4.162   0.392   3.361
19940SOL    HW159846   4.244   0.336   3.370
19940SOL    HW259847   4.081   0.334   3.365
19941SOL     OW59848   5.327   0.447   2.599
19941SOL    HW159849   5.253   0.493   2.549
19941SOL    HW259850   5.378   0.515   2.652
19942SOL     OW59851   3.955   1.713   2.345
19942SOL    HW159852   3.989   1.790   2.399
19942SOL    HW259853   3.999   1.713   2.255
19943SOL     OW59854   4.851   1.341   3.552
19943SOL    HW159855   4.898   1.341   3.640
19943SOL    HW259856   4.803   1.254   3.541
19944SOL     OW59857   3.954   1.434   2.400
19944SOL    HW159858   3.928   1.530   2.400
19944SOL    HW259859   3.883   1.380   2.445
19945SOL     OW59860   3.964   1.091   2.748
19945SOL    HW159861   3.978   1.007   2.800
19945SOL    HW259862   3.909   1.155   2.803
19946SOL     OW59863   4.344   1.786   3.301
19946SOL    HW159864   4.252   1.769   3.336
19946SOL    HW259865   4.372   1.878   3.327
19947SOL     OW59866   4.330   0.964   1.985
19947SOL    HW159867   4.337   1.048   1.931
19947SOL    HW259868   4.376   0.977   2.073
19948SOL     OW59869   5.318   0.114   3.342
19948SOL    HW159870   5.300   0.181   3.270
19948SOL    HW259871   5.315   0.160   3.431
19949SOL     OW59872   3.846   0.643   2.425
19949SOL    HW159873   3.801   0.555   2.442
19949SOL    HW259874   3.845   0.697   2.509
19950SOL     OW59875   5.566   1.767   2.221
19950SOL    HW159876   5.620   1.738   2.301
19950SOL    HW259877   5.596   1.857   2.192
19951SOL     OW59878   3.751   1.596   1.979
19951SOL    HW159879   3.732   1.500   2.000
19951SOL    HW259880   3.718   1.654   2.054
19952SOL     OW59881   5.413   0.922   2.474
19952SOL    HW159882   5.508   0.893   2.482
19952SOL    HW259883   5.405   0.987   2.399
19953SOL     OW59884   5.365   1.108   2.294
19953SOL    HW159885   5.451   1.110   2.242
19953SOL    HW259886   5.379   1.155   2.382
19954SOL     OW59887   3.837   0.737   3.459
19954SOL    HW159888   3.925   0.724   3.504
19954SOL    HW259889   3.824   0.834   3.437
19955SOL     OW59890   4.337   1.365   2.588
19955SOL    HW159891   4.288   1.278   2.597
19955SOL    HW259892   4.314   1.408   2.501
19956SOL     OW59893   5.017   1.228   3.285
19956SOL    HW159894   5.054   1.155   3.227
19956SOL    HW259895   5.069   1.233   3.370
19957SOL     OW59896   4.533   0.004   2.364
19957SOL    HW159897   4.573   0.095   2.355
19957SOL    HW259898   4.433   0.012   2.370
19958SOL     OW59899   3.921   0.976   3.126
19958SOL    HW159900   4.010   0.931   3.112
19958SOL    HW259901   3.848   0.911   3.107
19959SOL     OW59902   5.249   0.999   2.052
19959SOL    HW159903   5.186   0.923   2.065
19959SOL    HW259904   5.297   1.017   2.138
19960SOL     OW59905   4.911   1.792   3.478
19960SOL    HW159906   4.935   1.852   3.402
19960SOL    HW259907   4.918   1.697   3.448
19961SOL     OW59908   4.041   0.251   3.663
19961SOL    HW159909   4.112   0.322   3.669
19961SOL    HW259910   3.953   0.290   3.691
19962SOL     OW59911   5.190   1.417   2.815
19962SOL    HW159912   5.131   1.423   2.895
19962SOL    HW259913   5.175   1.329   2.769
19963SOL     OW59914   5.391   1.714   2.434
19963SOL    HW159915   5.350   1.691   2.346
19963SOL    HW259916   5.373   1.640   2.499
19964SOL     OW59917   4.322   0.729   2.132
19964SOL    HW159918   4.346   0.798   2.064
19964SOL    HW259919   4.244   0.762   2.186
19965SOL     OW59920   5.005   0.345   2.806
19965SOL    HW159921   4.919   0.295   2.793
19965SOL    HW259922   5.067   0.291   2.862
19966SOL     OW59923   4.531   0.605   3.327
19966SOL    HW159924   4.484   0.602   3.416
19966SOL    HW259925   4.480   0.550   3.261
19967SOL     OW59926   5.118   0.469   3.536
19967SOL    HW159927   5.098   0.512   3.624
19967SOL    HW259928   5.196   0.407   3.545
19968SOL     OW59929   4.697   0.890   3.434
19968SOL    HW159930   4.743   0.806   3.405
19968SOL    HW259931   4.641   0.924   3.359
19969SOL     OW59932   4.715   0.410   3.104
19969SOL    HW159933   4.638   0.444   3.158
19969SOL    HW259934   4.681   0.359   3.025
19970SOL     OW59935   4.765   0.701   2.291
19970SOL    HW159936   4.791   0.697   2.387
19970SOL    HW259937   4.680   0.650   2.277
19971SOL     OW59938   3.800   0.811   2.651
19971SOL    HW159939   3.899   0.799   2.660
19971SOL    HW259940   3.776   0.906   2.672
19972SOL     OW59941   3.854   1.821   3.433
19972SOL    HW159942   3.844   1.806   3.532
19972SOL    HW259943   3.768   1.857   3.397
19973SOL     OW59944   4.589   0.348   2.057
19973SOL    HW159945   4.648   0.411   2.008
19973SOL    HW259946   4.608   0.254   2.028
19974SOL     OW59947   5.443   0.585   3.693
19974SOL    HW159948   5.417   0.674   3.657
19974SOL    HW259949   5.441   0.517   3.620
19975SOL     OW59950   5.086   1.144   2.407
19975SOL    HW159951   5.169   1.115   2.359
19975SOL    HW259952   5.037   1.211   2.351
19976SOL     OW59953   4.274   0.196   2.747
19976SOL    HW159954   4.269   0.191   2.847
19976SOL    HW259955   4.276   0.292   2.718
19977SOL     OW59956   4.732   1.456   2.339
19977SOL    HW159957   4.686   1.528   2.287
19977SOL    HW259958   4.728   1.476   2.437
19978SOL     OW59959   4.075   1.801   2.715
19978SOL    HW159960   4.125   1.715   2.721
19978SOL    HW259961   4.140   1.878   2.712
19979SOL     OW59962   5.519   1.066   2.735
19979SOL    HW159963   5.457   1.051   2.659
19979SOL    HW259964   5.467   1.077   2.820
19980SOL     OW59965   4.951   1.550   3.368
19980SOL    HW159966   4.957   1.473   3.432
19980SOL    HW259967   4.899   1.524   3.288
19981SOL     OW59968   4.045   0.943   2.104
19981SOL    HW159969   4.127   0.982   2.062
19981SOL    HW259970   4.018   0.861   2.055
19982SOL     OW59971   5.182   0.735   2.590
19982SOL    HW159972   5.177   0.670   2.665
19982SOL    HW259973   5.262   0.794   2.603
19983SOL     OW59974   4.185   1.266   3.589
19983SOL    HW159975   4.135   1.267   3.503
19983SOL    HW259976   4.122   1.248   3.665
19984SOL     OW59977   4.835   1.776   2.099
19984SOL    HW159978   4.775   1.714   2.149
19984SOL    HW259979   4.866   1.732   2.014
19985SOL     OW59980   3.926   0.285   3.360
19985SOL    HW159981   3.846   0.345   3.347
19985SOL    HW259982   3.916   0.236   3.446
19986SOL     OW59983   5.356   1.377   1.943
19986SOL    HW159984   5.324   1.471   1.933
19986SOL    HW259985   5.280   1.314   1.931
19987SOL     OW59986   4.188   1.743   2.185
19987SOL    HW159987   4.221   1.782   2.271
19987SOL    HW259988   4.264   1.736   2.120
19988SOL     OW59989   5.124   0.107   2.288
19988SOL    HW159990   5.100   0.070   2.198
19988SOL    HW259991   5.223   0.123   2.292
19989SOL     OW59992   3.973   1.785   3.103
19989SOL    HW159993   4.030   1.720   3.153
19989SOL    HW259994   3.957   1.752   3.010
19990SOL     OW59995   4.664   1.698   2.766
19990SOL    HW159996   4.744   1.641   2.787
19990SOL    HW259997   4.615   1.658   2.689
19991SOL     OW59998   4.106   0.700   2.342
19991SOL    HW159999   4.151   0.610   2.339
19991SOL    HW260000   4.012   0.689   2.375
19992SOL     OW60001   5.271   0.222   3.591
19992SOL    HW160002   5.266   0.259   3.683
19992SOL    HW260003   5.199   0.153   3.579
19993SOL     OW60004   4.338   0.122   1.979
19993SOL    HW160005   4.436   0.100   1.986
19993SOL    HW260006   4.307   0.105   1.886
19994SOL     OW60007   4.505   0.264   3.611
19994SOL    HW160008   4.572   0.203   3.654
19994SOL    HW260009   4.432   0.283   3.676
19995SOL     OW60010   4.612   1.514   3.057
19995SOL    HW160011   4.589   1.489   2.963
19995SOL    HW260012   4.673   1.445   3.096
19996SOL     OW60013   5.075   0.590   3.295
19996SOL    HW160014   5.103   0.547   3.380
19996SOL    HW260015   5.100   0.686   3.296
19997SOL     OW60016   4.527   1.402   2.786
19997SOL    HW160017   4.617   1.416   2.744
19997SOL    HW260018   4.456   1.404   2.715
19998SOL     OW60019   4.646   0.503   2.761
19998SOL    HW160020   4.621   0.494   2.665
19998SOL    HW260021   4.694   0.421   2.792
19999SOL     OW60022   4.263   0.064   2.374
19999SOL    HW160023   4.182   0.065   2.432
19999SOL    HW260024   4.266   0.147   2.319
20000SOL     OW60025   5.158   1.188   1.903
20000SOL    HW160026   5.190   1.112   1.960
20000SOL    HW260027   5.066   1.215   1.933
20001SOL     OW60028   4.021   0.035   2.033
20001SOL    HW160029   4.070   0.119   2.012
20001SOL    HW260030   4.083  -0.030   2.078
20002SOL     OW60031   4.659   0.236   2.342
20002SOL    HW160032   4.611   0.277   2.264
20002SOL    HW260033   4.758   0.234   2.323
20003SOL     OW60034   4.800   0.683   3.326
20003SOL    HW160035   4.720   0.622   3.329
20003SOL    HW260036   4.881   0.630   3.302
20004SOL     OW60037   4.951   1.570   2.655
20004SOL    HW160038   4.972   1.644   2.590
20004SOL    HW260039   5.019   1.570   2.728
20005SOL     OW60040   4.183   1.152   2.603
20005SOL    HW160041   4.112   1.125   2.668
20005SOL    HW260042   4.157   1.124   2.510
20006SOL     OW60043   4.995   1.797   2.453
20006SOL    HW160044   5.039   1.861   2.389
20006SOL    HW260045   4.945   1.849   2.523
20007SOL     OW60046   4.756   0.549   1.878
20007SOL    HW160047   4.715   0.631   1.839
20007SOL    HW260048   4.820   0.575   1.951
20008SOL     OW60049   3.802   0.556   3.248
20008SOL    HW160050   3.894   0.555   3.207
20008SOL    HW260051   3.796   0.630   3.315
20009SOL     OW60052   4.285   0.222   3.009
20009SOL    HW160053   4.323   0.138   3.046
20009SOL    HW260054   4.197   0.241   3.053
20010SOL     OW60055   4.590   0.454   2.504
20010SOL    HW160056   4.558   0.526   2.442
20010SOL    HW260057   4.614   0.373   2.451
20011SOL     OW60058   4.741   0.039   2.615
20011SOL    HW160059   4.669   0.044   2.546
20011SOL    HW260060   4.717  -0.030   2.684
20012SOL     OW60061   5.153   1.173   2.729
20012SOL    HW160062   5.098   1.089   2.722
20012SOL    HW260063   5.179   1.202   2.637
20013SOL     OW60064   5.190   0.590   2.854
20013SOL    HW160065   5.160   0.495   2.861
20013SOL    HW260066   5.263   0.606   2.920
20014SOL     OW60067   5.581   0.833   2.239
20014SOL    HW160068   5.623   0.769   2.303
20014SOL    HW260069   5.543   0.782   2.161
20015SOL     OW60070   4.212   1.385   2.036
20015SOL    HW160071   4.125   1.370   2.083
20015SOL    HW260072   4.195   1.411   1.941
20016SOL     OW60073   5.388   1.280   2.519
20016SOL    HW160074   5.487   1.288   2.533
20016SOL    HW260075   5.343   1.364   2.550
20017SOL     OW60076   5.114   0.575   1.940
20017SOL    HW160077   5.060   0.554   2.021
20017SOL    HW260078   5.205   0.534   1.949
20018SOL     OW60079   4.251   0.256   2.190
20018SOL    HW160080   4.278   0.197   2.115
20018SOL    HW260081   4.251   0.351   2.159
20019SOL     OW60082   5.478   1.223   3.450
20019SOL    HW160083   5.569   1.184   3.437
20019SOL    HW260084   5.486   1.319   3.474
20020SOL     OW60085   4.788   1.347   3.202
20020SOL    HW160086   4.708   1.324   3.257
20020SOL    HW260087   4.871   1.321   3.251
20021SOL     OW60088   5.316   1.629   3.487
20021SOL    HW160089   5.343   1.663   3.397
20021SOL    HW260090   5.395   1.591   3.533
20022SOL     OW60091   4.835   1.195   2.962
20022SOL    HW160092   4.795   1.239   3.043
20022SOL    HW260093   4.794   1.232   2.879
20023SOL     OW60094   5.362   1.099   2.941
20023SOL    HW160095   5.367   1.180   3.000
20023SOL    HW260096   5.276   1.101   2.890
20024SOL     OW60097   4.639   0.089   3.264
20024SOL    HW160098   4.664   0.069   3.169
20024SOL    HW260099   4.711   0.145   3.306
20025SOL     OW60100   4.704   1.116   3.581
20025SOL    HW160101   4.605   1.122   3.591
20025SOL    HW260102   4.727   1.036   3.525
20026SOL     OW60103   4.429   1.050   2.230
20026SOL    HW160104   4.415   1.057   2.329
20026SOL    HW260105   4.513   0.999   2.212
20027SOL     OW60106   4.134   0.813   3.113
20027SOL    HW160107   4.220   0.825   3.163
20027SOL    HW260108   4.092   0.726   3.140
20028SOL     OW60109   4.998   0.386   3.124
20028SOL    HW160110   5.019   0.460   3.188
20028SOL    HW260111   4.909   0.403   3.081
20029SOL     OW60112   3.788   1.564   3.193
20029SOL    HW160113   3.742   1.646   3.159
20029SOL    HW260114   3.886   1.583   3.202
20030SOL     OW60115   4.091   1.100   2.363
20030SOL    HW160116   4.084   1.183   2.307
20030SOL    HW260117   4.095   1.020   2.303
20031SOL     OW60118   4.290   0.537   2.727
20031SOL    HW160119   4.302   0.603   2.653
20031SOL    HW260120   4.336   0.571   2.810
20032SOL     OW60121   4.976   1.348   2.250
20032SOL    HW160122   5.026   1.425   2.290
20032SOL    HW260123   4.881   1.350   2.282
20033SOL     OW60124   4.996   1.445   3.004
20033SOL    HW160125   5.043   1.458   3.091
20033SOL    HW260126   4.930   1.371   3.013
20034SOL     OW60127   5.306   0.639   2.334
20034SOL    HW160128   5.275   0.700   2.407
20034SOL    HW260129   5.356   0.691   2.265
20035SOL     OW60130   4.078   1.510   3.191
20035SOL    HW160131   4.057   1.466   3.104
20035SOL    HW260132   4.175   1.536   3.194
20036SOL     OW60133   4.126   0.751   3.460
20036SOL    HW160134   4.194   0.806   3.413
20036SOL    HW260135   4.166   0.663   3.487
20037SOL     OW60136   5.311   0.779   3.532
20037SOL    HW160137   5.219   0.817   3.527
20037SOL    HW260138   5.371   0.826   3.467
20038SOL     OW60139   4.737   0.105   3.632
20038SOL    HW160140   4.743   0.190   3.580
20038SOL    HW260141   4.769   0.029   3.575
20039SOL     OW60142   4.228   0.050   3.602
20039SOL    HW160143   4.186  -0.007   3.532
20039SOL    HW260144   4.162   0.119   3.634
20040SOL     OW60145   4.297   0.870   2.891
20040SOL    HW160146   4.341   0.959   2.882
20040SOL    HW260147   4.234   0.870   2.968
20041SOL     OW60148   5.084   0.862   2.907
20041SOL    HW160149   5.009   0.862   2.841
20041SOL    HW260150   5.121   0.770   2.916
20042SOL     OW60151   4.933   0.525   2.137
20042SOL    HW160152   4.946   0.441   2.191
20042SOL    HW260153   4.904   0.599   2.197
20043SOL     OW60154   4.031   0.213   3.093
20043SOL    HW160155   4.008   0.250   3.183
20043SOL    HW260156   4.001   0.118   3.087
20044SOL     OW60157   3.761   1.310   3.144
20044SOL    HW160158   3.814   1.261   3.212
20044SOL    HW260159   3.783   1.408   3.149
20045SOL     OW60160   4.456   0.634   2.926
20045SOL    HW160161   4.515   0.608   2.850
20045SOL    HW260162   4.428   0.730   2.915
20046SOL     OW60163   5.452   0.935   3.716
20046SOL    HW160164   5.406   0.928   3.627
20046SOL    HW260165   5.390   0.979   3.782
20047SOL     OW60166   4.031   0.063   2.480
20047SOL    HW160167   4.020   0.157   2.513
20047SOL    HW260168   4.026   0.000   2.557
20048SOL     OW60169   5.346   0.367   2.236
20048SOL    HW160170   5.348   0.291   2.300
20048SOL    HW260171   5.298   0.444   2.276
20049SOL     OW60172   4.747   0.766   2.828
20049SOL    HW160173   4.762   0.787   2.924
20049SOL    HW260174   4.717   0.671   2.819
20050SOL     OW60175   4.704   1.573   3.562
20050SOL    HW160176   4.684   1.617   3.474
20050SOL    HW260177   4.743   1.482   3.546
20051SOL     OW60178   5.583   1.518   3.467
20051SOL    HW160179   5.597   1.545   3.372
20051SOL    HW260180   5.666   1.540   3.520
20052SOL     OW60181   4.074   0.898   3.666
20052SOL    HW160182   4.150   0.942   3.714
20052SOL    HW260183   4.109   0.851   3.584
20053SOL     OW60184   5.264   0.274   1.987
20053SOL    HW160185   5.203   0.199   2.010
20053SOL    HW260186   5.286   0.326   2.070
20054SOL     OW60187   5.027   0.838   1.904
20054SOL    HW160188   5.061   0.745   1.919
20054SOL    HW260189   5.045   0.865   1.809
20055SOL     OW60190   4.792   1.333   2.711
20055SOL    HW160191   4.799   1.249   2.656
20055SOL    HW260192   4.854   1.402   2.675
20056SOL     OW60193   4.043   0.810   2.811
20056SOL    HW160194   4.136   0.846   2.816
20056SOL    HW260195   4.037   0.725   2.863
20057SOL     OW60196   4.063   0.509   2.868
20057SOL    HW160197   4.011   0.426   2.851
20057SOL    HW260198   4.140   0.514   2.804
20058SOL     OW60199   4.862   0.380   3.540
20058SOL    HW160200   4.817   0.443   3.604
20058SOL    HW260201   4.955   0.411   3.523
20059SOL     OW60202   4.884   0.207   3.339
20059SOL    HW160203   4.884   0.271   3.416
20059SOL    HW260204   4.912   0.255   3.256
20060SOL     OW60205   3.732   1.326   2.062
20060SOL    HW160206   3.639   1.347   2.031
20060SOL    HW260207   3.742   1.227   2.075
20061SOL     OW60208   3.812   1.801   2.789
20061SOL    HW160209   3.770   1.715   2.762
20061SOL    HW260210   3.906   1.804   2.755
20062SOL     OW60211   4.228   1.568   2.772
20062SOL    HW160212   4.294   1.642   2.781
20062SOL    HW260213   4.272   1.489   2.730
20063SOL     OW60214   4.726   0.796   3.100
20063SOL    HW160215   4.767   0.764   3.186
20063SOL    HW260216   4.630   0.769   3.097
20064SOL     OW60217   3.764   0.544   2.976
20064SOL    HW160218   3.849   0.511   2.935
20064SOL    HW260219   3.777   0.559   3.074
20065SOL     OW60220   3.913   0.520   3.584
20065SOL    HW160221   3.972   0.480   3.514
20065SOL    HW260222   3.855   0.591   3.543
20066SOL     OW60223   5.093   0.950   3.522
20066SOL    HW160224   5.132   1.039   3.542
20066SOL    HW260225   5.103   0.930   3.425
20067SOL     OW60226   4.539   0.572   2.187
20067SOL    HW160227   4.546   0.483   2.141
20067SOL    HW260228   4.445   0.606   2.179
20068SOL     OW60229   5.381   0.604   3.068
20068SOL    HW160230   5.343   0.535   3.130
20068SOL    HW260231   5.463   0.568   3.024
20069SOL     OW60232   3.976   1.564   3.606
20069SOL    HW160233   3.946   1.621   3.682
20069SOL    HW260234   3.969   1.467   3.632
20070SOL     OW60235   4.395   0.464   3.131
20070SOL    HW160236   4.361   0.375   3.101
20070SOL    HW260237   4.421   0.518   3.051
20071SOL     OW60238   4.654   1.678   3.327
20071SOL    HW160239   4.630   1.660   3.232
20071SOL    HW260240   4.684   1.772   3.337
20072SOL     OW60241   4.197   0.500   2.053
20072SOL    HW160242   4.258   0.580   2.057
20072SOL    HW260243   4.102   0.531   2.060
20073SOL     OW60244   3.883   1.137   3.328
20073SOL    HW160245   3.905   1.076   3.404
20073SOL    HW260246   3.893   1.088   3.242
20074SOL     OW60247   5.071   1.059   3.096
20074SOL    HW160248   5.095   0.996   3.022
20074SOL    HW260249   4.981   1.099   3.078
20075SOL     OW60250   5.026   0.855   2.171
20075SOL    HW160251   4.940   0.824   2.213
20075SOL    HW260252   5.022   0.841   2.072
20076SOL     OW60253   5.483   1.747   3.016
20076SOL    HW160254   5.544   1.777   2.943
20076SOL    HW260255   5.445   1.658   2.994
20077SOL     OW60256   4.976   1.731   2.990
20077SOL    HW160257   5.060   1.736   2.936
20077SOL    HW260258   4.953   1.635   3.008
20078SOL     OW60259   3.807   1.258   2.884
20078SOL    HW160260   3.802   1.257   2.984
20078SOL    HW260261   3.724   1.217   2.846
20079SOL     OW60262   4.412   1.662   3.578
20079SOL    HW160263   4.356   1.743   3.587
20079SOL    HW260264   4.464   1.666   3.492
20080SOL     OW60265   5.450   0.135   2.385
20080SOL    HW160266   5.523   0.118   2.318
20080SOL    HW260267   5.419   0.048   2.423
20081SOL     OW60268   5.112   1.573   2.339
20081SOL    HW160269   5.179   1.585   2.265
20081SOL    HW260270   5.072   1.662   2.362
20082SOL     OW60271   3.854   1.794   3.713
20082SOL    HW160272   3.813   1.720   3.766
20082SOL    HW260273   3.918   1.845   3.771
20083SOL     OW60274   5.004   0.927   2.534
20083SOL    HW160275   5.064   0.846   2.536
20083SOL    HW260276   5.044   0.996   2.474
20084SOL     OW60277   4.554   1.273   3.284
20084SOL    HW160278   4.549   1.306   3.379
20084SOL    HW260279   4.468   1.292   3.238
20085SOL     OW60280   4.396   1.616   2.016
20085SOL    HW160281   4.405   1.626   1.917
20085SOL    HW260282   4.356   1.527   2.037
20086SOL     OW60283   5.374   1.720   3.256
20086SOL    HW160284   5.427   1.730   3.172
20086SOL    HW260285   5.347   1.810   3.290
20087SOL     OW60286   5.565   0.175   2.825
20087SOL    HW160287   5.604   0.090   2.789
20087SOL    HW260288   5.467   0.177   2.806
20088SOL     OW60289   3.987   0.326   2.582
20088SOL    HW160290   3.908   0.377   2.548
20088SOL    HW260291   3.978   0.311   2.680
20089SOL     OW60292   4.918   1.612   1.893
20089SOL    HW160293   4.924   1.519   1.930
20089SOL    HW260294   4.859   1.612   1.813
20090SOL     OW60295   4.546   1.002   3.234
20090SOL    HW160296   4.586   1.001   3.142
20090SOL    HW260297   4.556   1.094   3.274
20091SOL     OW60298   4.640   0.910   2.153
20091SOL    HW160299   4.703   0.948   2.085
20091SOL    HW260300   4.680   0.827   2.192
20092SOL     OW60301   5.228   1.607   1.906
20092SOL    HW160302   5.136   1.644   1.913
20092SOL    HW260303   5.266   1.627   1.816
20093SOL     OW60304   4.096   1.288   3.352
20093SOL    HW160305   4.083   1.381   3.318
20093SOL    HW260306   4.012   1.236   3.339
20094SOL     OW60307   5.338   1.292   3.151
20094SOL    HW160308   5.398   1.295   3.231
20094SOL    HW260309   5.263   1.356   3.164
20095SOL     OW60310   4.763   1.098   2.558
20095SOL    HW160311   4.693   1.051   2.612
20095SOL    HW260312   4.822   1.030   2.515
20096SOL     OW60313   4.738   0.236   2.833
20096SOL    HW160314   4.730   0.200   2.740
20096SOL    HW260315   4.736   0.160   2.898
20097SOL     OW60316   4.314   1.487   2.353
20097SOL    HW160317   4.356   1.429   2.283
20097SOL    HW260318   4.270   1.566   2.309
20098SOL     OW60319   5.433   0.385   3.243
20098SOL    HW160320   5.506   0.454   3.247
20098SOL    HW260321   5.461   0.310   3.184
20099SOL     OW60322   3.979   1.348   2.152
20099SOL    HW160323   3.883   1.349   2.125
20099SOL    HW260324   3.991   1.401   2.236
20100SOL     OW60325   3.829   1.013   3.588
20100SOL    HW160326   3.752   0.980   3.642
20100SOL    HW260327   3.914   0.983   3.630
20101SOL     OW60328   4.396   0.203   3.351
20101SOL    HW160329   4.486   0.187   3.311
20101SOL    HW260330   4.404   0.208   3.450
20102SOL     OW60331   3.799   0.345   1.895
20102SOL    HW160332   3.707   0.317   1.866
20102SOL    HW260333   3.830   0.422   1.839
20103SOL     OW60334   5.164   0.856   3.260
20103SOL    HW160335   5.107   0.908   3.197
20103SOL    HW260336   5.260   0.868   3.236
20104SOL     OW60337   3.796   0.166   2.180
20104SOL    HW160338   3.779   0.249   2.126
20104SOL    HW260339   3.886   0.129   2.158
20105SOL     OW60340   4.907   1.335   1.981
20105SOL    HW160341   4.808   1.324   1.983
20105SOL    HW260342   4.941   1.350   2.074
20106SOL     OW60343   4.337   0.842   3.293
20106SOL    HW160344   4.393   0.923   3.276
20106SOL    HW260345   4.396   0.762   3.296
20107SOL     OW60346   5.217   1.767   2.821
20107SOL    HW160347   5.250   1.831   2.752
20107SOL    HW260348   5.283   1.761   2.896
20108SOL     OW60349   4.440   0.565   3.570
20108SOL    HW160350   4.459   0.630   3.644
20108SOL    HW260351   4.500   0.485   3.579
20109SOL     OW60352   5.174   1.220   3.495
20109SOL    HW160353   5.165   1.210   3.594
20109SOL    HW260354   5.270   1.213   3.469
20110SOL     OW60355   4.114   1.741   3.422
20110SOL    HW160356   4.023   1.782   3.420
20110SOL    HW260357   4.107   1.647   3.454
20111SOL     OW60358   5.398   0.883   3.116
20111SOL    HW160359   5.371   0.794   3.079
20111SOL    HW260360   5.399   0.951   3.043
20112SOL     OW60361   4.949   0.325   2.311
20112SOL    HW160362   5.014   0.251   2.300
20112SOL    HW260363   4.969   0.375   2.395
20113SOL     OW60364   4.318   0.745   2.514
20113SOL    HW160365   4.368   0.830   2.495
20113SOL    HW260366   4.230   0.747   2.466
20114SOL     OW60367   5.501   0.342   3.504
20114SOL    HW160368   5.484   0.373   3.410
20114SOL    HW260369   5.417   0.305   3.542
20115SOL     OW60370   5.454   0.934   3.379
20115SOL    HW160371   5.492   1.025   3.394
20115SOL    HW260372   5.446   0.917   3.280
20116SOL     OW60373   4.583   1.374   1.878
20116SOL    HW160374   4.537   1.389   1.966
20116SOL    HW260375   4.627   1.459   1.848
20117SOL     OW60376   4.385   1.790   2.815
20117SOL    HW160377   4.339   1.878   2.802
20117SOL    HW260378   4.484   1.802   2.808
20118SOL     OW60379   4.583   0.956   2.723
20118SOL    HW160380   4.637   0.887   2.771
20118SOL    HW260381   4.551   1.025   2.789
20119SOL     OW60382   4.807   0.984   1.949
20119SOL    HW160383   4.784   1.037   1.867
20119SOL    HW260384   4.888   0.928   1.930
20120SOL     OW60385   5.585   1.569   2.713
20120SOL    HW160386   5.514   1.557   2.643
20120SOL    HW260387   5.586   1.490   2.773
20121SOL     OW60388   3.945   1.314   3.706
20121SOL    HW160389   3.880   1.241   3.685
20121SOL    HW260390   3.949   1.328   3.804
20122SOL     OW60391   3.803   1.240   2.515
20122SOL    HW160392   3.802   1.193   2.603
20122SOL    HW260393   3.885   1.212   2.464
20123SOL     OW60394   4.396   1.391   3.486
20123SOL    HW160395   4.318   1.341   3.524
20123SOL    HW260396   4.393   1.486   3.517
20124SOL     OW60397   5.548   0.192   3.089
20124SOL    HW160398   5.544   0.102   3.133
20124SOL    HW260399   5.551   0.181   2.990
20125SOL     OW60400   4.152   0.424   2.382
20125SOL    HW160401   4.182   0.352   2.320
20125SOL    HW260402   4.113   0.384   2.465
20126SOL     OW60403   5.429   1.487   2.966
20126SOL    HW160404   5.336   1.462   2.939
20126SOL    HW260405   5.455   1.437   3.048
20127SOL     OW60406   4.041   0.547   3.142
20127SOL    HW160407   4.079   0.488   3.214
20127SOL    HW260408   4.081   0.521   3.054
20128SOL     OW60409   4.536   1.586   2.549
20128SOL    HW160410   4.568   1.596   2.455
20128SOL    HW260411   4.457   1.524   2.551
20129SOL     OW60412   5.148   0.214   2.974
20129SOL    HW160413   5.200   0.149   3.029
20129SOL    HW260414   5.099   0.277   3.035
20130SOL     OW60415   4.725   0.034   3.016
20130SOL    HW160416   4.662  -0.038   2.985
20130SOL    HW260417   4.818  -0.002   3.016
20131SOL     OW60418   4.494   1.330   2.163
20131SOL    HW160419   4.448   1.243   2.180
20131SOL    HW260420   4.585   1.327   2.204
20132SOL     OW60421   4.342   1.567   3.146
20132SOL    HW160422   4.337   1.649   3.203
20132SOL    HW260423   4.431   1.564   3.101
20133SOL     OW60424   5.076   0.052   2.030
20133SOL    HW160425   5.111   0.011   1.946
20133SOL    HW260426   4.986   0.014   2.050
20134SOL     OW60427   5.024   0.453   2.553
20134SOL    HW160428   4.965   0.533   2.557
20134SOL    HW260429   5.039   0.418   2.646
20135SOL     OW60430   5.317   0.221   2.744
20135SOL    HW160431   5.233   0.220   2.798
20135SOL    HW260432   5.319   0.304   2.688
20136SOL     OW60433   3.763   1.077   2.162
20136SOL    HW160434   3.862   1.066   2.153
20136SOL    HW260435   3.723   0.991   2.194
20137SOL     OW60436   4.599   1.646   2.199
20137SOL    HW160437   4.522   1.611   2.145
20137SOL    HW260438   4.567   1.717   2.261
20138SOL     OW60439   3.954   0.628   3.837
20138SOL    HW160440   3.861   0.626   3.874
20138SOL    HW260441   3.955   0.589   3.745
20139SOL     OW60442   3.949   0.275   4.720
20139SOL    HW160443   3.984   0.258   4.812
20139SOL    HW260444   3.861   0.230   4.708
20140SOL     OW60445   3.743   0.368   4.371
20140SOL    HW160446   3.661   0.411   4.410
20140SOL    HW260447   3.715   0.295   4.308
20141SOL     OW60448   4.293   1.275   4.889
20141SOL    HW160449   4.200   1.268   4.852
20141SOL    HW260450   4.304   1.364   4.933
20142SOL     OW60451   5.279   1.511   4.427
20142SOL    HW160452   5.222   1.495   4.508
20142SOL    HW260453   5.220   1.521   4.347
20143SOL     OW60454   4.859   0.703   4.441
20143SOL    HW160455   4.916   0.781   4.416
20143SOL    HW260456   4.799   0.729   4.517
20144SOL     OW60457   5.479   0.607   3.955
20144SOL    HW160458   5.467   0.594   3.856
20144SOL    HW260459   5.449   0.526   4.004
20145SOL     OW60460   4.492   1.144   4.747
20145SOL    HW160461   4.414   1.161   4.807
20145SOL    HW260462   4.526   1.231   4.711
20146SOL     OW60463   4.574   0.798   5.547
20146SOL    HW160464   4.570   0.874   5.612
20146SOL    HW260465   4.596   0.834   5.456
20147SOL     OW60466   4.409   1.012   4.389
20147SOL    HW160467   4.478   0.996   4.459
20147SOL    HW260468   4.336   1.069   4.427
20148SOL     OW60469   4.410   1.161   5.527
20148SOL    HW160470   4.470   1.240   5.541
20148SOL    HW260471   4.324   1.192   5.486
20149SOL     OW60472   4.059   1.435   4.785
20149SOL    HW160473   3.981   1.404   4.732
20149SOL    HW260474   4.117   1.493   4.728
20150SOL     OW60475   5.184   1.505   5.063
20150SOL    HW160476   5.208   1.599   5.089
20150SOL    HW260477   5.168   1.451   5.145
20151SOL     OW60478   4.162   0.392   5.223
20151SOL    HW160479   4.244   0.336   5.232
20151SOL    HW260480   4.081   0.334   5.227
20152SOL     OW60481   5.327   0.447   4.461
20152SOL    HW160482   5.253   0.493   4.411
20152SOL    HW260483   5.378   0.515   4.514
20153SOL     OW60484   3.955   1.713   4.207
20153SOL    HW160485   3.989   1.790   4.261
20153SOL    HW260486   3.999   1.713   4.117
20154SOL     OW60487   4.851   1.341   5.414
20154SOL    HW160488   4.898   1.341   5.502
20154SOL    HW260489   4.803   1.254   5.403
20155SOL     OW60490   3.954   1.434   4.262
20155SOL    HW160491   3.928   1.530   4.262
20155SOL    HW260492   3.883   1.380   4.307
20156SOL     OW60493   3.964   1.091   4.610
20156SOL    HW160494   3.978   1.007   4.662
20156SOL    HW260495   3.909   1.155   4.665
20157SOL     OW60496   4.344   1.786   5.163
20157SOL    HW160497   4.252   1.769   5.198
20157SOL    HW260498   4.372   1.878   5.189
20158SOL     OW60499   4.330   0.964   3.847
20158SOL    HW160500   4.337   1.048   3.793
20158SOL    HW260501   4.376   0.977   3.935
20159SOL     OW60502   5.318   0.114   5.204
20159SOL    HW160503   5.300   0.181   5.132
20159SOL    HW260504   5.315   0.160   5.293
20160SOL     OW60505   3.846   0.643   4.287
20160SOL    HW160506   3.801   0.555   4.304
20160SOL    HW260507   3.845   0.697   4.371
20161SOL     OW60508   5.566   1.767   4.083
20161SOL    HW160509   5.620   1.738   4.163
20161SOL    HW260510   5.596   1.857   4.054
20162SOL     OW60511   3.751   1.596   3.841
20162SOL    HW160512   3.732   1.500   3.862
20162SOL    HW260513   3.718   1.654   3.916
20163SOL     OW60514   5.413   0.922   4.336
20163SOL    HW160515   5.508   0.893   4.344
20163SOL    HW260516   5.405   0.987   4.261
20164SOL     OW60517   5.365   1.108   4.156
20164SOL    HW160518   5.451   1.110   4.104
20164SOL    HW260519   5.379   1.155   4.244
20165SOL     OW60520   3.837   0.737   5.321
20165SOL    HW160521   3.925   0.724   5.366
20165SOL    HW260522   3.824   0.834   5.299
20166SOL     OW60523   4.337   1.365   4.450
20166SOL    HW160524   4.288   1.278   4.459
20166SOL    HW260525   4.314   1.408   4.363
20167SOL     OW60526   5.017   1.228   5.147
20167SOL    HW160527   5.054   1.155   5.089
20167SOL    HW260528   5.069   1.233   5.232
20168SOL     OW60529   4.533   0.004   4.226
20168SOL    HW160530   4.573   0.095   4.217
20168SOL    HW260531   4.433   0.012   4.232
20169SOL     OW60532   3.921   0.976   4.988
20169SOL    HW160533   4.010   0.931   4.974
20169SOL    HW260534   3.848   0.911   4.969
20170SOL     OW60535   5.249   0.999   3.914
20170SOL    HW160536   5.186   0.923   3.927
20170SOL    HW260537   5.297   1.017   4.000
20171SOL     OW60538   4.911   1.792   5.340
20171SOL    HW160539   4.935   1.852   5.264
20171SOL    HW260540   4.918   1.697   5.310
20172SOL     OW60541   4.041   0.251   5.525
20172SOL    HW160542   4.112   0.322   5.531
20172SOL    HW260543   3.953   0.290   5.553
20173SOL     OW60544   5.190   1.417   4.677
20173SOL    HW160545   5.131   1.423   4.757
20173SOL    HW260546   5.175   1.329   4.631
20174SOL     OW60547   5.391   1.714   4.296
20174SOL    HW160548   5.350   1.691   4.208
20174SOL    HW260549   5.373   1.640   4.361
20175SOL     OW60550   4.322   0.729   3.994
20175SOL    HW160551   4.346   0.798   3.926
20175SOL    HW260552   4.244   0.762   4.048
20176SOL     OW60553   5.005   0.345   4.668
20176SOL    HW160554   4.919   0.295   4.655
20176SOL    HW260555   5.067   0.291   4.724
20177SOL     OW60556   5.300   1.662   4.031
20177SOL    HW160557   5.389   1.708   4.034
20177SOL    HW260558   5.279   1.638   3.936
20178SOL     OW60559   4.531   0.605   5.189
20178SOL    HW160560   4.484   0.602   5.278
20178SOL    HW260561   4.480   0.550   5.123
20179SOL     OW60562   5.118   0.469   5.398
20179SOL    HW160563   5.098   0.512   5.486
20179SOL    HW260564   5.196   0.407   5.407
20180SOL     OW60565   4.697   0.890   5.296
20180SOL    HW160566   4.743   0.806   5.267
20180SOL    HW260567   4.641   0.924   5.221
20181SOL     OW60568   4.715   0.410   4.966
20181SOL    HW160569   4.638   0.444   5.020
20181SOL    HW260570   4.681   0.359   4.887
20182SOL     OW60571   4.765   0.701   4.153
20182SOL    HW160572   4.791   0.697   4.249
20182SOL    HW260573   4.680   0.650   4.139
20183SOL     OW60574   3.800   0.811   4.513
20183SOL    HW160575   3.899   0.799   4.522
20183SOL    HW260576   3.776   0.906   4.534
20184SOL     OW60577   3.854   1.821   5.295
20184SOL    HW160578   3.844   1.806   5.394
20184SOL    HW260579   3.768   1.857   5.259
20185SOL     OW60580   4.589   0.348   3.919
20185SOL    HW160581   4.648   0.411   3.870
20185SOL    HW260582   4.608   0.254   3.890
20186SOL     OW60583   5.443   0.585   5.555
20186SOL    HW160584   5.417   0.674   5.519
20186SOL    HW260585   5.441   0.517   5.482
20187SOL     OW60586   5.086   1.144   4.269
20187SOL    HW160587   5.169   1.115   4.221
20187SOL    HW260588   5.037   1.211   4.213
20188SOL     OW60589   4.274   0.196   4.609
20188SOL    HW160590   4.269   0.191   4.709
20188SOL    HW260591   4.276   0.292   4.580
20189SOL     OW60592   4.732   1.456   4.201
20189SOL    HW160593   4.686   1.528   4.149
20189SOL    HW260594   4.728   1.476   4.299
20190SOL     OW60595   4.075   1.801   4.577
20190SOL    HW160596   4.125   1.715   4.583
20190SOL    HW260597   4.140   1.878   4.574
20191SOL     OW60598   5.519   1.066   4.597
20191SOL    HW160599   5.457   1.051   4.521
20191SOL    HW260600   5.467   1.077   4.682
20192SOL     OW60601   4.951   1.550   5.230
20192SOL    HW160602   4.957   1.473   5.294
20192SOL    HW260603   4.899   1.524   5.150
20193SOL     OW60604   4.045   0.943   3.966
20193SOL    HW160605   4.127   0.982   3.924
20193SOL    HW260606   4.018   0.861   3.917
20194SOL     OW60607   5.182   0.735   4.452
20194SOL    HW160608   5.177   0.670   4.527
20194SOL    HW260609   5.262   0.794   4.465
20195SOL     OW60610   4.185   1.266   5.451
20195SOL    HW160611   4.135   1.267   5.365
20195SOL    HW260612   4.122   1.248   5.527
20196SOL     OW60613   4.835   1.776   3.961
20196SOL    HW160614   4.775   1.714   4.011
20196SOL    HW260615   4.866   1.732   3.876
20197SOL     OW60616   3.926   0.285   5.222
20197SOL    HW160617   3.846   0.345   5.209
20197SOL    HW260618   3.916   0.236   5.308
20198SOL     OW60619   5.356   1.377   3.805
20198SOL    HW160620   5.324   1.471   3.795
20198SOL    HW260621   5.280   1.314   3.793
20199SOL     OW60622   4.188   1.743   4.047
20199SOL    HW160623   4.221   1.782   4.133
20199SOL    HW260624   4.264   1.736   3.982
20200SOL     OW60625   5.124   0.107   4.150
20200SOL    HW160626   5.100   0.070   4.060
20200SOL    HW260627   5.223   0.123   4.154
20201SOL     OW60628   3.973   1.785   4.965
20201SOL    HW160629   4.030   1.720   5.015
20201SOL    HW260630   3.957   1.752   4.872
20202SOL     OW60631   4.664   1.698   4.628
20202SOL    HW160632   4.744   1.641   4.649
20202SOL    HW260633   4.615   1.658   4.551
20203SOL     OW60634   4.106   0.700   4.204
20203SOL    HW160635   4.151   0.610   4.201
20203SOL    HW260636   4.012   0.689   4.237
20204SOL     OW60637   5.271   0.222   5.453
20204SOL    HW160638   5.266   0.259   5.545
20204SOL    HW260639   5.199   0.153   5.441
20205SOL     OW60640   4.338   0.122   3.841
20205SOL    HW160641   4.436   0.100   3.848
20205SOL    HW260642   4.307   0.105   3.748
20206SOL     OW60643   4.505   0.264   5.473
20206SOL    HW160644   4.572   0.203   5.516
20206SOL    HW260645   4.432   0.283   5.538
20207SOL     OW60646   4.612   1.514   4.919
20207SOL    HW160647   4.589   1.489   4.825
20207SOL    HW260648   4.673   1.445   4.958
20208SOL     OW60649   5.075   0.590   5.157
20208SOL    HW160650   5.103   0.547   5.242
20208SOL    HW260651   5.100   0.686   5.158
20209SOL     OW60652   4.527   1.402   4.648
20209SOL    HW160653   4.617   1.416   4.606
20209SOL    HW260654   4.456   1.404   4.577
20210SOL     OW60655   4.646   0.503   4.623
20210SOL    HW160656   4.621   0.494   4.527
20210SOL    HW260657   4.694   0.421   4.654
20211SOL     OW60658   4.263   0.064   4.236
20211SOL    HW160659   4.182   0.065   4.294
20211SOL    HW260660   4.266   0.147   4.181
20212SOL     OW60661   5.158   1.188   3.765
20212SOL    HW160662   5.190   1.112   3.822
20212SOL    HW260663   5.066   1.215   3.795
20213SOL     OW60664   4.021   0.035   3.895
20213SOL    HW160665   4.070   0.119   3.874
20213SOL    HW260666   4.083  -0.030   3.940
20214SOL     OW60667   4.659   0.236   4.204
20214SOL    HW160668   4.611   0.277   4.126
20214SOL    HW260669   4.758   0.234   4.185
20215SOL     OW60670   4.800   0.683   5.188
20215SOL    HW160671   4.720   0.622   5.191
20215SOL    HW260672   4.881   0.630   5.164
20216SOL     OW60673   4.951   1.570   4.517
20216SOL    HW160674   4.972   1.644   4.452
20216SOL    HW260675   5.019   1.570   4.590
20217SOL     OW60676   4.183   1.152   4.465
20217SOL    HW160677   4.112   1.125   4.530
20217SOL    HW260678   4.157   1.124   4.372
20218SOL     OW60679   4.995   1.797   4.315
20218SOL    HW160680   5.039   1.861   4.251
20218SOL    HW260681   4.945   1.849   4.385
20219SOL     OW60682   4.756   0.549   3.740
20219SOL    HW160683   4.715   0.631   3.701
20219SOL    HW260684   4.820   0.575   3.813
20220SOL     OW60685   3.802   0.556   5.110
20220SOL    HW160686   3.894   0.555   5.069
20220SOL    HW260687   3.796   0.630   5.177
20221SOL     OW60688   4.285   0.222   4.871
20221SOL    HW160689   4.323   0.138   4.908
20221SOL    HW260690   4.197   0.241   4.915
20222SOL     OW60691   4.590   0.454   4.366
20222SOL    HW160692   4.558   0.526   4.304
20222SOL    HW260693   4.614   0.373   4.313
20223SOL     OW60694   4.741   0.039   4.477
20223SOL    HW160695   4.669   0.044   4.408
20223SOL    HW260696   4.717  -0.030   4.546
20224SOL     OW60697   5.153   1.173   4.591
20224SOL    HW160698   5.098   1.089   4.584
20224SOL    HW260699   5.179   1.202   4.499
20225SOL     OW60700   5.190   0.590   4.716
20225SOL    HW160701   5.160   0.495   4.723
20225SOL    HW260702   5.263   0.606   4.782
20226SOL     OW60703   5.581   0.833   4.101
20226SOL    HW160704   5.623   0.769   4.165
20226SOL    HW260705   5.543   0.782   4.023
20227SOL     OW60706   4.212   1.385   3.898
20227SOL    HW160707   4.125   1.370   3.945
20227SOL    HW260708   4.195   1.411   3.803
20228SOL     OW60709   5.388   1.280   4.381
20228SOL    HW160710   5.487   1.288   4.395
20228SOL    HW260711   5.343   1.364   4.412
20229SOL     OW60712   5.114   0.575   3.802
20229SOL    HW160713   5.060   0.554   3.883
20229SOL    HW260714   5.205   0.534   3.811
20230SOL     OW60715   4.251   0.256   4.052
20230SOL    HW160716   4.278   0.197   3.977
20230SOL    HW260717   4.251   0.351   4.021
20231SOL     OW60718   5.478   1.223   5.312
20231SOL    HW160719   5.569   1.184   5.299
20231SOL    HW260720   5.486   1.319   5.336
20232SOL     OW60721   4.788   1.347   5.064
20232SOL    HW160722   4.708   1.324   5.119
20232SOL    HW260723   4.871   1.321   5.113
20233SOL     OW60724   5.316   1.629   5.349
20233SOL    HW160725   5.343   1.663   5.259
20233SOL    HW260726   5.395   1.591   5.395
20234SOL     OW60727   4.835   1.195   4.824
20234SOL    HW160728   4.795   1.239   4.905
20234SOL    HW260729   4.794   1.232   4.741
20235SOL     OW60730   5.362   1.099   4.803
20235SOL    HW160731   5.367   1.180   4.862
20235SOL    HW260732   5.276   1.101   4.752
20236SOL     OW60733   4.639   0.089   5.126
20236SOL    HW160734   4.664   0.069   5.031
20236SOL    HW260735   4.711   0.145   5.168
20237SOL     OW60736   4.704   1.116   5.443
20237SOL    HW160737   4.605   1.122   5.453
20237SOL    HW260738   4.727   1.036   5.387
20238SOL     OW60739   4.429   1.050   4.092
20238SOL    HW160740   4.415   1.057   4.191
20238SOL    HW260741   4.513   0.999   4.074
20239SOL     OW60742   4.134   0.813   4.975
20239SOL    HW160743   4.220   0.825   5.025
20239SOL    HW260744   4.092   0.726   5.002
20240SOL     OW60745   4.998   0.386   4.986
20240SOL    HW160746   5.019   0.460   5.050
20240SOL    HW260747   4.909   0.403   4.943
20241SOL     OW60748   3.788   1.564   5.055
20241SOL    HW160749   3.742   1.646   5.021
20241SOL    HW260750   3.886   1.583   5.064
20242SOL     OW60751   4.091   1.100   4.225
20242SOL    HW160752   4.084   1.183   4.169
20242SOL    HW260753   4.095   1.020   4.165
20243SOL     OW60754   4.290   0.537   4.589
20243SOL    HW160755   4.302   0.603   4.515
20243SOL    HW260756   4.336   0.571   4.672
20244SOL     OW60757   4.976   1.348   4.112
20244SOL    HW160758   5.026   1.425   4.152
20244SOL    HW260759   4.881   1.350   4.144
20245SOL     OW60760   4.996   1.445   4.866
20245SOL    HW160761   5.043   1.458   4.953
20245SOL    HW260762   4.930   1.371   4.875
20246SOL     OW60763   5.306   0.639   4.196
20246SOL    HW160764   5.275   0.700   4.269
20246SOL    HW260765   5.356   0.691   4.127
20247SOL     OW60766   4.078   1.510   5.053
20247SOL    HW160767   4.057   1.466   4.966
20247SOL    HW260768   4.175   1.536   5.056
20248SOL     OW60769   4.126   0.751   5.322
20248SOL    HW160770   4.194   0.806   5.275
20248SOL    HW260771   4.166   0.663   5.349
20249SOL     OW60772   5.311   0.779   5.394
20249SOL    HW160773   5.219   0.817   5.389
20249SOL    HW260774   5.371   0.826   5.329
20250SOL     OW60775   4.737   0.105   5.494
20250SOL    HW160776   4.743   0.190   5.442
20250SOL    HW260777   4.769   0.029   5.437
20251SOL     OW60778   4.228   0.050   5.464
20251SOL    HW160779   4.186  -0.007   5.394
20251SOL    HW260780   4.162   0.119   5.496
20252SOL     OW60781   4.297   0.870   4.753
20252SOL    HW160782   4.341   0.959   4.744
20252SOL    HW260783   4.234   0.870   4.830
20253SOL     OW60784   5.084   0.862   4.769
20253SOL    HW160785   5.009   0.862   4.703
20253SOL    HW260786   5.121   0.770   4.778
20254SOL     OW60787   4.933   0.525   3.999
20254SOL    HW160788   4.946   0.441   4.053
20254SOL    HW260789   4.904   0.599   4.059
20255SOL     OW60790   4.031   0.213   4.955
20255SOL    HW160791   4.008   0.250   5.045
20255SOL    HW260792   4.001   0.118   4.949
20256SOL     OW60793   3.761   1.310   5.006
20256SOL    HW160794   3.814   1.261   5.074
20256SOL    HW260795   3.783   1.408   5.011
20257SOL     OW60796   4.456   0.634   4.788
20257SOL    HW160797   4.515   0.608   4.712
20257SOL    HW260798   4.428   0.730   4.777
20258SOL     OW60799   5.452   0.935   5.578
20258SOL    HW160800   5.406   0.928   5.489
20258SOL    HW260801   5.390   0.979   5.644
20259SOL     OW60802   4.031   0.063   4.342
20259SOL    HW160803   4.020   0.157   4.375
20259SOL    HW260804   4.026   0.000   4.419
20260SOL     OW60805   5.346   0.367   4.098
20260SOL    HW160806   5.348   0.291   4.162
20260SOL    HW260807   5.298   0.444   4.138
20261SOL     OW60808   4.747   0.766   4.690
20261SOL    HW160809   4.762   0.787   4.786
20261SOL    HW260810   4.717   0.671   4.681
20262SOL     OW60811   4.704   1.573   5.424
20262SOL    HW160812   4.684   1.617   5.336
20262SOL    HW260813   4.743   1.482   5.408
20263SOL     OW60814   5.583   1.518   5.329
20263SOL    HW160815   5.597   1.545   5.234
20263SOL    HW260816   5.666   1.540   5.382
20264SOL     OW60817   4.074   0.898   5.528
20264SOL    HW160818   4.150   0.942   5.576
20264SOL    HW260819   4.109   0.851   5.446
20265SOL     OW60820   5.264   0.274   3.849
20265SOL    HW160821   5.203   0.199   3.872
20265SOL    HW260822   5.286   0.326   3.932
20266SOL     OW60823   5.027   0.838   3.766
20266SOL    HW160824   5.061   0.745   3.781
20266SOL    HW260825   5.045   0.865   3.671
20267SOL     OW60826   4.792   1.333   4.573
20267SOL    HW160827   4.799   1.249   4.518
20267SOL    HW260828   4.854   1.402   4.537
20268SOL     OW60829   4.043   0.810   4.673
20268SOL    HW160830   4.136   0.846   4.678
20268SOL    HW260831   4.037   0.725   4.725
20269SOL     OW60832   4.063   0.509   4.730
20269SOL    HW160833   4.011   0.426   4.713
20269SOL    HW260834   4.140   0.514   4.666
20270SOL     OW60835   4.862   0.380   5.402
20270SOL    HW160836   4.817   0.443   5.466
20270SOL    HW260837   4.955   0.411   5.385
20271SOL     OW60838   4.884   0.207   5.201
20271SOL    HW160839   4.884   0.271   5.278
20271SOL    HW260840   4.912   0.255   5.118
20272SOL     OW60841   3.732   1.326   3.924
20272SOL    HW160842   3.639   1.347   3.893
20272SOL    HW260843   3.742   1.227   3.937
20273SOL     OW60844   3.812   1.801   4.651
20273SOL    HW160845   3.770   1.715   4.624
20273SOL    HW260846   3.906   1.804   4.617
20274SOL     OW60847   4.228   1.568   4.634
20274SOL    HW160848   4.294   1.642   4.643
20274SOL    HW260849   4.272   1.489   4.592
20275SOL     OW60850   4.726   0.796   4.962
20275SOL    HW160851   4.767   0.764   5.048
20275SOL    HW260852   4.630   0.769   4.959
20276SOL     OW60853   3.764   0.544   4.838
20276SOL    HW160854   3.849   0.511   4.797
20276SOL    HW260855   3.777   0.559   4.936
20277SOL     OW60856   3.913   0.520   5.446
20277SOL    HW160857   3.972   0.480   5.376
20277SOL    HW260858   3.855   0.591   5.405
20278SOL     OW60859   5.093   0.950   5.384
20278SOL    HW160860   5.132   1.039   5.404
20278SOL    HW260861   5.103   0.930   5.287
20279SOL     OW60862   4.539   0.572   4.049
20279SOL    HW160863   4.546   0.483   4.003
20279SOL    HW260864   4.445   0.606   4.041
20280SOL     OW60865   5.381   0.604   4.930
20280SOL    HW160866   5.343   0.535   4.992
20280SOL    HW260867   5.463   0.568   4.886
20281SOL     OW60868   3.976   1.564   5.468
20281SOL    HW160869   3.946   1.621   5.544
20281SOL    HW260870   3.969   1.467   5.494
20282SOL     OW60871   4.395   0.464   4.993
20282SOL    HW160872   4.361   0.375   4.963
20282SOL    HW260873   4.421   0.518   4.913
20283SOL     OW60874   4.654   1.678   5.189
20283SOL    HW160875   4.630   1.660   5.094
20283SOL    HW260876   4.684   1.772   5.199
20284SOL     OW60877   4.197   0.500   3.915
20284SOL    HW160878   4.258   0.580   3.919
20284SOL    HW260879   4.102   0.531   3.922
20285SOL     OW60880   3.883   1.137   5.190
20285SOL    HW160881   3.905   1.076   5.266
20285SOL    HW260882   3.893   1.088   5.104
20286SOL     OW60883   5.071   1.059   4.958
20286SOL    HW160884   5.095   0.996   4.884
20286SOL    HW260885   4.981   1.099   4.940
20287SOL     OW60886   5.026   0.855   4.033
20287SOL    HW160887   4.940   0.824   4.075
20287SOL    HW260888   5.022   0.841   3.934
20288SOL     OW60889   5.483   1.747   4.878
20288SOL    HW160890   5.544   1.777   4.805
20288SOL    HW260891   5.445   1.658   4.856
20289SOL     OW60892   4.976   1.731   4.852
20289SOL    HW160893   5.060   1.736   4.798
20289SOL    HW260894   4.953   1.635   4.870
20290SOL     OW60895   3.807   1.258   4.746
20290SOL    HW160896   3.802   1.257   4.846
20290SOL    HW260897   3.724   1.217   4.708
20291SOL     OW60898   4.412   1.662   5.440
20291SOL    HW160899   4.356   1.743   5.449
20291SOL    HW260900   4.464   1.666   5.354
20292SOL     OW60901   5.450   0.135   4.247
20292SOL    HW160902   5.523   0.118   4.180
20292SOL    HW260903   5.419   0.048   4.285
20293SOL     OW60904   5.112   1.573   4.201
20293SOL    HW160905   5.179   1.585   4.127
20293SOL    HW260906   5.072   1.662   4.224
20294SOL     OW60907   3.854   1.794   5.575
20294SOL    HW160908   3.813   1.720   5.628
20294SOL    HW260909   3.918   1.845   5.633
20295SOL     OW60910   5.004   0.927   4.396
20295SOL    HW160911   5.064   0.846   4.398
20295SOL    HW260912   5.044   0.996   4.336
20296SOL     OW60913   4.554   1.273   5.146
20296SOL    HW160914   4.549   1.306   5.241
20296SOL    HW260915   4.468   1.292   5.100
20297SOL     OW60916   4.396   1.616   3.878
20297SOL    HW160917   4.405   1.626   3.779
20297SOL    HW260918   4.356   1.527   3.899
20298SOL     OW60919   5.374   1.720   5.118
20298SOL    HW160920   5.427   1.730   5.034
20298SOL    HW260921   5.347   1.810   5.152
20299SOL     OW60922   5.565   0.175   4.687
20299SOL    HW160923   5.604   0.090   4.651
20299SOL    HW260924   5.467   0.177   4.668
20300SOL     OW60925   3.987   0.326   4.444
20300SOL    HW160926   3.908   0.377   4.410
20300SOL    HW260927   3.978   0.311   4.542
20301SOL     OW60928   4.918   1.612   3.755
20301SOL    HW160929   4.924   1.519   3.792
20301SOL    HW260930   4.859   1.612   3.675
20302SOL     OW60931   4.546   1.002   5.096
20302SOL    HW160932   4.586   1.001   5.004
20302SOL    HW260933   4.556   1.094   5.136
20303SOL     OW60934   4.640   0.910   4.015
20303SOL    HW160935   4.703   0.948   3.947
20303SOL    HW260936   4.680   0.827   4.054
20304SOL     OW60937   5.228   1.607   3.768
20304SOL    HW160938   5.136   1.644   3.775
20304SOL    HW260939   5.266   1.627   3.678
20305SOL     OW60940   4.096   1.288   5.214
20305SOL    HW160941   4.083   1.381   5.180
20305SOL    HW260942   4.012   1.236   5.201
20306SOL     OW60943   5.338   1.292   5.013
20306SOL    HW160944   5.398   1.295   5.093
20306SOL    HW260945   5.263   1.356   5.026
20307SOL     OW60946   4.763   1.098   4.420
20307SOL    HW160947   4.693   1.051   4.474
20307SOL    HW260948   4.822   1.030   4.377
20308SOL     OW60949   4.738   0.236   4.695
20308SOL    HW160950   4.730   0.200   4.602
20308SOL    HW260951   4.736   0.160   4.760
20309SOL     OW60952   4.314   1.487   4.215
20309SOL    HW160953   4.356   1.429   4.145
20309SOL    HW260954   4.270   1.566   4.171
20310SOL     OW60955   5.433   0.385   5.105
20310SOL    HW160956   5.506   0.454   5.109
20310SOL    HW260957   5.461   0.310   5.046
20311SOL     OW60958   3.979   1.348   4.014
20311SOL    HW160959   3.883   1.349   3.987
20311SOL    HW260960   3.991   1.401   4.098
20312SOL     OW60961   3.829   1.013   5.450
20312SOL    HW160962   3.752   0.980   5.504
20312SOL    HW260963   3.914   0.983   5.492
20313SOL     OW60964   4.396   0.203   5.213
20313SOL    HW160965   4.486   0.187   5.173
20313SOL    HW260966   4.404   0.208   5.312
20314SOL     OW60967   3.799   0.345   3.757
20314SOL    HW160968   3.707   0.317   3.728
20314SOL    HW260969   3.830   0.422   3.701
20315SOL     OW60970   5.164   0.856   5.122
20315SOL    HW160971   5.107   0.908   5.059
20315SOL    HW260972   5.260   0.868   5.098
20316SOL     OW60973   3.796   0.166   4.042
20316SOL    HW160974   3.779   0.249   3.988
20316SOL    HW260975   3.886   0.129   4.020
20317SOL     OW60976   4.907   1.335   3.843
20317SOL    HW160977   4.808   1.324   3.845
20317SOL    HW260978   4.941   1.350   3.936
20318SOL     OW60979   4.337   0.842   5.155
20318SOL    HW160980   4.393   0.923   5.138
20318SOL    HW260981   4.396   0.762   5.158
20319SOL     OW60982   5.217   1.767   4.683
20319SOL    HW160983   5.250   1.831   4.614
20319SOL    HW260984   5.283   1.761   4.758
20320SOL     OW60985   4.440   0.565   5.432
20320SOL    HW160986   4.459   0.630   5.506
20320SOL    HW260987   4.500   0.485   5.441
20321SOL     OW60988   5.174   1.220   5.357
20321SOL    HW160989   5.165   1.210   5.456
20321SOL    HW260990   5.270   1.213   5.331
20322SOL     OW60991   4.114   1.741   5.284
20322SOL    HW160992   4.023   1.782   5.282
20322SOL    HW260993   4.107   1.647   5.316
20323SOL     OW60994   5.398   0.883   4.978
20323SOL    HW160995   5.371   0.794   4.941
20323SOL    HW260996   5.399   0.951   4.905
20324SOL     OW60997   4.949   0.325   4.173
20324SOL    HW160998   5.014   0.251   4.162
20324SOL    HW260999   4.969   0.375   4.257
20325SOL     OW61000   4.318   0.745   4.376
20325SOL    HW161001   4.368   0.830   4.357
20325SOL    HW261002   4.230   0.747   4.328
20326SOL     OW61003   5.501   0.342   5.366
20326SOL    HW161004   5.484   0.373   5.272
20326SOL    HW261005   5.417   0.305   5.404
20327SOL     OW61006   5.454   0.934   5.241
20327SOL    HW161007   5.492   1.025   5.256
20327SOL    HW261008   5.446   0.917   5.142
20328SOL     OW61009   4.583   1.374   3.740
20328SOL    HW161010   4.537   1.389   3.828
20328SOL    HW261011   4.627   1.459   3.710
20329SOL     OW61012   4.385   1.790   4.677
20329SOL    HW161013   4.339   1.878   4.664
20329SOL    HW261014   4.484   1.802   4.670
20330SOL     OW61015   4.583   0.956   4.585
20330SOL    HW161016   4.637   0.887   4.633
20330SOL    HW261017   4.551   1.025   4.651
20331SOL     OW61018   4.807   0.984   3.811
20331SOL    HW161019   4.784   1.037   3.729
20331SOL    HW261020   4.888   0.928   3.792
20332SOL     OW61021   5.585   1.569   4.575
20332SOL    HW161022   5.514   1.557   4.505
20332SOL    HW261023   5.586   1.490   4.635
20333SOL     OW61024   3.945   1.314   5.568
20333SOL    HW161025   3.880   1.241   5.547
20333SOL    HW261026   3.949   1.328   5.666
20334SOL     OW61027   3.803   1.240   4.377
20334SOL    HW161028   3.802   1.193   4.465
20334SOL    HW261029   3.885   1.212   4.326
20335SOL     OW61030   4.396   1.391   5.348
20335SOL    HW161031   4.318   1.341   5.386
20335SOL    HW261032   4.393   1.486   5.379
20336SOL     OW61033   5.548   0.192   4.951
20336SOL    HW161034   5.544   0.102   4.995
20336SOL    HW261035   5.551   0.181   4.852
20337SOL     OW61036   4.152   0.424   4.244
20337SOL    HW161037   4.182   0.352   4.182
20337SOL    HW261038   4.113   0.384   4.327
20338SOL     OW61039   5.429   1.487   4.828
20338SOL    HW161040   5.336   1.462   4.801
20338SOL    HW261041   5.455   1.437   4.910
20339SOL     OW61042   4.041   0.547   5.004
20339SOL    HW161043   4.079   0.488   5.076
20339SOL    HW261044   4.081   0.521   4.916
20340SOL     OW61045   4.536   1.586   4.411
20340SOL    HW161046   4.568   1.596   4.317
20340SOL    HW261047   4.457   1.524   4.413
20341SOL     OW61048   5.148   0.214   4.836
20341SOL    HW161049   5.200   0.149   4.891
20341SOL    HW261050   5.099   0.277   4.897
20342SOL     OW61051   4.725   0.034   4.878
20342SOL    HW161052   4.662  -0.038   4.847
20342SOL    HW261053   4.818  -0.002   4.878
20343SOL     OW61054   4.494   1.330   4.025
20343SOL    HW161055   4.448   1.243   4.042
20343SOL    HW261056   4.585   1.327   4.066
20344SOL     OW61057   4.342   1.567   5.008
20344SOL    HW161058   4.337   1.649   5.065
20344SOL    HW261059   4.431   1.564   4.963
20345SOL     OW61060   5.076   0.052   3.892
20345SOL    HW161061   5.111   0.011   3.808
20345SOL    HW261062   4.986   0.014   3.912
20346SOL     OW61063   5.024   0.453   4.415
20346SOL    HW161064   4.965   0.533   4.419
20346SOL    HW261065   5.039   0.418   4.508
20347SOL     OW61066   5.317   0.221   4.606
20347SOL    HW161067   5.233   0.220   4.660
20347SOL    HW261068   5.319   0.304   4.550
20348SOL     OW61069   3.763   1.077   4.024
20348SOL    HW161070   3.862   1.066   4.015
20348SOL    HW261071   3.723   0.991   4.056
20349SOL     OW61072   4.599   1.646   4.061
20349SOL    HW161073   4.522   1.611   4.007
20349SOL    HW261074   4.567   1.717   4.123
20350SOL     OW61075   3.954   0.628   5.699
20350SOL    HW161076   3.861   0.626   5.736
20350SOL    HW261077   3.955   0.589   5.607
20351SOL     OW61078   3.949   0.275   6.582
20351SOL    HW161079   3.984   0.258   6.674
20351SOL    HW261080   3.861   0.230   6.570
20352SOL     OW61081   3.743   0.368   6.233
20352SOL    HW161082   3.661   0.411   6.272
20352SOL    HW261083   3.715   0.295   6.170
20353SOL     OW61084   4.293   1.275   6.751
20353SOL    HW161085   4.200   1.268   6.714
20353SOL    HW261086   4.304   1.364   6.795
20354SOL     OW61087   5.279   1.511   6.289
20354SOL    HW161088   5.222   1.495   6.370
20354SOL    HW261089   5.220   1.521   6.209
20355SOL     OW61090   4.859   0.703   6.303
20355SOL    HW161091   4.916   0.781   6.278
20355SOL    HW261092   4.799   0.729   6.379
20356SOL     OW61093   5.479   0.607   5.817
20356SOL    HW161094   5.467   0.594   5.718
20356SOL    HW261095   5.449   0.526   5.866
20357SOL     OW61096   4.492   1.144   6.609
20357SOL    HW161097   4.414   1.161   6.669
20357SOL    HW261098   4.526   1.231   6.573
20358SOL     OW61099   4.574   0.798   7.409
20358SOL    HW161100   4.570   0.874   7.474
20358SOL    HW261101   4.596   0.834   7.318
20359SOL     OW61102   4.409   1.012   6.251
20359SOL    HW161103   4.478   0.996   6.321
20359SOL    HW261104   4.336   1.069   6.289
20360SOL     OW61105   4.410   1.161   7.389
20360SOL    HW161106   4.470   1.240   7.403
20360SOL    HW261107   4.324   1.192   7.348
20361SOL     OW61108   4.059   1.435   6.647
20361SOL    HW161109   3.981   1.404   6.594
20361SOL    HW261110   4.117   1.493   6.590
20362SOL     OW61111   5.184   1.505   6.925
20362SOL    HW161112   5.208   1.599   6.951
20362SOL    HW261113   5.168   1.451   7.007
20363SOL     OW61114   4.162   0.392   7.085
20363SOL    HW161115   4.244   0.336   7.094
20363SOL    HW261116   4.081   0.334   7.089
20364SOL     OW61117   5.327   0.447   6.323
20364SOL    HW161118   5.253   0.493   6.273
20364SOL    HW261119   5.378   0.515   6.376
20365SOL     OW61120   3.955   1.713   6.069
20365SOL    HW161121   3.989   1.790   6.123
20365SOL    HW261122   3.999   1.713   5.979
20366SOL     OW61123   4.851   1.341   7.276
20366SOL    HW161124   4.898   1.341   7.364
20366SOL    HW261125   4.803   1.254   7.265
20367SOL     OW61126   3.954   1.434   6.124
20367SOL    HW161127   3.928   1.530   6.124
20367SOL    HW261128   3.883   1.380   6.169
20368SOL     OW61129   3.964   1.091   6.472
20368SOL    HW161130   3.978   1.007   6.524
20368SOL    HW261131   3.909   1.155   6.527
20369SOL     OW61132   4.344   1.786   7.025
20369SOL    HW161133   4.252   1.769   7.060
20369SOL    HW261134   4.372   1.878   7.051
20370SOL     OW61135   4.330   0.964   5.709
20370SOL    HW161136   4.337   1.048   5.655
20370SOL    HW261137   4.376   0.977   5.797
20371SOL     OW61138   5.318   0.114   7.066
20371SOL    HW161139   5.300   0.181   6.994
20371SOL    HW261140   5.315   0.160   7.155
20372SOL     OW61141   3.846   0.643   6.149
20372SOL    HW161142   3.801   0.555   6.166
20372SOL    HW261143   3.845   0.697   6.233
20373SOL     OW61144   5.566   1.767   5.945
20373SOL    HW161145   5.620   1.738   6.025
20373SOL    HW261146   5.596   1.857   5.916
20374SOL     OW61147   3.751   1.596   5.703
20374SOL    HW161148   3.732   1.500   5.724
20374SOL    HW261149   3.718   1.654   5.778
20375SOL     OW61150   5.413   0.922   6.198
20375SOL    HW161151   5.508   0.893   6.206
20375SOL    HW261152   5.405   0.987   6.123
20376SOL     OW61153   5.365   1.108   6.018
20376SOL    HW161154   5.451   1.110   5.966
20376SOL    HW261155   5.379   1.155   6.106
20377SOL     OW61156   3.837   0.737   7.183
20377SOL    HW161157   3.925   0.724   7.228
20377SOL    HW261158   3.824   0.834   7.161
20378SOL     OW61159   4.337   1.365   6.312
20378SOL    HW161160   4.288   1.278   6.321
20378SOL    HW261161   4.314   1.408   6.225
20379SOL     OW61162   5.017   1.228   7.009
20379SOL    HW161163   5.054   1.155   6.951
20379SOL    HW261164   5.069   1.233   7.094
20380SOL     OW61165   4.533   0.004   6.088
20380SOL    HW161166   4.573   0.095   6.079
20380SOL    HW261167   4.433   0.012   6.094
20381SOL     OW61168   3.921   0.976   6.850
20381SOL    HW161169   4.010   0.931   6.836
20381SOL    HW261170   3.848   0.911   6.831
20382SOL     OW61171   5.249   0.999   5.776
20382SOL    HW161172   5.186   0.923   5.789
20382SOL    HW261173   5.297   1.017   5.862
20383SOL     OW61174   4.911   1.792   7.202
20383SOL    HW161175   4.935   1.852   7.126
20383SOL    HW261176   4.918   1.697   7.172
20384SOL     OW61177   4.041   0.251   7.387
20384SOL    HW161178   4.112   0.322   7.393
20384SOL    HW261179   3.953   0.290   7.415
20385SOL     OW61180   5.190   1.417   6.539
20385SOL    HW161181   5.131   1.423   6.619
20385SOL    HW261182   5.175   1.329   6.493
20386SOL     OW61183   5.391   1.714   6.158
20386SOL    HW161184   5.350   1.691   6.070
20386SOL    HW261185   5.373   1.640   6.223
20387SOL     OW61186   4.322   0.729   5.856
20387SOL    HW161187   4.346   0.798   5.788
20387SOL    HW261188   4.244   0.762   5.910
20388SOL     OW61189   5.005   0.345   6.530
20388SOL    HW161190   4.919   0.295   6.517
20388SOL    HW261191   5.067   0.291   6.586
20389SOL     OW61192   5.300   1.662   5.893
20389SOL    HW161193   5.389   1.708   5.896
20389SOL    HW261194   5.279   1.638   5.798
20390SOL     OW61195   4.531   0.605   7.051
20390SOL    HW161196   4.484   0.602   7.140
20390SOL    HW261197   4.480   0.550   6.985
20391SOL     OW61198   5.118   0.469   7.260
20391SOL    HW161199   5.098   0.512   7.348
20391SOL    HW261200   5.196   0.407   7.269
20392SOL     OW61201   4.697   0.890   7.158
20392SOL    HW161202   4.743   0.806   7.129
20392SOL    HW261203   4.641   0.924   7.083
20393SOL     OW61204   4.715   0.410   6.828
20393SOL    HW161205   4.638   0.444   6.882
20393SOL    HW261206   4.681   0.359   6.749
20394SOL     OW61207   4.765   0.701   6.015
20394SOL    HW161208   4.791   0.697   6.111
20394SOL    HW261209   4.680   0.650   6.001
20395SOL     OW61210   3.800   0.811   6.375
20395SOL    HW161211   3.899   0.799   6.384
20395SOL    HW261212   3.776   0.906   6.396
20396SOL     OW61213   3.854   1.821   7.157
20396SOL    HW161214   3.844   1.806   7.256
20396SOL    HW261215   3.768   1.857   7.121
20397SOL     OW61216   4.589   0.348   5.781
20397SOL    HW161217   4.648   0.411   5.732
20397SOL    HW261218   4.608   0.254   5.752
20398SOL     OW61219   5.443   0.585   7.417
20398SOL    HW161220   5.417   0.674   7.381
20398SOL    HW261221   5.441   0.517   7.344
20399SOL     OW61222   5.086   1.144   6.131
20399SOL    HW161223   5.169   1.115   6.083
20399SOL    HW261224   5.037   1.211   6.075
20400SOL     OW61225   4.274   0.196   6.471
20400SOL    HW161226   4.269   0.191   6.571
20400SOL    HW261227   4.276   0.292   6.442
20401SOL     OW61228   4.732   1.456   6.063
20401SOL    HW161229   4.686   1.528   6.011
20401SOL    HW261230   4.728   1.476   6.161
20402SOL     OW61231   4.075   1.801   6.439
20402SOL    HW161232   4.125   1.715   6.445
20402SOL    HW261233   4.140   1.878   6.436
20403SOL     OW61234   5.519   1.066   6.459
20403SOL    HW161235   5.457   1.051   6.383
20403SOL    HW261236   5.467   1.077   6.544
20404SOL     OW61237   4.951   1.550   7.092
20404SOL    HW161238   4.957   1.473   7.156
20404SOL    HW261239   4.899   1.524   7.012
20405SOL     OW61240   4.045   0.943   5.828
20405SOL    HW161241   4.127   0.982   5.786
20405SOL    HW261242   4.018   0.861   5.779
20406SOL     OW61243   5.182   0.735   6.314
20406SOL    HW161244   5.177   0.670   6.389
20406SOL    HW261245   5.262   0.794   6.327
20407SOL     OW61246   4.185   1.266   7.313
20407SOL    HW161247   4.135   1.267   7.227
20407SOL    HW261248   4.122   1.248   7.389
20408SOL     OW61249   4.835   1.776   5.823
20408SOL    HW161250   4.775   1.714   5.873
20408SOL    HW261251   4.866   1.732   5.738
20409SOL     OW61252   3.926   0.285   7.084
20409SOL    HW161253   3.846   0.345   7.071
20409SOL    HW261254   3.916   0.236   7.170
20410SOL     OW61255   5.356   1.377   5.667
20410SOL    HW161256   5.324   1.471   5.657
20410SOL    HW261257   5.280   1.314   5.655
20411SOL     OW61258   4.188   1.743   5.909
20411SOL    HW161259   4.221   1.782   5.995
20411SOL    HW261260   4.264   1.736   5.844
20412SOL     OW61261   5.124   0.107   6.012
20412SOL    HW161262   5.100   0.070   5.922
20412SOL    HW261263   5.223   0.123   6.016
20413SOL     OW61264   3.973   1.785   6.827
20413SOL    HW161265   4.030   1.720   6.877
20413SOL    HW261266   3.957   1.752   6.734
20414SOL     OW61267   4.664   1.698   6.490
20414SOL    HW161268   4.744   1.641   6.511
20414SOL    HW261269   4.615   1.658   6.413
20415SOL     OW61270   4.106   0.700   6.066
20415SOL    HW161271   4.151   0.610   6.063
20415SOL    HW261272   4.012   0.689   6.099
20416SOL     OW61273   5.271   0.222   7.315
20416SOL    HW161274   5.266   0.259   7.407
20416SOL    HW261275   5.199   0.153   7.303
20417SOL     OW61276   4.338   0.122   5.703
20417SOL    HW161277   4.436   0.100   5.710
20417SOL    HW261278   4.307   0.105   5.610
20418SOL     OW61279   4.505   0.264   7.335
20418SOL    HW161280   4.572   0.203   7.378
20418SOL    HW261281   4.432   0.283   7.400
20419SOL     OW61282   4.612   1.514   6.781
20419SOL    HW161283   4.589   1.489   6.687
20419SOL    HW261284   4.673   1.445   6.820
20420SOL     OW61285   5.075   0.590   7.019
20420SOL    HW161286   5.103   0.547   7.104
20420SOL    HW261287   5.100   0.686   7.020
20421SOL     OW61288   4.527   1.402   6.510
20421SOL    HW161289   4.617   1.416   6.468
20421SOL    HW261290   4.456   1.404   6.439
20422SOL     OW61291   4.646   0.503   6.485
20422SOL    HW161292   4.621   0.494   6.389
20422SOL    HW261293   4.694   0.421   6.516
20423SOL     OW61294   4.263   0.064   6.098
20423SOL    HW161295   4.182   0.065   6.156
20423SOL    HW261296   4.266   0.147   6.043
20424SOL     OW61297   5.158   1.188   5.627
20424SOL    HW161298   5.190   1.112   5.684
20424SOL    HW261299   5.066   1.215   5.657
20425SOL     OW61300   4.021   0.035   5.757
20425SOL    HW161301   4.070   0.119   5.736
20425SOL    HW261302   4.083  -0.030   5.802
20426SOL     OW61303   4.659   0.236   6.066
20426SOL    HW161304   4.611   0.277   5.988
20426SOL    HW261305   4.758   0.234   6.047
20427SOL     OW61306   4.800   0.683   7.050
20427SOL    HW161307   4.720   0.622   7.053
20427SOL    HW261308   4.881   0.630   7.026
20428SOL     OW61309   4.951   1.570   6.379
20428SOL    HW161310   4.972   1.644   6.314
20428SOL    HW261311   5.019   1.570   6.452
20429SOL     OW61312   4.183   1.152   6.327
20429SOL    HW161313   4.112   1.125   6.392
20429SOL    HW261314   4.157   1.124   6.234
20430SOL     OW61315   4.995   1.797   6.177
20430SOL    HW161316   5.039   1.861   6.113
20430SOL    HW261317   4.945   1.849   6.247
20431SOL     OW61318   4.756   0.549   5.602
20431SOL    HW161319   4.715   0.631   5.563
20431SOL    HW261320   4.820   0.575   5.675
20432SOL     OW61321   3.802   0.556   6.972
20432SOL    HW161322   3.894   0.555   6.931
20432SOL    HW261323   3.796   0.630   7.039
20433SOL     OW61324   4.285   0.222   6.733
20433SOL    HW161325   4.323   0.138   6.770
20433SOL    HW261326   4.197   0.241   6.777
20434SOL     OW61327   4.590   0.454   6.228
20434SOL    HW161328   4.558   0.526   6.166
20434SOL    HW261329   4.614   0.373   6.175
20435SOL     OW61330   4.741   0.039   6.339
20435SOL    HW161331   4.669   0.044   6.270
20435SOL    HW261332   4.717  -0.030   6.408
20436SOL     OW61333   5.153   1.173   6.453
20436SOL    HW161334   5.098   1.089   6.446
20436SOL    HW261335   5.179   1.202   6.361
20437SOL     OW61336   5.190   0.590   6.578
20437SOL    HW161337   5.160   0.495   6.585
20437SOL    HW261338   5.263   0.606   6.644
20438SOL     OW61339   5.581   0.833   5.963
20438SOL    HW161340   5.623   0.769   6.027
20438SOL    HW261341   5.543   0.782   5.885
20439SOL     OW61342   4.212   1.385   5.760
20439SOL    HW161343   4.125   1.370   5.807
20439SOL    HW261344   4.195   1.411   5.665
20440SOL     OW61345   5.388   1.280   6.243
20440SOL    HW161346   5.487   1.288   6.257
20440SOL    HW261347   5.343   1.364   6.274
20441SOL     OW61348   5.114   0.575   5.664
20441SOL    HW161349   5.060   0.554   5.745
20441SOL    HW261350   5.205   0.534   5.673
20442SOL     OW61351   4.251   0.256   5.914
20442SOL    HW161352   4.278   0.197   5.839
20442SOL    HW261353   4.251   0.351   5.883
20443SOL     OW61354   5.478   1.223   7.174
20443SOL    HW161355   5.569   1.184   7.161
20443SOL    HW261356   5.486   1.319   7.198
20444SOL     OW61357   4.788   1.347   6.926
20444SOL    HW161358   4.708   1.324   6.981
20444SOL    HW261359   4.871   1.321   6.975
20445SOL     OW61360   5.316   1.629   7.211
20445SOL    HW161361   5.343   1.663   7.121
20445SOL    HW261362   5.395   1.591   7.257
20446SOL     OW61363   4.835   1.195   6.686
20446SOL    HW161364   4.795   1.239   6.767
20446SOL    HW261365   4.794   1.232   6.603
20447SOL     OW61366   5.362   1.099   6.665
20447SOL    HW161367   5.367   1.180   6.724
20447SOL    HW261368   5.276   1.101   6.614
20448SOL     OW61369   4.639   0.089   6.988
20448SOL    HW161370   4.664   0.069   6.893
20448SOL    HW261371   4.711   0.145   7.030
20449SOL     OW61372   4.704   1.116   7.305
20449SOL    HW161373   4.605   1.122   7.315
20449SOL    HW261374   4.727   1.036   7.249
20450SOL     OW61375   4.429   1.050   5.954
20450SOL    HW161376   4.415   1.057   6.053
20450SOL    HW261377   4.513   0.999   5.936
20451SOL     OW61378   4.134   0.813   6.837
20451SOL    HW161379   4.220   0.825   6.887
20451SOL    HW261380   4.092   0.726   6.864
20452SOL     OW61381   4.998   0.386   6.848
20452SOL    HW161382   5.019   0.460   6.912
20452SOL    HW261383   4.909   0.403   6.805
20453SOL     OW61384   3.788   1.564   6.917
20453SOL    HW161385   3.742   1.646   6.883
20453SOL    HW261386   3.886   1.583   6.926
20454SOL     OW61387   4.091   1.100   6.087
20454SOL    HW161388   4.084   1.183   6.031
20454SOL    HW261389   4.095   1.020   6.027
20455SOL     OW61390   4.290   0.537   6.451
20455SOL    HW161391   4.302   0.603   6.377
20455SOL    HW261392   4.336   0.571   6.534
20456SOL     OW61393   4.976   1.348   5.974
20456SOL    HW161394   5.026   1.425   6.014
20456SOL    HW261395   4.881   1.350   6.006
20457SOL     OW61396   4.996   1.445   6.728
20457SOL    HW161397   5.043   1.458   6.815
20457SOL    HW261398   4.930   1.371   6.737
20458SOL     OW61399   5.306   0.639   6.058
20458SOL    HW161400   5.275   0.700   6.131
20458SOL    HW261401   5.356   0.691   5.989
20459SOL     OW61402   4.078   1.510   6.915
20459SOL    HW161403   4.057   1.466   6.828
20459SOL    HW261404   4.175   1.536   6.918
20460SOL     OW61405   4.126   0.751   7.184
20460SOL    HW161406   4.194   0.806   7.137
20460SOL    HW261407   4.166   0.663   7.211
20461SOL     OW61408   5.311   0.779   7.256
20461SOL    HW161409   5.219   0.817   7.251
20461SOL    HW261410   5.371   0.826   7.191
20462SOL     OW61411   4.737   0.105   7.356
20462SOL    HW161412   4.743   0.190   7.304
20462SOL    HW261413   4.769   0.029   7.299
20463SOL     OW61414   4.228   0.050   7.326
20463SOL    HW161415   4.186  -0.007   7.256
20463SOL    HW261416   4.162   0.119   7.358
20464SOL     OW61417   4.297   0.870   6.615
20464SOL    HW161418   4.341   0.959   6.606
20464SOL    HW261419   4.234   0.870   6.692
20465SOL     OW61420   5.084   0.862   6.631
20465SOL    HW161421   5.009   0.862   6.565
20465SOL    HW261422   5.121   0.770   6.640
20466SOL     OW61423   4.933   0.525   5.861
20466SOL    HW161424   4.946   0.441   5.915
20466SOL    HW261425   4.904   0.599   5.921
20467SOL     OW61426   4.031   0.213   6.817
20467SOL    HW161427   4.008   0.250   6.907
20467SOL    HW261428   4.001   0.118   6.811
20468SOL     OW61429   3.761   1.310   6.868
20468SOL    HW161430   3.814   1.261   6.936
20468SOL    HW261431   3.783   1.408   6.873
20469SOL     OW61432   4.456   0.634   6.650
20469SOL    HW161433   4.515   0.608   6.574
20469SOL    HW261434   4.428   0.730   6.639
20470SOL     OW61435   5.452   0.935   7.440
20470SOL    HW161436   5.406   0.928   7.351
20470SOL    HW261437   5.390   0.979   7.506
20471SOL     OW61438   4.031   0.063   6.204
20471SOL    HW161439   4.020   0.157   6.237
20471SOL    HW261440   4.026   0.000   6.281
20472SOL     OW61441   5.346   0.367   5.960
20472SOL    HW161442   5.348   0.291   6.024
20472SOL    HW261443   5.298   0.444   6.000
20473SOL     OW61444   4.747   0.766   6.552
20473SOL    HW161445   4.762   0.787   6.648
20473SOL    HW261446   4.717   0.671   6.543
20474SOL     OW61447   4.704   1.573   7.286
20474SOL    HW161448   4.684   1.617   7.198
20474SOL    HW261449   4.743   1.482   7.270
20475SOL     OW61450   5.583   1.518   7.191
20475SOL    HW161451   5.597   1.545   7.096
20475SOL    HW261452   5.666   1.540   7.244
20476SOL     OW61453   4.074   0.898   7.390
20476SOL    HW161454   4.150   0.942   7.438
20476SOL    HW261455   4.109   0.851   7.308
20477SOL     OW61456   5.264   0.274   5.711
20477SOL    HW161457   5.203   0.199   5.734
20477SOL    HW261458   5.286   0.326   5.794
20478SOL     OW61459   5.027   0.838   5.628
20478SOL    HW161460   5.061   0.745   5.643
20478SOL    HW261461   5.045   0.865   5.533
20479SOL     OW61462   4.792   1.333   6.435
20479SOL    HW161463   4.799   1.249   6.380
20479SOL    HW261464   4.854   1.402   6.399
20480SOL     OW61465   4.043   0.810   6.535
20480SOL    HW161466   4.136   0.846   6.540
20480SOL    HW261467   4.037   0.725   6.587
20481SOL     OW61468   4.063   0.509   6.592
20481SOL    HW161469   4.011   0.426   6.575
20481SOL    HW261470   4.140   0.514   6.528
20482SOL     OW61471   4.862   0.380   7.264
20482SOL    HW161472   4.817   0.443   7.328
20482SOL    HW261473   4.955   0.411   7.247
20483SOL     OW61474   4.884   0.207   7.063
20483SOL    HW161475   4.884   0.271   7.140
20483SOL    HW261476   4.912   0.255   6.980
20484SOL     OW61477   3.732   1.326   5.786
20484SOL    HW161478   3.639   1.347   5.755
20484SOL    HW261479   3.742   1.227   5.799
20485SOL     OW61480   3.812   1.801   6.513
20485SOL    HW161481   3.770   1.715   6.486
20485SOL    HW261482   3.906   1.804   6.479
20486SOL     OW61483   4.228   1.568   6.496
20486SOL    HW161484   4.294   1.642   6.505
20486SOL    HW261485   4.272   1.489   6.454
20487SOL     OW61486   4.726   0.796   6.824
20487SOL    HW161487   4.767   0.764   6.910
20487SOL    HW261488   4.630   0.769   6.821
20488SOL     OW61489   3.764   0.544   6.700
20488SOL    HW161490   3.849   0.511   6.659
20488SOL    HW261491   3.777   0.559   6.798
20489SOL     OW61492   3.913   0.520   7.308
20489SOL    HW161493   3.972   0.480   7.238
20489SOL    HW261494   3.855   0.591   7.267
20490SOL     OW61495   5.093   0.950   7.246
20490SOL    HW161496   5.132   1.039   7.266
20490SOL    HW261497   5.103   0.930   7.149
20491SOL     OW61498   4.539   0.572   5.911
20491SOL    HW161499   4.546   0.483   5.865
20491SOL    HW261500   4.445   0.606   5.903
20492SOL     OW61501   5.381   0.604   6.792
20492SOL    HW161502   5.343   0.535   6.854
20492SOL    HW261503   5.463   0.568   6.748
20493SOL     OW61504   3.976   1.564   7.330
20493SOL    HW161505   3.946   1.621   7.406
20493SOL    HW261506   3.969   1.467   7.356
20494SOL     OW61507   4.395   0.464   6.855
20494SOL    HW161508   4.361   0.375   6.825
20494SOL    HW261509   4.421   0.518   6.775
20495SOL     OW61510   4.654   1.678   7.051
20495SOL    HW161511   4.630   1.660   6.956
20495SOL    HW261512   4.684   1.772   7.061
20496SOL     OW61513   4.197   0.500   5.777
20496SOL    HW161514   4.258   0.580   5.781
20496SOL    HW261515   4.102   0.531   5.784
20497SOL     OW61516   3.883   1.137   7.052
20497SOL    HW161517   3.905   1.076   7.128
20497SOL    HW261518   3.893   1.088   6.966
20498SOL     OW61519   5.071   1.059   6.820
20498SOL    HW161520   5.095   0.996   6.746
20498SOL    HW261521   4.981   1.099   6.802
20499SOL     OW61522   5.026   0.855   5.895
20499SOL    HW161523   4.940   0.824   5.937
20499SOL    HW261524   5.022   0.841   5.796
20500SOL     OW61525   5.483   1.747   6.740
20500SOL    HW161526   5.544   1.777   6.667
20500SOL    HW261527   5.445   1.658   6.718
20501SOL     OW61528   4.976   1.731   6.714
20501SOL    HW161529   5.060   1.736   6.660
20501SOL    HW261530   4.953   1.635   6.732
20502SOL     OW61531   3.807   1.258   6.608
20502SOL    HW161532   3.802   1.257   6.708
20502SOL    HW261533   3.724   1.217   6.570
20503SOL     OW61534   4.412   1.662   7.302
20503SOL    HW161535   4.356   1.743   7.311
20503SOL    HW261536   4.464   1.666   7.216
20504SOL     OW61537   5.450   0.135   6.109
20504SOL    HW161538   5.523   0.118   6.042
20504SOL    HW261539   5.419   0.048   6.147
20505SOL     OW61540   5.112   1.573   6.063
20505SOL    HW161541   5.179   1.585   5.989
20505SOL    HW261542   5.072   1.662   6.086
20506SOL     OW61543   3.854   1.794   7.437
20506SOL    HW161544   3.813   1.720   7.490
20506SOL    HW261545   3.918   1.845   7.495
20507SOL     OW61546   5.004   0.927   6.258
20507SOL    HW161547   5.064   0.846   6.260
20507SOL    HW261548   5.044   0.996   6.198
20508SOL     OW61549   4.396   1.616   5.740
20508SOL    HW161550   4.405   1.626   5.641
20508SOL    HW261551   4.356   1.527   5.761
20509SOL     OW61552   5.374   1.720   6.980
20509SOL    HW161553   5.427   1.730   6.896
20509SOL    HW261554   5.347   1.810   7.014
20510SOL     OW61555   5.565   0.175   6.549
20510SOL    HW161556   5.604   0.090   6.513
20510SOL    HW261557   5.467   0.177   6.530
20511SOL     OW61558   3.987   0.326   6.306
20511SOL    HW161559   3.908   0.377   6.272
20511SOL    HW261560   3.978   0.311   6.404
20512SOL     OW61561   4.918   1.612   5.617
20512SOL    HW161562   4.924   1.519   5.654
20512SOL    HW261563   4.859   1.612   5.537
20513SOL     OW61564   4.546   1.002   6.958
20513SOL    HW161565   4.586   1.001   6.866
20513SOL    HW261566   4.556   1.094   6.998
20514SOL     OW61567   4.640   0.910   5.877
20514SOL    HW161568   4.703   0.948   5.809
20514SOL    HW261569   4.680   0.827   5.916
20515SOL     OW61570   5.228   1.607   5.630
20515SOL    HW161571   5.136   1.644   5.637
20515SOL    HW261572   5.266   1.627   5.540
20516SOL     OW61573   4.096   1.288   7.076
20516SOL    HW161574   4.083   1.381   7.042
20516SOL    HW261575   4.012   1.236   7.063
20517SOL     OW61576   5.338   1.292   6.875
20517SOL    HW161577   5.398   1.295   6.955
20517SOL    HW261578   5.263   1.356   6.888
20518SOL     OW61579   4.763   1.098   6.282
20518SOL    HW161580   4.693   1.051   6.336
20518SOL    HW261581   4.822   1.030   6.239
20519SOL     OW61582   4.738   0.236   6.557
20519SOL    HW161583   4.730   0.200   6.464
20519SOL    HW261584   4.736   0.160   6.622
20520SOL     OW61585   4.314   1.487   6.077
20520SOL    HW161586   4.356   1.429   6.007
20520SOL    HW261587   4.270   1.566   6.033
20521SOL     OW61588   5.433   0.385   6.967
20521SOL    HW161589   5.506   0.454   6.971
20521SOL    HW261590   5.461   0.310   6.908
20522SOL     OW61591   3.979   1.348   5.876
20522SOL    HW161592   3.883   1.349   5.849
20522SOL    HW261593   3.991   1.401   5.960
20523SOL     OW61594   3.829   1.013   7.312
20523SOL    HW161595   3.752   0.980   7.366
20523SOL    HW261596   3.914   0.983   7.354
20524SOL     OW61597   3.799   0.345   5.619
20524SOL    HW161598   3.707   0.317   5.590
20524SOL    HW261599   3.830   0.422   5.563
20525SOL     OW61600   5.164   0.856   6.984
20525SOL    HW161601   5.107   0.908   6.921
20525SOL    HW261602   5.260   0.868   6.960
20526SOL     OW61603   3.796   0.166   5.904
20526SOL    HW161604   3.779   0.249   5.850
20526SOL    HW261605   3.886   0.129   5.882
20527SOL     OW61606   4.907   1.335   5.705
20527SOL    HW161607   4.808   1.324   5.707
20527SOL    HW261608   4.941   1.350   5.798
20528SOL     OW61609   4.337   0.842   7.017
20528SOL    HW161610   4.393   0.923   7.000
20528SOL    HW261611   4.396   0.762   7.020
20529SOL     OW61612   5.217   1.767   6.545
20529SOL    HW161613   5.250   1.831   6.476
20529SOL    HW261614   5.283   1.761   6.620
20530SOL     OW61615   4.440   0.565   7.294
20530SOL    HW161616   4.459   0.630   7.368
20530SOL    HW261617   4.500   0.485   7.303
20531SOL     OW61618   5.174   1.220   7.219
20531SOL    HW161619   5.165   1.210   7.318
20531SOL    HW261620   5.270   1.213   7.193
20532SOL     OW61621   4.114   1.741   7.146
20532SOL    HW161622   4.023   1.782   7.144
20532SOL    HW261623   4.107   1.647   7.178
20533SOL     OW61624   5.398   0.883   6.840
20533SOL    HW161625   5.371   0.794   6.803
20533SOL    HW261626   5.399   0.951   6.767
20534SOL     OW61627   4.949   0.325   6.035
20534SOL    HW161628   5.014   0.251   6.024
20534SOL    HW261629   4.969   0.375   6.119
20535SOL     OW61630   4.318   0.745   6.238
20535SOL    HW161631   4.368   0.830   6.219
20535SOL    HW261632   4.230   0.747   6.190
20536SOL     OW61633   5.501   0.342   7.228
20536SOL    HW161634   5.484   0.373   7.134
20536SOL    HW261635   5.417   0.305   7.266
20537SOL     OW61636   5.454   0.934   7.103
20537SOL    HW161637   5.492   1.025   7.118
20537SOL    HW261638   5.446   0.917   7.004
20538SOL     OW61639   4.583   1.374   5.602
20538SOL    HW161640   4.537   1.389   5.690
20538SOL    HW261641   4.627   1.459   5.572
20539SOL     OW61642   4.385   1.790   6.539
20539SOL    HW161643   4.339   1.878   6.526
20539SOL    HW261644   4.484   1.802   6.532
20540SOL     OW61645   4.583   0.956   6.447
20540SOL    HW161646   4.637   0.887   6.495
20540SOL    HW261647   4.551   1.025   6.513
20541SOL     OW61648   4.807   0.984   5.673
20541SOL    HW161649   4.784   1.037   5.591
20541SOL    HW261650   4.888   0.928   5.654
20542SOL     OW61651   5.585   1.569   6.437
20542SOL    HW161652   5.514   1.557   6.367
20542SOL    HW261653   5.586   1.490   6.497
20543SOL     OW61654   3.945   1.314   7.430
20543SOL    HW161655   3.880   1.241   7.409
20543SOL    HW261656   3.949   1.328   7.528
20544SOL     OW61657   3.803   1.240   6.239
20544SOL    HW161658   3.802   1.193   6.327
20544SOL    HW261659   3.885   1.212   6.188
20545SOL     OW61660   4.396   1.391   7.210
20545SOL    HW161661   4.318   1.341   7.248
20545SOL    HW261662   4.393   1.486   7.241
20546SOL     OW61663   5.548   0.192   6.813
20546SOL    HW161664   5.544   0.102   6.857
20546SOL    HW261665   5.551   0.181   6.714
20547SOL     OW61666   4.152   0.424   6.106
20547SOL    HW161667   4.182   0.352   6.044
20547SOL    HW261668   4.113   0.384   6.189
20548SOL     OW61669   5.429   1.487   6.690
20548SOL    HW161670   5.336   1.462   6.663
20548SOL    HW261671   5.455   1.437   6.772
20549SOL     OW61672   4.041   0.547   6.866
20549SOL    HW161673   4.079   0.488   6.938
20549SOL    HW261674   4.081   0.521   6.778
20550SOL     OW61675   4.536   1.586   6.273
20550SOL    HW161676   4.568   1.596   6.179
20550SOL    HW261677   4.457   1.524   6.275
20551SOL     OW61678   5.148   0.214   6.698
20551SOL    HW161679   5.200   0.149   6.753
20551SOL    HW261680   5.099   0.277   6.759
20552SOL     OW61681   4.725   0.034   6.740
20552SOL    HW161682   4.662  -0.038   6.709
20552SOL    HW261683   4.818  -0.002   6.740
20553SOL     OW61684   4.494   1.330   5.887
20553SOL    HW161685   4.448   1.243   5.904
20553SOL    HW261686   4.585   1.327   5.928
20554SOL     OW61687   4.342   1.567   6.870
20554SOL    HW161688   4.337   1.649   6.927
20554SOL    HW261689   4.431   1.564   6.825
20555SOL     OW61690   5.076   0.052   5.754
20555SOL    HW161691   5.111   0.011   5.670
20555SOL    HW261692   4.986   0.014   5.774
20556SOL     OW61693   5.024   0.453   6.277
20556SOL    HW161694   4.965   0.533   6.281
20556SOL    HW261695   5.039   0.418   6.370
20557SOL     OW61696   5.317   0.221   6.468
20557SOL    HW161697   5.233   0.220   6.522
20557SOL    HW261698   5.319   0.304   6.412
20558SOL     OW61699   3.763   1.077   5.886
20558SOL    HW161700   3.862   1.066   5.877
20558SOL    HW261701   3.723   0.991   5.918
20559SOL     OW61702   4.599   1.646   5.923
20559SOL    HW161703   4.522   1.611   5.869
20559SOL    HW261704   4.567   1.717   5.985
20560SOL     OW61705   3.954   0.628   7.561
20560SOL    HW161706   3.861   0.626   7.598
20560SOL    HW261707   3.955   0.589   7.469
20561SOL     OW61708   3.949   0.275   8.444
20561SOL    HW161709   3.984   0.258   8.536
20561SOL    HW261710   3.861   0.230   8.432
20562SOL     OW61711   3.743   0.368   8.095
20562SOL    HW161712   3.661   0.411   8.134
20562SOL    HW261713   3.715   0.295   8.032
20563SOL     OW61714   4.293   1.275   8.613
20563SOL    HW161715   4.200   1.268   8.576
20563SOL    HW261716   4.304   1.364   8.657
20564SOL     OW61717   5.279   1.511   8.151
20564SOL    HW161718   5.222   1.495   8.232
20564SOL    HW261719   5.220   1.521   8.071
20565SOL     OW61720   4.859   0.703   8.165
20565SOL    HW161721   4.916   0.781   8.140
20565SOL    HW261722   4.799   0.729   8.241
20566SOL     OW61723   5.479   0.607   7.679
20566SOL    HW161724   5.467   0.594   7.580
20566SOL    HW261725   5.449   0.526   7.728
20567SOL     OW61726   4.492   1.144   8.471
20567SOL    HW161727   4.414   1.161   8.531
20567SOL    HW261728   4.526   1.231   8.435
20568SOL     OW61729   4.574   0.798   9.271
20568SOL    HW161730   4.570   0.874   9.336
20568SOL    HW261731   4.596   0.834   9.180
20569SOL     OW61732   4.409   1.012   8.113
20569SOL    HW161733   4.478   0.996   8.183
20569SOL    HW261734   4.336   1.069   8.151
20570SOL     OW61735   4.410   1.161   9.251
20570SOL    HW161736   4.470   1.240   9.265
20570SOL    HW261737   4.324   1.192   9.210
20571SOL     OW61738   4.059   1.435   8.509
20571SOL    HW161739   3.981   1.404   8.456
20571SOL    HW261740   4.117   1.493   8.452
20572SOL     OW61741   5.184   1.505   8.787
20572SOL    HW161742   5.208   1.599   8.813
20572SOL    HW261743   5.168   1.451   8.869
20573SOL     OW61744   4.162   0.392   8.947
20573SOL    HW161745   4.244   0.336   8.956
20573SOL    HW261746   4.081   0.334   8.951
20574SOL     OW61747   5.327   0.447   8.185
20574SOL    HW161748   5.253   0.493   8.135
20574SOL    HW261749   5.378   0.515   8.238
20575SOL     OW61750   3.955   1.713   7.931
20575SOL    HW161751   3.989   1.790   7.985
20575SOL    HW261752   3.999   1.713   7.841
20576SOL     OW61753   4.851   1.341   9.138
20576SOL    HW161754   4.898   1.341   9.226
20576SOL    HW261755   4.803   1.254   9.127
20577SOL     OW61756   3.954   1.434   7.986
20577SOL    HW161757   3.928   1.530   7.986
20577SOL    HW261758   3.883   1.380   8.031
20578SOL     OW61759   3.964   1.091   8.334
20578SOL    HW161760   3.978   1.007   8.386
20578SOL    HW261761   3.909   1.155   8.389
20579SOL     OW61762   4.344   1.786   8.887
20579SOL    HW161763   4.252   1.769   8.922
20579SOL    HW261764   4.372   1.878   8.913
20580SOL     OW61765   4.330   0.964   7.571
20580SOL    HW161766   4.337   1.048   7.517
20580SOL    HW261767   4.376   0.977   7.659
20581SOL     OW61768   5.318   0.114   8.928
20581SOL    HW161769   5.300   0.181   8.856
20581SOL    HW261770   5.315   0.160   9.017
20582SOL     OW61771   3.846   0.643   8.011
20582SOL    HW161772   3.801   0.555   8.028
20582SOL    HW261773   3.845   0.697   8.095
20583SOL     OW61774   5.566   1.767   7.807
20583SOL    HW161775   5.620   1.738   7.887
20583SOL    HW261776   5.596   1.857   7.778
20584SOL     OW61777   3.751   1.596   7.565
20584SOL    HW161778   3.732   1.500   7.586
20584SOL    HW261779   3.718   1.654   7.640
20585SOL     OW61780   5.413   0.922   8.060
20585SOL    HW161781   5.508   0.893   8.068
20585SOL    HW261782   5.405   0.987   7.985
20586SOL     OW61783   5.365   1.108   7.880
20586SOL    HW161784   5.451   1.110   7.828
20586SOL    HW261785   5.379   1.155   7.968
20587SOL     OW61786   3.837   0.737   9.045
20587SOL    HW161787   3.925   0.724   9.090
20587SOL    HW261788   3.824   0.834   9.023
20588SOL     OW61789   4.337   1.365   8.174
20588SOL    HW161790   4.288   1.278   8.183
20588SOL    HW261791   4.314   1.408   8.087
20589SOL     OW61792   5.017   1.228   8.871
20589SOL    HW161793   5.054   1.155   8.813
20589SOL    HW261794   5.069   1.233   8.956
20590SOL     OW61795   4.533   0.004   7.950
20590SOL    HW161796   4.573   0.095   7.941
20590SOL    HW261797   4.433   0.012   7.956
20591SOL     OW61798   3.921   0.976   8.712
20591SOL    HW161799   4.010   0.931   8.698
20591SOL    HW261800   3.848   0.911   8.693
20592SOL     OW61801   5.249   0.999   7.638
20592SOL    HW161802   5.186   0.923   7.651
20592SOL    HW261803   5.297   1.017   7.724
20593SOL     OW61804   4.911   1.792   9.064
20593SOL    HW161805   4.935   1.852   8.988
20593SOL    HW261806   4.918   1.697   9.034
20594SOL     OW61807   4.041   0.251   9.249
20594SOL    HW161808   4.112   0.322   9.255
20594SOL    HW261809   3.953   0.290   9.277
20595SOL     OW61810   5.190   1.417   8.401
20595SOL    HW161811   5.131   1.423   8.481
20595SOL    HW261812   5.175   1.329   8.355
20596SOL     OW61813   5.391   1.714   8.020
20596SOL    HW161814   5.350   1.691   7.932
20596SOL    HW261815   5.373   1.640   8.085
20597SOL     OW61816   4.322   0.729   7.718
20597SOL    HW161817   4.346   0.798   7.650
20597SOL    HW261818   4.244   0.762   7.772
20598SOL     OW61819   5.005   0.345   8.392
20598SOL    HW161820   4.919   0.295   8.379
20598SOL    HW261821   5.067   0.291   8.448
20599SOL     OW61822   5.300   1.662   7.755
20599SOL    HW161823   5.389   1.708   7.758
20599SOL    HW261824   5.279   1.638   7.660
20600SOL     OW61825   4.531   0.605   8.913
20600SOL    HW161826   4.484   0.602   9.002
20600SOL    HW261827   4.480   0.550   8.847
20601SOL     OW61828   5.118   0.469   9.122
20601SOL    HW161829   5.098   0.512   9.210
20601SOL    HW261830   5.196   0.407   9.131
20602SOL     OW61831   4.697   0.890   9.020
20602SOL    HW161832   4.743   0.806   8.991
20602SOL    HW261833   4.641   0.924   8.945
20603SOL     OW61834   4.715   0.410   8.690
20603SOL    HW161835   4.638   0.444   8.744
20603SOL    HW261836   4.681   0.359   8.611
20604SOL     OW61837   4.765   0.701   7.877
20604SOL    HW161838   4.791   0.697   7.973
20604SOL    HW261839   4.680   0.650   7.863
20605SOL     OW61840   3.800   0.811   8.237
20605SOL    HW161841   3.899   0.799   8.246
20605SOL    HW261842   3.776   0.906   8.258
20606SOL     OW61843   3.854   1.821   9.019
20606SOL    HW161844   3.844   1.806   9.118
20606SOL    HW261845   3.768   1.857   8.983
20607SOL     OW61846   4.589   0.348   7.643
20607SOL    HW161847   4.648   0.411   7.594
20607SOL    HW261848   4.608   0.254   7.614
20608SOL     OW61849   5.443   0.585   9.279
20608SOL    HW161850   5.417   0.674   9.243
20608SOL    HW261851   5.441   0.517   9.206
20609SOL     OW61852   5.086   1.144   7.993
20609SOL    HW161853   5.169   1.115   7.945
20609SOL    HW261854   5.037   1.211   7.937
20610SOL     OW61855   4.274   0.196   8.333
20610SOL    HW161856   4.269   0.191   8.433
20610SOL    HW261857   4.276   0.292   8.304
20611SOL     OW61858   4.732   1.456   7.925
20611SOL    HW161859   4.686   1.528   7.873
20611SOL    HW261860   4.728   1.476   8.023
20612SOL     OW61861   4.075   1.801   8.301
20612SOL    HW161862   4.125   1.715   8.307
20612SOL    HW261863   4.140   1.878   8.298
20613SOL     OW61864   5.519   1.066   8.321
20613SOL    HW161865   5.457   1.051   8.245
20613SOL    HW261866   5.467   1.077   8.406
20614SOL     OW61867   4.951   1.550   8.954
20614SOL    HW161868   4.957   1.473   9.018
20614SOL    HW261869   4.899   1.524   8.874
20615SOL     OW61870   4.045   0.943   7.690
20615SOL    HW161871   4.127   0.982   7.648
20615SOL    HW261872   4.018   0.861   7.641
20616SOL     OW61873   5.182   0.735   8.176
20616SOL    HW161874   5.177   0.670   8.251
20616SOL    HW261875   5.262   0.794   8.189
20617SOL     OW61876   4.185   1.266   9.175
20617SOL    HW161877   4.135   1.267   9.089
20617SOL    HW261878   4.122   1.248   9.251
20618SOL     OW61879   4.835   1.776   7.685
20618SOL    HW161880   4.775   1.714   7.735
20618SOL    HW261881   4.866   1.732   7.600
20619SOL     OW61882   3.926   0.285   8.946
20619SOL    HW161883   3.846   0.345   8.933
20619SOL    HW261884   3.916   0.236   9.032
20620SOL     OW61885   5.356   1.377   7.529
20620SOL    HW161886   5.324   1.471   7.519
20620SOL    HW261887   5.280   1.314   7.517
20621SOL     OW61888   4.188   1.743   7.771
20621SOL    HW161889   4.221   1.782   7.857
20621SOL    HW261890   4.264   1.736   7.706
20622SOL     OW61891   5.124   0.107   7.874
20622SOL    HW161892   5.100   0.070   7.784
20622SOL    HW261893   5.223   0.123   7.878
20623SOL     OW61894   3.973   1.785   8.689
20623SOL    HW161895   4.030   1.720   8.739
20623SOL    HW261896   3.957   1.752   8.596
20624SOL     OW61897   4.664   1.698   8.352
20624SOL    HW161898   4.744   1.641   8.373
20624SOL    HW261899   4.615   1.658   8.275
20625SOL     OW61900   4.106   0.700   7.928
20625SOL    HW161901   4.151   0.610   7.925
20625SOL    HW261902   4.012   0.689   7.961
20626SOL     OW61903   5.271   0.222   9.177
20626SOL    HW161904   5.266   0.259   9.269
20626SOL    HW261905   5.199   0.153   9.165
20627SOL     OW61906   4.338   0.122   7.565
20627SOL    HW161907   4.436   0.100   7.572
20627SOL    HW261908   4.307   0.105   7.472
20628SOL     OW61909   4.505   0.264   9.197
20628SOL    HW161910   4.572   0.203   9.240
20628SOL    HW261911   4.432   0.283   9.262
20629SOL     OW61912   4.612   1.514   8.643
20629SOL    HW161913   4.589   1.489   8.549
20629SOL    HW261914   4.673   1.445   8.682
20630SOL     OW61915   5.075   0.590   8.881
20630SOL    HW161916   5.103   0.547   8.966
20630SOL    HW261917   5.100   0.686   8.882
20631SOL     OW61918   4.527   1.402   8.372
20631SOL    HW161919   4.617   1.416   8.330
20631SOL    HW261920   4.456   1.404   8.301
20632SOL     OW61921   4.646   0.503   8.347
20632SOL    HW161922   4.621   0.494   8.251
20632SOL    HW261923   4.694   0.421   8.378
20633SOL     OW61924   4.263   0.064   7.960
20633SOL    HW161925   4.182   0.065   8.018
20633SOL    HW261926   4.266   0.147   7.905
20634SOL     OW61927   5.158   1.188   7.489
20634SOL    HW161928   5.190   1.112   7.546
20634SOL    HW261929   5.066   1.215   7.519
20635SOL     OW61930   4.021   0.035   7.619
20635SOL    HW161931   4.070   0.119   7.598
20635SOL    HW261932   4.083  -0.030   7.664
20636SOL     OW61933   4.659   0.236   7.928
20636SOL    HW161934   4.611   0.277   7.850
20636SOL    HW261935   4.758   0.234   7.909
20637SOL     OW61936   4.800   0.683   8.912
20637SOL    HW161937   4.720   0.622   8.915
20637SOL    HW261938   4.881   0.630   8.888
20638SOL     OW61939   4.951   1.570   8.241
20638SOL    HW161940   4.972   1.644   8.176
20638SOL    HW261941   5.019   1.570   8.314
20639SOL     OW61942   4.183   1.152   8.189
20639SOL    HW161943   4.112   1.125   8.254
20639SOL    HW261944   4.157   1.124   8.096
20640SOL     OW61945   4.995   1.797   8.039
20640SOL    HW161946   5.039   1.861   7.975
20640SOL    HW261947   4.945   1.849   8.109
20641SOL     OW61948   4.756   0.549   7.464
20641SOL    HW161949   4.715   0.631   7.425
20641SOL    HW261950   4.820   0.575   7.537
20642SOL     OW61951   3.802   0.556   8.834
20642SOL    HW161952   3.894   0.555   8.793
20642SOL    HW261953   3.796   0.630   8.901
20643SOL     OW61954   4.285   0.222   8.595
20643SOL    HW161955   4.323   0.138   8.632
20643SOL    HW261956   4.197   0.241   8.639
20644SOL     OW61957   4.590   0.454   8.090
20644SOL    HW161958   4.558   0.526   8.028
20644SOL    HW261959   4.614   0.373   8.037
20645SOL     OW61960   4.741   0.039   8.201
20645SOL    HW161961   4.669   0.044   8.132
20645SOL    HW261962   4.717  -0.030   8.270
20646SOL     OW61963   5.153   1.173   8.315
20646SOL    HW161964   5.098   1.089   8.308
20646SOL    HW261965   5.179   1.202   8.223
20647SOL     OW61966   5.190   0.590   8.440
20647SOL    HW161967   5.160   0.495   8.447
20647SOL    HW261968   5.263   0.606   8.506
20648SOL     OW61969   5.581   0.833   7.825
20648SOL    HW161970   5.623   0.769   7.889
20648SOL    HW261971   5.543   0.782   7.747
20649SOL     OW61972   4.212   1.385   7.622
20649SOL    HW161973   4.125   1.370   7.669
20649SOL    HW261974   4.195   1.411   7.527
20650SOL     OW61975   5.388   1.280   8.105
20650SOL    HW161976   5.487   1.288   8.119
20650SOL    HW261977   5.343   1.364   8.136
20651SOL     OW61978   5.114   0.575   7.526
20651SOL    HW161979   5.060   0.554   7.607
20651SOL    HW261980   5.205   0.534   7.535
20652SOL     OW61981   4.251   0.256   7.776
20652SOL    HW161982   4.278   0.197   7.701
20652SOL    HW261983   4.251   0.351   7.745
20653SOL     OW61984   5.478   1.223   9.036
20653SOL    HW161985   5.569   1.184   9.023
20653SOL    HW261986   5.486   1.319   9.060
20654SOL     OW61987   4.788   1.347   8.788
20654SOL    HW161988   4.708   1.324   8.843
20654SOL    HW261989   4.871   1.321   8.837
20655SOL     OW61990   5.316   1.629   9.073
20655SOL    HW161991   5.343   1.663   8.983
20655SOL    HW261992   5.395   1.591   9.119
20656SOL     OW61993   4.835   1.195   8.548
20656SOL    HW161994   4.795   1.239   8.629
20656SOL    HW261995   4.794   1.232   8.465
20657SOL     OW61996   5.362   1.099   8.527
20657SOL    HW161997   5.367   1.180   8.586
20657SOL    HW261998   5.276   1.101   8.476
20658SOL     OW61999   4.639   0.089   8.850
20658SOL    HW162000   4.664   0.069   8.755
20658SOL    HW262001   4.711   0.145   8.892
20659SOL     OW62002   4.704   1.116   9.167
20659SOL    HW162003   4.605   1.122   9.177
20659SOL    HW262004   4.727   1.036   9.111
20660SOL     OW62005   4.429   1.050   7.816
20660SOL    HW162006   4.415   1.057   7.915
20660SOL    HW262007   4.513   0.999   7.798
20661SOL     OW62008   4.134   0.813   8.699
20661SOL    HW162009   4.220   0.825   8.749
20661SOL    HW262010   4.092   0.726   8.726
20662SOL     OW62011   4.998   0.386   8.710
20662SOL    HW162012   5.019   0.460   8.774
20662SOL    HW262013   4.909   0.403   8.667
20663SOL     OW62014   3.788   1.564   8.779
20663SOL    HW162015   3.742   1.646   8.745
20663SOL    HW262016   3.886   1.583   8.788
20664SOL     OW62017   4.091   1.100   7.949
20664SOL    HW162018   4.084   1.183   7.893
20664SOL    HW262019   4.095   1.020   7.889
20665SOL     OW62020   4.290   0.537   8.313
20665SOL    HW162021   4.302   0.603   8.239
20665SOL    HW262022   4.336   0.571   8.396
20666SOL     OW62023   4.976   1.348   7.836
20666SOL    HW162024   5.026   1.425   7.876
20666SOL    HW262025   4.881   1.350   7.868
20667SOL     OW62026   4.996   1.445   8.590
20667SOL    HW162027   5.043   1.458   8.677
20667SOL    HW262028   4.930   1.371   8.599
20668SOL     OW62029   5.306   0.639   7.920
20668SOL    HW162030   5.275   0.700   7.993
20668SOL    HW262031   5.356   0.691   7.851
20669SOL     OW62032   4.078   1.510   8.777
20669SOL    HW162033   4.057   1.466   8.690
20669SOL    HW262034   4.175   1.536   8.780
20670SOL     OW62035   4.126   0.751   9.046
20670SOL    HW162036   4.194   0.806   8.999
20670SOL    HW262037   4.166   0.663   9.073
20671SOL     OW62038   5.311   0.779   9.118
20671SOL    HW162039   5.219   0.817   9.113
20671SOL    HW262040   5.371   0.826   9.053
20672SOL     OW62041   4.737   0.105   9.218
20672SOL    HW162042   4.743   0.190   9.166
20672SOL    HW262043   4.769   0.029   9.161
20673SOL     OW62044   4.228   0.050   9.188
20673SOL    HW162045   4.186  -0.007   9.118
20673SOL    HW262046   4.162   0.119   9.220
20674SOL     OW62047   4.297   0.870   8.477
20674SOL    HW162048   4.341   0.959   8.468
20674SOL    HW262049   4.234   0.870   8.554
20675SOL     OW62050   5.084   0.862   8.493
20675SOL    HW162051   5.009   0.862   8.427
20675SOL    HW262052   5.121   0.770   8.502
20676SOL     OW62053   4.933   0.525   7.723
20676SOL    HW162054   4.946   0.441   7.777
20676SOL    HW262055   4.904   0.599   7.783
20677SOL     OW62056   4.031   0.213   8.679
20677SOL    HW162057   4.008   0.250   8.769
20677SOL    HW262058   4.001   0.118   8.673
20678SOL     OW62059   3.761   1.310   8.730
20678SOL    HW162060   3.814   1.261   8.798
20678SOL    HW262061   3.783   1.408   8.735
20679SOL     OW62062   4.456   0.634   8.512
20679SOL    HW162063   4.515   0.608   8.436
20679SOL    HW262064   4.428   0.730   8.501
20680SOL     OW62065   5.452   0.935   9.302
20680SOL    HW162066   5.406   0.928   9.213
20680SOL    HW262067   5.390   0.979   9.368
20681SOL     OW62068   4.031   0.063   8.066
20681SOL    HW162069   4.020   0.157   8.099
20681SOL    HW262070   4.026   0.000   8.143
20682SOL     OW62071   5.346   0.367   7.822
20682SOL    HW162072   5.348   0.291   7.886
20682SOL    HW262073   5.298   0.444   7.862
20683SOL     OW62074   4.747   0.766   8.414
20683SOL    HW162075   4.762   0.787   8.510
20683SOL    HW262076   4.717   0.671   8.405
20684SOL     OW62077   4.704   1.573   9.148
20684SOL    HW162078   4.684   1.617   9.060
20684SOL    HW262079   4.743   1.482   9.132
20685SOL     OW62080   5.583   1.518   9.053
20685SOL    HW162081   5.597   1.545   8.958
20685SOL    HW262082   5.666   1.540   9.106
20686SOL     OW62083   4.074   0.898   9.252
20686SOL    HW162084   4.150   0.942   9.300
20686SOL    HW262085   4.109   0.851   9.170
20687SOL     OW62086   5.264   0.274   7.573
20687SOL    HW162087   5.203   0.199   7.596
20687SOL    HW262088   5.286   0.326   7.656
20688SOL     OW62089   5.027   0.838   7.490
20688SOL    HW162090   5.061   0.745   7.505
20688SOL    HW262091   5.045   0.865   7.395
20689SOL     OW62092   4.792   1.333   8.297
20689SOL    HW162093   4.799   1.249   8.242
20689SOL    HW262094   4.854   1.402   8.261
20690SOL     OW62095   4.043   0.810   8.397
20690SOL    HW162096   4.136   0.846   8.402
20690SOL    HW262097   4.037   0.725   8.449
20691SOL     OW62098   4.063   0.509   8.454
20691SOL    HW162099   4.011   0.426   8.437
20691SOL    HW262100   4.140   0.514   8.390
20692SOL     OW62101   4.862   0.380   9.126
20692SOL    HW162102   4.817   0.443   9.190
20692SOL    HW262103   4.955   0.411   9.109
20693SOL     OW62104   4.884   0.207   8.925
20693SOL    HW162105   4.884   0.271   9.002
20693SOL    HW262106   4.912   0.255   8.842
20694SOL     OW62107   3.732   1.326   7.648
20694SOL    HW162108   3.639   1.347   7.617
20694SOL    HW262109   3.742   1.227   7.661
20695SOL     OW62110   3.812   1.801   8.375
20695SOL    HW162111   3.770   1.715   8.348
20695SOL    HW262112   3.906   1.804   8.341
20696SOL     OW62113   4.228   1.568   8.358
20696SOL    HW162114   4.294   1.642   8.367
20696SOL    HW262115   4.272   1.489   8.316
20697SOL     OW62116   4.726   0.796   8.686
20697SOL    HW162117   4.767   0.764   8.772
20697SOL    HW262118   4.630   0.769   8.683
20698SOL     OW62119   3.764   0.544   8.562
20698SOL    HW162120   3.849   0.511   8.521
20698SOL    HW262121   3.777   0.559   8.660
20699SOL     OW62122   3.913   0.520   9.170
20699SOL    HW162123   3.972   0.480   9.100
20699SOL    HW262124   3.855   0.591   9.129
20700SOL     OW62125   5.093   0.950   9.108
20700SOL    HW162126   5.132   1.039   9.128
20700SOL    HW262127   5.103   0.930   9.011
20701SOL     OW62128   4.539   0.572   7.773
20701SOL    HW162129   4.546   0.483   7.727
20701SOL    HW262130   4.445   0.606   7.765
20702SOL     OW62131   5.381   0.604   8.654
20702SOL    HW162132   5.343   0.535   8.716
20702SOL    HW262133   5.463   0.568   8.610
20703SOL     OW62134   3.976   1.564   9.192
20703SOL    HW162135   3.946   1.621   9.268
20703SOL    HW262136   3.969   1.467   9.218
20704SOL     OW62137   4.395   0.464   8.717
20704SOL    HW162138   4.361   0.375   8.687
20704SOL    HW262139   4.421   0.518   8.637
20705SOL     OW62140   4.654   1.678   8.913
20705SOL    HW162141   4.630   1.660   8.818
20705SOL    HW262142   4.684   1.772   8.923
20706SOL     OW62143   4.197   0.500   7.639
20706SOL    HW162144   4.258   0.580   7.643
20706SOL    HW262145   4.102   0.531   7.646
20707SOL     OW62146   3.883   1.137   8.914
20707SOL    HW162147   3.905   1.076   8.990
20707SOL    HW262148   3.893   1.088   8.828
20708SOL     OW62149   5.071   1.059   8.682
20708SOL    HW162150   5.095   0.996   8.608
20708SOL    HW262151   4.981   1.099   8.664
20709SOL     OW62152   5.026   0.855   7.757
20709SOL    HW162153   4.940   0.824   7.799
20709SOL    HW262154   5.022   0.841   7.658
20710SOL     OW62155   5.483   1.747   8.602
20710SOL    HW162156   5.544   1.777   8.529
20710SOL    HW262157   5.445   1.658   8.580
20711SOL     OW62158   3.807   1.258   8.470
20711SOL    HW162159   3.802   1.257   8.570
20711SOL    HW262160   3.724   1.217   8.432
20712SOL     OW62161   4.412   1.662   9.164
20712SOL    HW162162   4.356   1.743   9.173
20712SOL    HW262163   4.464   1.666   9.078
20713SOL     OW62164   5.450   0.135   7.971
20713SOL    HW162165   5.523   0.118   7.904
20713SOL    HW262166   5.419   0.048   8.009
20714SOL     OW62167   5.112   1.573   7.925
20714SOL    HW162168   5.179   1.585   7.851
20714SOL    HW262169   5.072   1.662   7.948
20715SOL     OW62170   3.854   1.794   9.299
20715SOL    HW162171   3.813   1.720   9.352
20715SOL    HW262172   3.918   1.845   9.357
20716SOL     OW62173   5.004   0.927   8.120
20716SOL    HW162174   5.064   0.846   8.122
20716SOL    HW262175   5.044   0.996   8.060
20717SOL     OW62176   4.554   1.273   8.870
20717SOL    HW162177   4.549   1.306   8.965
20717SOL    HW262178   4.468   1.292   8.824
20718SOL     OW62179   4.396   1.616   7.602
20718SOL    HW162180   4.405   1.626   7.503
20718SOL    HW262181   4.356   1.527   7.623
20719SOL     OW62182   5.374   1.720   8.842
20719SOL    HW162183   5.427   1.730   8.758
20719SOL    HW262184   5.347   1.810   8.876
20720SOL     OW62185   5.565   0.175   8.411
20720SOL    HW162186   5.604   0.090   8.375
20720SOL    HW262187   5.467   0.177   8.392
20721SOL     OW62188   3.987   0.326   8.168
20721SOL    HW162189   3.908   0.377   8.134
20721SOL    HW262190   3.978   0.311   8.266
20722SOL     OW62191   4.918   1.612   7.479
20722SOL    HW162192   4.924   1.519   7.516
20722SOL    HW262193   4.859   1.612   7.399
20723SOL     OW62194   4.546   1.002   8.820
20723SOL    HW162195   4.586   1.001   8.728
20723SOL    HW262196   4.556   1.094   8.860
20724SOL     OW62197   4.640   0.910   7.739
20724SOL    HW162198   4.703   0.948   7.671
20724SOL    HW262199   4.680   0.827   7.778
20725SOL     OW62200   5.228   1.607   7.492
20725SOL    HW162201   5.136   1.644   7.499
20725SOL    HW262202   5.266   1.627   7.402
20726SOL     OW62203   4.096   1.288   8.938
20726SOL    HW162204   4.083   1.381   8.904
20726SOL    HW262205   4.012   1.236   8.925
20727SOL     OW62206   5.338   1.292   8.737
20727SOL    HW162207   5.398   1.295   8.817
20727SOL    HW262208   5.263   1.356   8.750
20728SOL     OW62209   4.763   1.098   8.144
20728SOL    HW162210   4.693   1.051   8.198
20728SOL    HW262211   4.822   1.030   8.101
20729SOL     OW62212   4.738   0.236   8.419
20729SOL    HW162213   4.730   0.200   8.326
20729SOL    HW262214   4.736   0.160   8.484
20730SOL     OW62215   4.314   1.487   7.939
20730SOL    HW162216   4.356   1.429   7.869
20730SOL    HW262217   4.270   1.566   7.895
20731SOL     OW62218   5.433   0.385   8.829
20731SOL    HW162219   5.506   0.454   8.833
20731SOL    HW262220   5.461   0.310   8.770
20732SOL     OW62221   3.979   1.348   7.738
20732SOL    HW162222   3.883   1.349   7.711
20732SOL    HW262223   3.991   1.401   7.822
20733SOL     OW62224   3.829   1.013   9.174
20733SOL    HW162225   3.752   0.980   9.228
20733SOL    HW262226   3.914   0.983   9.216
20734SOL     OW62227   4.396   0.203   8.937
20734SOL    HW162228   4.486   0.187   8.897
20734SOL    HW262229   4.404   0.208   9.036
20735SOL     OW62230   3.799   0.345   7.481
20735SOL    HW162231   3.707   0.317   7.452
20735SOL    HW262232   3.830   0.422   7.425
20736SOL     OW62233   5.164   0.856   8.846
20736SOL    HW162234   5.107   0.908   8.783
20736SOL    HW262235   5.260   0.868   8.822
20737SOL     OW62236   3.796   0.166   7.766
20737SOL    HW162237   3.779   0.249   7.712
20737SOL    HW262238   3.886   0.129   7.744
20738SOL     OW62239   4.907   1.335   7.567
20738SOL    HW162240   4.808   1.324   7.569
20738SOL    HW262241   4.941   1.350   7.660
20739SOL     OW62242   4.337   0.842   8.879
20739SOL    HW162243   4.393   0.923   8.862
20739SOL    HW262244   4.396   0.762   8.882
20740SOL     OW62245   5.217   1.767   8.407
20740SOL    HW162246   5.250   1.831   8.338
20740SOL    HW262247   5.283   1.761   8.482
20741SOL     OW62248   4.440   0.565   9.156
20741SOL    HW162249   4.459   0.630   9.230
20741SOL    HW262250   4.500   0.485   9.165
20742SOL     OW62251   5.174   1.220   9.081
20742SOL    HW162252   5.165   1.210   9.180
20742SOL    HW262253   5.270   1.213   9.055
20743SOL     OW62254   4.114   1.741   9.008
20743SOL    HW162255   4.023   1.782   9.006
20743SOL    HW262256   4.107   1.647   9.040
20744SOL     OW62257   5.398   0.883   8.702
20744SOL    HW162258   5.371   0.794   8.665
20744SOL    HW262259   5.399   0.951   8.629
20745SOL     OW62260   4.949   0.325   7.897
20745SOL    HW162261   5.014   0.251   7.886
20745SOL    HW262262   4.969   0.375   7.981
20746SOL     OW62263   4.318   0.745   8.100
20746SOL    HW162264   4.368   0.830   8.081
20746SOL    HW262265   4.230   0.747   8.052
20747SOL     OW62266   5.501   0.342   9.090
20747SOL    HW162267   5.484   0.373   8.996
20747SOL    HW262268   5.417   0.305   9.128
20748SOL     OW62269   5.454   0.934   8.965
20748SOL    HW162270   5.492   1.025   8.980
20748SOL    HW262271   5.446   0.917   8.866
20749SOL     OW62272   4.583   1.374   7.464
20749SOL    HW162273   4.537   1.389   7.552
20749SOL    HW262274   4.627   1.459   7.434
20750SOL     OW62275   4.385   1.790   8.401
20750SOL    HW162276   4.339   1.878   8.388
20750SOL    HW262277   4.484   1.802   8.394
20751SOL     OW62278   4.583   0.956   8.309
20751SOL    HW162279   4.637   0.887   8.357
20751SOL    HW262280   4.551   1.025   8.375
20752SOL     OW62281   4.807   0.984   7.535
20752SOL    HW162282   4.784   1.037   7.453
20752SOL    HW262283   4.888   0.928   7.516
20753SOL     OW62284   5.585   1.569   8.299
20753SOL    HW162285   5.514   1.557   8.229
20753SOL    HW262286   5.586   1.490   8.359
20754SOL     OW62287   3.945   1.314   9.292
20754SOL    HW162288   3.880   1.241   9.271
20754SOL    HW262289   3.949   1.328   9.390
20755SOL     OW62290   3.803   1.240   8.101
20755SOL    HW162291   3.802   1.193   8.189
20755SOL    HW262292   3.885   1.212   8.050
20756SOL     OW62293   4.396   1.391   9.072
20756SOL    HW162294   4.318   1.341   9.110
20756SOL    HW262295   4.393   1.486   9.103
20757SOL     OW62296   5.548   0.192   8.675
20757SOL    HW162297   5.544   0.102   8.719
20757SOL    HW262298   5.551   0.181   8.576
20758SOL     OW62299   4.152   0.424   7.968
20758SOL    HW162300   4.182   0.352   7.906
20758SOL    HW262301   4.113   0.384   8.051
20759SOL     OW62302   5.429   1.487   8.552
20759SOL    HW162303   5.336   1.462   8.525
20759SOL    HW262304   5.455   1.437   8.634
20760SOL     OW62305   4.041   0.547   8.728
20760SOL    HW162306   4.079   0.488   8.800
20760SOL    HW262307   4.081   0.521   8.640
20761SOL     OW62308   4.536   1.586   8.135
20761SOL    HW162309   4.568   1.596   8.041
20761SOL    HW262310   4.457   1.524   8.137
20762SOL     OW62311   5.148   0.214   8.560
20762SOL    HW162312   5.200   0.149   8.615
20762SOL    HW262313   5.099   0.277   8.621
20763SOL     OW62314   4.725   0.034   8.602
20763SOL    HW162315   4.662  -0.038   8.571
20763SOL    HW262316   4.818  -0.002   8.602
20764SOL     OW62317   4.494   1.330   7.749
20764SOL    HW162318   4.448   1.243   7.766
20764SOL    HW262319   4.585   1.327   7.790
20765SOL     OW62320   4.342   1.567   8.732
20765SOL    HW162321   4.337   1.649   8.789
20765SOL    HW262322   4.431   1.564   8.687
20766SOL     OW62323   5.076   0.052   7.616
20766SOL    HW162324   5.111   0.011   7.532
20766SOL    HW262325   4.986   0.014   7.636
20767SOL     OW62326   5.024   0.453   8.139
20767SOL    HW162327   4.965   0.533   8.143
20767SOL    HW262328   5.039   0.418   8.232
20768SOL     OW62329   5.317   0.221   8.330
20768SOL    HW162330   5.233   0.220   8.384
20768SOL    HW262331   5.319   0.304   8.274
20769SOL     OW62332   3.763   1.077   7.748
20769SOL    HW162333   3.862   1.066   7.739
20769SOL    HW262334   3.723   0.991   7.780
20770SOL     OW62335   4.599   1.646   7.785
20770SOL    HW162336   4.522   1.611   7.731
20770SOL    HW262337   4.567   1.717   7.847
20771SOL     OW62338   3.954   0.628   9.423
20771SOL    HW162339   3.861   0.626   9.460
20771SOL    HW262340   3.955   0.589   9.331
20772SOL     OW62341   3.949   0.275  10.306
20772SOL    HW162342   3.984   0.258  10.398
20772SOL    HW262343   3.861   0.230  10.294
20773SOL     OW62344   3.743   0.368   9.957
20773SOL    HW162345   3.661   0.411   9.996
20773SOL    HW262346   3.715   0.295   9.894
20774SOL     OW62347   4.293   1.275  10.475
20774SOL    HW162348   4.200   1.268  10.438
20774SOL    HW262349   4.304   1.364  10.519
20775SOL     OW62350   5.279   1.511  10.013
20775SOL    HW162351   5.222   1.495  10.094
20775SOL    HW262352   5.220   1.521   9.933
20776SOL     OW62353   4.859   0.703  10.027
20776SOL    HW162354   4.916   0.781  10.002
20776SOL    HW262355   4.799   0.729  10.103
20777SOL     OW62356   5.479   0.607   9.541
20777SOL    HW162357   5.467   0.594   9.442
20777SOL    HW262358   5.449   0.526   9.590
20778SOL     OW62359   4.492   1.144  10.333
20778SOL    HW162360   4.414   1.161  10.393
20778SOL    HW262361   4.526   1.231  10.297
20779SOL     OW62362   4.574   0.798  11.133
20779SOL    HW162363   4.570   0.874  11.198
20779SOL    HW262364   4.596   0.834  11.042
20780SOL     OW62365   4.409   1.012   9.975
20780SOL    HW162366   4.478   0.996  10.045
20780SOL    HW262367   4.336   1.069  10.013
20781SOL     OW62368   4.410   1.161  11.113
20781SOL    HW162369   4.470   1.240  11.127
20781SOL    HW262370   4.324   1.192  11.072
20782SOL     OW62371   4.059   1.435  10.371
20782SOL    HW162372   3.981   1.404  10.318
20782SOL    HW262373   4.117   1.493  10.314
20783SOL     OW62374   5.184   1.505  10.649
20783SOL    HW162375   5.208   1.599  10.675
20783SOL    HW262376   5.168   1.451  10.731
20784SOL     OW62377   4.162   0.392  10.809
20784SOL    HW162378   4.244   0.336  10.818
20784SOL    HW262379   4.081   0.334  10.813
20785SOL     OW62380   5.327   0.447  10.047
20785SOL    HW162381   5.253   0.493   9.997
20785SOL    HW262382   5.378   0.515  10.100
20786SOL     OW62383   3.955   1.713   9.793
20786SOL    HW162384   3.989   1.790   9.847
20786SOL    HW262385   3.999   1.713   9.703
20787SOL     OW62386   4.851   1.341  11.000
20787SOL    HW162387   4.898   1.341  11.088
20787SOL    HW262388   4.803   1.254  10.989
20788SOL     OW62389   3.964   1.091  10.196
20788SOL    HW162390   3.978   1.007  10.248
20788SOL    HW262391   3.909   1.155  10.251
20789SOL     OW62392   4.344   1.786  10.749
20789SOL    HW162393   4.252   1.769  10.784
20789SOL    HW262394   4.372   1.878  10.775
20790SOL     OW62395   4.330   0.964   9.433
20790SOL    HW162396   4.337   1.048   9.379
20790SOL    HW262397   4.376   0.977   9.521
20791SOL     OW62398   5.318   0.114  10.790
20791SOL    HW162399   5.300   0.181  10.718
20791SOL    HW262400   5.315   0.160  10.879
20792SOL     OW62401   3.846   0.643   9.873
20792SOL    HW162402   3.801   0.555   9.890
20792SOL    HW262403   3.845   0.697   9.957
20793SOL     OW62404   5.566   1.767   9.669
20793SOL    HW162405   5.620   1.738   9.749
20793SOL    HW262406   5.596   1.857   9.640
20794SOL     OW62407   3.751   1.596   9.427
20794SOL    HW162408   3.732   1.500   9.448
20794SOL    HW262409   3.718   1.654   9.502
20795SOL     OW62410   5.413   0.922   9.922
20795SOL    HW162411   5.508   0.893   9.930
20795SOL    HW262412   5.405   0.987   9.847
20796SOL     OW62413   5.365   1.108   9.742
20796SOL    HW162414   5.451   1.110   9.690
20796SOL    HW262415   5.379   1.155   9.830
20797SOL     OW62416   3.837   0.737  10.907
20797SOL    HW162417   3.925   0.724  10.952
20797SOL    HW262418   3.824   0.834  10.885
20798SOL     OW62419   4.337   1.365  10.036
20798SOL    HW162420   4.288   1.278  10.045
20798SOL    HW262421   4.314   1.408   9.949
20799SOL     OW62422   5.017   1.228  10.733
20799SOL    HW162423   5.054   1.155  10.675
20799SOL    HW262424   5.069   1.233  10.818
20800SOL     OW62425   4.533   0.004   9.812
20800SOL    HW162426   4.573   0.095   9.803
20800SOL    HW262427   4.433   0.012   9.818
20801SOL     OW62428   3.921   0.976  10.574
20801SOL    HW162429   4.010   0.931  10.560
20801SOL    HW262430   3.848   0.911  10.555
20802SOL     OW62431   5.249   0.999   9.500
20802SOL    HW162432   5.186   0.923   9.513
20802SOL    HW262433   5.297   1.017   9.586
20803SOL     OW62434   4.911   1.792  10.926
20803SOL    HW162435   4.935   1.852  10.850
20803SOL    HW262436   4.918   1.697  10.896
20804SOL     OW62437   4.041   0.251  11.111
20804SOL    HW162438   4.112   0.322  11.117
20804SOL    HW262439   3.953   0.290  11.139
20805SOL     OW62440   5.190   1.417  10.263
20805SOL    HW162441   5.131   1.423  10.343
20805SOL    HW262442   5.175   1.329  10.217
20806SOL     OW62443   5.391   1.714   9.882
20806SOL    HW162444   5.350   1.691   9.794
20806SOL    HW262445   5.373   1.640   9.947
20807SOL     OW62446   4.322   0.729   9.580
20807SOL    HW162447   4.346   0.798   9.512
20807SOL    HW262448   4.244   0.762   9.634
20808SOL     OW62449   5.005   0.345  10.254
20808SOL    HW162450   4.919   0.295  10.241
20808SOL    HW262451   5.067   0.291  10.310
20809SOL     OW62452   5.300   1.662   9.617
20809SOL    HW162453   5.389   1.708   9.620
20809SOL    HW262454   5.279   1.638   9.522
20810SOL     OW62455   4.531   0.605  10.775
20810SOL    HW162456   4.484   0.602  10.864
20810SOL    HW262457   4.480   0.550  10.709
20811SOL     OW62458   5.118   0.469  10.984
20811SOL    HW162459   5.098   0.512  11.072
20811SOL    HW262460   5.196   0.407  10.993
20812SOL     OW62461   4.697   0.890  10.882
20812SOL    HW162462   4.743   0.806  10.853
20812SOL    HW262463   4.641   0.924  10.807
20813SOL     OW62464   4.715   0.410  10.552
20813SOL    HW162465   4.638   0.444  10.606
20813SOL    HW262466   4.681   0.359  10.473
20814SOL     OW62467   4.765   0.701   9.739
20814SOL    HW162468   4.791   0.697   9.835
20814SOL    HW262469   4.680   0.650   9.725
20815SOL     OW62470   3.800   0.811  10.099
20815SOL    HW162471   3.899   0.799  10.108
20815SOL    HW262472   3.776   0.906  10.120
20816SOL     OW62473   3.854   1.821  10.881
20816SOL    HW162474   3.844   1.806  10.980
20816SOL    HW262475   3.768   1.857  10.845
20817SOL     OW62476   4.589   0.348   9.505
20817SOL    HW162477   4.648   0.411   9.456
20817SOL    HW262478   4.608   0.254   9.476
20818SOL     OW62479   5.443   0.585  11.141
20818SOL    HW162480   5.417   0.674  11.105
20818SOL    HW262481   5.441   0.517  11.068
20819SOL     OW62482   5.086   1.144   9.855
20819SOL    HW162483   5.169   1.115   9.807
20819SOL    HW262484   5.037   1.211   9.799
20820SOL     OW62485   4.274   0.196  10.195
20820SOL    HW162486   4.269   0.191  10.295
20820SOL    HW262487   4.276   0.292  10.166
20821SOL     OW62488   4.732   1.456   9.787
20821SOL    HW162489   4.686   1.528   9.735
20821SOL    HW262490   4.728   1.476   9.885
20822SOL     OW62491   4.075   1.801  10.163
20822SOL    HW162492   4.125   1.715  10.169
20822SOL    HW262493   4.140   1.878  10.160
20823SOL     OW62494   5.519   1.066  10.183
20823SOL    HW162495   5.457   1.051  10.107
20823SOL    HW262496   5.467   1.077  10.268
20824SOL     OW62497   4.951   1.550  10.816
20824SOL    HW162498   4.957   1.473  10.880
20824SOL    HW262499   4.899   1.524  10.736
20825SOL     OW62500   4.045   0.943   9.552
20825SOL    HW162501   4.127   0.982   9.510
20825SOL    HW262502   4.018   0.861   9.503
20826SOL     OW62503   5.182   0.735  10.038
20826SOL    HW162504   5.177   0.670  10.113
20826SOL    HW262505   5.262   0.794  10.051
20827SOL     OW62506   4.185   1.266  11.037
20827SOL    HW162507   4.135   1.267  10.951
20827SOL    HW262508   4.122   1.248  11.113
20828SOL     OW62509   4.835   1.776   9.547
20828SOL    HW162510   4.775   1.714   9.597
20828SOL    HW262511   4.866   1.732   9.462
20829SOL     OW62512   3.926   0.285  10.808
20829SOL    HW162513   3.846   0.345  10.795
20829SOL    HW262514   3.916   0.236  10.894
20830SOL     OW62515   5.356   1.377   9.391
20830SOL    HW162516   5.324   1.471   9.381
20830SOL    HW262517   5.280   1.314   9.379
20831SOL     OW62518   4.188   1.743   9.633
20831SOL    HW162519   4.221   1.782   9.719
20831SOL    HW262520   4.264   1.736   9.568
20832SOL     OW62521   5.124   0.107   9.736
20832SOL    HW162522   5.100   0.070   9.646
20832SOL    HW262523   5.223   0.123   9.740
20833SOL     OW62524   3.973   1.785  10.551
20833SOL    HW162525   4.030   1.720  10.601
20833SOL    HW262526   3.957   1.752  10.458
20834SOL     OW62527   4.664   1.698  10.214
20834SOL    HW162528   4.744   1.641  10.235
20834SOL    HW262529   4.615   1.658  10.137
20835SOL     OW62530   4.106   0.700   9.790
20835SOL    HW162531   4.151   0.610   9.787
20835SOL    HW262532   4.012   0.689   9.823
20836SOL     OW62533   5.271   0.222  11.039
20836SOL    HW162534   5.266   0.259  11.131
20836SOL    HW262535   5.199   0.153  11.027
20837SOL     OW62536   4.338   0.122   9.427
20837SOL    HW162537   4.436   0.100   9.434
20837SOL    HW262538   4.307   0.105   9.334
20838SOL     OW62539   4.505   0.264  11.059
20838SOL    HW162540   4.572   0.203  11.102
20838SOL    HW262541   4.432   0.283  11.124
20839SOL     OW62542   4.612   1.514  10.505
20839SOL    HW162543   4.589   1.489  10.411
20839SOL    HW262544   4.673   1.445  10.544
20840SOL     OW62545   5.075   0.590  10.743
20840SOL    HW162546   5.103   0.547  10.828
20840SOL    HW262547   5.100   0.686  10.744
20841SOL     OW62548   4.527   1.402  10.234
20841SOL    HW162549   4.617   1.416  10.192
20841SOL    HW262550   4.456   1.404  10.163
20842SOL     OW62551   4.646   0.503  10.209
20842SOL    HW162552   4.621   0.494  10.113
20842SOL    HW262553   4.694   0.421  10.240
20843SOL     OW62554   4.263   0.064   9.822
20843SOL    HW162555   4.182   0.065   9.880
20843SOL    HW262556   4.266   0.147   9.767
20844SOL     OW62557   5.158   1.188   9.351
20844SOL    HW162558   5.190   1.112   9.408
20844SOL    HW262559   5.066   1.215   9.381
20845SOL     OW62560   4.021   0.035   9.481
20845SOL    HW162561   4.070   0.119   9.460
20845SOL    HW262562   4.083  -0.030   9.526
20846SOL     OW62563   4.659   0.236   9.790
20846SOL    HW162564   4.611   0.277   9.712
20846SOL    HW262565   4.758   0.234   9.771
20847SOL     OW62566   4.800   0.683  10.774
20847SOL    HW162567   4.720   0.622  10.777
20847SOL    HW262568   4.881   0.630  10.750
20848SOL     OW62569   4.951   1.570  10.103
20848SOL    HW162570   4.972   1.644  10.038
20848SOL    HW262571   5.019   1.570  10.176
20849SOL     OW62572   4.183   1.152  10.051
20849SOL    HW162573   4.112   1.125  10.116
20849SOL    HW262574   4.157   1.124   9.958
20850SOL     OW62575   4.995   1.797   9.901
20850SOL    HW162576   5.039   1.861   9.837
20850SOL    HW262577   4.945   1.849   9.971
20851SOL     OW62578   4.756   0.549   9.326
20851SOL    HW162579   4.715   0.631   9.287
20851SOL    HW262580   4.820   0.575   9.399
20852SOL     OW62581   3.802   0.556  10.696
20852SOL    HW162582   3.894   0.555  10.655
20852SOL    HW262583   3.796   0.630  10.763
20853SOL     OW62584   4.285   0.222  10.457
20853SOL    HW162585   4.323   0.138  10.494
20853SOL    HW262586   4.197   0.241  10.501
20854SOL     OW62587   4.590   0.454   9.952
20854SOL    HW162588   4.558   0.526   9.890
20854SOL    HW262589   4.614   0.373   9.899
20855SOL     OW62590   4.741   0.039  10.063
20855SOL    HW162591   4.669   0.044   9.994
20855SOL    HW262592   4.717  -0.030  10.132
20856SOL     OW62593   5.153   1.173  10.177
20856SOL    HW162594   5.098   1.089  10.170
20856SOL    HW262595   5.179   1.202  10.085
20857SOL     OW62596   5.190   0.590  10.302
20857SOL    HW162597   5.160   0.495  10.309
20857SOL    HW262598   5.263   0.606  10.368
20858SOL     OW62599   5.581   0.833   9.687
20858SOL    HW162600   5.623   0.769   9.751
20858SOL    HW262601   5.543   0.782   9.609
20859SOL     OW62602   4.212   1.385   9.484
20859SOL    HW162603   4.125   1.370   9.531
20859SOL    HW262604   4.195   1.411   9.389
20860SOL     OW62605   5.388   1.280   9.967
20860SOL    HW162606   5.487   1.288   9.981
20860SOL    HW262607   5.343   1.364   9.998
20861SOL     OW62608   5.114   0.575   9.388
20861SOL    HW162609   5.060   0.554   9.469
20861SOL    HW262610   5.205   0.534   9.397
20862SOL     OW62611   4.251   0.256   9.638
20862SOL    HW162612   4.278   0.197   9.563
20862SOL    HW262613   4.251   0.351   9.607
20863SOL     OW62614   5.478   1.223  10.898
20863SOL    HW162615   5.569   1.184  10.885
20863SOL    HW262616   5.486   1.319  10.922
20864SOL     OW62617   4.788   1.347  10.650
20864SOL    HW162618   4.708   1.324  10.705
20864SOL    HW262619   4.871   1.321  10.699
20865SOL     OW62620   5.316   1.629  10.935
20865SOL    HW162621   5.343   1.663  10.845
20865SOL    HW262622   5.395   1.591  10.981
20866SOL     OW62623   4.835   1.195  10.410
20866SOL    HW162624   4.795   1.239  10.491
20866SOL    HW262625   4.794   1.232  10.327
20867SOL     OW62626   5.362   1.099  10.389
20867SOL    HW162627   5.367   1.180  10.448
20867SOL    HW262628   5.276   1.101  10.338
20868SOL     OW62629   4.639   0.089  10.712
20868SOL    HW162630   4.664   0.069  10.617
20868SOL    HW262631   4.711   0.145  10.754
20869SOL     OW62632   4.704   1.116  11.029
20869SOL    HW162633   4.605   1.122  11.039
20869SOL    HW262634   4.727   1.036  10.973
20870SOL     OW62635   4.429   1.050   9.678
20870SOL    HW162636   4.415   1.057   9.777
20870SOL    HW262637   4.513   0.999   9.660
20871SOL     OW62638   4.134   0.813  10.561
20871SOL    HW162639   4.220   0.825  10.611
20871SOL    HW262640   4.092   0.726  10.588
20872SOL     OW62641   4.998   0.386  10.572
20872SOL    HW162642   5.019   0.460  10.636
20872SOL    HW262643   4.909   0.403  10.529
20873SOL     OW62644   3.788   1.564  10.641
20873SOL    HW162645   3.742   1.646  10.607
20873SOL    HW262646   3.886   1.583  10.650
20874SOL     OW62647   4.091   1.100   9.811
20874SOL    HW162648   4.084   1.183   9.755
20874SOL    HW262649   4.095   1.020   9.751
20875SOL     OW62650   4.290   0.537  10.175
20875SOL    HW162651   4.302   0.603  10.101
20875SOL    HW262652   4.336   0.571  10.258
20876SOL     OW62653   4.976   1.348   9.698
20876SOL    HW162654   5.026   1.425   9.738
20876SOL    HW262655   4.881   1.350   9.730
20877SOL     OW62656   4.996   1.445  10.452
20877SOL    HW162657   5.043   1.458  10.539
20877SOL    HW262658   4.930   1.371  10.461
20878SOL     OW62659   5.306   0.639   9.782
20878SOL    HW162660   5.275   0.700   9.855
20878SOL    HW262661   5.356   0.691   9.713
20879SOL     OW62662   4.078   1.510  10.639
20879SOL    HW162663   4.057   1.466  10.552
20879SOL    HW262664   4.175   1.536  10.642
20880SOL     OW62665   4.126   0.751  10.908
20880SOL    HW162666   4.194   0.806  10.861
20880SOL    HW262667   4.166   0.663  10.935
20881SOL     OW62668   5.311   0.779  10.980
20881SOL    HW162669   5.219   0.817  10.975
20881SOL    HW262670   5.371   0.826  10.915
20882SOL     OW62671   4.737   0.105  11.080
20882SOL    HW162672   4.743   0.190  11.028
20882SOL    HW262673   4.769   0.029  11.023
20883SOL     OW62674   4.228   0.050  11.050
20883SOL    HW162675   4.186  -0.007  10.980
20883SOL    HW262676   4.162   0.119  11.082
20884SOL     OW62677   4.297   0.870  10.339
20884SOL    HW162678   4.341   0.959  10.330
20884SOL    HW262679   4.234   0.870  10.416
20885SOL     OW62680   5.084   0.862  10.355
20885SOL    HW162681   5.009   0.862  10.289
20885SOL    HW262682   5.121   0.770  10.364
20886SOL     OW62683   4.933   0.525   9.585
20886SOL    HW162684   4.946   0.441   9.639
20886SOL    HW262685   4.904   0.599   9.645
20887SOL     OW62686   4.031   0.213  10.541
20887SOL    HW162687   4.008   0.250  10.631
20887SOL    HW262688   4.001   0.118  10.535
20888SOL     OW62689   3.761   1.310  10.592
20888SOL    HW162690   3.814   1.261  10.660
20888SOL    HW262691   3.783   1.408  10.597
20889SOL     OW62692   4.456   0.634  10.374
20889SOL    HW162693   4.515   0.608  10.298
20889SOL    HW262694   4.428   0.730  10.363
20890SOL     OW62695   5.452   0.935  11.164
20890SOL    HW162696   5.406   0.928  11.075
20890SOL    HW262697   5.390   0.979  11.230
20891SOL     OW62698   4.031   0.063   9.928
20891SOL    HW162699   4.020   0.157   9.961
20891SOL    HW262700   4.026   0.000  10.005
20892SOL     OW62701   5.346   0.367   9.684
20892SOL    HW162702   5.348   0.291   9.748
20892SOL    HW262703   5.298   0.444   9.724
20893SOL     OW62704   4.747   0.766  10.276
20893SOL    HW162705   4.762   0.787  10.372
20893SOL    HW262706   4.717   0.671  10.267
20894SOL     OW62707   4.704   1.573  11.010
20894SOL    HW162708   4.684   1.617  10.922
20894SOL    HW262709   4.743   1.482  10.994
20895SOL     OW62710   5.583   1.518  10.915
20895SOL    HW162711   5.597   1.545  10.820
20895SOL    HW262712   5.666   1.540  10.968
20896SOL     OW62713   4.074   0.898  11.114
20896SOL    HW162714   4.150   0.942  11.162
20896SOL    HW262715   4.109   0.851  11.032
20897SOL     OW62716   5.264   0.274   9.435
20897SOL    HW162717   5.203   0.199   9.458
20897SOL    HW262718   5.286   0.326   9.518
20898SOL     OW62719   5.027   0.838   9.352
20898SOL    HW162720   5.061   0.745   9.367
20898SOL    HW262721   5.045   0.865   9.257
20899SOL     OW62722   4.792   1.333  10.159
20899SOL    HW162723   4.799   1.249  10.104
20899SOL    HW262724   4.854   1.402  10.123
20900SOL     OW62725   4.043   0.810  10.259
20900SOL    HW162726   4.136   0.846  10.264
20900SOL    HW262727   4.037   0.725  10.311
20901SOL     OW62728   4.063   0.509  10.316
20901SOL    HW162729   4.011   0.426  10.299
20901SOL    HW262730   4.140   0.514  10.252
20902SOL     OW62731   4.862   0.380  10.988
20902SOL    HW162732   4.817   0.443  11.052
20902SOL    HW262733   4.955   0.411  10.971
20903SOL     OW62734   4.884   0.207  10.787
20903SOL    HW162735   4.884   0.271  10.864
20903SOL    HW262736   4.912   0.255  10.704
20904SOL     OW62737   3.732   1.326   9.510
20904SOL    HW162738   3.639   1.347   9.479
20904SOL    HW262739   3.742   1.227   9.523
20905SOL     OW62740   3.812   1.801  10.237
20905SOL    HW162741   3.770   1.715  10.210
20905SOL    HW262742   3.906   1.804  10.203
20906SOL     OW62743   4.228   1.568  10.220
20906SOL    HW162744   4.294   1.642  10.229
20906SOL    HW262745   4.272   1.489  10.178
20907SOL     OW62746   4.726   0.796  10.548
20907SOL    HW162747   4.767   0.764  10.634
20907SOL    HW262748   4.630   0.769  10.545
20908SOL     OW62749   3.764   0.544  10.424
20908SOL    HW162750   3.849   0.511  10.383
20908SOL    HW262751   3.777   0.559  10.522
20909SOL     OW62752   3.913   0.520  11.032
20909SOL    HW162753   3.972   0.480  10.962
20909SOL    HW262754   3.855   0.591  10.991
20910SOL     OW62755   5.093   0.950  10.970
20910SOL    HW162756   5.132   1.039  10.990
20910SOL    HW262757   5.103   0.930  10.873
20911SOL     OW62758   4.539   0.572   9.635
20911SOL    HW162759   4.546   0.483   9.589
20911SOL    HW262760   4.445   0.606   9.627
20912SOL     OW62761   5.381   0.604  10.516
20912SOL    HW162762   5.343   0.535  10.578
20912SOL    HW262763   5.463   0.568  10.472
20913SOL     OW62764   3.976   1.564  11.054
20913SOL    HW162765   3.946   1.621  11.130
20913SOL    HW262766   3.969   1.467  11.080
20914SOL     OW62767   4.395   0.464  10.579
20914SOL    HW162768   4.361   0.375  10.549
20914SOL    HW262769   4.421   0.518  10.499
20915SOL     OW62770   4.654   1.678  10.775
20915SOL    HW162771   4.630   1.660  10.680
20915SOL    HW262772   4.684   1.772  10.785
20916SOL     OW62773   4.197   0.500   9.501
20916SOL    HW162774   4.258   0.580   9.505
20916SOL    HW262775   4.102   0.531   9.508
20917SOL     OW62776   3.883   1.137  10.776
20917SOL    HW162777   3.905   1.076  10.852
20917SOL    HW262778   3.893   1.088  10.690
20918SOL     OW62779   5.071   1.059  10.544
20918SOL    HW162780   5.095   0.996  10.470
20918SOL    HW262781   4.981   1.099  10.526
20919SOL     OW62782   5.026   0.855   9.619
20919SOL    HW162783   4.940   0.824   9.661
20919SOL    HW262784   5.022   0.841   9.520
20920SOL     OW62785   5.483   1.747  10.464
20920SOL    HW162786   5.544   1.777  10.391
20920SOL    HW262787   5.445   1.658  10.442
20921SOL     OW62788   4.976   1.731  10.438
20921SOL    HW162789   5.060   1.736  10.384
20921SOL    HW262790   4.953   1.635  10.456
20922SOL     OW62791   3.807   1.258  10.332
20922SOL    HW162792   3.802   1.257  10.432
20922SOL    HW262793   3.724   1.217  10.294
20923SOL     OW62794   4.412   1.662  11.026
20923SOL    HW162795   4.356   1.743  11.035
20923SOL    HW262796   4.464   1.666  10.940
20924SOL     OW62797   5.450   0.135   9.833
20924SOL    HW162798   5.523   0.118   9.766
20924SOL    HW262799   5.419   0.048   9.871
20925SOL     OW62800   5.112   1.573   9.787
20925SOL    HW162801   5.179   1.585   9.713
20925SOL    HW262802   5.072   1.662   9.810
20926SOL     OW62803   3.854   1.794  11.161
20926SOL    HW162804   3.813   1.720  11.214
20926SOL    HW262805   3.918   1.845  11.219
20927SOL     OW62806   5.004   0.927   9.982
20927SOL    HW162807   5.064   0.846   9.984
20927SOL    HW262808   5.044   0.996   9.922
20928SOL     OW62809   4.554   1.273  10.732
20928SOL    HW162810   4.549   1.306  10.827
20928SOL    HW262811   4.468   1.292  10.686
20929SOL     OW62812   4.396   1.616   9.464
20929SOL    HW162813   4.405   1.626   9.365
20929SOL    HW262814   4.356   1.527   9.485
20930SOL     OW62815   5.374   1.720  10.704
20930SOL    HW162816   5.427   1.730  10.620
20930SOL    HW262817   5.347   1.810  10.738
20931SOL     OW62818   5.565   0.175  10.273
20931SOL    HW162819   5.604   0.090  10.237
20931SOL    HW262820   5.467   0.177  10.254
20932SOL     OW62821   3.987   0.326  10.030
20932SOL    HW162822   3.908   0.377   9.996
20932SOL    HW262823   3.978   0.311  10.128
20933SOL     OW62824   4.918   1.612   9.341
20933SOL    HW162825   4.924   1.519   9.378
20933SOL    HW262826   4.859   1.612   9.261
20934SOL     OW62827   4.546   1.002  10.682
20934SOL    HW162828   4.586   1.001  10.590
20934SOL    HW262829   4.556   1.094  10.722
20935SOL     OW62830   4.640   0.910   9.601
20935SOL    HW162831   4.703   0.948   9.533
20935SOL    HW262832   4.680   0.827   9.640
20936SOL     OW62833   5.228   1.607   9.354
20936SOL    HW162834   5.136   1.644   9.361
20936SOL    HW262835   5.266   1.627   9.264
20937SOL     OW62836   4.096   1.288  10.800
20937SOL    HW162837   4.083   1.381  10.766
20937SOL    HW262838   4.012   1.236  10.787
20938SOL     OW62839   5.338   1.292  10.599
20938SOL    HW162840   5.398   1.295  10.679
20938SOL    HW262841   5.263   1.356  10.612
20939SOL     OW62842   4.763   1.098  10.006
20939SOL    HW162843   4.693   1.051  10.060
20939SOL    HW262844   4.822   1.030   9.963
20940SOL     OW62845   4.738   0.236  10.281
20940SOL    HW162846   4.730   0.200  10.188
20940SOL    HW262847   4.736   0.160  10.346
20941SOL     OW62848   4.314   1.487   9.801
20941SOL    HW162849   4.356   1.429   9.731
20941SOL    HW262850   4.270   1.566   9.757
20942SOL     OW62851   5.433   0.385  10.691
20942SOL    HW162852   5.506   0.454  10.695
20942SOL    HW262853   5.461   0.310  10.632
20943SOL     OW62854   3.979   1.348   9.600
20943SOL    HW162855   3.883   1.349   9.573
20943SOL    HW262856   3.991   1.401   9.684
20944SOL     OW62857   3.829   1.013  11.036
20944SOL    HW162858   3.752   0.980  11.090
20944SOL    HW262859   3.914   0.983  11.078
20945SOL     OW62860   4.396   0.203  10.799
20945SOL    HW162861   4.486   0.187  10.759
20945SOL    HW262862   4.404   0.208  10.898
20946SOL     OW62863   3.799   0.345   9.343
20946SOL    HW162864   3.707   0.317   9.314
20946SOL    HW262865   3.830   0.422   9.287
20947SOL     OW62866   5.164   0.856  10.708
20947SOL    HW162867   5.107   0.908  10.645
20947SOL    HW262868   5.260   0.868  10.684
20948SOL     OW62869   3.796   0.166   9.628
20948SOL    HW162870   3.779   0.249   9.574
20948SOL    HW262871   3.886   0.129   9.606
20949SOL     OW62872   4.907   1.335   9.429
20949SOL    HW162873   4.808   1.324   9.431
20949SOL    HW262874   4.941   1.350   9.522
20950SOL     OW62875   4.337   0.842  10.741
20950SOL    HW162876   4.393   0.923  10.724
20950SOL    HW262877   4.396   0.762  10.744
20951SOL     OW62878   5.217   1.767  10.269
20951SOL    HW162879   5.250   1.831  10.200
20951SOL    HW262880   5.283   1.761  10.344
20952SOL     OW62881   4.440   0.565  11.018
20952SOL    HW162882   4.459   0.630  11.092
20952SOL    HW262883   4.500   0.485  11.027
20953SOL     OW62884   5.174   1.220  10.943
20953SOL    HW162885   5.165   1.210  11.042
20953SOL    HW262886   5.270   1.213  10.917
20954SOL     OW62887   4.114   1.741  10.870
20954SOL    HW162888   4.023   1.782  10.868
20954SOL    HW262889   4.107   1.647  10.902
20955SOL     OW62890   5.398   0.883  10.564
20955SOL    HW162891   5.371   0.794  10.527
20955SOL    HW262892   5.399   0.951  10.491
20956SOL     OW62893   4.949   0.325   9.759
20956SOL    HW162894   5.014   0.251   9.748
20956SOL    HW262895   4.969   0.375   9.843
20957SOL     OW62896   4.318   0.745   9.962
20957SOL    HW162897   4.368   0.830   9.943
20957SOL    HW262898   4.230   0.747   9.914
20958SOL     OW62899   5.501   0.342  10.952
20958SOL    HW162900   5.484   0.373  10.858
20958SOL    HW262901   5.417   0.305  10.990
20959SOL     OW62902   5.454   0.934  10.827
20959SOL    HW162903   5.492   1.025  10.842
20959SOL    HW262904   5.446   0.917  10.728
20960SOL     OW62905   4.583   1.374   9.326
20960SOL    HW162906   4.537   1.389   9.414
20960SOL    HW262907   4.627   1.459   9.296
20961SOL     OW62908   4.385   1.790  10.263
20961SOL    HW162909   4.339   1.878  10.250
20961SOL    HW262910   4.484   1.802  10.256
20962SOL     OW62911   4.583   0.956  10.171
20962SOL    HW162912   4.637   0.887  10.219
20962SOL    HW262913   4.551   1.025  10.237
20963SOL     OW62914   4.807   0.984   9.397
20963SOL    HW162915   4.784   1.037   9.315
20963SOL    HW262916   4.888   0.928   9.378
20964SOL     OW62917   5.585   1.569  10.161
20964SOL    HW162918   5.514   1.557  10.091
20964SOL    HW262919   5.586   1.490  10.221
20965SOL     OW62920   3.945   1.314  11.154
20965SOL    HW162921   3.880   1.241  11.133
20965SOL    HW262922   3.949   1.328  11.252
20966SOL     OW62923   3.803   1.240   9.963
20966SOL    HW162924   3.802   1.193  10.051
20966SOL    HW262925   3.885   1.212   9.912
20967SOL     OW62926   4.396   1.391  10.934
20967SOL    HW162927   4.318   1.341  10.972
20967SOL    HW262928   4.393   1.486  10.965
20968SOL     OW62929   5.548   0.192  10.537
20968SOL    HW162930   5.544   0.102  10.581
20968SOL    HW262931   5.551   0.181  10.438
20969SOL     OW62932   4.152   0.424   9.830
20969SOL    HW162933   4.182   0.352   9.768
20969SOL    HW262934   4.113   0.384   9.913
20970SOL     OW62935   5.429   1.487  10.414
20970SOL    HW162936   5.336   1.462  10.387
20970SOL    HW262937   5.455   1.437  10.496
20971SOL     OW62938   4.041   0.547  10.590
20971SOL    HW162939   4.079   0.488  10.662
20971SOL    HW262940   4.081   0.521  10.502
20972SOL     OW62941   4.536   1.586   9.997
20972SOL    HW162942   4.568   1.596   9.903
20972SOL    HW262943   4.457   1.524   9.999
20973SOL     OW62944   5.148   0.214  10.422
20973SOL    HW162945   5.200   0.149  10.477
20973SOL    HW262946   5.099   0.277  10.483
20974SOL     OW62947   4.725   0.034  10.464
20974SOL    HW162948   4.662  -0.038  10.433
20974SOL    HW262949   4.818  -0.002  10.464
20975SOL     OW62950   4.494   1.330   9.611
20975SOL    HW162951   4.448   1.243   9.628
20975SOL    HW262952   4.585   1.327   9.652
20976SOL     OW62953   4.342   1.567  10.594
20976SOL    HW162954   4.337   1.649  10.651
20976SOL    HW262955   4.431   1.564  10.549
20977SOL     OW62956   5.076   0.052   9.478
20977SOL    HW162957   5.111   0.011   9.394
20977SOL    HW262958   4.986   0.014   9.498
20978SOL     OW62959   5.024   0.453  10.001
20978SOL    HW162960   4.965   0.533  10.005
20978SOL    HW262961   5.039   0.418  10.094
20979SOL     OW62962   5.317   0.221  10.192
20979SOL    HW162963   5.233   0.220  10.246
20979SOL    HW262964   5.319   0.304  10.136
20980SOL     OW62965   3.763   1.077   9.610
20980SOL    HW162966   3.862   1.066   9.601
20980SOL    HW262967   3.723   0.991   9.642
20981SOL     OW62968   4.599   1.646   9.647
20981SOL    HW162969   4.522   1.611   9.593
20981SOL    HW262970   4.567   1.717   9.709
20982SOL     OW62971   3.954   0.628  11.285
20982SOL    HW162972   3.861   0.626  11.322
20982SOL    HW262973   3.955   0.589  11.193
20983SOL     OW62974   3.949   0.275  12.168
20983SOL    HW162975   3.984   0.258  12.260
20983SOL    HW262976   3.861   0.230  12.156
20984SOL     OW62977   3.743   0.368  11.819
20984SOL    HW162978   3.661   0.411  11.858
20984SOL    HW262979   3.715   0.295  11.756
20985SOL     OW62980   4.293   1.275  12.337
20985SOL    HW162981   4.200   1.268  12.300
20985SOL    HW262982   4.304   1.364  12.381
20986SOL     OW62983   5.279   1.511  11.875
20986SOL    HW162984   5.222   1.495  11.956
20986SOL    HW262985   5.220   1.521  11.795
20987SOL     OW62986   4.859   0.703  11.889
20987SOL    HW162987   4.916   0.781  11.864
20987SOL    HW262988   4.799   0.729  11.965
20988SOL     OW62989   5.479   0.607  11.403
20988SOL    HW162990   5.467   0.594  11.304
20988SOL    HW262991   5.449   0.526  11.452
20989SOL     OW62992   4.492   1.144  12.195
20989SOL    HW162993   4.414   1.161  12.255
20989SOL    HW262994   4.526   1.231  12.159
20990SOL     OW62995   4.409   1.012  11.837
20990SOL    HW162996   4.478   0.996  11.907
20990SOL    HW262997   4.336   1.069  11.875
20991SOL     OW62998   4.059   1.435  12.233
20991SOL    HW162999   3.981   1.404  12.180
20991SOL    HW263000   4.117   1.493  12.176
20992SOL     OW63001   5.184   1.505  12.511
20992SOL    HW163002   5.208   1.599  12.537
20992SOL    HW263003   5.168   1.451  12.593
20993SOL     OW63004   4.162   0.392  12.671
20993SOL    HW163005   4.244   0.336  12.680
20993SOL    HW263006   4.081   0.334  12.675
20994SOL     OW63007   5.327   0.447  11.909
20994SOL    HW163008   5.253   0.493  11.859
20994SOL    HW263009   5.378   0.515  11.962
20995SOL     OW63010   3.955   1.713  11.655
20995SOL    HW163011   3.989   1.790  11.709
20995SOL    HW263012   3.999   1.713  11.565
20996SOL     OW63013   3.954   1.434  11.710
20996SOL    HW163014   3.928   1.530  11.710
20996SOL    HW263015   3.883   1.380  11.755
20997SOL     OW63016   3.964   1.091  12.058
20997SOL    HW163017   3.978   1.007  12.110
20997SOL    HW263018   3.909   1.155  12.113
20998SOL     OW63019   4.344   1.786  12.611
20998SOL    HW163020   4.252   1.769  12.646
20998SOL    HW263021   4.372   1.878  12.637
20999SOL     OW63022   4.330   0.964  11.295
20999SOL    HW163023   4.337   1.048  11.241
20999SOL    HW263024   4.376   0.977  11.383
21000SOL     OW63025   5.318   0.114  12.652
21000SOL    HW163026   5.300   0.181  12.580
21000SOL    HW263027   5.315   0.160  12.741
21001SOL     OW63028   3.846   0.643  11.735
21001SOL    HW163029   3.801   0.555  11.752
21001SOL    HW263030   3.845   0.697  11.819
21002SOL     OW63031   5.566   1.767  11.531
21002SOL    HW163032   5.620   1.738  11.611
21002SOL    HW263033   5.596   1.857  11.502
21003SOL     OW63034   3.751   1.596  11.289
21003SOL    HW163035   3.732   1.500  11.310
21003SOL    HW263036   3.718   1.654  11.364
21004SOL     OW63037   5.413   0.922  11.784
21004SOL    HW163038   5.508   0.893  11.792
21004SOL    HW263039   5.405   0.987  11.709
21005SOL     OW63040   5.365   1.108  11.604
21005SOL    HW163041   5.451   1.110  11.552
21005SOL    HW263042   5.379   1.155  11.692
21006SOL     OW63043   4.337   1.365  11.898
21006SOL    HW163044   4.288   1.278  11.907
21006SOL    HW263045   4.314   1.408  11.811
21007SOL     OW63046   4.533   0.004  11.674
21007SOL    HW163047   4.573   0.095  11.665
21007SOL    HW263048   4.433   0.012  11.680
21008SOL     OW63049   3.921   0.976  12.436
21008SOL    HW163050   4.010   0.931  12.422
21008SOL    HW263051   3.848   0.911  12.417
21009SOL     OW63052   5.249   0.999  11.362
21009SOL    HW163053   5.186   0.923  11.375
21009SOL    HW263054   5.297   1.017  11.448
21010SOL     OW63055   4.041   0.251  12.973
21010SOL    HW163056   4.112   0.322  12.979
21010SOL    HW263057   3.953   0.290  13.001
21011SOL     OW63058   5.190   1.417  12.125
21011SOL    HW163059   5.131   1.423  12.205
21011SOL    HW263060   5.175   1.329  12.079
21012SOL     OW63061   5.391   1.714  11.744
21012SOL    HW163062   5.350   1.691  11.656
21012SOL    HW263063   5.373   1.640  11.809
21013SOL     OW63064   4.322   0.729  11.442
21013SOL    HW163065   4.346   0.798  11.374
21013SOL    HW263066   4.244   0.762  11.496
21014SOL     OW63067   5.005   0.345  12.116
21014SOL    HW163068   4.919   0.295  12.103
21014SOL    HW263069   5.067   0.291  12.172
21015SOL     OW63070   5.300   1.662  11.479
21015SOL    HW163071   5.389   1.708  11.482
21015SOL    HW263072   5.279   1.638  11.384
21016SOL     OW63073   4.531   0.605  12.637
21016SOL    HW163074   4.484   0.602  12.726
21016SOL    HW263075   4.480   0.550  12.571
21017SOL     OW63076   4.715   0.410  12.414
21017SOL    HW163077   4.638   0.444  12.468
21017SOL    HW263078   4.681   0.359  12.335
21018SOL     OW63079   4.765   0.701  11.601
21018SOL    HW163080   4.791   0.697  11.697
21018SOL    HW263081   4.680   0.650  11.587
21019SOL     OW63082   3.800   0.811  11.961
21019SOL    HW163083   3.899   0.799  11.970
21019SOL    HW263084   3.776   0.906  11.982
21020SOL     OW63085   3.854   1.821  12.743
21020SOL    HW163086   3.844   1.806  12.842
21020SOL    HW263087   3.768   1.857  12.707
21021SOL     OW63088   4.589   0.348  11.367
21021SOL    HW163089   4.648   0.411  11.318
21021SOL    HW263090   4.608   0.254  11.338
21022SOL     OW63091   5.086   1.144  11.717
21022SOL    HW163092   5.169   1.115  11.669
21022SOL    HW263093   5.037   1.211  11.661
21023SOL     OW63094   4.274   0.196  12.057
21023SOL    HW163095   4.269   0.191  12.157
21023SOL    HW263096   4.276   0.292  12.028
21024SOL     OW63097   4.732   1.456  11.649
21024SOL    HW163098   4.686   1.528  11.597
21024SOL    HW263099   4.728   1.476  11.747
21025SOL     OW63100   4.075   1.801  12.025
21025SOL    HW163101   4.125   1.715  12.031
21025SOL    HW263102   4.140   1.878  12.022
21026SOL     OW63103   5.519   1.066  12.045
21026SOL    HW163104   5.457   1.051  11.969
21026SOL    HW263105   5.467   1.077  12.130
21027SOL     OW63106   4.045   0.943  11.414
21027SOL    HW163107   4.127   0.982  11.372
21027SOL    HW263108   4.018   0.861  11.365
21028SOL     OW63109   5.182   0.735  11.900
21028SOL    HW163110   5.177   0.670  11.975
21028SOL    HW263111   5.262   0.794  11.913
21029SOL     OW63112   4.835   1.776  11.409
21029SOL    HW163113   4.775   1.714  11.459
21029SOL    HW263114   4.866   1.732  11.324
21030SOL     OW63115   3.926   0.285  12.670
21030SOL    HW163116   3.846   0.345  12.657
21030SOL    HW263117   3.916   0.236  12.756
21031SOL     OW63118   5.356   1.377  11.253
21031SOL    HW163119   5.324   1.471  11.243
21031SOL    HW263120   5.280   1.314  11.241
21032SOL     OW63121   4.188   1.743  11.495
21032SOL    HW163122   4.221   1.782  11.581
21032SOL    HW263123   4.264   1.736  11.430
21033SOL     OW63124   5.124   0.107  11.598
21033SOL    HW163125   5.100   0.070  11.508
21033SOL    HW263126   5.223   0.123  11.602
21034SOL     OW63127   3.973   1.785  12.413
21034SOL    HW163128   4.030   1.720  12.463
21034SOL    HW263129   3.957   1.752  12.320
21035SOL     OW63130   4.664   1.698  12.076
21035SOL    HW163131   4.744   1.641  12.097
21035SOL    HW263132   4.615   1.658  11.999
21036SOL     OW63133   4.106   0.700  11.652
21036SOL    HW163134   4.151   0.610  11.649
21036SOL    HW263135   4.012   0.689  11.685
21037SOL     OW63136   4.338   0.122  11.289
21037SOL    HW163137   4.436   0.100  11.296
21037SOL    HW263138   4.307   0.105  11.196
21038SOL     OW63139   4.612   1.514  12.367
21038SOL    HW163140   4.589   1.489  12.273
21038SOL    HW263141   4.673   1.445  12.406
21039SOL     OW63142   4.527   1.402  12.096
21039SOL    HW163143   4.617   1.416  12.054
21039SOL    HW263144   4.456   1.404  12.025
21040SOL     OW63145   4.646   0.503  12.071
21040SOL    HW163146   4.621   0.494  11.975
21040SOL    HW263147   4.694   0.421  12.102
21041SOL     OW63148   4.263   0.064  11.684
21041SOL    HW163149   4.182   0.065  11.742
21041SOL    HW263150   4.266   0.147  11.629
21042SOL     OW63151   5.158   1.188  11.213
21042SOL    HW163152   5.190   1.112  11.270
21042SOL    HW263153   5.066   1.215  11.243
21043SOL     OW63154   4.021   0.035  11.343
21043SOL    HW163155   4.070   0.119  11.322
21043SOL    HW263156   4.083  -0.030  11.388
21044SOL     OW63157   4.659   0.236  11.652
21044SOL    HW163158   4.611   0.277  11.574
21044SOL    HW263159   4.758   0.234  11.633
21045SOL     OW63160   4.951   1.570  11.965
21045SOL    HW163161   4.972   1.644  11.900
21045SOL    HW263162   5.019   1.570  12.038
21046SOL     OW63163   4.183   1.152  11.913
21046SOL    HW163164   4.112   1.125  11.978
21046SOL    HW263165   4.157   1.124  11.820
21047SOL     OW63166   4.995   1.797  11.763
21047SOL    HW163167   5.039   1.861  11.699
21047SOL    HW263168   4.945   1.849  11.833
21048SOL     OW63169   4.756   0.549  11.188
21048SOL    HW163170   4.715   0.631  11.149
21048SOL    HW263171   4.820   0.575  11.261
21049SOL     OW63172   3.802   0.556  12.558
21049SOL    HW163173   3.894   0.555  12.517
21049SOL    HW263174   3.796   0.630  12.625
21050SOL     OW63175   4.285   0.222  12.319
21050SOL    HW163176   4.323   0.138  12.356
21050SOL    HW263177   4.197   0.241  12.363
21051SOL     OW63178   4.590   0.454  11.814
21051SOL    HW163179   4.558   0.526  11.752
21051SOL    HW263180   4.614   0.373  11.761
21052SOL     OW63181   4.741   0.039  11.925
21052SOL    HW163182   4.669   0.044  11.856
21052SOL    HW263183   4.717  -0.030  11.994
21053SOL     OW63184   5.153   1.173  12.039
21053SOL    HW163185   5.098   1.089  12.032
21053SOL    HW263186   5.179   1.202  11.947
21054SOL     OW63187   5.190   0.590  12.164
21054SOL    HW163188   5.160   0.495  12.171
21054SOL    HW263189   5.263   0.606  12.230
21055SOL     OW63190   5.581   0.833  11.549
21055SOL    HW163191   5.623   0.769  11.613
21055SOL    HW263192   5.543   0.782  11.471
21056SOL     OW63193   4.212   1.385  11.346
21056SOL    HW163194   4.125   1.370  11.393
21056SOL    HW263195   4.195   1.411  11.251
21057SOL     OW63196   5.388   1.280  11.829
21057SOL    HW163197   5.487   1.288  11.843
21057SOL    HW263198   5.343   1.364  11.860
21058SOL     OW63199   5.114   0.575  11.250
21058SOL    HW163200   5.060   0.554  11.331
21058SOL    HW263201   5.205   0.534  11.259
21059SOL     OW63202   4.251   0.256  11.500
21059SOL    HW163203   4.278   0.197  11.425
21059SOL    HW263204   4.251   0.351  11.469
21060SOL     OW63205   4.788   1.347  12.512
21060SOL    HW163206   4.708   1.324  12.567
21060SOL    HW263207   4.871   1.321  12.561
21061SOL     OW63208   4.835   1.195  12.272
21061SOL    HW163209   4.795   1.239  12.353
21061SOL    HW263210   4.794   1.232  12.189
21062SOL     OW63211   5.362   1.099  12.251
21062SOL    HW163212   5.367   1.180  12.310
21062SOL    HW263213   5.276   1.101  12.200
21063SOL     OW63214   4.639   0.089  12.574
21063SOL    HW163215   4.664   0.069  12.479
21063SOL    HW263216   4.711   0.145  12.616
21064SOL     OW63217   4.429   1.050  11.540
21064SOL    HW163218   4.415   1.057  11.639
21064SOL    HW263219   4.513   0.999  11.522
21065SOL     OW63220   4.134   0.813  12.423
21065SOL    HW163221   4.220   0.825  12.473
21065SOL    HW263222   4.092   0.726  12.450
21066SOL     OW63223   4.998   0.386  12.434
21066SOL    HW163224   5.019   0.460  12.498
21066SOL    HW263225   4.909   0.403  12.391
21067SOL     OW63226   3.788   1.564  12.503
21067SOL    HW163227   3.742   1.646  12.469
21067SOL    HW263228   3.886   1.583  12.512
21068SOL     OW63229   4.091   1.100  11.673
21068SOL    HW163230   4.084   1.183  11.617
21068SOL    HW263231   4.095   1.020  11.613
21069SOL     OW63232   4.290   0.537  12.037
21069SOL    HW163233   4.302   0.603  11.963
21069SOL    HW263234   4.336   0.571  12.120
21070SOL     OW63235   4.976   1.348  11.560
21070SOL    HW163236   5.026   1.425  11.600
21070SOL    HW263237   4.881   1.350  11.592
21071SOL     OW63238   4.996   1.445  12.314
21071SOL    HW163239   5.043   1.458  12.401
21071SOL    HW263240   4.930   1.371  12.323
21072SOL     OW63241   5.306   0.639  11.644
21072SOL    HW163242   5.275   0.700  11.717
21072SOL    HW263243   5.356   0.691  11.575
21073SOL     OW63244   4.078   1.510  12.501
21073SOL    HW163245   4.057   1.466  12.414
21073SOL    HW263246   4.175   1.536  12.504
21074SOL     OW63247   4.126   0.751  12.770
21074SOL    HW163248   4.194   0.806  12.723
21074SOL    HW263249   4.166   0.663  12.797
21075SOL     OW63250   5.311   0.779  12.842
21075SOL    HW163251   5.219   0.817  12.837
21075SOL    HW263252   5.371   0.826  12.777
21076SOL     OW63253   4.297   0.870  12.201
21076SOL    HW163254   4.341   0.959  12.192
21076SOL    HW263255   4.234   0.870  12.278
21077SOL     OW63256   5.084   0.862  12.217
21077SOL    HW163257   5.009   0.862  12.151
21077SOL    HW263258   5.121   0.770  12.226
21078SOL     OW63259   4.933   0.525  11.447
21078SOL    HW163260   4.946   0.441  11.501
21078SOL    HW263261   4.904   0.599  11.507
21079SOL     OW63262   4.031   0.213  12.403
21079SOL    HW163263   4.008   0.250  12.493
21079SOL    HW263264   4.001   0.118  12.397
21080SOL     OW63265   3.761   1.310  12.454
21080SOL    HW163266   3.814   1.261  12.522
21080SOL    HW263267   3.783   1.408  12.459
21081SOL     OW63268   4.456   0.634  12.236
21081SOL    HW163269   4.515   0.608  12.160
21081SOL    HW263270   4.428   0.730  12.225
21082SOL     OW63271   4.031   0.063  11.790
21082SOL    HW163272   4.020   0.157  11.823
21082SOL    HW263273   4.026   0.000  11.867
21083SOL     OW63274   5.346   0.367  11.546
21083SOL    HW163275   5.348   0.291  11.610
21083SOL    HW263276   5.298   0.444  11.586
21084SOL     OW63277   4.747   0.766  12.138
21084SOL    HW163278   4.762   0.787  12.234
21084SOL    HW263279   4.717   0.671  12.129
21085SOL     OW63280   4.704   1.573  12.872
21085SOL    HW163281   4.684   1.617  12.784
21085SOL    HW263282   4.743   1.482  12.856
21086SOL     OW63283   5.264   0.274  11.297
21086SOL    HW163284   5.203   0.199  11.320
21086SOL    HW263285   5.286   0.326  11.380
21087SOL     OW63286   5.027   0.838  11.214
21087SOL    HW163287   5.061   0.745  11.229
21087SOL    HW263288   5.045   0.865  11.119
21088SOL     OW63289   4.792   1.333  12.021
21088SOL    HW163290   4.799   1.249  11.966
21088SOL    HW263291   4.854   1.402  11.985
21089SOL     OW63292   4.043   0.810  12.121
21089SOL    HW163293   4.136   0.846  12.126
21089SOL    HW263294   4.037   0.725  12.173
21090SOL     OW63295   4.063   0.509  12.178
21090SOL    HW163296   4.011   0.426  12.161
21090SOL    HW263297   4.140   0.514  12.114
21091SOL     OW63298   4.862   0.380  12.850
21091SOL    HW163299   4.817   0.443  12.914
21091SOL    HW263300   4.955   0.411  12.833
21092SOL     OW63301   4.884   0.207  12.649
21092SOL    HW163302   4.884   0.271  12.726
21092SOL    HW263303   4.912   0.255  12.566
21093SOL     OW63304   3.732   1.326  11.372
21093SOL    HW163305   3.639   1.347  11.341
21093SOL    HW263306   3.742   1.227  11.385
21094SOL     OW63307   3.812   1.801  12.099
21094SOL    HW163308   3.770   1.715  12.072
21094SOL    HW263309   3.906   1.804  12.065
21095SOL     OW63310   4.228   1.568  12.082
21095SOL    HW163311   4.294   1.642  12.091
21095SOL    HW263312   4.272   1.489  12.040
21096SOL     OW63313   4.726   0.796  12.410
21096SOL    HW163314   4.767   0.764  12.496
21096SOL    HW263315   4.630   0.769  12.407
21097SOL     OW63316   3.764   0.544  12.286
21097SOL    HW163317   3.849   0.511  12.245
21097SOL    HW263318   3.777   0.559  12.384
21098SOL     OW63319   4.539   0.572  11.497
21098SOL    HW163320   4.546   0.483  11.451
21098SOL    HW263321   4.445   0.606  11.489
21099SOL     OW63322   5.381   0.604  12.378
21099SOL    HW163323   5.343   0.535  12.440
21099SOL    HW263324   5.463   0.568  12.334
21100SOL     OW63325   4.395   0.464  12.441
21100SOL    HW163326   4.361   0.375  12.411
21100SOL    HW263327   4.421   0.518  12.361
21101SOL     OW63328   4.654   1.678  12.637
21101SOL    HW163329   4.630   1.660  12.542
21101SOL    HW263330   4.684   1.772  12.647
21102SOL     OW63331   4.197   0.500  11.363
21102SOL    HW163332   4.258   0.580  11.367
21102SOL    HW263333   4.102   0.531  11.370
21103SOL     OW63334   3.883   1.137  12.638
21103SOL    HW163335   3.905   1.076  12.714
21103SOL    HW263336   3.893   1.088  12.552
21104SOL     OW63337   5.071   1.059  12.406
21104SOL    HW163338   5.095   0.996  12.332
21104SOL    HW263339   4.981   1.099  12.388
21105SOL     OW63340   5.026   0.855  11.481
21105SOL    HW163341   4.940   0.824  11.523
21105SOL    HW263342   5.022   0.841  11.382
21106SOL     OW63343   5.483   1.747  12.326
21106SOL    HW163344   5.544   1.777  12.253
21106SOL    HW263345   5.445   1.658  12.304
21107SOL     OW63346   4.976   1.731  12.300
21107SOL    HW163347   5.060   1.736  12.246
21107SOL    HW263348   4.953   1.635  12.318
21108SOL     OW63349   3.807   1.258  12.194
21108SOL    HW163350   3.802   1.257  12.294
21108SOL    HW263351   3.724   1.217  12.156
21109SOL     OW63352   5.450   0.135  11.695
21109SOL    HW163353   5.523   0.118  11.628
21109SOL    HW263354   5.419   0.048  11.733
21110SOL     OW63355   5.112   1.573  11.649
21110SOL    HW163356   5.179   1.585  11.575
21110SOL    HW263357   5.072   1.662  11.672
21111SOL     OW63358   5.004   0.927  11.844
21111SOL    HW163359   5.064   0.846  11.846
21111SOL    HW263360   5.044   0.996  11.784
21112SOL     OW63361   4.396   1.616  11.326
21112SOL    HW163362   4.405   1.626  11.227
21112SOL    HW263363   4.356   1.527  11.347
21113SOL     OW63364   5.374   1.720  12.566
21113SOL    HW163365   5.427   1.730  12.482
21113SOL    HW263366   5.347   1.810  12.600
21114SOL     OW63367   5.565   0.175  12.135
21114SOL    HW163368   5.604   0.090  12.099
21114SOL    HW263369   5.467   0.177  12.116
21115SOL     OW63370   3.987   0.326  11.892
21115SOL    HW163371   3.908   0.377  11.858
21115SOL    HW263372   3.978   0.311  11.990
21116SOL     OW63373   4.918   1.612  11.203
21116SOL    HW163374   4.924   1.519  11.240
21116SOL    HW263375   4.859   1.612  11.123
21117SOL     OW63376   4.546   1.002  12.544
21117SOL    HW163377   4.586   1.001  12.452
21117SOL    HW263378   4.556   1.094  12.584
21118SOL     OW63379   4.640   0.910  11.463
21118SOL    HW163380   4.703   0.948  11.395
21118SOL    HW263381   4.680   0.827  11.502
21119SOL     OW63382   5.228   1.607  11.216
21119SOL    HW163383   5.136   1.644  11.223
21119SOL    HW263384   5.266   1.627  11.126
21120SOL     OW63385   4.096   1.288  12.662
21120SOL    HW163386   4.083   1.381  12.628
21120SOL    HW263387   4.012   1.236  12.649
21121SOL     OW63388   5.338   1.292  12.461
21121SOL    HW163389   5.398   1.295  12.541
21121SOL    HW263390   5.263   1.356  12.474
21122SOL     OW63391   4.763   1.098  11.868
21122SOL    HW163392   4.693   1.051  11.922
21122SOL    HW263393   4.822   1.030  11.825
21123SOL     OW63394   4.738   0.236  12.143
21123SOL    HW163395   4.730   0.200  12.050
21123SOL    HW263396   4.736   0.160  12.208
21124SOL     OW63397   4.314   1.487  11.663
21124SOL    HW163398   4.356   1.429  11.593
21124SOL    HW263399   4.270   1.566  11.619
21125SOL     OW63400   5.433   0.385  12.553
21125SOL    HW163401   5.506   0.454  12.557
21125SOL    HW263402   5.461   0.310  12.494
21126SOL     OW63403   3.979   1.348  11.462
21126SOL    HW163404   3.883   1.349  11.435
21126SOL    HW263405   3.991   1.401  11.546
21127SOL     OW63406   3.799   0.345  11.205
21127SOL    HW163407   3.707   0.317  11.176
21127SOL    HW263408   3.830   0.422  11.149
21128SOL     OW63409   5.164   0.856  12.570
21128SOL    HW163410   5.107   0.908  12.507
21128SOL    HW263411   5.260   0.868  12.546
21129SOL     OW63412   3.796   0.166  11.490
21129SOL    HW163413   3.779   0.249  11.436
21129SOL    HW263414   3.886   0.129  11.468
21130SOL     OW63415   4.907   1.335  11.291
21130SOL    HW163416   4.808   1.324  11.293
21130SOL    HW263417   4.941   1.350  11.384
21131SOL     OW63418   4.337   0.842  12.603
21131SOL    HW163419   4.393   0.923  12.586
21131SOL    HW263420   4.396   0.762  12.606
21132SOL     OW63421   5.217   1.767  12.131
21132SOL    HW163422   5.250   1.831  12.062
21132SOL    HW263423   5.283   1.761  12.206
21133SOL     OW63424   4.114   1.741  12.732
21133SOL    HW163425   4.023   1.782  12.730
21133SOL    HW263426   4.107   1.647  12.764
21134SOL     OW63427   5.398   0.883  12.426
21134SOL    HW163428   5.371   0.794  12.389
21134SOL    HW263429   5.399   0.951  12.353
21135SOL     OW63430   4.949   0.325  11.621
21135SOL    HW163431   5.014   0.251  11.610
21135SOL    HW263432   4.969   0.375  11.705
21136SOL     OW63433   4.318   0.745  11.824
21136SOL    HW163434   4.368   0.830  11.805
21136SOL    HW263435   4.230   0.747  11.776
21137SOL     OW63436   5.501   0.342  12.814
21137SOL    HW163437   5.484   0.373  12.720
21137SOL    HW263438   5.417   0.305  12.852
21138SOL     OW63439   5.454   0.934  12.689
21138SOL    HW163440   5.492   1.025  12.704
21138SOL    HW263441   5.446   0.917  12.590
21139SOL     OW63442   4.583   1.374  11.188
21139SOL    HW163443   4.537   1.389  11.276
21139SOL    HW263444   4.627   1.459  11.158
21140SOL     OW63445   4.385   1.790  12.125
21140SOL    HW163446   4.339   1.878  12.112
21140SOL    HW263447   4.484   1.802  12.118
21141SOL     OW63448   4.583   0.956  12.033
21141SOL    HW163449   4.637   0.887  12.081
21141SOL    HW263450   4.551   1.025  12.099
21142SOL     OW63451   4.807   0.984  11.259
21142SOL    HW163452   4.784   1.037  11.177
21142SOL    HW263453   4.888   0.928  11.240
21143SOL     OW63454   5.585   1.569  12.023
21143SOL    HW163455   5.514   1.557  11.953
21143SOL    HW263456   5.586   1.490  12.083
21144SOL     OW63457   3.803   1.240  11.825
21144SOL    HW163458   3.802   1.193  11.913
21144SOL    HW263459   3.885   1.212  11.774
21145SOL     OW63460   5.548   0.192  12.399
21145SOL    HW163461   5.544   0.102  12.443
21145SOL    HW263462   5.551   0.181  12.300
21146SOL     OW63463   4.152   0.424  11.692
21146SOL    HW163464   4.182   0.352  11.630
21146SOL    HW263465   4.113   0.384  11.775
21147SOL     OW63466   5.429   1.487  12.276
21147SOL    HW163467   5.336   1.462  12.249
21147SOL    HW263468   5.455   1.437  12.358
21148SOL     OW63469   4.041   0.547  12.452
21148SOL    HW163470   4.079   0.488  12.524
21148SOL    HW263471   4.081   0.521  12.364
21149SOL     OW63472   4.536   1.586  11.859
21149SOL    HW163473   4.568   1.596  11.765
21149SOL    HW263474   4.457   1.524  11.861
21150SOL     OW63475   5.148   0.214  12.284
21150SOL    HW163476   5.200   0.149  12.339
21150SOL    HW263477   5.099   0.277  12.345
21151SOL     OW63478   4.725   0.034  12.326
21151SOL    HW163479   4.662  -0.038  12.295
21151SOL    HW263480   4.818  -0.002  12.326
21152SOL     OW63481   4.494   1.330  11.473
21152SOL    HW163482   4.448   1.243  11.490
21152SOL    HW263483   4.585   1.327  11.514
21153SOL     OW63484   4.342   1.567  12.456
21153SOL    HW163485   4.337   1.649  12.513
21153SOL    HW263486   4.431   1.564  12.411
21154SOL     OW63487   5.076   0.052  11.340
21154SOL    HW163488   5.111   0.011  11.256
21154SOL    HW263489   4.986   0.014  11.360
21155SOL     OW63490   5.024   0.453  11.863
21155SOL    HW163491   4.965   0.533  11.867
21155SOL    HW263492   5.039   0.418  11.956
21156SOL     OW63493   5.317   0.221  12.054
21156SOL    HW163494   5.233   0.220  12.108
21156SOL    HW263495   5.319   0.304  11.998
21157SOL     OW63496   3.763   1.077  11.472
21157SOL    HW163497   3.862   1.066  11.463
21157SOL    HW263498   3.723   0.991  11.504
21158SOL     OW63499   4.599   1.646  11.509
21158SOL    HW163500   4.522   1.611  11.455
21158SOL    HW263501   4.567   1.717  11.571
21159SOL     OW63502   3.954   2.490   0.113
21159SOL    HW163503   3.861   2.488   0.150
21159SOL    HW263504   3.955   2.451   0.021
21160SOL     OW63505   3.949   2.137   0.996
21160SOL    HW163506   3.984   2.120   1.088
21160SOL    HW263507   3.861   2.092   0.984
21161SOL     OW63508   3.743   2.230   0.647
21161SOL    HW163509   3.661   2.273   0.686
21161SOL    HW263510   3.715   2.157   0.584
21162SOL     OW63511   4.293   3.137   1.165
21162SOL    HW163512   4.200   3.130   1.128
21162SOL    HW263513   4.304   3.226   1.209
21163SOL     OW63514   5.279   3.373   0.703
21163SOL    HW163515   5.222   3.357   0.784
21163SOL    HW263516   5.220   3.383   0.623
21164SOL     OW63517   4.859   2.565   0.717
21164SOL    HW163518   4.916   2.643   0.692
21164SOL    HW263519   4.799   2.591   0.793
21165SOL     OW63520   5.479   2.469   0.231
21165SOL    HW163521   5.467   2.456   0.132
21165SOL    HW263522   5.449   2.388   0.280
21166SOL     OW63523   4.492   3.006   1.023
21166SOL    HW163524   4.414   3.023   1.083
21166SOL    HW263525   4.526   3.093   0.987
21167SOL     OW63526   4.574   2.660   1.823
21167SOL    HW163527   4.570   2.736   1.888
21167SOL    HW263528   4.596   2.696   1.732
21168SOL     OW63529   4.409   2.874   0.665
21168SOL    HW163530   4.478   2.858   0.735
21168SOL    HW263531   4.336   2.931   0.703
21169SOL     OW63532   4.410   3.023   1.803
21169SOL    HW163533   4.470   3.102   1.817
21169SOL    HW263534   4.324   3.054   1.762
21170SOL     OW63535   4.059   3.297   1.061
21170SOL    HW163536   3.981   3.266   1.008
21170SOL    HW263537   4.117   3.355   1.004
21171SOL     OW63538   5.184   3.367   1.339
21171SOL    HW163539   5.208   3.461   1.365
21171SOL    HW263540   5.168   3.313   1.421
21172SOL     OW63541   4.162   2.254   1.499
21172SOL    HW163542   4.244   2.198   1.508
21172SOL    HW263543   4.081   2.196   1.503
21173SOL     OW63544   5.327   2.309   0.737
21173SOL    HW163545   5.253   2.355   0.687
21173SOL    HW263546   5.378   2.377   0.790
21174SOL     OW63547   3.955   3.575   0.483
21174SOL    HW163548   3.989   3.652   0.537
21174SOL    HW263549   3.999   3.575   0.393
21175SOL     OW63550   4.851   3.203   1.690
21175SOL    HW163551   4.898   3.203   1.778
21175SOL    HW263552   4.803   3.116   1.679
21176SOL     OW63553   3.954   3.296   0.538
21176SOL    HW163554   3.928   3.392   0.538
21176SOL    HW263555   3.883   3.242   0.583
21177SOL     OW63556   3.964   2.953   0.886
21177SOL    HW163557   3.978   2.869   0.938
21177SOL    HW263558   3.909   3.017   0.941
21178SOL     OW63559   4.344   3.648   1.439
21178SOL    HW163560   4.252   3.631   1.474
21178SOL    HW263561   4.372   3.740   1.465
21179SOL     OW63562   4.330   2.826   0.123
21179SOL    HW163563   4.337   2.910   0.069
21179SOL    HW263564   4.376   2.839   0.211
21180SOL     OW63565   5.318   1.976   1.480
21180SOL    HW163566   5.300   2.043   1.408
21180SOL    HW263567   5.315   2.022   1.569
21181SOL     OW63568   3.846   2.505   0.563
21181SOL    HW163569   3.801   2.417   0.580
21181SOL    HW263570   3.845   2.559   0.647
21182SOL     OW63571   5.566   3.629   0.359
21182SOL    HW163572   5.620   3.600   0.439
21182SOL    HW263573   5.596   3.719   0.330
21183SOL     OW63574   3.751   3.458   0.117
21183SOL    HW163575   3.732   3.362   0.138
21183SOL    HW263576   3.718   3.516   0.192
21184SOL     OW63577   5.413   2.784   0.612
21184SOL    HW163578   5.508   2.755   0.620
21184SOL    HW263579   5.405   2.849   0.537
21185SOL     OW63580   5.365   2.970   0.432
21185SOL    HW163581   5.451   2.972   0.380
21185SOL    HW263582   5.379   3.017   0.520
21186SOL     OW63583   3.837   2.599   1.597
21186SOL    HW163584   3.925   2.586   1.642
21186SOL    HW263585   3.824   2.696   1.575
21187SOL     OW63586   4.337   3.227   0.726
21187SOL    HW163587   4.288   3.140   0.735
21187SOL    HW263588   4.314   3.270   0.639
21188SOL     OW63589   5.017   3.090   1.423
21188SOL    HW163590   5.054   3.017   1.365
21188SOL    HW263591   5.069   3.095   1.508
21189SOL     OW63592   4.533   1.866   0.502
21189SOL    HW163593   4.573   1.957   0.493
21189SOL    HW263594   4.433   1.874   0.508
21190SOL     OW63595   3.921   2.838   1.264
21190SOL    HW163596   4.010   2.793   1.250
21190SOL    HW263597   3.848   2.773   1.245
21191SOL     OW63598   5.249   2.861   0.190
21191SOL    HW163599   5.186   2.785   0.203
21191SOL    HW263600   5.297   2.879   0.276
21192SOL     OW63601   4.911   3.654   1.616
21192SOL    HW163602   4.935   3.714   1.540
21192SOL    HW263603   4.918   3.559   1.586
21193SOL     OW63604   4.041   2.113   1.801
21193SOL    HW163605   4.112   2.184   1.807
21193SOL    HW263606   3.953   2.152   1.829
21194SOL     OW63607   5.190   3.279   0.953
21194SOL    HW163608   5.131   3.285   1.033
21194SOL    HW263609   5.175   3.191   0.907
21195SOL     OW63610   5.391   3.576   0.572
21195SOL    HW163611   5.350   3.553   0.484
21195SOL    HW263612   5.373   3.502   0.637
21196SOL     OW63613   4.322   2.591   0.270
21196SOL    HW163614   4.346   2.660   0.202
21196SOL    HW263615   4.244   2.624   0.324
21197SOL     OW63616   5.005   2.207   0.944
21197SOL    HW163617   4.919   2.157   0.931
21197SOL    HW263618   5.067   2.153   1.000
21198SOL     OW63619   5.300   3.524   0.307
21198SOL    HW163620   5.389   3.570   0.310
21198SOL    HW263621   5.279   3.500   0.212
21199SOL     OW63622   4.531   2.467   1.465
21199SOL    HW163623   4.484   2.464   1.554
21199SOL    HW263624   4.480   2.412   1.399
21200SOL     OW63625   5.118   2.331   1.674
21200SOL    HW163626   5.098   2.374   1.762
21200SOL    HW263627   5.196   2.269   1.683
21201SOL     OW63628   4.697   2.752   1.572
21201SOL    HW163629   4.743   2.668   1.543
21201SOL    HW263630   4.641   2.786   1.497
21202SOL     OW63631   4.715   2.272   1.242
21202SOL    HW163632   4.638   2.306   1.296
21202SOL    HW263633   4.681   2.221   1.163
21203SOL     OW63634   4.765   2.563   0.429
21203SOL    HW163635   4.791   2.559   0.525
21203SOL    HW263636   4.680   2.512   0.415
21204SOL     OW63637   3.800   2.673   0.789
21204SOL    HW163638   3.899   2.661   0.798
21204SOL    HW263639   3.776   2.768   0.810
21205SOL     OW63640   3.854   3.683   1.571
21205SOL    HW163641   3.844   3.668   1.670
21205SOL    HW263642   3.768   3.719   1.535
21206SOL     OW63643   4.589   2.210   0.195
21206SOL    HW163644   4.648   2.273   0.146
21206SOL    HW263645   4.608   2.116   0.166
21207SOL     OW63646   5.443   2.447   1.831
21207SOL    HW163647   5.417   2.536   1.795
21207SOL    HW263648   5.441   2.379   1.758
21208SOL     OW63649   5.086   3.006   0.545
21208SOL    HW163650   5.169   2.977   0.497
21208SOL    HW263651   5.037   3.073   0.489
21209SOL     OW63652   4.274   2.058   0.885
21209SOL    HW163653   4.269   2.053   0.985
21209SOL    HW263654   4.276   2.154   0.856
21210SOL     OW63655   4.732   3.318   0.477
21210SOL    HW163656   4.686   3.390   0.425
21210SOL    HW263657   4.728   3.338   0.575
21211SOL     OW63658   4.075   3.663   0.853
21211SOL    HW163659   4.125   3.577   0.859
21211SOL    HW263660   4.140   3.740   0.850
21212SOL     OW63661   5.519   2.928   0.873
21212SOL    HW163662   5.457   2.913   0.797
21212SOL    HW263663   5.467   2.939   0.958
21213SOL     OW63664   4.951   3.412   1.506
21213SOL    HW163665   4.957   3.335   1.570
21213SOL    HW263666   4.899   3.386   1.426
21214SOL     OW63667   4.045   2.805   0.242
21214SOL    HW163668   4.127   2.844   0.200
21214SOL    HW263669   4.018   2.723   0.193
21215SOL     OW63670   5.182   2.597   0.728
21215SOL    HW163671   5.177   2.532   0.803
21215SOL    HW263672   5.262   2.656   0.741
21216SOL     OW63673   4.185   3.128   1.727
21216SOL    HW163674   4.135   3.129   1.641
21216SOL    HW263675   4.122   3.110   1.803
21217SOL     OW63676   4.835   3.638   0.237
21217SOL    HW163677   4.775   3.576   0.287
21217SOL    HW263678   4.866   3.594   0.152
21218SOL     OW63679   3.926   2.147   1.498
21218SOL    HW163680   3.846   2.207   1.485
21218SOL    HW263681   3.916   2.098   1.584
21219SOL     OW63682   5.356   3.239   0.081
21219SOL    HW163683   5.324   3.333   0.071
21219SOL    HW263684   5.280   3.176   0.069
21220SOL     OW63685   4.188   3.605   0.323
21220SOL    HW163686   4.221   3.644   0.409
21220SOL    HW263687   4.264   3.598   0.258
21221SOL     OW63688   5.124   1.969   0.426
21221SOL    HW163689   5.100   1.932   0.336
21221SOL    HW263690   5.223   1.985   0.430
21222SOL     OW63691   3.973   3.647   1.241
21222SOL    HW163692   4.030   3.582   1.291
21222SOL    HW263693   3.957   3.614   1.148
21223SOL     OW63694   4.664   3.560   0.904
21223SOL    HW163695   4.744   3.503   0.925
21223SOL    HW263696   4.615   3.520   0.827
21224SOL     OW63697   4.106   2.562   0.480
21224SOL    HW163698   4.151   2.472   0.477
21224SOL    HW263699   4.012   2.551   0.513
21225SOL     OW63700   5.271   2.084   1.729
21225SOL    HW163701   5.266   2.121   1.821
21225SOL    HW263702   5.199   2.015   1.717
21226SOL     OW63703   4.338   1.984   0.117
21226SOL    HW163704   4.436   1.962   0.124
21226SOL    HW263705   4.307   1.967   0.024
21227SOL     OW63706   4.505   2.126   1.749
21227SOL    HW163707   4.572   2.065   1.792
21227SOL    HW263708   4.432   2.145   1.814
21228SOL     OW63709   4.612   3.376   1.195
21228SOL    HW163710   4.589   3.351   1.101
21228SOL    HW263711   4.673   3.307   1.234
21229SOL     OW63712   5.075   2.452   1.433
21229SOL    HW163713   5.103   2.409   1.518
21229SOL    HW263714   5.100   2.548   1.434
21230SOL     OW63715   4.527   3.264   0.924
21230SOL    HW163716   4.617   3.278   0.882
21230SOL    HW263717   4.456   3.266   0.853
21231SOL     OW63718   4.646   2.365   0.899
21231SOL    HW163719   4.621   2.356   0.803
21231SOL    HW263720   4.694   2.283   0.930
21232SOL     OW63721   4.263   1.926   0.512
21232SOL    HW163722   4.182   1.927   0.570
21232SOL    HW263723   4.266   2.009   0.457
21233SOL     OW63724   5.158   3.050   0.041
21233SOL    HW163725   5.190   2.974   0.098
21233SOL    HW263726   5.066   3.077   0.071
21234SOL     OW63727   4.021   1.897   0.171
21234SOL    HW163728   4.070   1.981   0.150
21234SOL    HW263729   4.083   1.832   0.216
21235SOL     OW63730   4.659   2.098   0.480
21235SOL    HW163731   4.611   2.139   0.402
21235SOL    HW263732   4.758   2.096   0.461
21236SOL     OW63733   4.800   2.545   1.464
21236SOL    HW163734   4.720   2.484   1.467
21236SOL    HW263735   4.881   2.492   1.440
21237SOL     OW63736   4.951   3.432   0.793
21237SOL    HW163737   4.972   3.506   0.728
21237SOL    HW263738   5.019   3.432   0.866
21238SOL     OW63739   4.183   3.014   0.741
21238SOL    HW163740   4.112   2.987   0.806
21238SOL    HW263741   4.157   2.986   0.648
21239SOL     OW63742   4.995   3.659   0.591
21239SOL    HW163743   5.039   3.723   0.527
21239SOL    HW263744   4.945   3.711   0.661
21240SOL     OW63745   4.756   2.411   0.016
21240SOL    HW163746   4.715   2.493  -0.023
21240SOL    HW263747   4.820   2.437   0.089
21241SOL     OW63748   3.802   2.418   1.386
21241SOL    HW163749   3.894   2.417   1.345
21241SOL    HW263750   3.796   2.492   1.453
21242SOL     OW63751   4.285   2.084   1.147
21242SOL    HW163752   4.323   2.000   1.184
21242SOL    HW263753   4.197   2.103   1.191
21243SOL     OW63754   4.590   2.316   0.642
21243SOL    HW163755   4.558   2.388   0.580
21243SOL    HW263756   4.614   2.235   0.589
21244SOL     OW63757   4.741   1.901   0.753
21244SOL    HW163758   4.669   1.906   0.684
21244SOL    HW263759   4.717   1.832   0.822
21245SOL     OW63760   5.153   3.035   0.867
21245SOL    HW163761   5.098   2.951   0.860
21245SOL    HW263762   5.179   3.064   0.775
21246SOL     OW63763   5.190   2.452   0.992
21246SOL    HW163764   5.160   2.357   0.999
21246SOL    HW263765   5.263   2.468   1.058
21247SOL     OW63766   5.581   2.695   0.377
21247SOL    HW163767   5.623   2.631   0.441
21247SOL    HW263768   5.543   2.644   0.299
21248SOL     OW63769   4.212   3.247   0.174
21248SOL    HW163770   4.125   3.232   0.221
21248SOL    HW263771   4.195   3.273   0.079
21249SOL     OW63772   5.388   3.142   0.657
21249SOL    HW163773   5.487   3.150   0.671
21249SOL    HW263774   5.343   3.226   0.688
21250SOL     OW63775   5.114   2.437   0.078
21250SOL    HW163776   5.060   2.416   0.159
21250SOL    HW263777   5.205   2.396   0.087
21251SOL     OW63778   4.251   2.118   0.328
21251SOL    HW163779   4.278   2.059   0.253
21251SOL    HW263780   4.251   2.213   0.297
21252SOL     OW63781   5.478   3.085   1.588
21252SOL    HW163782   5.569   3.046   1.575
21252SOL    HW263783   5.486   3.181   1.612
21253SOL     OW63784   4.788   3.209   1.340
21253SOL    HW163785   4.708   3.186   1.395
21253SOL    HW263786   4.871   3.183   1.389
21254SOL     OW63787   5.316   3.491   1.625
21254SOL    HW163788   5.343   3.525   1.535
21254SOL    HW263789   5.395   3.453   1.671
21255SOL     OW63790   4.835   3.057   1.100
21255SOL    HW163791   4.795   3.101   1.181
21255SOL    HW263792   4.794   3.094   1.017
21256SOL     OW63793   5.362   2.961   1.079
21256SOL    HW163794   5.367   3.042   1.138
21256SOL    HW263795   5.276   2.963   1.028
21257SOL     OW63796   4.639   1.951   1.402
21257SOL    HW163797   4.664   1.931   1.307
21257SOL    HW263798   4.711   2.007   1.444
21258SOL     OW63799   4.704   2.978   1.719
21258SOL    HW163800   4.605   2.984   1.729
21258SOL    HW263801   4.727   2.898   1.663
21259SOL     OW63802   4.429   2.912   0.368
21259SOL    HW163803   4.415   2.919   0.467
21259SOL    HW263804   4.513   2.861   0.350
21260SOL     OW63805   4.134   2.675   1.251
21260SOL    HW163806   4.220   2.687   1.301
21260SOL    HW263807   4.092   2.588   1.278
21261SOL     OW63808   3.788   3.426   1.331
21261SOL    HW163809   3.742   3.508   1.297
21261SOL    HW263810   3.886   3.445   1.340
21262SOL     OW63811   4.091   2.962   0.501
21262SOL    HW163812   4.084   3.045   0.445
21262SOL    HW263813   4.095   2.882   0.441
21263SOL     OW63814   4.290   2.399   0.865
21263SOL    HW163815   4.302   2.465   0.791
21263SOL    HW263816   4.336   2.433   0.948
21264SOL     OW63817   4.976   3.210   0.388
21264SOL    HW163818   5.026   3.287   0.428
21264SOL    HW263819   4.881   3.212   0.420
21265SOL     OW63820   4.996   3.307   1.142
21265SOL    HW163821   5.043   3.320   1.229
21265SOL    HW263822   4.930   3.233   1.151
21266SOL     OW63823   5.306   2.501   0.472
21266SOL    HW163824   5.275   2.562   0.545
21266SOL    HW263825   5.356   2.553   0.403
21267SOL     OW63826   4.078   3.372   1.329
21267SOL    HW163827   4.057   3.328   1.242
21267SOL    HW263828   4.175   3.398   1.332
21268SOL     OW63829   4.126   2.613   1.598
21268SOL    HW163830   4.194   2.668   1.551
21268SOL    HW263831   4.166   2.525   1.625
21269SOL     OW63832   5.311   2.641   1.670
21269SOL    HW163833   5.219   2.679   1.665
21269SOL    HW263834   5.371   2.688   1.605
21270SOL     OW63835   4.737   1.967   1.770
21270SOL    HW163836   4.743   2.052   1.718
21270SOL    HW263837   4.769   1.891   1.713
21271SOL     OW63838   4.228   1.912   1.740
21271SOL    HW163839   4.186   1.855   1.670
21271SOL    HW263840   4.162   1.981   1.772
21272SOL     OW63841   4.297   2.732   1.029
21272SOL    HW163842   4.341   2.821   1.020
21272SOL    HW263843   4.234   2.732   1.106
21273SOL     OW63844   5.084   2.724   1.045
21273SOL    HW163845   5.009   2.724   0.979
21273SOL    HW263846   5.121   2.632   1.054
21274SOL     OW63847   4.933   2.387   0.275
21274SOL    HW163848   4.946   2.303   0.329
21274SOL    HW263849   4.904   2.461   0.335
21275SOL     OW63850   4.031   2.075   1.231
21275SOL    HW163851   4.008   2.112   1.321
21275SOL    HW263852   4.001   1.980   1.225
21276SOL     OW63853   3.761   3.172   1.282
21276SOL    HW163854   3.814   3.123   1.350
21276SOL    HW263855   3.783   3.270   1.287
21277SOL     OW63856   4.456   2.496   1.064
21277SOL    HW163857   4.515   2.470   0.988
21277SOL    HW263858   4.428   2.592   1.053
21278SOL     OW63859   5.452   2.797   1.854
21278SOL    HW163860   5.406   2.790   1.765
21278SOL    HW263861   5.390   2.841   1.920
21279SOL     OW63862   4.031   1.925   0.618
21279SOL    HW163863   4.020   2.019   0.651
21279SOL    HW263864   4.026   1.862   0.695
21280SOL     OW63865   5.346   2.229   0.374
21280SOL    HW163866   5.348   2.153   0.438
21280SOL    HW263867   5.298   2.306   0.414
21281SOL     OW63868   4.747   2.628   0.966
21281SOL    HW163869   4.762   2.649   1.062
21281SOL    HW263870   4.717   2.533   0.957
21282SOL     OW63871   4.704   3.435   1.700
21282SOL    HW163872   4.684   3.479   1.612
21282SOL    HW263873   4.743   3.344   1.684
21283SOL     OW63874   5.583   3.380   1.605
21283SOL    HW163875   5.597   3.407   1.510
21283SOL    HW263876   5.666   3.402   1.658
21284SOL     OW63877   4.074   2.760   1.804
21284SOL    HW163878   4.150   2.804   1.852
21284SOL    HW263879   4.109   2.713   1.722
21285SOL     OW63880   5.264   2.136   0.125
21285SOL    HW163881   5.203   2.061   0.148
21285SOL    HW263882   5.286   2.188   0.208
21286SOL     OW63883   5.027   2.700   0.042
21286SOL    HW163884   5.061   2.607   0.057
21286SOL    HW263885   5.045   2.727  -0.053
21287SOL     OW63886   4.792   3.195   0.849
21287SOL    HW163887   4.799   3.111   0.794
21287SOL    HW263888   4.854   3.264   0.813
21288SOL     OW63889   4.043   2.672   0.949
21288SOL    HW163890   4.136   2.708   0.954
21288SOL    HW263891   4.037   2.587   1.001
21289SOL     OW63892   4.063   2.371   1.006
21289SOL    HW163893   4.011   2.288   0.989
21289SOL    HW263894   4.140   2.376   0.942
21290SOL     OW63895   4.862   2.242   1.678
21290SOL    HW163896   4.817   2.305   1.742
21290SOL    HW263897   4.955   2.273   1.661
21291SOL     OW63898   4.884   2.069   1.477
21291SOL    HW163899   4.884   2.133   1.554
21291SOL    HW263900   4.912   2.117   1.394
21292SOL     OW63901   3.732   3.188   0.200
21292SOL    HW163902   3.639   3.209   0.169
21292SOL    HW263903   3.742   3.089   0.213
21293SOL     OW63904   3.812   3.663   0.927
21293SOL    HW163905   3.770   3.577   0.900
21293SOL    HW263906   3.906   3.666   0.893
21294SOL     OW63907   4.228   3.430   0.910
21294SOL    HW163908   4.294   3.504   0.919
21294SOL    HW263909   4.272   3.351   0.868
21295SOL     OW63910   4.726   2.658   1.238
21295SOL    HW163911   4.767   2.626   1.324
21295SOL    HW263912   4.630   2.631   1.235
21296SOL     OW63913   3.764   2.406   1.114
21296SOL    HW163914   3.849   2.373   1.073
21296SOL    HW263915   3.777   2.421   1.212
21297SOL     OW63916   3.913   2.382   1.722
21297SOL    HW163917   3.972   2.342   1.652
21297SOL    HW263918   3.855   2.453   1.681
21298SOL     OW63919   5.093   2.812   1.660
21298SOL    HW163920   5.132   2.901   1.680
21298SOL    HW263921   5.103   2.792   1.563
21299SOL     OW63922   4.539   2.434   0.325
21299SOL    HW163923   4.546   2.345   0.279
21299SOL    HW263924   4.445   2.468   0.317
21300SOL     OW63925   5.381   2.466   1.206
21300SOL    HW163926   5.343   2.397   1.268
21300SOL    HW263927   5.463   2.430   1.162
21301SOL     OW63928   3.976   3.426   1.744
21301SOL    HW163929   3.946   3.483   1.820
21301SOL    HW263930   3.969   3.329   1.770
21302SOL     OW63931   4.395   2.326   1.269
21302SOL    HW163932   4.361   2.237   1.239
21302SOL    HW263933   4.421   2.380   1.189
21303SOL     OW63934   4.654   3.540   1.465
21303SOL    HW163935   4.630   3.522   1.370
21303SOL    HW263936   4.684   3.634   1.475
21304SOL     OW63937   4.197   2.362   0.191
21304SOL    HW163938   4.258   2.442   0.195
21304SOL    HW263939   4.102   2.393   0.198
21305SOL     OW63940   3.883   2.999   1.466
21305SOL    HW163941   3.905   2.938   1.542
21305SOL    HW263942   3.893   2.950   1.380
21306SOL     OW63943   5.071   2.921   1.234
21306SOL    HW163944   5.095   2.858   1.160
21306SOL    HW263945   4.981   2.961   1.216
21307SOL     OW63946   5.026   2.717   0.309
21307SOL    HW163947   4.940   2.686   0.351
21307SOL    HW263948   5.022   2.703   0.210
21308SOL     OW63949   5.483   3.609   1.154
21308SOL    HW163950   5.544   3.639   1.081
21308SOL    HW263951   5.445   3.520   1.132
21309SOL     OW63952   4.976   3.593   1.128
21309SOL    HW163953   5.060   3.598   1.074
21309SOL    HW263954   4.953   3.497   1.146
21310SOL     OW63955   3.807   3.120   1.022
21310SOL    HW163956   3.802   3.119   1.122
21310SOL    HW263957   3.724   3.079   0.984
21311SOL     OW63958   4.412   3.524   1.716
21311SOL    HW163959   4.356   3.605   1.725
21311SOL    HW263960   4.464   3.528   1.630
21312SOL     OW63961   4.627   1.948   0.133
21312SOL    HW163962   4.678   1.949   0.047
21312SOL    HW263963   4.683   1.906   0.204
21313SOL     OW63964   5.450   1.997   0.523
21313SOL    HW163965   5.523   1.980   0.456
21313SOL    HW263966   5.419   1.910   0.561
21314SOL     OW63967   5.112   3.435   0.477
21314SOL    HW163968   5.179   3.447   0.403
21314SOL    HW263969   5.072   3.524   0.500
21315SOL     OW63970   3.854   3.656   1.851
21315SOL    HW163971   3.813   3.582   1.904
21315SOL    HW263972   3.918   3.707   1.909
21316SOL     OW63973   5.004   2.789   0.672
21316SOL    HW163974   5.064   2.708   0.674
21316SOL    HW263975   5.044   2.858   0.612
21317SOL     OW63976   4.554   3.135   1.422
21317SOL    HW163977   4.549   3.168   1.517
21317SOL    HW263978   4.468   3.154   1.376
21318SOL     OW63979   4.396   3.478   0.154
21318SOL    HW163980   4.405   3.488   0.055
21318SOL    HW263981   4.356   3.389   0.175
21319SOL     OW63982   5.374   3.582   1.394
21319SOL    HW163983   5.427   3.592   1.310
21319SOL    HW263984   5.347   3.672   1.428
21320SOL     OW63985   5.565   2.037   0.963
21320SOL    HW163986   5.604   1.952   0.927
21320SOL    HW263987   5.467   2.039   0.944
21321SOL     OW63988   3.987   2.188   0.720
21321SOL    HW163989   3.908   2.239   0.686
21321SOL    HW263990   3.978   2.173   0.818
21322SOL     OW63991   4.918   3.474   0.031
21322SOL    HW163992   4.924   3.381   0.068
21322SOL    HW263993   4.859   3.474  -0.049
21323SOL     OW63994   4.546   2.864   1.372
21323SOL    HW163995   4.586   2.863   1.280
21323SOL    HW263996   4.556   2.956   1.412
21324SOL     OW63997   4.640   2.772   0.291
21324SOL    HW163998   4.703   2.810   0.223
21324SOL    HW263999   4.680   2.689   0.330
21325SOL     OW64000   5.228   3.469   0.044
21325SOL    HW164001   5.136   3.506   0.051
21325SOL    HW264002   5.266   3.489  -0.046
21326SOL     OW64003   4.096   3.150   1.490
21326SOL    HW164004   4.083   3.243   1.456
21326SOL    HW264005   4.012   3.098   1.477
21327SOL     OW64006   5.338   3.154   1.289
21327SOL    HW164007   5.398   3.157   1.369
21327SOL    HW264008   5.263   3.218   1.302
21328SOL     OW64009   4.763   2.960   0.696
21328SOL    HW164010   4.693   2.913   0.750
21328SOL    HW264011   4.822   2.892   0.653
21329SOL     OW64012   4.738   2.098   0.971
21329SOL    HW164013   4.730   2.062   0.878
21329SOL    HW264014   4.736   2.022   1.036
21330SOL     OW64015   4.314   3.349   0.491
21330SOL    HW164016   4.356   3.291   0.421
21330SOL    HW264017   4.270   3.428   0.447
21331SOL     OW64018   5.433   2.247   1.381
21331SOL    HW164019   5.506   2.316   1.385
21331SOL    HW264020   5.461   2.172   1.322
21332SOL     OW64021   3.979   3.210   0.290
21332SOL    HW164022   3.883   3.211   0.263
21332SOL    HW264023   3.991   3.263   0.374
21333SOL     OW64024   3.829   2.875   1.726
21333SOL    HW164025   3.752   2.842   1.780
21333SOL    HW264026   3.914   2.845   1.768
21334SOL     OW64027   4.396   2.065   1.489
21334SOL    HW164028   4.486   2.049   1.449
21334SOL    HW264029   4.404   2.070   1.588
21335SOL     OW64030   5.164   2.718   1.398
21335SOL    HW164031   5.107   2.770   1.335
21335SOL    HW264032   5.260   2.730   1.374
21336SOL     OW64033   3.796   2.028   0.318
21336SOL    HW164034   3.779   2.111   0.264
21336SOL    HW264035   3.886   1.991   0.296
21337SOL     OW64036   4.907   3.197   0.119
21337SOL    HW164037   4.808   3.186   0.121
21337SOL    HW264038   4.941   3.212   0.212
21338SOL     OW64039   4.337   2.704   1.431
21338SOL    HW164040   4.393   2.785   1.414
21338SOL    HW264041   4.396   2.624   1.434
21339SOL     OW64042   5.217   3.629   0.959
21339SOL    HW164043   5.250   3.693   0.890
21339SOL    HW264044   5.283   3.623   1.034
21340SOL     OW64045   4.440   2.427   1.708
21340SOL    HW164046   4.459   2.492   1.782
21340SOL    HW264047   4.500   2.347   1.717
21341SOL     OW64048   5.174   3.082   1.633
21341SOL    HW164049   5.165   3.072   1.732
21341SOL    HW264050   5.270   3.075   1.607
21342SOL     OW64051   4.114   3.603   1.560
21342SOL    HW164052   4.023   3.644   1.558
21342SOL    HW264053   4.107   3.509   1.592
21343SOL     OW64054   5.398   2.745   1.254
21343SOL    HW164055   5.371   2.656   1.217
21343SOL    HW264056   5.399   2.813   1.181
21344SOL     OW64057   4.949   2.187   0.449
21344SOL    HW164058   5.014   2.113   0.438
21344SOL    HW264059   4.969   2.237   0.533
21345SOL     OW64060   4.318   2.607   0.652
21345SOL    HW164061   4.368   2.692   0.633
21345SOL    HW264062   4.230   2.609   0.604
21346SOL     OW64063   5.501   2.204   1.642
21346SOL    HW164064   5.484   2.235   1.548
21346SOL    HW264065   5.417   2.167   1.680
21347SOL     OW64066   5.454   2.796   1.517
21347SOL    HW164067   5.492   2.887   1.532
21347SOL    HW264068   5.446   2.779   1.418
21348SOL     OW64069   4.583   3.236   0.016
21348SOL    HW164070   4.537   3.251   0.104
21348SOL    HW264071   4.627   3.321  -0.014
21349SOL     OW64072   4.385   3.652   0.953
21349SOL    HW164073   4.339   3.740   0.940
21349SOL    HW264074   4.484   3.664   0.946
21350SOL     OW64075   4.583   2.818   0.861
21350SOL    HW164076   4.637   2.749   0.909
21350SOL    HW264077   4.551   2.887   0.927
21351SOL     OW64078   4.807   2.846   0.087
21351SOL    HW164079   4.784   2.899   0.005
21351SOL    HW264080   4.888   2.790   0.068
21352SOL     OW64081   5.585   3.431   0.851
21352SOL    HW164082   5.514   3.419   0.781
21352SOL    HW264083   5.586   3.352   0.911
21353SOL     OW64084   3.945   3.176   1.844
21353SOL    HW164085   3.880   3.103   1.823
21353SOL    HW264086   3.949   3.190   1.942
21354SOL     OW64087   3.803   3.102   0.653
21354SOL    HW164088   3.802   3.055   0.741
21354SOL    HW264089   3.885   3.074   0.602
21355SOL     OW64090   4.396   3.253   1.624
21355SOL    HW164091   4.318   3.203   1.662
21355SOL    HW264092   4.393   3.348   1.655
21356SOL     OW64093   5.548   2.054   1.227
21356SOL    HW164094   5.544   1.964   1.271
21356SOL    HW264095   5.551   2.043   1.128
21357SOL     OW64096   4.152   2.286   0.520
21357SOL    HW164097   4.182   2.214   0.458
21357SOL    HW264098   4.113   2.246   0.603
21358SOL     OW64099   5.429   3.349   1.104
21358SOL    HW164100   5.336   3.324   1.077
21358SOL    HW264101   5.455   3.299   1.186
21359SOL     OW64102   4.041   2.409   1.280
21359SOL    HW164103   4.079   2.350   1.352
21359SOL    HW264104   4.081   2.383   1.192
21360SOL     OW64105   4.536   3.448   0.687
21360SOL    HW164106   4.568   3.458   0.593
21360SOL    HW264107   4.457   3.386   0.689
21361SOL     OW64108   5.148   2.076   1.112
21361SOL    HW164109   5.200   2.011   1.167
21361SOL    HW264110   5.099   2.139   1.173
21362SOL     OW64111   4.725   1.896   1.154
21362SOL    HW164112   4.662   1.824   1.123
21362SOL    HW264113   4.818   1.860   1.154
21363SOL     OW64114   4.494   3.192   0.301
21363SOL    HW164115   4.448   3.105   0.318
21363SOL    HW264116   4.585   3.189   0.342
21364SOL     OW64117   4.342   3.429   1.284
21364SOL    HW164118   4.337   3.511   1.341
21364SOL    HW264119   4.431   3.426   1.239
21365SOL     OW64120   5.076   1.914   0.168
21365SOL    HW164121   5.111   1.873   0.084
21365SOL    HW264122   4.986   1.876   0.188
21366SOL     OW64123   5.024   2.315   0.691
21366SOL    HW164124   4.965   2.395   0.695
21366SOL    HW264125   5.039   2.280   0.784
21367SOL     OW64126   5.317   2.083   0.882
21367SOL    HW164127   5.233   2.082   0.936
21367SOL    HW264128   5.319   2.166   0.826
21368SOL     OW64129   3.763   2.939   0.300
21368SOL    HW164130   3.862   2.928   0.291
21368SOL    HW264131   3.723   2.853   0.332
21369SOL     OW64132   4.599   3.508   0.337
21369SOL    HW164133   4.522   3.473   0.283
21369SOL    HW264134   4.567   3.579   0.399
21370SOL     OW64135   3.954   2.490   1.975
21370SOL    HW164136   3.861   2.488   2.012
21370SOL    HW264137   3.955   2.451   1.883
21371SOL     OW64138   3.949   2.137   2.858
21371SOL    HW164139   3.984   2.120   2.950
21371SOL    HW264140   3.861   2.092   2.846
21372SOL     OW64141   3.743   2.230   2.509
21372SOL    HW164142   3.661   2.273   2.548
21372SOL    HW264143   3.715   2.157   2.446
21373SOL     OW64144   4.293   3.137   3.027
21373SOL    HW164145   4.200   3.130   2.990
21373SOL    HW264146   4.304   3.226   3.071
21374SOL     OW64147   5.279   3.373   2.565
21374SOL    HW164148   5.222   3.357   2.646
21374SOL    HW264149   5.220   3.383   2.485
21375SOL     OW64150   4.859   2.565   2.579
21375SOL    HW164151   4.916   2.643   2.554
21375SOL    HW264152   4.799   2.591   2.655
21376SOL     OW64153   5.479   2.469   2.093
21376SOL    HW164154   5.467   2.456   1.994
21376SOL    HW264155   5.449   2.388   2.142
21377SOL     OW64156   4.492   3.006   2.885
21377SOL    HW164157   4.414   3.023   2.945
21377SOL    HW264158   4.526   3.093   2.849
21378SOL     OW64159   4.574   2.660   3.685
21378SOL    HW164160   4.570   2.736   3.750
21378SOL    HW264161   4.596   2.696   3.594
21379SOL     OW64162   4.409   2.874   2.527
21379SOL    HW164163   4.478   2.858   2.597
21379SOL    HW264164   4.336   2.931   2.565
21380SOL     OW64165   4.410   3.023   3.665
21380SOL    HW164166   4.470   3.102   3.679
21380SOL    HW264167   4.324   3.054   3.624
21381SOL     OW64168   4.059   3.297   2.923
21381SOL    HW164169   3.981   3.266   2.870
21381SOL    HW264170   4.117   3.355   2.866
21382SOL     OW64171   5.184   3.367   3.201
21382SOL    HW164172   5.208   3.461   3.227
21382SOL    HW264173   5.168   3.313   3.283
21383SOL     OW64174   4.162   2.254   3.361
21383SOL    HW164175   4.244   2.198   3.370
21383SOL    HW264176   4.081   2.196   3.365
21384SOL     OW64177   5.327   2.309   2.599
21384SOL    HW164178   5.253   2.355   2.549
21384SOL    HW264179   5.378   2.377   2.652
21385SOL     OW64180   3.955   3.575   2.345
21385SOL    HW164181   3.989   3.652   2.399
21385SOL    HW264182   3.999   3.575   2.255
21386SOL     OW64183   4.851   3.203   3.552
21386SOL    HW164184   4.898   3.203   3.640
21386SOL    HW264185   4.803   3.116   3.541
21387SOL     OW64186   3.954   3.296   2.400
21387SOL    HW164187   3.928   3.392   2.400
21387SOL    HW264188   3.883   3.242   2.445
21388SOL     OW64189   3.964   2.953   2.748
21388SOL    HW164190   3.978   2.869   2.800
21388SOL    HW264191   3.909   3.017   2.803
21389SOL     OW64192   4.344   3.648   3.301
21389SOL    HW164193   4.252   3.631   3.336
21389SOL    HW264194   4.372   3.740   3.327
21390SOL     OW64195   4.330   2.826   1.985
21390SOL    HW164196   4.337   2.910   1.931
21390SOL    HW264197   4.376   2.839   2.073
21391SOL     OW64198   5.318   1.976   3.342
21391SOL    HW164199   5.300   2.043   3.270
21391SOL    HW264200   5.315   2.022   3.431
21392SOL     OW64201   3.846   2.505   2.425
21392SOL    HW164202   3.801   2.417   2.442
21392SOL    HW264203   3.845   2.559   2.509
21393SOL     OW64204   5.566   3.629   2.221
21393SOL    HW164205   5.620   3.600   2.301
21393SOL    HW264206   5.596   3.719   2.192
21394SOL     OW64207   3.751   3.458   1.979
21394SOL    HW164208   3.732   3.362   2.000
21394SOL    HW264209   3.718   3.516   2.054
21395SOL     OW64210   5.413   2.784   2.474
21395SOL    HW164211   5.508   2.755   2.482
21395SOL    HW264212   5.405   2.849   2.399
21396SOL     OW64213   5.365   2.970   2.294
21396SOL    HW164214   5.451   2.972   2.242
21396SOL    HW264215   5.379   3.017   2.382
21397SOL     OW64216   3.837   2.599   3.459
21397SOL    HW164217   3.925   2.586   3.504
21397SOL    HW264218   3.824   2.696   3.437
21398SOL     OW64219   4.337   3.227   2.588
21398SOL    HW164220   4.288   3.140   2.597
21398SOL    HW264221   4.314   3.270   2.501
21399SOL     OW64222   5.017   3.090   3.285
21399SOL    HW164223   5.054   3.017   3.227
21399SOL    HW264224   5.069   3.095   3.370
21400SOL     OW64225   4.533   1.866   2.364
21400SOL    HW164226   4.573   1.957   2.355
21400SOL    HW264227   4.433   1.874   2.370
21401SOL     OW64228   3.921   2.838   3.126
21401SOL    HW164229   4.010   2.793   3.112
21401SOL    HW264230   3.848   2.773   3.107
21402SOL     OW64231   5.249   2.861   2.052
21402SOL    HW164232   5.186   2.785   2.065
21402SOL    HW264233   5.297   2.879   2.138
21403SOL     OW64234   4.911   3.654   3.478
21403SOL    HW164235   4.935   3.714   3.402
21403SOL    HW264236   4.918   3.559   3.448
21404SOL     OW64237   4.041   2.113   3.663
21404SOL    HW164238   4.112   2.184   3.669
21404SOL    HW264239   3.953   2.152   3.691
21405SOL     OW64240   5.190   3.279   2.815
21405SOL    HW164241   5.131   3.285   2.895
21405SOL    HW264242   5.175   3.191   2.769
21406SOL     OW64243   4.322   2.591   2.132
21406SOL    HW164244   4.346   2.660   2.064
21406SOL    HW264245   4.244   2.624   2.186
21407SOL     OW64246   5.005   2.207   2.806
21407SOL    HW164247   4.919   2.157   2.793
21407SOL    HW264248   5.067   2.153   2.862
21408SOL     OW64249   5.300   3.524   2.169
21408SOL    HW164250   5.389   3.570   2.172
21408SOL    HW264251   5.279   3.500   2.074
21409SOL     OW64252   4.531   2.467   3.327
21409SOL    HW164253   4.484   2.464   3.416
21409SOL    HW264254   4.480   2.412   3.261
21410SOL     OW64255   5.118   2.331   3.536
21410SOL    HW164256   5.098   2.374   3.624
21410SOL    HW264257   5.196   2.269   3.545
21411SOL     OW64258   4.697   2.752   3.434
21411SOL    HW164259   4.743   2.668   3.405
21411SOL    HW264260   4.641   2.786   3.359
21412SOL     OW64261   4.715   2.272   3.104
21412SOL    HW164262   4.638   2.306   3.158
21412SOL    HW264263   4.681   2.221   3.025
21413SOL     OW64264   4.765   2.563   2.291
21413SOL    HW164265   4.791   2.559   2.387
21413SOL    HW264266   4.680   2.512   2.277
21414SOL     OW64267   3.800   2.673   2.651
21414SOL    HW164268   3.899   2.661   2.660
21414SOL    HW264269   3.776   2.768   2.672
21415SOL     OW64270   3.854   3.683   3.433
21415SOL    HW164271   3.844   3.668   3.532
21415SOL    HW264272   3.768   3.719   3.397
21416SOL     OW64273   4.589   2.210   2.057
21416SOL    HW164274   4.648   2.273   2.008
21416SOL    HW264275   4.608   2.116   2.028
21417SOL     OW64276   5.443   2.447   3.693
21417SOL    HW164277   5.417   2.536   3.657
21417SOL    HW264278   5.441   2.379   3.620
21418SOL     OW64279   5.086   3.006   2.407
21418SOL    HW164280   5.169   2.977   2.359
21418SOL    HW264281   5.037   3.073   2.351
21419SOL     OW64282   4.274   2.058   2.747
21419SOL    HW164283   4.269   2.053   2.847
21419SOL    HW264284   4.276   2.154   2.718
21420SOL     OW64285   4.732   3.318   2.339
21420SOL    HW164286   4.686   3.390   2.287
21420SOL    HW264287   4.728   3.338   2.437
21421SOL     OW64288   4.075   3.663   2.715
21421SOL    HW164289   4.125   3.577   2.721
21421SOL    HW264290   4.140   3.740   2.712
21422SOL     OW64291   5.519   2.928   2.735
21422SOL    HW164292   5.457   2.913   2.659
21422SOL    HW264293   5.467   2.939   2.820
21423SOL     OW64294   4.951   3.412   3.368
21423SOL    HW164295   4.957   3.335   3.432
21423SOL    HW264296   4.899   3.386   3.288
21424SOL     OW64297   4.045   2.805   2.104
21424SOL    HW164298   4.127   2.844   2.062
21424SOL    HW264299   4.018   2.723   2.055
21425SOL     OW64300   5.182   2.597   2.590
21425SOL    HW164301   5.177   2.532   2.665
21425SOL    HW264302   5.262   2.656   2.603
21426SOL     OW64303   4.185   3.128   3.589
21426SOL    HW164304   4.135   3.129   3.503
21426SOL    HW264305   4.122   3.110   3.665
21427SOL     OW64306   4.835   3.638   2.099
21427SOL    HW164307   4.775   3.576   2.149
21427SOL    HW264308   4.866   3.594   2.014
21428SOL     OW64309   3.926   2.147   3.360
21428SOL    HW164310   3.846   2.207   3.347
21428SOL    HW264311   3.916   2.098   3.446
21429SOL     OW64312   5.356   3.239   1.943
21429SOL    HW164313   5.324   3.333   1.933
21429SOL    HW264314   5.280   3.176   1.931
21430SOL     OW64315   4.188   3.605   2.185
21430SOL    HW164316   4.221   3.644   2.271
21430SOL    HW264317   4.264   3.598   2.120
21431SOL     OW64318   5.124   1.969   2.288
21431SOL    HW164319   5.100   1.932   2.198
21431SOL    HW264320   5.223   1.985   2.292
21432SOL     OW64321   3.973   3.647   3.103
21432SOL    HW164322   4.030   3.582   3.153
21432SOL    HW264323   3.957   3.614   3.010
21433SOL     OW64324   4.664   3.560   2.766
21433SOL    HW164325   4.744   3.503   2.787
21433SOL    HW264326   4.615   3.520   2.689
21434SOL     OW64327   4.106   2.562   2.342
21434SOL    HW164328   4.151   2.472   2.339
21434SOL    HW264329   4.012   2.551   2.375
21435SOL     OW64330   5.271   2.084   3.591
21435SOL    HW164331   5.266   2.121   3.683
21435SOL    HW264332   5.199   2.015   3.579
21436SOL     OW64333   4.338   1.984   1.979
21436SOL    HW164334   4.436   1.962   1.986
21436SOL    HW264335   4.307   1.967   1.886
21437SOL     OW64336   4.505   2.126   3.611
21437SOL    HW164337   4.572   2.065   3.654
21437SOL    HW264338   4.432   2.145   3.676
21438SOL     OW64339   4.612   3.376   3.057
21438SOL    HW164340   4.589   3.351   2.963
21438SOL    HW264341   4.673   3.307   3.096
21439SOL     OW64342   5.075   2.452   3.295
21439SOL    HW164343   5.103   2.409   3.380
21439SOL    HW264344   5.100   2.548   3.296
21440SOL     OW64345   4.527   3.264   2.786
21440SOL    HW164346   4.617   3.278   2.744
21440SOL    HW264347   4.456   3.266   2.715
21441SOL     OW64348   4.646   2.365   2.761
21441SOL    HW164349   4.621   2.356   2.665
21441SOL    HW264350   4.694   2.283   2.792
21442SOL     OW64351   4.263   1.926   2.374
21442SOL    HW164352   4.182   1.927   2.432
21442SOL    HW264353   4.266   2.009   2.319
21443SOL     OW64354   5.158   3.050   1.903
21443SOL    HW164355   5.190   2.974   1.960
21443SOL    HW264356   5.066   3.077   1.933
21444SOL     OW64357   4.021   1.897   2.033
21444SOL    HW164358   4.070   1.981   2.012
21444SOL    HW264359   4.083   1.832   2.078
21445SOL     OW64360   4.659   2.098   2.342
21445SOL    HW164361   4.611   2.139   2.264
21445SOL    HW264362   4.758   2.096   2.323
21446SOL     OW64363   4.800   2.545   3.326
21446SOL    HW164364   4.720   2.484   3.329
21446SOL    HW264365   4.881   2.492   3.302
21447SOL     OW64366   4.951   3.432   2.655
21447SOL    HW164367   4.972   3.506   2.590
21447SOL    HW264368   5.019   3.432   2.728
21448SOL     OW64369   4.183   3.014   2.603
21448SOL    HW164370   4.112   2.987   2.668
21448SOL    HW264371   4.157   2.986   2.510
21449SOL     OW64372   4.995   3.659   2.453
21449SOL    HW164373   5.039   3.723   2.389
21449SOL    HW264374   4.945   3.711   2.523
21450SOL     OW64375   4.756   2.411   1.878
21450SOL    HW164376   4.715   2.493   1.839
21450SOL    HW264377   4.820   2.437   1.951
21451SOL     OW64378   3.802   2.418   3.248
21451SOL    HW164379   3.894   2.417   3.207
21451SOL    HW264380   3.796   2.492   3.315
21452SOL     OW64381   4.285   2.084   3.009
21452SOL    HW164382   4.323   2.000   3.046
21452SOL    HW264383   4.197   2.103   3.053
21453SOL     OW64384   4.590   2.316   2.504
21453SOL    HW164385   4.558   2.388   2.442
21453SOL    HW264386   4.614   2.235   2.451
21454SOL     OW64387   4.741   1.901   2.615
21454SOL    HW164388   4.669   1.906   2.546
21454SOL    HW264389   4.717   1.832   2.684
21455SOL     OW64390   5.153   3.035   2.729
21455SOL    HW164391   5.098   2.951   2.722
21455SOL    HW264392   5.179   3.064   2.637
21456SOL     OW64393   5.190   2.452   2.854
21456SOL    HW164394   5.160   2.357   2.861
21456SOL    HW264395   5.263   2.468   2.920
21457SOL     OW64396   5.581   2.695   2.239
21457SOL    HW164397   5.623   2.631   2.303
21457SOL    HW264398   5.543   2.644   2.161
21458SOL     OW64399   4.212   3.247   2.036
21458SOL    HW164400   4.125   3.232   2.083
21458SOL    HW264401   4.195   3.273   1.941
21459SOL     OW64402   5.388   3.142   2.519
21459SOL    HW164403   5.487   3.150   2.533
21459SOL    HW264404   5.343   3.226   2.550
21460SOL     OW64405   5.114   2.437   1.940
21460SOL    HW164406   5.060   2.416   2.021
21460SOL    HW264407   5.205   2.396   1.949
21461SOL     OW64408   4.251   2.118   2.190
21461SOL    HW164409   4.278   2.059   2.115
21461SOL    HW264410   4.251   2.213   2.159
21462SOL     OW64411   5.478   3.085   3.450
21462SOL    HW164412   5.569   3.046   3.437
21462SOL    HW264413   5.486   3.181   3.474
21463SOL     OW64414   4.788   3.209   3.202
21463SOL    HW164415   4.708   3.186   3.257
21463SOL    HW264416   4.871   3.183   3.251
21464SOL     OW64417   5.316   3.491   3.487
21464SOL    HW164418   5.343   3.525   3.397
21464SOL    HW264419   5.395   3.453   3.533
21465SOL     OW64420   4.835   3.057   2.962
21465SOL    HW164421   4.795   3.101   3.043
21465SOL    HW264422   4.794   3.094   2.879
21466SOL     OW64423   5.362   2.961   2.941
21466SOL    HW164424   5.367   3.042   3.000
21466SOL    HW264425   5.276   2.963   2.890
21467SOL     OW64426   4.639   1.951   3.264
21467SOL    HW164427   4.664   1.931   3.169
21467SOL    HW264428   4.711   2.007   3.306
21468SOL     OW64429   4.704   2.978   3.581
21468SOL    HW164430   4.605   2.984   3.591
21468SOL    HW264431   4.727   2.898   3.525
21469SOL     OW64432   4.429   2.912   2.230
21469SOL    HW164433   4.415   2.919   2.329
21469SOL    HW264434   4.513   2.861   2.212
21470SOL     OW64435   4.134   2.675   3.113
21470SOL    HW164436   4.220   2.687   3.163
21470SOL    HW264437   4.092   2.588   3.140
21471SOL     OW64438   4.998   2.248   3.124
21471SOL    HW164439   5.019   2.322   3.188
21471SOL    HW264440   4.909   2.265   3.081
21472SOL     OW64441   3.788   3.426   3.193
21472SOL    HW164442   3.742   3.508   3.159
21472SOL    HW264443   3.886   3.445   3.202
21473SOL     OW64444   4.091   2.962   2.363
21473SOL    HW164445   4.084   3.045   2.307
21473SOL    HW264446   4.095   2.882   2.303
21474SOL     OW64447   4.290   2.399   2.727
21474SOL    HW164448   4.302   2.465   2.653
21474SOL    HW264449   4.336   2.433   2.810
21475SOL     OW64450   4.976   3.210   2.250
21475SOL    HW164451   5.026   3.287   2.290
21475SOL    HW264452   4.881   3.212   2.282
21476SOL     OW64453   4.996   3.307   3.004
21476SOL    HW164454   5.043   3.320   3.091
21476SOL    HW264455   4.930   3.233   3.013
21477SOL     OW64456   5.306   2.501   2.334
21477SOL    HW164457   5.275   2.562   2.407
21477SOL    HW264458   5.356   2.553   2.265
21478SOL     OW64459   4.078   3.372   3.191
21478SOL    HW164460   4.057   3.328   3.104
21478SOL    HW264461   4.175   3.398   3.194
21479SOL     OW64462   4.126   2.613   3.460
21479SOL    HW164463   4.194   2.668   3.413
21479SOL    HW264464   4.166   2.525   3.487
21480SOL     OW64465   5.311   2.641   3.532
21480SOL    HW164466   5.219   2.679   3.527
21480SOL    HW264467   5.371   2.688   3.467
21481SOL     OW64468   4.737   1.967   3.632
21481SOL    HW164469   4.743   2.052   3.580
21481SOL    HW264470   4.769   1.891   3.575
21482SOL     OW64471   4.228   1.912   3.602
21482SOL    HW164472   4.186   1.855   3.532
21482SOL    HW264473   4.162   1.981   3.634
21483SOL     OW64474   4.297   2.732   2.891
21483SOL    HW164475   4.341   2.821   2.882
21483SOL    HW264476   4.234   2.732   2.968
21484SOL     OW64477   5.084   2.724   2.907
21484SOL    HW164478   5.009   2.724   2.841
21484SOL    HW264479   5.121   2.632   2.916
21485SOL     OW64480   4.933   2.387   2.137
21485SOL    HW164481   4.946   2.303   2.191
21485SOL    HW264482   4.904   2.461   2.197
21486SOL     OW64483   4.031   2.075   3.093
21486SOL    HW164484   4.008   2.112   3.183
21486SOL    HW264485   4.001   1.980   3.087
21487SOL     OW64486   3.761   3.172   3.144
21487SOL    HW164487   3.814   3.123   3.212
21487SOL    HW264488   3.783   3.270   3.149
21488SOL     OW64489   4.456   2.496   2.926
21488SOL    HW164490   4.515   2.470   2.850
21488SOL    HW264491   4.428   2.592   2.915
21489SOL     OW64492   5.452   2.797   3.716
21489SOL    HW164493   5.406   2.790   3.627
21489SOL    HW264494   5.390   2.841   3.782
21490SOL     OW64495   4.031   1.925   2.480
21490SOL    HW164496   4.020   2.019   2.513
21490SOL    HW264497   4.026   1.862   2.557
21491SOL     OW64498   5.346   2.229   2.236
21491SOL    HW164499   5.348   2.153   2.300
21491SOL    HW264500   5.298   2.306   2.276
21492SOL     OW64501   4.747   2.628   2.828
21492SOL    HW164502   4.762   2.649   2.924
21492SOL    HW264503   4.717   2.533   2.819
21493SOL     OW64504   4.704   3.435   3.562
21493SOL    HW164505   4.684   3.479   3.474
21493SOL    HW264506   4.743   3.344   3.546
21494SOL     OW64507   5.583   3.380   3.467
21494SOL    HW164508   5.597   3.407   3.372
21494SOL    HW264509   5.666   3.402   3.520
21495SOL     OW64510   4.074   2.760   3.666
21495SOL    HW164511   4.150   2.804   3.714
21495SOL    HW264512   4.109   2.713   3.584
21496SOL     OW64513   5.264   2.136   1.987
21496SOL    HW164514   5.203   2.061   2.010
21496SOL    HW264515   5.286   2.188   2.070
21497SOL     OW64516   5.027   2.700   1.904
21497SOL    HW164517   5.061   2.607   1.919
21497SOL    HW264518   5.045   2.727   1.809
21498SOL     OW64519   4.792   3.195   2.711
21498SOL    HW164520   4.799   3.111   2.656
21498SOL    HW264521   4.854   3.264   2.675
21499SOL     OW64522   4.043   2.672   2.811
21499SOL    HW164523   4.136   2.708   2.816
21499SOL    HW264524   4.037   2.587   2.863
21500SOL     OW64525   4.063   2.371   2.868
21500SOL    HW164526   4.011   2.288   2.851
21500SOL    HW264527   4.140   2.376   2.804
21501SOL     OW64528   4.862   2.242   3.540
21501SOL    HW164529   4.817   2.305   3.604
21501SOL    HW264530   4.955   2.273   3.523
21502SOL     OW64531   4.884   2.069   3.339
21502SOL    HW164532   4.884   2.133   3.416
21502SOL    HW264533   4.912   2.117   3.256
21503SOL     OW64534   3.732   3.188   2.062
21503SOL    HW164535   3.639   3.209   2.031
21503SOL    HW264536   3.742   3.089   2.075
21504SOL     OW64537   3.812   3.663   2.789
21504SOL    HW164538   3.770   3.577   2.762
21504SOL    HW264539   3.906   3.666   2.755
21505SOL     OW64540   4.228   3.430   2.772
21505SOL    HW164541   4.294   3.504   2.781
21505SOL    HW264542   4.272   3.351   2.730
21506SOL     OW64543   4.726   2.658   3.100
21506SOL    HW164544   4.767   2.626   3.186
21506SOL    HW264545   4.630   2.631   3.097
21507SOL     OW64546   3.764   2.406   2.976
21507SOL    HW164547   3.849   2.373   2.935
21507SOL    HW264548   3.777   2.421   3.074
21508SOL     OW64549   3.913   2.382   3.584
21508SOL    HW164550   3.972   2.342   3.514
21508SOL    HW264551   3.855   2.453   3.543
21509SOL     OW64552   5.093   2.812   3.522
21509SOL    HW164553   5.132   2.901   3.542
21509SOL    HW264554   5.103   2.792   3.425
21510SOL     OW64555   4.539   2.434   2.187
21510SOL    HW164556   4.546   2.345   2.141
21510SOL    HW264557   4.445   2.468   2.179
21511SOL     OW64558   5.381   2.466   3.068
21511SOL    HW164559   5.343   2.397   3.130
21511SOL    HW264560   5.463   2.430   3.024
21512SOL     OW64561   3.976   3.426   3.606
21512SOL    HW164562   3.946   3.483   3.682
21512SOL    HW264563   3.969   3.329   3.632
21513SOL     OW64564   4.395   2.326   3.131
21513SOL    HW164565   4.361   2.237   3.101
21513SOL    HW264566   4.421   2.380   3.051
21514SOL     OW64567   4.654   3.540   3.327
21514SOL    HW164568   4.630   3.522   3.232
21514SOL    HW264569   4.684   3.634   3.337
21515SOL     OW64570   4.197   2.362   2.053
21515SOL    HW164571   4.258   2.442   2.057
21515SOL    HW264572   4.102   2.393   2.060
21516SOL     OW64573   3.883   2.999   3.328
21516SOL    HW164574   3.905   2.938   3.404
21516SOL    HW264575   3.893   2.950   3.242
21517SOL     OW64576   5.071   2.921   3.096
21517SOL    HW164577   5.095   2.858   3.022
21517SOL    HW264578   4.981   2.961   3.078
21518SOL     OW64579   5.026   2.717   2.171
21518SOL    HW164580   4.940   2.686   2.213
21518SOL    HW264581   5.022   2.703   2.072
21519SOL     OW64582   5.483   3.609   3.016
21519SOL    HW164583   5.544   3.639   2.943
21519SOL    HW264584   5.445   3.520   2.994
21520SOL     OW64585   4.976   3.593   2.990
21520SOL    HW164586   5.060   3.598   2.936
21520SOL    HW264587   4.953   3.497   3.008
21521SOL     OW64588   3.807   3.120   2.884
21521SOL    HW164589   3.802   3.119   2.984
21521SOL    HW264590   3.724   3.079   2.846
21522SOL     OW64591   4.412   3.524   3.578
21522SOL    HW164592   4.356   3.605   3.587
21522SOL    HW264593   4.464   3.528   3.492
21523SOL     OW64594   5.450   1.997   2.385
21523SOL    HW164595   5.523   1.980   2.318
21523SOL    HW264596   5.419   1.910   2.423
21524SOL     OW64597   5.112   3.435   2.339
21524SOL    HW164598   5.179   3.447   2.265
21524SOL    HW264599   5.072   3.524   2.362
21525SOL     OW64600   3.854   3.656   3.713
21525SOL    HW164601   3.813   3.582   3.766
21525SOL    HW264602   3.918   3.707   3.771
21526SOL     OW64603   5.004   2.789   2.534
21526SOL    HW164604   5.064   2.708   2.536
21526SOL    HW264605   5.044   2.858   2.474
21527SOL     OW64606   4.554   3.135   3.284
21527SOL    HW164607   4.549   3.168   3.379
21527SOL    HW264608   4.468   3.154   3.238
21528SOL     OW64609   4.396   3.478   2.016
21528SOL    HW164610   4.405   3.488   1.917
21528SOL    HW264611   4.356   3.389   2.037
21529SOL     OW64612   5.374   3.582   3.256
21529SOL    HW164613   5.427   3.592   3.172
21529SOL    HW264614   5.347   3.672   3.290
21530SOL     OW64615   5.565   2.037   2.825
21530SOL    HW164616   5.604   1.952   2.789
21530SOL    HW264617   5.467   2.039   2.806
21531SOL     OW64618   3.987   2.188   2.582
21531SOL    HW164619   3.908   2.239   2.548
21531SOL    HW264620   3.978   2.173   2.680
21532SOL     OW64621   4.918   3.474   1.893
21532SOL    HW164622   4.924   3.381   1.930
21532SOL    HW264623   4.859   3.474   1.813
21533SOL     OW64624   4.546   2.864   3.234
21533SOL    HW164625   4.586   2.863   3.142
21533SOL    HW264626   4.556   2.956   3.274
21534SOL     OW64627   4.640   2.772   2.153
21534SOL    HW164628   4.703   2.810   2.085
21534SOL    HW264629   4.680   2.689   2.192
21535SOL     OW64630   5.228   3.469   1.906
21535SOL    HW164631   5.136   3.506   1.913
21535SOL    HW264632   5.266   3.489   1.816
21536SOL     OW64633   4.096   3.150   3.352
21536SOL    HW164634   4.083   3.243   3.318
21536SOL    HW264635   4.012   3.098   3.339
21537SOL     OW64636   5.338   3.154   3.151
21537SOL    HW164637   5.398   3.157   3.231
21537SOL    HW264638   5.263   3.218   3.164
21538SOL     OW64639   4.763   2.960   2.558
21538SOL    HW164640   4.693   2.913   2.612
21538SOL    HW264641   4.822   2.892   2.515
21539SOL     OW64642   4.738   2.098   2.833
21539SOL    HW164643   4.730   2.062   2.740
21539SOL    HW264644   4.736   2.022   2.898
21540SOL     OW64645   4.314   3.349   2.353
21540SOL    HW164646   4.356   3.291   2.283
21540SOL    HW264647   4.270   3.428   2.309
21541SOL     OW64648   5.433   2.247   3.243
21541SOL    HW164649   5.506   2.316   3.247
21541SOL    HW264650   5.461   2.172   3.184
21542SOL     OW64651   3.979   3.210   2.152
21542SOL    HW164652   3.883   3.211   2.125
21542SOL    HW264653   3.991   3.263   2.236
21543SOL     OW64654   3.829   2.875   3.588
21543SOL    HW164655   3.752   2.842   3.642
21543SOL    HW264656   3.914   2.845   3.630
21544SOL     OW64657   4.396   2.065   3.351
21544SOL    HW164658   4.486   2.049   3.311
21544SOL    HW264659   4.404   2.070   3.450
21545SOL     OW64660   3.799   2.207   1.895
21545SOL    HW164661   3.707   2.179   1.866
21545SOL    HW264662   3.830   2.284   1.839
21546SOL     OW64663   5.164   2.718   3.260
21546SOL    HW164664   5.107   2.770   3.197
21546SOL    HW264665   5.260   2.730   3.236
21547SOL     OW64666   3.796   2.028   2.180
21547SOL    HW164667   3.779   2.111   2.126
21547SOL    HW264668   3.886   1.991   2.158
21548SOL     OW64669   4.907   3.197   1.981
21548SOL    HW164670   4.808   3.186   1.983
21548SOL    HW264671   4.941   3.212   2.074
21549SOL     OW64672   4.337   2.704   3.293
21549SOL    HW164673   4.393   2.785   3.276
21549SOL    HW264674   4.396   2.624   3.296
21550SOL     OW64675   5.217   3.629   2.821
21550SOL    HW164676   5.250   3.693   2.752
21550SOL    HW264677   5.283   3.623   2.896
21551SOL     OW64678   4.440   2.427   3.570
21551SOL    HW164679   4.459   2.492   3.644
21551SOL    HW264680   4.500   2.347   3.579
21552SOL     OW64681   5.174   3.082   3.495
21552SOL    HW164682   5.165   3.072   3.594
21552SOL    HW264683   5.270   3.075   3.469
21553SOL     OW64684   4.114   3.603   3.422
21553SOL    HW164685   4.023   3.644   3.420
21553SOL    HW264686   4.107   3.509   3.454
21554SOL     OW64687   5.398   2.745   3.116
21554SOL    HW164688   5.371   2.656   3.079
21554SOL    HW264689   5.399   2.813   3.043
21555SOL     OW64690   4.949   2.187   2.311
21555SOL    HW164691   5.014   2.113   2.300
21555SOL    HW264692   4.969   2.237   2.395
21556SOL     OW64693   4.318   2.607   2.514
21556SOL    HW164694   4.368   2.692   2.495
21556SOL    HW264695   4.230   2.609   2.466
21557SOL     OW64696   5.501   2.204   3.504
21557SOL    HW164697   5.484   2.235   3.410
21557SOL    HW264698   5.417   2.167   3.542
21558SOL     OW64699   5.454   2.796   3.379
21558SOL    HW164700   5.492   2.887   3.394
21558SOL    HW264701   5.446   2.779   3.280
21559SOL     OW64702   4.583   3.236   1.878
21559SOL    HW164703   4.537   3.251   1.966
21559SOL    HW264704   4.627   3.321   1.848
21560SOL     OW64705   4.385   3.652   2.815
21560SOL    HW164706   4.339   3.740   2.802
21560SOL    HW264707   4.484   3.664   2.808
21561SOL     OW64708   4.583   2.818   2.723
21561SOL    HW164709   4.637   2.749   2.771
21561SOL    HW264710   4.551   2.887   2.789
21562SOL     OW64711   4.807   2.846   1.949
21562SOL    HW164712   4.784   2.899   1.867
21562SOL    HW264713   4.888   2.790   1.930
21563SOL     OW64714   5.585   3.431   2.713
21563SOL    HW164715   5.514   3.419   2.643
21563SOL    HW264716   5.586   3.352   2.773
21564SOL     OW64717   3.945   3.176   3.706
21564SOL    HW164718   3.880   3.103   3.685
21564SOL    HW264719   3.949   3.190   3.804
21565SOL     OW64720   3.803   3.102   2.515
21565SOL    HW164721   3.802   3.055   2.603
21565SOL    HW264722   3.885   3.074   2.464
21566SOL     OW64723   4.396   3.253   3.486
21566SOL    HW164724   4.318   3.203   3.524
21566SOL    HW264725   4.393   3.348   3.517
21567SOL     OW64726   5.548   2.054   3.089
21567SOL    HW164727   5.544   1.964   3.133
21567SOL    HW264728   5.551   2.043   2.990
21568SOL     OW64729   4.152   2.286   2.382
21568SOL    HW164730   4.182   2.214   2.320
21568SOL    HW264731   4.113   2.246   2.465
21569SOL     OW64732   5.429   3.349   2.966
21569SOL    HW164733   5.336   3.324   2.939
21569SOL    HW264734   5.455   3.299   3.048
21570SOL     OW64735   4.041   2.409   3.142
21570SOL    HW164736   4.079   2.350   3.214
21570SOL    HW264737   4.081   2.383   3.054
21571SOL     OW64738   4.536   3.448   2.549
21571SOL    HW164739   4.568   3.458   2.455
21571SOL    HW264740   4.457   3.386   2.551
21572SOL     OW64741   5.148   2.076   2.974
21572SOL    HW164742   5.200   2.011   3.029
21572SOL    HW264743   5.099   2.139   3.035
21573SOL     OW64744   4.725   1.896   3.016
21573SOL    HW164745   4.662   1.824   2.985
21573SOL    HW264746   4.818   1.860   3.016
21574SOL     OW64747   4.494   3.192   2.163
21574SOL    HW164748   4.448   3.105   2.180
21574SOL    HW264749   4.585   3.189   2.204
21575SOL     OW64750   4.342   3.429   3.146
21575SOL    HW164751   4.337   3.511   3.203
21575SOL    HW264752   4.431   3.426   3.101
21576SOL     OW64753   5.076   1.914   2.030
21576SOL    HW164754   5.111   1.873   1.946
21576SOL    HW264755   4.986   1.876   2.050
21577SOL     OW64756   5.024   2.315   2.553
21577SOL    HW164757   4.965   2.395   2.557
21577SOL    HW264758   5.039   2.280   2.646
21578SOL     OW64759   5.317   2.083   2.744
21578SOL    HW164760   5.233   2.082   2.798
21578SOL    HW264761   5.319   2.166   2.688
21579SOL     OW64762   3.763   2.939   2.162
21579SOL    HW164763   3.862   2.928   2.153
21579SOL    HW264764   3.723   2.853   2.194
21580SOL     OW64765   4.599   3.508   2.199
21580SOL    HW164766   4.522   3.473   2.145
21580SOL    HW264767   4.567   3.579   2.261
21581SOL     OW64768   3.954   2.490   3.837
21581SOL    HW164769   3.861   2.488   3.874
21581SOL    HW264770   3.955   2.451   3.745
21582SOL     OW64771   3.949   2.137   4.720
21582SOL    HW164772   3.984   2.120   4.812
21582SOL    HW264773   3.861   2.092   4.708
21583SOL     OW64774   3.743   2.230   4.371
21583SOL    HW164775   3.661   2.273   4.410
21583SOL    HW264776   3.715   2.157   4.308
21584SOL     OW64777   4.293   3.137   4.889
21584SOL    HW164778   4.200   3.130   4.852
21584SOL    HW264779   4.304   3.226   4.933
21585SOL     OW64780   5.279   3.373   4.427
21585SOL    HW164781   5.222   3.357   4.508
21585SOL    HW264782   5.220   3.383   4.347
21586SOL     OW64783   4.859   2.565   4.441
21586SOL    HW164784   4.916   2.643   4.416
21586SOL    HW264785   4.799   2.591   4.517
21587SOL     OW64786   5.479   2.469   3.955
21587SOL    HW164787   5.467   2.456   3.856
21587SOL    HW264788   5.449   2.388   4.004
21588SOL     OW64789   4.492   3.006   4.747
21588SOL    HW164790   4.414   3.023   4.807
21588SOL    HW264791   4.526   3.093   4.711
21589SOL     OW64792   4.574   2.660   5.547
21589SOL    HW164793   4.570   2.736   5.612
21589SOL    HW264794   4.596   2.696   5.456
21590SOL     OW64795   4.409   2.874   4.389
21590SOL    HW164796   4.478   2.858   4.459
21590SOL    HW264797   4.336   2.931   4.427
21591SOL     OW64798   4.410   3.023   5.527
21591SOL    HW164799   4.470   3.102   5.541
21591SOL    HW264800   4.324   3.054   5.486
21592SOL     OW64801   4.059   3.297   4.785
21592SOL    HW164802   3.981   3.266   4.732
21592SOL    HW264803   4.117   3.355   4.728
21593SOL     OW64804   5.184   3.367   5.063
21593SOL    HW164805   5.208   3.461   5.089
21593SOL    HW264806   5.168   3.313   5.145
21594SOL     OW64807   4.162   2.254   5.223
21594SOL    HW164808   4.244   2.198   5.232
21594SOL    HW264809   4.081   2.196   5.227
21595SOL     OW64810   5.327   2.309   4.461
21595SOL    HW164811   5.253   2.355   4.411
21595SOL    HW264812   5.378   2.377   4.514
21596SOL     OW64813   3.955   3.575   4.207
21596SOL    HW164814   3.989   3.652   4.261
21596SOL    HW264815   3.999   3.575   4.117
21597SOL     OW64816   4.851   3.203   5.414
21597SOL    HW164817   4.898   3.203   5.502
21597SOL    HW264818   4.803   3.116   5.403
21598SOL     OW64819   3.954   3.296   4.262
21598SOL    HW164820   3.928   3.392   4.262
21598SOL    HW264821   3.883   3.242   4.307
21599SOL     OW64822   3.964   2.953   4.610
21599SOL    HW164823   3.978   2.869   4.662
21599SOL    HW264824   3.909   3.017   4.665
21600SOL     OW64825   4.344   3.648   5.163
21600SOL    HW164826   4.252   3.631   5.198
21600SOL    HW264827   4.372   3.740   5.189
21601SOL     OW64828   4.330   2.826   3.847
21601SOL    HW164829   4.337   2.910   3.793
21601SOL    HW264830   4.376   2.839   3.935
21602SOL     OW64831   5.318   1.976   5.204
21602SOL    HW164832   5.300   2.043   5.132
21602SOL    HW264833   5.315   2.022   5.293
21603SOL     OW64834   3.846   2.505   4.287
21603SOL    HW164835   3.801   2.417   4.304
21603SOL    HW264836   3.845   2.559   4.371
21604SOL     OW64837   5.566   3.629   4.083
21604SOL    HW164838   5.620   3.600   4.163
21604SOL    HW264839   5.596   3.719   4.054
21605SOL     OW64840   3.751   3.458   3.841
21605SOL    HW164841   3.732   3.362   3.862
21605SOL    HW264842   3.718   3.516   3.916
21606SOL     OW64843   5.413   2.784   4.336
21606SOL    HW164844   5.508   2.755   4.344
21606SOL    HW264845   5.405   2.849   4.261
21607SOL     OW64846   5.365   2.970   4.156
21607SOL    HW164847   5.451   2.972   4.104
21607SOL    HW264848   5.379   3.017   4.244
21608SOL     OW64849   3.837   2.599   5.321
21608SOL    HW164850   3.925   2.586   5.366
21608SOL    HW264851   3.824   2.696   5.299
21609SOL     OW64852   4.337   3.227   4.450
21609SOL    HW164853   4.288   3.140   4.459
21609SOL    HW264854   4.314   3.270   4.363
21610SOL     OW64855   5.017   3.090   5.147
21610SOL    HW164856   5.054   3.017   5.089
21610SOL    HW264857   5.069   3.095   5.232
21611SOL     OW64858   4.533   1.866   4.226
21611SOL    HW164859   4.573   1.957   4.217
21611SOL    HW264860   4.433   1.874   4.232
21612SOL     OW64861   3.921   2.838   4.988
21612SOL    HW164862   4.010   2.793   4.974
21612SOL    HW264863   3.848   2.773   4.969
21613SOL     OW64864   5.249   2.861   3.914
21613SOL    HW164865   5.186   2.785   3.927
21613SOL    HW264866   5.297   2.879   4.000
21614SOL     OW64867   4.911   3.654   5.340
21614SOL    HW164868   4.935   3.714   5.264
21614SOL    HW264869   4.918   3.559   5.310
21615SOL     OW64870   4.041   2.113   5.525
21615SOL    HW164871   4.112   2.184   5.531
21615SOL    HW264872   3.953   2.152   5.553
21616SOL     OW64873   5.190   3.279   4.677
21616SOL    HW164874   5.131   3.285   4.757
21616SOL    HW264875   5.175   3.191   4.631
21617SOL     OW64876   5.391   3.576   4.296
21617SOL    HW164877   5.350   3.553   4.208
21617SOL    HW264878   5.373   3.502   4.361
21618SOL     OW64879   4.322   2.591   3.994
21618SOL    HW164880   4.346   2.660   3.926
21618SOL    HW264881   4.244   2.624   4.048
21619SOL     OW64882   5.005   2.207   4.668
21619SOL    HW164883   4.919   2.157   4.655
21619SOL    HW264884   5.067   2.153   4.724
21620SOL     OW64885   5.300   3.524   4.031
21620SOL    HW164886   5.389   3.570   4.034
21620SOL    HW264887   5.279   3.500   3.936
21621SOL     OW64888   4.531   2.467   5.189
21621SOL    HW164889   4.484   2.464   5.278
21621SOL    HW264890   4.480   2.412   5.123
21622SOL     OW64891   5.118   2.331   5.398
21622SOL    HW164892   5.098   2.374   5.486
21622SOL    HW264893   5.196   2.269   5.407
21623SOL     OW64894   4.697   2.752   5.296
21623SOL    HW164895   4.743   2.668   5.267
21623SOL    HW264896   4.641   2.786   5.221
21624SOL     OW64897   4.715   2.272   4.966
21624SOL    HW164898   4.638   2.306   5.020
21624SOL    HW264899   4.681   2.221   4.887
21625SOL     OW64900   4.765   2.563   4.153
21625SOL    HW164901   4.791   2.559   4.249
21625SOL    HW264902   4.680   2.512   4.139
21626SOL     OW64903   3.800   2.673   4.513
21626SOL    HW164904   3.899   2.661   4.522
21626SOL    HW264905   3.776   2.768   4.534
21627SOL     OW64906   3.854   3.683   5.295
21627SOL    HW164907   3.844   3.668   5.394
21627SOL    HW264908   3.768   3.719   5.259
21628SOL     OW64909   4.589   2.210   3.919
21628SOL    HW164910   4.648   2.273   3.870
21628SOL    HW264911   4.608   2.116   3.890
21629SOL     OW64912   5.443   2.447   5.555
21629SOL    HW164913   5.417   2.536   5.519
21629SOL    HW264914   5.441   2.379   5.482
21630SOL     OW64915   5.086   3.006   4.269
21630SOL    HW164916   5.169   2.977   4.221
21630SOL    HW264917   5.037   3.073   4.213
21631SOL     OW64918   4.274   2.058   4.609
21631SOL    HW164919   4.269   2.053   4.709
21631SOL    HW264920   4.276   2.154   4.580
21632SOL     OW64921   4.732   3.318   4.201
21632SOL    HW164922   4.686   3.390   4.149
21632SOL    HW264923   4.728   3.338   4.299
21633SOL     OW64924   4.075   3.663   4.577
21633SOL    HW164925   4.125   3.577   4.583
21633SOL    HW264926   4.140   3.740   4.574
21634SOL     OW64927   5.519   2.928   4.597
21634SOL    HW164928   5.457   2.913   4.521
21634SOL    HW264929   5.467   2.939   4.682
21635SOL     OW64930   4.951   3.412   5.230
21635SOL    HW164931   4.957   3.335   5.294
21635SOL    HW264932   4.899   3.386   5.150
21636SOL     OW64933   4.045   2.805   3.966
21636SOL    HW164934   4.127   2.844   3.924
21636SOL    HW264935   4.018   2.723   3.917
21637SOL     OW64936   5.182   2.597   4.452
21637SOL    HW164937   5.177   2.532   4.527
21637SOL    HW264938   5.262   2.656   4.465
21638SOL     OW64939   4.185   3.128   5.451
21638SOL    HW164940   4.135   3.129   5.365
21638SOL    HW264941   4.122   3.110   5.527
21639SOL     OW64942   4.835   3.638   3.961
21639SOL    HW164943   4.775   3.576   4.011
21639SOL    HW264944   4.866   3.594   3.876
21640SOL     OW64945   3.926   2.147   5.222
21640SOL    HW164946   3.846   2.207   5.209
21640SOL    HW264947   3.916   2.098   5.308
21641SOL     OW64948   5.356   3.239   3.805
21641SOL    HW164949   5.324   3.333   3.795
21641SOL    HW264950   5.280   3.176   3.793
21642SOL     OW64951   4.188   3.605   4.047
21642SOL    HW164952   4.221   3.644   4.133
21642SOL    HW264953   4.264   3.598   3.982
21643SOL     OW64954   5.124   1.969   4.150
21643SOL    HW164955   5.100   1.932   4.060
21643SOL    HW264956   5.223   1.985   4.154
21644SOL     OW64957   3.973   3.647   4.965
21644SOL    HW164958   4.030   3.582   5.015
21644SOL    HW264959   3.957   3.614   4.872
21645SOL     OW64960   4.664   3.560   4.628
21645SOL    HW164961   4.744   3.503   4.649
21645SOL    HW264962   4.615   3.520   4.551
21646SOL     OW64963   4.106   2.562   4.204
21646SOL    HW164964   4.151   2.472   4.201
21646SOL    HW264965   4.012   2.551   4.237
21647SOL     OW64966   5.271   2.084   5.453
21647SOL    HW164967   5.266   2.121   5.545
21647SOL    HW264968   5.199   2.015   5.441
21648SOL     OW64969   4.338   1.984   3.841
21648SOL    HW164970   4.436   1.962   3.848
21648SOL    HW264971   4.307   1.967   3.748
21649SOL     OW64972   4.505   2.126   5.473
21649SOL    HW164973   4.572   2.065   5.516
21649SOL    HW264974   4.432   2.145   5.538
21650SOL     OW64975   4.612   3.376   4.919
21650SOL    HW164976   4.589   3.351   4.825
21650SOL    HW264977   4.673   3.307   4.958
21651SOL     OW64978   5.075   2.452   5.157
21651SOL    HW164979   5.103   2.409   5.242
21651SOL    HW264980   5.100   2.548   5.158
21652SOL     OW64981   4.527   3.264   4.648
21652SOL    HW164982   4.617   3.278   4.606
21652SOL    HW264983   4.456   3.266   4.577
21653SOL     OW64984   4.646   2.365   4.623
21653SOL    HW164985   4.621   2.356   4.527
21653SOL    HW264986   4.694   2.283   4.654
21654SOL     OW64987   4.263   1.926   4.236
21654SOL    HW164988   4.182   1.927   4.294
21654SOL    HW264989   4.266   2.009   4.181
21655SOL     OW64990   5.158   3.050   3.765
21655SOL    HW164991   5.190   2.974   3.822
21655SOL    HW264992   5.066   3.077   3.795
21656SOL     OW64993   4.021   1.897   3.895
21656SOL    HW164994   4.070   1.981   3.874
21656SOL    HW264995   4.083   1.832   3.940
21657SOL     OW64996   4.659   2.098   4.204
21657SOL    HW164997   4.611   2.139   4.126
21657SOL    HW264998   4.758   2.096   4.185
21658SOL     OW64999   4.800   2.545   5.188
21658SOL    HW165000   4.720   2.484   5.191
21658SOL    HW265001   4.881   2.492   5.164
21659SOL     OW65002   4.951   3.432   4.517
21659SOL    HW165003   4.972   3.506   4.452
21659SOL    HW265004   5.019   3.432   4.590
21660SOL     OW65005   4.183   3.014   4.465
21660SOL    HW165006   4.112   2.987   4.530
21660SOL    HW265007   4.157   2.986   4.372
21661SOL     OW65008   4.995   3.659   4.315
21661SOL    HW165009   5.039   3.723   4.251
21661SOL    HW265010   4.945   3.711   4.385
21662SOL     OW65011   4.756   2.411   3.740
21662SOL    HW165012   4.715   2.493   3.701
21662SOL    HW265013   4.820   2.437   3.813
21663SOL     OW65014   3.802   2.418   5.110
21663SOL    HW165015   3.894   2.417   5.069
21663SOL    HW265016   3.796   2.492   5.177
21664SOL     OW65017   4.285   2.084   4.871
21664SOL    HW165018   4.323   2.000   4.908
21664SOL    HW265019   4.197   2.103   4.915
21665SOL     OW65020   4.590   2.316   4.366
21665SOL    HW165021   4.558   2.388   4.304
21665SOL    HW265022   4.614   2.235   4.313
21666SOL     OW65023   4.741   1.901   4.477
21666SOL    HW165024   4.669   1.906   4.408
21666SOL    HW265025   4.717   1.832   4.546
21667SOL     OW65026   5.153   3.035   4.591
21667SOL    HW165027   5.098   2.951   4.584
21667SOL    HW265028   5.179   3.064   4.499
21668SOL     OW65029   5.190   2.452   4.716
21668SOL    HW165030   5.160   2.357   4.723
21668SOL    HW265031   5.263   2.468   4.782
21669SOL     OW65032   5.581   2.695   4.101
21669SOL    HW165033   5.623   2.631   4.165
21669SOL    HW265034   5.543   2.644   4.023
21670SOL     OW65035   4.212   3.247   3.898
21670SOL    HW165036   4.125   3.232   3.945
21670SOL    HW265037   4.195   3.273   3.803
21671SOL     OW65038   5.388   3.142   4.381
21671SOL    HW165039   5.487   3.150   4.395
21671SOL    HW265040   5.343   3.226   4.412
21672SOL     OW65041   5.114   2.437   3.802
21672SOL    HW165042   5.060   2.416   3.883
21672SOL    HW265043   5.205   2.396   3.811
21673SOL     OW65044   4.251   2.118   4.052
21673SOL    HW165045   4.278   2.059   3.977
21673SOL    HW265046   4.251   2.213   4.021
21674SOL     OW65047   5.478   3.085   5.312
21674SOL    HW165048   5.569   3.046   5.299
21674SOL    HW265049   5.486   3.181   5.336
21675SOL     OW65050   4.788   3.209   5.064
21675SOL    HW165051   4.708   3.186   5.119
21675SOL    HW265052   4.871   3.183   5.113
21676SOL     OW65053   5.316   3.491   5.349
21676SOL    HW165054   5.343   3.525   5.259
21676SOL    HW265055   5.395   3.453   5.395
21677SOL     OW65056   4.835   3.057   4.824
21677SOL    HW165057   4.795   3.101   4.905
21677SOL    HW265058   4.794   3.094   4.741
21678SOL     OW65059   5.362   2.961   4.803
21678SOL    HW165060   5.367   3.042   4.862
21678SOL    HW265061   5.276   2.963   4.752
21679SOL     OW65062   4.639   1.951   5.126
21679SOL    HW165063   4.664   1.931   5.031
21679SOL    HW265064   4.711   2.007   5.168
21680SOL     OW65065   4.704   2.978   5.443
21680SOL    HW165066   4.605   2.984   5.453
21680SOL    HW265067   4.727   2.898   5.387
21681SOL     OW65068   4.429   2.912   4.092
21681SOL    HW165069   4.415   2.919   4.191
21681SOL    HW265070   4.513   2.861   4.074
21682SOL     OW65071   4.134   2.675   4.975
21682SOL    HW165072   4.220   2.687   5.025
21682SOL    HW265073   4.092   2.588   5.002
21683SOL     OW65074   4.998   2.248   4.986
21683SOL    HW165075   5.019   2.322   5.050
21683SOL    HW265076   4.909   2.265   4.943
21684SOL     OW65077   3.788   3.426   5.055
21684SOL    HW165078   3.742   3.508   5.021
21684SOL    HW265079   3.886   3.445   5.064
21685SOL     OW65080   4.091   2.962   4.225
21685SOL    HW165081   4.084   3.045   4.169
21685SOL    HW265082   4.095   2.882   4.165
21686SOL     OW65083   4.290   2.399   4.589
21686SOL    HW165084   4.302   2.465   4.515
21686SOL    HW265085   4.336   2.433   4.672
21687SOL     OW65086   4.976   3.210   4.112
21687SOL    HW165087   5.026   3.287   4.152
21687SOL    HW265088   4.881   3.212   4.144
21688SOL     OW65089   4.996   3.307   4.866
21688SOL    HW165090   5.043   3.320   4.953
21688SOL    HW265091   4.930   3.233   4.875
21689SOL     OW65092   5.306   2.501   4.196
21689SOL    HW165093   5.275   2.562   4.269
21689SOL    HW265094   5.356   2.553   4.127
21690SOL     OW65095   4.078   3.372   5.053
21690SOL    HW165096   4.057   3.328   4.966
21690SOL    HW265097   4.175   3.398   5.056
21691SOL     OW65098   4.126   2.613   5.322
21691SOL    HW165099   4.194   2.668   5.275
21691SOL    HW265100   4.166   2.525   5.349
21692SOL     OW65101   5.311   2.641   5.394
21692SOL    HW165102   5.219   2.679   5.389
21692SOL    HW265103   5.371   2.688   5.329
21693SOL     OW65104   4.737   1.967   5.494
21693SOL    HW165105   4.743   2.052   5.442
21693SOL    HW265106   4.769   1.891   5.437
21694SOL     OW65107   4.228   1.912   5.464
21694SOL    HW165108   4.186   1.855   5.394
21694SOL    HW265109   4.162   1.981   5.496
21695SOL     OW65110   4.297   2.732   4.753
21695SOL    HW165111   4.341   2.821   4.744
21695SOL    HW265112   4.234   2.732   4.830
21696SOL     OW65113   5.084   2.724   4.769
21696SOL    HW165114   5.009   2.724   4.703
21696SOL    HW265115   5.121   2.632   4.778
21697SOL     OW65116   4.933   2.387   3.999
21697SOL    HW165117   4.946   2.303   4.053
21697SOL    HW265118   4.904   2.461   4.059
21698SOL     OW65119   4.031   2.075   4.955
21698SOL    HW165120   4.008   2.112   5.045
21698SOL    HW265121   4.001   1.980   4.949
21699SOL     OW65122   3.761   3.172   5.006
21699SOL    HW165123   3.814   3.123   5.074
21699SOL    HW265124   3.783   3.270   5.011
21700SOL     OW65125   4.456   2.496   4.788
21700SOL    HW165126   4.515   2.470   4.712
21700SOL    HW265127   4.428   2.592   4.777
21701SOL     OW65128   5.452   2.797   5.578
21701SOL    HW165129   5.406   2.790   5.489
21701SOL    HW265130   5.390   2.841   5.644
21702SOL     OW65131   4.031   1.925   4.342
21702SOL    HW165132   4.020   2.019   4.375
21702SOL    HW265133   4.026   1.862   4.419
21703SOL     OW65134   5.346   2.229   4.098
21703SOL    HW165135   5.348   2.153   4.162
21703SOL    HW265136   5.298   2.306   4.138
21704SOL     OW65137   4.747   2.628   4.690
21704SOL    HW165138   4.762   2.649   4.786
21704SOL    HW265139   4.717   2.533   4.681
21705SOL     OW65140   4.704   3.435   5.424
21705SOL    HW165141   4.684   3.479   5.336
21705SOL    HW265142   4.743   3.344   5.408
21706SOL     OW65143   5.583   3.380   5.329
21706SOL    HW165144   5.597   3.407   5.234
21706SOL    HW265145   5.666   3.402   5.382
21707SOL     OW65146   4.074   2.760   5.528
21707SOL    HW165147   4.150   2.804   5.576
21707SOL    HW265148   4.109   2.713   5.446
21708SOL     OW65149   5.264   2.136   3.849
21708SOL    HW165150   5.203   2.061   3.872
21708SOL    HW265151   5.286   2.188   3.932
21709SOL     OW65152   5.027   2.700   3.766
21709SOL    HW165153   5.061   2.607   3.781
21709SOL    HW265154   5.045   2.727   3.671
21710SOL     OW65155   4.792   3.195   4.573
21710SOL    HW165156   4.799   3.111   4.518
21710SOL    HW265157   4.854   3.264   4.537
21711SOL     OW65158   4.043   2.672   4.673
21711SOL    HW165159   4.136   2.708   4.678
21711SOL    HW265160   4.037   2.587   4.725
21712SOL     OW65161   4.063   2.371   4.730
21712SOL    HW165162   4.011   2.288   4.713
21712SOL    HW265163   4.140   2.376   4.666
21713SOL     OW65164   4.862   2.242   5.402
21713SOL    HW165165   4.817   2.305   5.466
21713SOL    HW265166   4.955   2.273   5.385
21714SOL     OW65167   4.884   2.069   5.201
21714SOL    HW165168   4.884   2.133   5.278
21714SOL    HW265169   4.912   2.117   5.118
21715SOL     OW65170   3.732   3.188   3.924
21715SOL    HW165171   3.639   3.209   3.893
21715SOL    HW265172   3.742   3.089   3.937
21716SOL     OW65173   3.812   3.663   4.651
21716SOL    HW165174   3.770   3.577   4.624
21716SOL    HW265175   3.906   3.666   4.617
21717SOL     OW65176   4.228   3.430   4.634
21717SOL    HW165177   4.294   3.504   4.643
21717SOL    HW265178   4.272   3.351   4.592
21718SOL     OW65179   4.726   2.658   4.962
21718SOL    HW165180   4.767   2.626   5.048
21718SOL    HW265181   4.630   2.631   4.959
21719SOL     OW65182   3.764   2.406   4.838
21719SOL    HW165183   3.849   2.373   4.797
21719SOL    HW265184   3.777   2.421   4.936
21720SOL     OW65185   3.913   2.382   5.446
21720SOL    HW165186   3.972   2.342   5.376
21720SOL    HW265187   3.855   2.453   5.405
21721SOL     OW65188   5.093   2.812   5.384
21721SOL    HW165189   5.132   2.901   5.404
21721SOL    HW265190   5.103   2.792   5.287
21722SOL     OW65191   4.539   2.434   4.049
21722SOL    HW165192   4.546   2.345   4.003
21722SOL    HW265193   4.445   2.468   4.041
21723SOL     OW65194   5.381   2.466   4.930
21723SOL    HW165195   5.343   2.397   4.992
21723SOL    HW265196   5.463   2.430   4.886
21724SOL     OW65197   3.976   3.426   5.468
21724SOL    HW165198   3.946   3.483   5.544
21724SOL    HW265199   3.969   3.329   5.494
21725SOL     OW65200   4.395   2.326   4.993
21725SOL    HW165201   4.361   2.237   4.963
21725SOL    HW265202   4.421   2.380   4.913
21726SOL     OW65203   4.654   3.540   5.189
21726SOL    HW165204   4.630   3.522   5.094
21726SOL    HW265205   4.684   3.634   5.199
21727SOL     OW65206   4.197   2.362   3.915
21727SOL    HW165207   4.258   2.442   3.919
21727SOL    HW265208   4.102   2.393   3.922
21728SOL     OW65209   3.883   2.999   5.190
21728SOL    HW165210   3.905   2.938   5.266
21728SOL    HW265211   3.893   2.950   5.104
21729SOL     OW65212   5.071   2.921   4.958
21729SOL    HW165213   5.095   2.858   4.884
21729SOL    HW265214   4.981   2.961   4.940
21730SOL     OW65215   5.026   2.717   4.033
21730SOL    HW165216   4.940   2.686   4.075
21730SOL    HW265217   5.022   2.703   3.934
21731SOL     OW65218   5.483   3.609   4.878
21731SOL    HW165219   5.544   3.639   4.805
21731SOL    HW265220   5.445   3.520   4.856
21732SOL     OW65221   4.976   3.593   4.852
21732SOL    HW165222   5.060   3.598   4.798
21732SOL    HW265223   4.953   3.497   4.870
21733SOL     OW65224   3.807   3.120   4.746
21733SOL    HW165225   3.802   3.119   4.846
21733SOL    HW265226   3.724   3.079   4.708
21734SOL     OW65227   4.412   3.524   5.440
21734SOL    HW165228   4.356   3.605   5.449
21734SOL    HW265229   4.464   3.528   5.354
21735SOL     OW65230   5.450   1.997   4.247
21735SOL    HW165231   5.523   1.980   4.180
21735SOL    HW265232   5.419   1.910   4.285
21736SOL     OW65233   5.112   3.435   4.201
21736SOL    HW165234   5.179   3.447   4.127
21736SOL    HW265235   5.072   3.524   4.224
21737SOL     OW65236   3.854   3.656   5.575
21737SOL    HW165237   3.813   3.582   5.628
21737SOL    HW265238   3.918   3.707   5.633
21738SOL     OW65239   5.004   2.789   4.396
21738SOL    HW165240   5.064   2.708   4.398
21738SOL    HW265241   5.044   2.858   4.336
21739SOL     OW65242   4.554   3.135   5.146
21739SOL    HW165243   4.549   3.168   5.241
21739SOL    HW265244   4.468   3.154   5.100
21740SOL     OW65245   4.396   3.478   3.878
21740SOL    HW165246   4.405   3.488   3.779
21740SOL    HW265247   4.356   3.389   3.899
21741SOL     OW65248   5.374   3.582   5.118
21741SOL    HW165249   5.427   3.592   5.034
21741SOL    HW265250   5.347   3.672   5.152
21742SOL     OW65251   5.565   2.037   4.687
21742SOL    HW165252   5.604   1.952   4.651
21742SOL    HW265253   5.467   2.039   4.668
21743SOL     OW65254   3.987   2.188   4.444
21743SOL    HW165255   3.908   2.239   4.410
21743SOL    HW265256   3.978   2.173   4.542
21744SOL     OW65257   4.918   3.474   3.755
21744SOL    HW165258   4.924   3.381   3.792
21744SOL    HW265259   4.859   3.474   3.675
21745SOL     OW65260   4.546   2.864   5.096
21745SOL    HW165261   4.586   2.863   5.004
21745SOL    HW265262   4.556   2.956   5.136
21746SOL     OW65263   4.640   2.772   4.015
21746SOL    HW165264   4.703   2.810   3.947
21746SOL    HW265265   4.680   2.689   4.054
21747SOL     OW65266   5.228   3.469   3.768
21747SOL    HW165267   5.136   3.506   3.775
21747SOL    HW265268   5.266   3.489   3.678
21748SOL     OW65269   4.096   3.150   5.214
21748SOL    HW165270   4.083   3.243   5.180
21748SOL    HW265271   4.012   3.098   5.201
21749SOL     OW65272   5.338   3.154   5.013
21749SOL    HW165273   5.398   3.157   5.093
21749SOL    HW265274   5.263   3.218   5.026
21750SOL     OW65275   4.763   2.960   4.420
21750SOL    HW165276   4.693   2.913   4.474
21750SOL    HW265277   4.822   2.892   4.377
21751SOL     OW65278   4.738   2.098   4.695
21751SOL    HW165279   4.730   2.062   4.602
21751SOL    HW265280   4.736   2.022   4.760
21752SOL     OW65281   4.314   3.349   4.215
21752SOL    HW165282   4.356   3.291   4.145
21752SOL    HW265283   4.270   3.428   4.171
21753SOL     OW65284   5.433   2.247   5.105
21753SOL    HW165285   5.506   2.316   5.109
21753SOL    HW265286   5.461   2.172   5.046
21754SOL     OW65287   3.979   3.210   4.014
21754SOL    HW165288   3.883   3.211   3.987
21754SOL    HW265289   3.991   3.263   4.098
21755SOL     OW65290   3.829   2.875   5.450
21755SOL    HW165291   3.752   2.842   5.504
21755SOL    HW265292   3.914   2.845   5.492
21756SOL     OW65293   4.396   2.065   5.213
21756SOL    HW165294   4.486   2.049   5.173
21756SOL    HW265295   4.404   2.070   5.312
21757SOL     OW65296   3.799   2.207   3.757
21757SOL    HW165297   3.707   2.179   3.728
21757SOL    HW265298   3.830   2.284   3.701
21758SOL     OW65299   5.164   2.718   5.122
21758SOL    HW165300   5.107   2.770   5.059
21758SOL    HW265301   5.260   2.730   5.098
21759SOL     OW65302   3.796   2.028   4.042
21759SOL    HW165303   3.779   2.111   3.988
21759SOL    HW265304   3.886   1.991   4.020
21760SOL     OW65305   4.907   3.197   3.843
21760SOL    HW165306   4.808   3.186   3.845
21760SOL    HW265307   4.941   3.212   3.936
21761SOL     OW65308   4.337   2.704   5.155
21761SOL    HW165309   4.393   2.785   5.138
21761SOL    HW265310   4.396   2.624   5.158
21762SOL     OW65311   5.217   3.629   4.683
21762SOL    HW165312   5.250   3.693   4.614
21762SOL    HW265313   5.283   3.623   4.758
21763SOL     OW65314   4.440   2.427   5.432
21763SOL    HW165315   4.459   2.492   5.506
21763SOL    HW265316   4.500   2.347   5.441
21764SOL     OW65317   5.174   3.082   5.357
21764SOL    HW165318   5.165   3.072   5.456
21764SOL    HW265319   5.270   3.075   5.331
21765SOL     OW65320   4.114   3.603   5.284
21765SOL    HW165321   4.023   3.644   5.282
21765SOL    HW265322   4.107   3.509   5.316
21766SOL     OW65323   5.398   2.745   4.978
21766SOL    HW165324   5.371   2.656   4.941
21766SOL    HW265325   5.399   2.813   4.905
21767SOL     OW65326   4.949   2.187   4.173
21767SOL    HW165327   5.014   2.113   4.162
21767SOL    HW265328   4.969   2.237   4.257
21768SOL     OW65329   4.318   2.607   4.376
21768SOL    HW165330   4.368   2.692   4.357
21768SOL    HW265331   4.230   2.609   4.328
21769SOL     OW65332   5.501   2.204   5.366
21769SOL    HW165333   5.484   2.235   5.272
21769SOL    HW265334   5.417   2.167   5.404
21770SOL     OW65335   5.454   2.796   5.241
21770SOL    HW165336   5.492   2.887   5.256
21770SOL    HW265337   5.446   2.779   5.142
21771SOL     OW65338   4.583   3.236   3.740
21771SOL    HW165339   4.537   3.251   3.828
21771SOL    HW265340   4.627   3.321   3.710
21772SOL     OW65341   4.385   3.652   4.677
21772SOL    HW165342   4.339   3.740   4.664
21772SOL    HW265343   4.484   3.664   4.670
21773SOL     OW65344   4.583   2.818   4.585
21773SOL    HW165345   4.637   2.749   4.633
21773SOL    HW265346   4.551   2.887   4.651
21774SOL     OW65347   4.807   2.846   3.811
21774SOL    HW165348   4.784   2.899   3.729
21774SOL    HW265349   4.888   2.790   3.792
21775SOL     OW65350   5.585   3.431   4.575
21775SOL    HW165351   5.514   3.419   4.505
21775SOL    HW265352   5.586   3.352   4.635
21776SOL     OW65353   3.945   3.176   5.568
21776SOL    HW165354   3.880   3.103   5.547
21776SOL    HW265355   3.949   3.190   5.666
21777SOL     OW65356   3.803   3.102   4.377
21777SOL    HW165357   3.802   3.055   4.465
21777SOL    HW265358   3.885   3.074   4.326
21778SOL     OW65359   4.396   3.253   5.348
21778SOL    HW165360   4.318   3.203   5.386
21778SOL    HW265361   4.393   3.348   5.379
21779SOL     OW65362   5.548   2.054   4.951
21779SOL    HW165363   5.544   1.964   4.995
21779SOL    HW265364   5.551   2.043   4.852
21780SOL     OW65365   4.152   2.286   4.244
21780SOL    HW165366   4.182   2.214   4.182
21780SOL    HW265367   4.113   2.246   4.327
21781SOL     OW65368   5.429   3.349   4.828
21781SOL    HW165369   5.336   3.324   4.801
21781SOL    HW265370   5.455   3.299   4.910
21782SOL     OW65371   4.041   2.409   5.004
21782SOL    HW165372   4.079   2.350   5.076
21782SOL    HW265373   4.081   2.383   4.916
21783SOL     OW65374   4.536   3.448   4.411
21783SOL    HW165375   4.568   3.458   4.317
21783SOL    HW265376   4.457   3.386   4.413
21784SOL     OW65377   5.148   2.076   4.836
21784SOL    HW165378   5.200   2.011   4.891
21784SOL    HW265379   5.099   2.139   4.897
21785SOL     OW65380   4.725   1.896   4.878
21785SOL    HW165381   4.662   1.824   4.847
21785SOL    HW265382   4.818   1.860   4.878
21786SOL     OW65383   4.494   3.192   4.025
21786SOL    HW165384   4.448   3.105   4.042
21786SOL    HW265385   4.585   3.189   4.066
21787SOL     OW65386   4.342   3.429   5.008
21787SOL    HW165387   4.337   3.511   5.065
21787SOL    HW265388   4.431   3.426   4.963
21788SOL     OW65389   5.076   1.914   3.892
21788SOL    HW165390   5.111   1.873   3.808
21788SOL    HW265391   4.986   1.876   3.912
21789SOL     OW65392   5.024   2.315   4.415
21789SOL    HW165393   4.965   2.395   4.419
21789SOL    HW265394   5.039   2.280   4.508
21790SOL     OW65395   5.317   2.083   4.606
21790SOL    HW165396   5.233   2.082   4.660
21790SOL    HW265397   5.319   2.166   4.550
21791SOL     OW65398   3.763   2.939   4.024
21791SOL    HW165399   3.862   2.928   4.015
21791SOL    HW265400   3.723   2.853   4.056
21792SOL     OW65401   4.599   3.508   4.061
21792SOL    HW165402   4.522   3.473   4.007
21792SOL    HW265403   4.567   3.579   4.123
21793SOL     OW65404   3.954   2.490   5.699
21793SOL    HW165405   3.861   2.488   5.736
21793SOL    HW265406   3.955   2.451   5.607
21794SOL     OW65407   3.949   2.137   6.582
21794SOL    HW165408   3.984   2.120   6.674
21794SOL    HW265409   3.861   2.092   6.570
21795SOL     OW65410   3.743   2.230   6.233
21795SOL    HW165411   3.661   2.273   6.272
21795SOL    HW265412   3.715   2.157   6.170
21796SOL     OW65413   4.293   3.137   6.751
21796SOL    HW165414   4.200   3.130   6.714
21796SOL    HW265415   4.304   3.226   6.795
21797SOL     OW65416   5.279   3.373   6.289
21797SOL    HW165417   5.222   3.357   6.370
21797SOL    HW265418   5.220   3.383   6.209
21798SOL     OW65419   4.859   2.565   6.303
21798SOL    HW165420   4.916   2.643   6.278
21798SOL    HW265421   4.799   2.591   6.379
21799SOL     OW65422   5.479   2.469   5.817
21799SOL    HW165423   5.467   2.456   5.718
21799SOL    HW265424   5.449   2.388   5.866
21800SOL     OW65425   4.492   3.006   6.609
21800SOL    HW165426   4.414   3.023   6.669
21800SOL    HW265427   4.526   3.093   6.573
21801SOL     OW65428   4.574   2.660   7.409
21801SOL    HW165429   4.570   2.736   7.474
21801SOL    HW265430   4.596   2.696   7.318
21802SOL     OW65431   4.409   2.874   6.251
21802SOL    HW165432   4.478   2.858   6.321
21802SOL    HW265433   4.336   2.931   6.289
21803SOL     OW65434   4.410   3.023   7.389
21803SOL    HW165435   4.470   3.102   7.403
21803SOL    HW265436   4.324   3.054   7.348
21804SOL     OW65437   4.059   3.297   6.647
21804SOL    HW165438   3.981   3.266   6.594
21804SOL    HW265439   4.117   3.355   6.590
21805SOL     OW65440   5.184   3.367   6.925
21805SOL    HW165441   5.208   3.461   6.951
21805SOL    HW265442   5.168   3.313   7.007
21806SOL     OW65443   4.162   2.254   7.085
21806SOL    HW165444   4.244   2.198   7.094
21806SOL    HW265445   4.081   2.196   7.089
21807SOL     OW65446   5.327   2.309   6.323
21807SOL    HW165447   5.253   2.355   6.273
21807SOL    HW265448   5.378   2.377   6.376
21808SOL     OW65449   3.955   3.575   6.069
21808SOL    HW165450   3.989   3.652   6.123
21808SOL    HW265451   3.999   3.575   5.979
21809SOL     OW65452   4.851   3.203   7.276
21809SOL    HW165453   4.898   3.203   7.364
21809SOL    HW265454   4.803   3.116   7.265
21810SOL     OW65455   3.954   3.296   6.124
21810SOL    HW165456   3.928   3.392   6.124
21810SOL    HW265457   3.883   3.242   6.169
21811SOL     OW65458   3.964   2.953   6.472
21811SOL    HW165459   3.978   2.869   6.524
21811SOL    HW265460   3.909   3.017   6.527
21812SOL     OW65461   4.344   3.648   7.025
21812SOL    HW165462   4.252   3.631   7.060
21812SOL    HW265463   4.372   3.740   7.051
21813SOL     OW65464   4.330   2.826   5.709
21813SOL    HW165465   4.337   2.910   5.655
21813SOL    HW265466   4.376   2.839   5.797
21814SOL     OW65467   5.318   1.976   7.066
21814SOL    HW165468   5.300   2.043   6.994
21814SOL    HW265469   5.315   2.022   7.155
21815SOL     OW65470   3.846   2.505   6.149
21815SOL    HW165471   3.801   2.417   6.166
21815SOL    HW265472   3.845   2.559   6.233
21816SOL     OW65473   5.566   3.629   5.945
21816SOL    HW165474   5.620   3.600   6.025
21816SOL    HW265475   5.596   3.719   5.916
21817SOL     OW65476   3.751   3.458   5.703
21817SOL    HW165477   3.732   3.362   5.724
21817SOL    HW265478   3.718   3.516   5.778
21818SOL     OW65479   5.413   2.784   6.198
21818SOL    HW165480   5.508   2.755   6.206
21818SOL    HW265481   5.405   2.849   6.123
21819SOL     OW65482   5.365   2.970   6.018
21819SOL    HW165483   5.451   2.972   5.966
21819SOL    HW265484   5.379   3.017   6.106
21820SOL     OW65485   3.837   2.599   7.183
21820SOL    HW165486   3.925   2.586   7.228
21820SOL    HW265487   3.824   2.696   7.161
21821SOL     OW65488   4.337   3.227   6.312
21821SOL    HW165489   4.288   3.140   6.321
21821SOL    HW265490   4.314   3.270   6.225
21822SOL     OW65491   5.017   3.090   7.009
21822SOL    HW165492   5.054   3.017   6.951
21822SOL    HW265493   5.069   3.095   7.094
21823SOL     OW65494   4.533   1.866   6.088
21823SOL    HW165495   4.573   1.957   6.079
21823SOL    HW265496   4.433   1.874   6.094
21824SOL     OW65497   3.921   2.838   6.850
21824SOL    HW165498   4.010   2.793   6.836
21824SOL    HW265499   3.848   2.773   6.831
21825SOL     OW65500   5.249   2.861   5.776
21825SOL    HW165501   5.186   2.785   5.789
21825SOL    HW265502   5.297   2.879   5.862
21826SOL     OW65503   4.911   3.654   7.202
21826SOL    HW165504   4.935   3.714   7.126
21826SOL    HW265505   4.918   3.559   7.172
21827SOL     OW65506   4.041   2.113   7.387
21827SOL    HW165507   4.112   2.184   7.393
21827SOL    HW265508   3.953   2.152   7.415
21828SOL     OW65509   5.190   3.279   6.539
21828SOL    HW165510   5.131   3.285   6.619
21828SOL    HW265511   5.175   3.191   6.493
21829SOL     OW65512   5.391   3.576   6.158
21829SOL    HW165513   5.350   3.553   6.070
21829SOL    HW265514   5.373   3.502   6.223
21830SOL     OW65515   4.322   2.591   5.856
21830SOL    HW165516   4.346   2.660   5.788
21830SOL    HW265517   4.244   2.624   5.910
21831SOL     OW65518   5.005   2.207   6.530
21831SOL    HW165519   4.919   2.157   6.517
21831SOL    HW265520   5.067   2.153   6.586
21832SOL     OW65521   5.300   3.524   5.893
21832SOL    HW165522   5.389   3.570   5.896
21832SOL    HW265523   5.279   3.500   5.798
21833SOL     OW65524   4.531   2.467   7.051
21833SOL    HW165525   4.484   2.464   7.140
21833SOL    HW265526   4.480   2.412   6.985
21834SOL     OW65527   5.118   2.331   7.260
21834SOL    HW165528   5.098   2.374   7.348
21834SOL    HW265529   5.196   2.269   7.269
21835SOL     OW65530   4.697   2.752   7.158
21835SOL    HW165531   4.743   2.668   7.129
21835SOL    HW265532   4.641   2.786   7.083
21836SOL     OW65533   4.715   2.272   6.828
21836SOL    HW165534   4.638   2.306   6.882
21836SOL    HW265535   4.681   2.221   6.749
21837SOL     OW65536   4.765   2.563   6.015
21837SOL    HW165537   4.791   2.559   6.111
21837SOL    HW265538   4.680   2.512   6.001
21838SOL     OW65539   3.800   2.673   6.375
21838SOL    HW165540   3.899   2.661   6.384
21838SOL    HW265541   3.776   2.768   6.396
21839SOL     OW65542   3.854   3.683   7.157
21839SOL    HW165543   3.844   3.668   7.256
21839SOL    HW265544   3.768   3.719   7.121
21840SOL     OW65545   4.589   2.210   5.781
21840SOL    HW165546   4.648   2.273   5.732
21840SOL    HW265547   4.608   2.116   5.752
21841SOL     OW65548   5.443   2.447   7.417
21841SOL    HW165549   5.417   2.536   7.381
21841SOL    HW265550   5.441   2.379   7.344
21842SOL     OW65551   5.086   3.006   6.131
21842SOL    HW165552   5.169   2.977   6.083
21842SOL    HW265553   5.037   3.073   6.075
21843SOL     OW65554   4.274   2.058   6.471
21843SOL    HW165555   4.269   2.053   6.571
21843SOL    HW265556   4.276   2.154   6.442
21844SOL     OW65557   4.732   3.318   6.063
21844SOL    HW165558   4.686   3.390   6.011
21844SOL    HW265559   4.728   3.338   6.161
21845SOL     OW65560   4.075   3.663   6.439
21845SOL    HW165561   4.125   3.577   6.445
21845SOL    HW265562   4.140   3.740   6.436
21846SOL     OW65563   5.519   2.928   6.459
21846SOL    HW165564   5.457   2.913   6.383
21846SOL    HW265565   5.467   2.939   6.544
21847SOL     OW65566   4.951   3.412   7.092
21847SOL    HW165567   4.957   3.335   7.156
21847SOL    HW265568   4.899   3.386   7.012
21848SOL     OW65569   4.045   2.805   5.828
21848SOL    HW165570   4.127   2.844   5.786
21848SOL    HW265571   4.018   2.723   5.779
21849SOL     OW65572   5.182   2.597   6.314
21849SOL    HW165573   5.177   2.532   6.389
21849SOL    HW265574   5.262   2.656   6.327
21850SOL     OW65575   4.185   3.128   7.313
21850SOL    HW165576   4.135   3.129   7.227
21850SOL    HW265577   4.122   3.110   7.389
21851SOL     OW65578   4.835   3.638   5.823
21851SOL    HW165579   4.775   3.576   5.873
21851SOL    HW265580   4.866   3.594   5.738
21852SOL     OW65581   3.926   2.147   7.084
21852SOL    HW165582   3.846   2.207   7.071
21852SOL    HW265583   3.916   2.098   7.170
21853SOL     OW65584   5.356   3.239   5.667
21853SOL    HW165585   5.324   3.333   5.657
21853SOL    HW265586   5.280   3.176   5.655
21854SOL     OW65587   4.188   3.605   5.909
21854SOL    HW165588   4.221   3.644   5.995
21854SOL    HW265589   4.264   3.598   5.844
21855SOL     OW65590   5.124   1.969   6.012
21855SOL    HW165591   5.100   1.932   5.922
21855SOL    HW265592   5.223   1.985   6.016
21856SOL     OW65593   3.973   3.647   6.827
21856SOL    HW165594   4.030   3.582   6.877
21856SOL    HW265595   3.957   3.614   6.734
21857SOL     OW65596   4.664   3.560   6.490
21857SOL    HW165597   4.744   3.503   6.511
21857SOL    HW265598   4.615   3.520   6.413
21858SOL     OW65599   4.106   2.562   6.066
21858SOL    HW165600   4.151   2.472   6.063
21858SOL    HW265601   4.012   2.551   6.099
21859SOL     OW65602   5.271   2.084   7.315
21859SOL    HW165603   5.266   2.121   7.407
21859SOL    HW265604   5.199   2.015   7.303
21860SOL     OW65605   4.338   1.984   5.703
21860SOL    HW165606   4.436   1.962   5.710
21860SOL    HW265607   4.307   1.967   5.610
21861SOL     OW65608   4.505   2.126   7.335
21861SOL    HW165609   4.572   2.065   7.378
21861SOL    HW265610   4.432   2.145   7.400
21862SOL     OW65611   4.612   3.376   6.781
21862SOL    HW165612   4.589   3.351   6.687
21862SOL    HW265613   4.673   3.307   6.820
21863SOL     OW65614   5.075   2.452   7.019
21863SOL    HW165615   5.103   2.409   7.104
21863SOL    HW265616   5.100   2.548   7.020
21864SOL     OW65617   4.527   3.264   6.510
21864SOL    HW165618   4.617   3.278   6.468
21864SOL    HW265619   4.456   3.266   6.439
21865SOL     OW65620   4.646   2.365   6.485
21865SOL    HW165621   4.621   2.356   6.389
21865SOL    HW265622   4.694   2.283   6.516
21866SOL     OW65623   4.263   1.926   6.098
21866SOL    HW165624   4.182   1.927   6.156
21866SOL    HW265625   4.266   2.009   6.043
21867SOL     OW65626   5.158   3.050   5.627
21867SOL    HW165627   5.190   2.974   5.684
21867SOL    HW265628   5.066   3.077   5.657
21868SOL     OW65629   4.021   1.897   5.757
21868SOL    HW165630   4.070   1.981   5.736
21868SOL    HW265631   4.083   1.832   5.802
21869SOL     OW65632   4.659   2.098   6.066
21869SOL    HW165633   4.611   2.139   5.988
21869SOL    HW265634   4.758   2.096   6.047
21870SOL     OW65635   4.800   2.545   7.050
21870SOL    HW165636   4.720   2.484   7.053
21870SOL    HW265637   4.881   2.492   7.026
21871SOL     OW65638   4.951   3.432   6.379
21871SOL    HW165639   4.972   3.506   6.314
21871SOL    HW265640   5.019   3.432   6.452
21872SOL     OW65641   4.183   3.014   6.327
21872SOL    HW165642   4.112   2.987   6.392
21872SOL    HW265643   4.157   2.986   6.234
21873SOL     OW65644   4.995   3.659   6.177
21873SOL    HW165645   5.039   3.723   6.113
21873SOL    HW265646   4.945   3.711   6.247
21874SOL     OW65647   4.756   2.411   5.602
21874SOL    HW165648   4.715   2.493   5.563
21874SOL    HW265649   4.820   2.437   5.675
21875SOL     OW65650   3.802   2.418   6.972
21875SOL    HW165651   3.894   2.417   6.931
21875SOL    HW265652   3.796   2.492   7.039
21876SOL     OW65653   4.285   2.084   6.733
21876SOL    HW165654   4.323   2.000   6.770
21876SOL    HW265655   4.197   2.103   6.777
21877SOL     OW65656   4.590   2.316   6.228
21877SOL    HW165657   4.558   2.388   6.166
21877SOL    HW265658   4.614   2.235   6.175
21878SOL     OW65659   4.741   1.901   6.339
21878SOL    HW165660   4.669   1.906   6.270
21878SOL    HW265661   4.717   1.832   6.408
21879SOL     OW65662   5.153   3.035   6.453
21879SOL    HW165663   5.098   2.951   6.446
21879SOL    HW265664   5.179   3.064   6.361
21880SOL     OW65665   5.190   2.452   6.578
21880SOL    HW165666   5.160   2.357   6.585
21880SOL    HW265667   5.263   2.468   6.644
21881SOL     OW65668   5.581   2.695   5.963
21881SOL    HW165669   5.623   2.631   6.027
21881SOL    HW265670   5.543   2.644   5.885
21882SOL     OW65671   4.212   3.247   5.760
21882SOL    HW165672   4.125   3.232   5.807
21882SOL    HW265673   4.195   3.273   5.665
21883SOL     OW65674   5.388   3.142   6.243
21883SOL    HW165675   5.487   3.150   6.257
21883SOL    HW265676   5.343   3.226   6.274
21884SOL     OW65677   5.114   2.437   5.664
21884SOL    HW165678   5.060   2.416   5.745
21884SOL    HW265679   5.205   2.396   5.673
21885SOL     OW65680   4.251   2.118   5.914
21885SOL    HW165681   4.278   2.059   5.839
21885SOL    HW265682   4.251   2.213   5.883
21886SOL     OW65683   5.478   3.085   7.174
21886SOL    HW165684   5.569   3.046   7.161
21886SOL    HW265685   5.486   3.181   7.198
21887SOL     OW65686   4.788   3.209   6.926
21887SOL    HW165687   4.708   3.186   6.981
21887SOL    HW265688   4.871   3.183   6.975
21888SOL     OW65689   5.316   3.491   7.211
21888SOL    HW165690   5.343   3.525   7.121
21888SOL    HW265691   5.395   3.453   7.257
21889SOL     OW65692   4.835   3.057   6.686
21889SOL    HW165693   4.795   3.101   6.767
21889SOL    HW265694   4.794   3.094   6.603
21890SOL     OW65695   5.362   2.961   6.665
21890SOL    HW165696   5.367   3.042   6.724
21890SOL    HW265697   5.276   2.963   6.614
21891SOL     OW65698   4.639   1.951   6.988
21891SOL    HW165699   4.664   1.931   6.893
21891SOL    HW265700   4.711   2.007   7.030
21892SOL     OW65701   4.704   2.978   7.305
21892SOL    HW165702   4.605   2.984   7.315
21892SOL    HW265703   4.727   2.898   7.249
21893SOL     OW65704   4.429   2.912   5.954
21893SOL    HW165705   4.415   2.919   6.053
21893SOL    HW265706   4.513   2.861   5.936
21894SOL     OW65707   4.134   2.675   6.837
21894SOL    HW165708   4.220   2.687   6.887
21894SOL    HW265709   4.092   2.588   6.864
21895SOL     OW65710   4.998   2.248   6.848
21895SOL    HW165711   5.019   2.322   6.912
21895SOL    HW265712   4.909   2.265   6.805
21896SOL     OW65713   3.788   3.426   6.917
21896SOL    HW165714   3.742   3.508   6.883
21896SOL    HW265715   3.886   3.445   6.926
21897SOL     OW65716   4.091   2.962   6.087
21897SOL    HW165717   4.084   3.045   6.031
21897SOL    HW265718   4.095   2.882   6.027
21898SOL     OW65719   4.290   2.399   6.451
21898SOL    HW165720   4.302   2.465   6.377
21898SOL    HW265721   4.336   2.433   6.534
21899SOL     OW65722   4.976   3.210   5.974
21899SOL    HW165723   5.026   3.287   6.014
21899SOL    HW265724   4.881   3.212   6.006
21900SOL     OW65725   4.996   3.307   6.728
21900SOL    HW165726   5.043   3.320   6.815
21900SOL    HW265727   4.930   3.233   6.737
21901SOL     OW65728   5.306   2.501   6.058
21901SOL    HW165729   5.275   2.562   6.131
21901SOL    HW265730   5.356   2.553   5.989
21902SOL     OW65731   4.078   3.372   6.915
21902SOL    HW165732   4.057   3.328   6.828
21902SOL    HW265733   4.175   3.398   6.918
21903SOL     OW65734   4.126   2.613   7.184
21903SOL    HW165735   4.194   2.668   7.137
21903SOL    HW265736   4.166   2.525   7.211
21904SOL     OW65737   5.311   2.641   7.256
21904SOL    HW165738   5.219   2.679   7.251
21904SOL    HW265739   5.371   2.688   7.191
21905SOL     OW65740   4.737   1.967   7.356
21905SOL    HW165741   4.743   2.052   7.304
21905SOL    HW265742   4.769   1.891   7.299
21906SOL     OW65743   4.228   1.912   7.326
21906SOL    HW165744   4.186   1.855   7.256
21906SOL    HW265745   4.162   1.981   7.358
21907SOL     OW65746   4.297   2.732   6.615
21907SOL    HW165747   4.341   2.821   6.606
21907SOL    HW265748   4.234   2.732   6.692
21908SOL     OW65749   5.084   2.724   6.631
21908SOL    HW165750   5.009   2.724   6.565
21908SOL    HW265751   5.121   2.632   6.640
21909SOL     OW65752   4.933   2.387   5.861
21909SOL    HW165753   4.946   2.303   5.915
21909SOL    HW265754   4.904   2.461   5.921
21910SOL     OW65755   4.031   2.075   6.817
21910SOL    HW165756   4.008   2.112   6.907
21910SOL    HW265757   4.001   1.980   6.811
21911SOL     OW65758   3.761   3.172   6.868
21911SOL    HW165759   3.814   3.123   6.936
21911SOL    HW265760   3.783   3.270   6.873
21912SOL     OW65761   4.456   2.496   6.650
21912SOL    HW165762   4.515   2.470   6.574
21912SOL    HW265763   4.428   2.592   6.639
21913SOL     OW65764   5.452   2.797   7.440
21913SOL    HW165765   5.406   2.790   7.351
21913SOL    HW265766   5.390   2.841   7.506
21914SOL     OW65767   4.031   1.925   6.204
21914SOL    HW165768   4.020   2.019   6.237
21914SOL    HW265769   4.026   1.862   6.281
21915SOL     OW65770   5.346   2.229   5.960
21915SOL    HW165771   5.348   2.153   6.024
21915SOL    HW265772   5.298   2.306   6.000
21916SOL     OW65773   4.747   2.628   6.552
21916SOL    HW165774   4.762   2.649   6.648
21916SOL    HW265775   4.717   2.533   6.543
21917SOL     OW65776   4.704   3.435   7.286
21917SOL    HW165777   4.684   3.479   7.198
21917SOL    HW265778   4.743   3.344   7.270
21918SOL     OW65779   5.583   3.380   7.191
21918SOL    HW165780   5.597   3.407   7.096
21918SOL    HW265781   5.666   3.402   7.244
21919SOL     OW65782   4.074   2.760   7.390
21919SOL    HW165783   4.150   2.804   7.438
21919SOL    HW265784   4.109   2.713   7.308
21920SOL     OW65785   5.264   2.136   5.711
21920SOL    HW165786   5.203   2.061   5.734
21920SOL    HW265787   5.286   2.188   5.794
21921SOL     OW65788   5.027   2.700   5.628
21921SOL    HW165789   5.061   2.607   5.643
21921SOL    HW265790   5.045   2.727   5.533
21922SOL     OW65791   4.792   3.195   6.435
21922SOL    HW165792   4.799   3.111   6.380
21922SOL    HW265793   4.854   3.264   6.399
21923SOL     OW65794   4.043   2.672   6.535
21923SOL    HW165795   4.136   2.708   6.540
21923SOL    HW265796   4.037   2.587   6.587
21924SOL     OW65797   4.063   2.371   6.592
21924SOL    HW165798   4.011   2.288   6.575
21924SOL    HW265799   4.140   2.376   6.528
21925SOL     OW65800   4.862   2.242   7.264
21925SOL    HW165801   4.817   2.305   7.328
21925SOL    HW265802   4.955   2.273   7.247
21926SOL     OW65803   4.884   2.069   7.063
21926SOL    HW165804   4.884   2.133   7.140
21926SOL    HW265805   4.912   2.117   6.980
21927SOL     OW65806   3.732   3.188   5.786
21927SOL    HW165807   3.639   3.209   5.755
21927SOL    HW265808   3.742   3.089   5.799
21928SOL     OW65809   3.812   3.663   6.513
21928SOL    HW165810   3.770   3.577   6.486
21928SOL    HW265811   3.906   3.666   6.479
21929SOL     OW65812   4.228   3.430   6.496
21929SOL    HW165813   4.294   3.504   6.505
21929SOL    HW265814   4.272   3.351   6.454
21930SOL     OW65815   4.726   2.658   6.824
21930SOL    HW165816   4.767   2.626   6.910
21930SOL    HW265817   4.630   2.631   6.821
21931SOL     OW65818   3.764   2.406   6.700
21931SOL    HW165819   3.849   2.373   6.659
21931SOL    HW265820   3.777   2.421   6.798
21932SOL     OW65821   3.913   2.382   7.308
21932SOL    HW165822   3.972   2.342   7.238
21932SOL    HW265823   3.855   2.453   7.267
21933SOL     OW65824   5.093   2.812   7.246
21933SOL    HW165825   5.132   2.901   7.266
21933SOL    HW265826   5.103   2.792   7.149
21934SOL     OW65827   4.539   2.434   5.911
21934SOL    HW165828   4.546   2.345   5.865
21934SOL    HW265829   4.445   2.468   5.903
21935SOL     OW65830   5.381   2.466   6.792
21935SOL    HW165831   5.343   2.397   6.854
21935SOL    HW265832   5.463   2.430   6.748
21936SOL     OW65833   3.976   3.426   7.330
21936SOL    HW165834   3.946   3.483   7.406
21936SOL    HW265835   3.969   3.329   7.356
21937SOL     OW65836   4.395   2.326   6.855
21937SOL    HW165837   4.361   2.237   6.825
21937SOL    HW265838   4.421   2.380   6.775
21938SOL     OW65839   4.654   3.540   7.051
21938SOL    HW165840   4.630   3.522   6.956
21938SOL    HW265841   4.684   3.634   7.061
21939SOL     OW65842   4.197   2.362   5.777
21939SOL    HW165843   4.258   2.442   5.781
21939SOL    HW265844   4.102   2.393   5.784
21940SOL     OW65845   3.883   2.999   7.052
21940SOL    HW165846   3.905   2.938   7.128
21940SOL    HW265847   3.893   2.950   6.966
21941SOL     OW65848   5.071   2.921   6.820
21941SOL    HW165849   5.095   2.858   6.746
21941SOL    HW265850   4.981   2.961   6.802
21942SOL     OW65851   5.026   2.717   5.895
21942SOL    HW165852   4.940   2.686   5.937
21942SOL    HW265853   5.022   2.703   5.796
21943SOL     OW65854   5.483   3.609   6.740
21943SOL    HW165855   5.544   3.639   6.667
21943SOL    HW265856   5.445   3.520   6.718
21944SOL     OW65857   4.976   3.593   6.714
21944SOL    HW165858   5.060   3.598   6.660
21944SOL    HW265859   4.953   3.497   6.732
21945SOL     OW65860   3.807   3.120   6.608
21945SOL    HW165861   3.802   3.119   6.708
21945SOL    HW265862   3.724   3.079   6.570
21946SOL     OW65863   4.412   3.524   7.302
21946SOL    HW165864   4.356   3.605   7.311
21946SOL    HW265865   4.464   3.528   7.216
21947SOL     OW65866   5.450   1.997   6.109
21947SOL    HW165867   5.523   1.980   6.042
21947SOL    HW265868   5.419   1.910   6.147
21948SOL     OW65869   5.112   3.435   6.063
21948SOL    HW165870   5.179   3.447   5.989
21948SOL    HW265871   5.072   3.524   6.086
21949SOL     OW65872   3.854   3.656   7.437
21949SOL    HW165873   3.813   3.582   7.490
21949SOL    HW265874   3.918   3.707   7.495
21950SOL     OW65875   5.004   2.789   6.258
21950SOL    HW165876   5.064   2.708   6.260
21950SOL    HW265877   5.044   2.858   6.198
21951SOL     OW65878   4.554   3.135   7.008
21951SOL    HW165879   4.549   3.168   7.103
21951SOL    HW265880   4.468   3.154   6.962
21952SOL     OW65881   4.396   3.478   5.740
21952SOL    HW165882   4.405   3.488   5.641
21952SOL    HW265883   4.356   3.389   5.761
21953SOL     OW65884   5.374   3.582   6.980
21953SOL    HW165885   5.427   3.592   6.896
21953SOL    HW265886   5.347   3.672   7.014
21954SOL     OW65887   5.565   2.037   6.549
21954SOL    HW165888   5.604   1.952   6.513
21954SOL    HW265889   5.467   2.039   6.530
21955SOL     OW65890   3.987   2.188   6.306
21955SOL    HW165891   3.908   2.239   6.272
21955SOL    HW265892   3.978   2.173   6.404
21956SOL     OW65893   4.918   3.474   5.617
21956SOL    HW165894   4.924   3.381   5.654
21956SOL    HW265895   4.859   3.474   5.537
21957SOL     OW65896   4.546   2.864   6.958
21957SOL    HW165897   4.586   2.863   6.866
21957SOL    HW265898   4.556   2.956   6.998
21958SOL     OW65899   4.640   2.772   5.877
21958SOL    HW165900   4.703   2.810   5.809
21958SOL    HW265901   4.680   2.689   5.916
21959SOL     OW65902   5.228   3.469   5.630
21959SOL    HW165903   5.136   3.506   5.637
21959SOL    HW265904   5.266   3.489   5.540
21960SOL     OW65905   4.096   3.150   7.076
21960SOL    HW165906   4.083   3.243   7.042
21960SOL    HW265907   4.012   3.098   7.063
21961SOL     OW65908   5.338   3.154   6.875
21961SOL    HW165909   5.398   3.157   6.955
21961SOL    HW265910   5.263   3.218   6.888
21962SOL     OW65911   4.763   2.960   6.282
21962SOL    HW165912   4.693   2.913   6.336
21962SOL    HW265913   4.822   2.892   6.239
21963SOL     OW65914   4.738   2.098   6.557
21963SOL    HW165915   4.730   2.062   6.464
21963SOL    HW265916   4.736   2.022   6.622
21964SOL     OW65917   4.314   3.349   6.077
21964SOL    HW165918   4.356   3.291   6.007
21964SOL    HW265919   4.270   3.428   6.033
21965SOL     OW65920   5.433   2.247   6.967
21965SOL    HW165921   5.506   2.316   6.971
21965SOL    HW265922   5.461   2.172   6.908
21966SOL     OW65923   3.979   3.210   5.876
21966SOL    HW165924   3.883   3.211   5.849
21966SOL    HW265925   3.991   3.263   5.960
21967SOL     OW65926   3.829   2.875   7.312
21967SOL    HW165927   3.752   2.842   7.366
21967SOL    HW265928   3.914   2.845   7.354
21968SOL     OW65929   4.396   2.065   7.075
21968SOL    HW165930   4.486   2.049   7.035
21968SOL    HW265931   4.404   2.070   7.174
21969SOL     OW65932   3.799   2.207   5.619
21969SOL    HW165933   3.707   2.179   5.590
21969SOL    HW265934   3.830   2.284   5.563
21970SOL     OW65935   5.164   2.718   6.984
21970SOL    HW165936   5.107   2.770   6.921
21970SOL    HW265937   5.260   2.730   6.960
21971SOL     OW65938   3.796   2.028   5.904
21971SOL    HW165939   3.779   2.111   5.850
21971SOL    HW265940   3.886   1.991   5.882
21972SOL     OW65941   4.907   3.197   5.705
21972SOL    HW165942   4.808   3.186   5.707
21972SOL    HW265943   4.941   3.212   5.798
21973SOL     OW65944   4.337   2.704   7.017
21973SOL    HW165945   4.393   2.785   7.000
21973SOL    HW265946   4.396   2.624   7.020
21974SOL     OW65947   5.217   3.629   6.545
21974SOL    HW165948   5.250   3.693   6.476
21974SOL    HW265949   5.283   3.623   6.620
21975SOL     OW65950   4.440   2.427   7.294
21975SOL    HW165951   4.459   2.492   7.368
21975SOL    HW265952   4.500   2.347   7.303
21976SOL     OW65953   5.174   3.082   7.219
21976SOL    HW165954   5.165   3.072   7.318
21976SOL    HW265955   5.270   3.075   7.193
21977SOL     OW65956   4.114   3.603   7.146
21977SOL    HW165957   4.023   3.644   7.144
21977SOL    HW265958   4.107   3.509   7.178
21978SOL     OW65959   5.398   2.745   6.840
21978SOL    HW165960   5.371   2.656   6.803
21978SOL    HW265961   5.399   2.813   6.767
21979SOL     OW65962   4.949   2.187   6.035
21979SOL    HW165963   5.014   2.113   6.024
21979SOL    HW265964   4.969   2.237   6.119
21980SOL     OW65965   4.318   2.607   6.238
21980SOL    HW165966   4.368   2.692   6.219
21980SOL    HW265967   4.230   2.609   6.190
21981SOL     OW65968   5.501   2.204   7.228
21981SOL    HW165969   5.484   2.235   7.134
21981SOL    HW265970   5.417   2.167   7.266
21982SOL     OW65971   5.454   2.796   7.103
21982SOL    HW165972   5.492   2.887   7.118
21982SOL    HW265973   5.446   2.779   7.004
21983SOL     OW65974   4.583   3.236   5.602
21983SOL    HW165975   4.537   3.251   5.690
21983SOL    HW265976   4.627   3.321   5.572
21984SOL     OW65977   4.385   3.652   6.539
21984SOL    HW165978   4.339   3.740   6.526
21984SOL    HW265979   4.484   3.664   6.532
21985SOL     OW65980   4.583   2.818   6.447
21985SOL    HW165981   4.637   2.749   6.495
21985SOL    HW265982   4.551   2.887   6.513
21986SOL     OW65983   4.807   2.846   5.673
21986SOL    HW165984   4.784   2.899   5.591
21986SOL    HW265985   4.888   2.790   5.654
21987SOL     OW65986   5.585   3.431   6.437
21987SOL    HW165987   5.514   3.419   6.367
21987SOL    HW265988   5.586   3.352   6.497
21988SOL     OW65989   3.945   3.176   7.430
21988SOL    HW165990   3.880   3.103   7.409
21988SOL    HW265991   3.949   3.190   7.528
21989SOL     OW65992   3.803   3.102   6.239
21989SOL    HW165993   3.802   3.055   6.327
21989SOL    HW265994   3.885   3.074   6.188
21990SOL     OW65995   4.396   3.253   7.210
21990SOL    HW165996   4.318   3.203   7.248
21990SOL    HW265997   4.393   3.348   7.241
21991SOL     OW65998   5.548   2.054   6.813
21991SOL    HW165999   5.544   1.964   6.857
21991SOL    HW266000   5.551   2.043   6.714
21992SOL     OW66001   4.152   2.286   6.106
21992SOL    HW166002   4.182   2.214   6.044
21992SOL    HW266003   4.113   2.246   6.189
21993SOL     OW66004   5.429   3.349   6.690
21993SOL    HW166005   5.336   3.324   6.663
21993SOL    HW266006   5.455   3.299   6.772
21994SOL     OW66007   4.041   2.409   6.866
21994SOL    HW166008   4.079   2.350   6.938
21994SOL    HW266009   4.081   2.383   6.778
21995SOL     OW66010   4.536   3.448   6.273
21995SOL    HW166011   4.568   3.458   6.179
21995SOL    HW266012   4.457   3.386   6.275
21996SOL     OW66013   5.148   2.076   6.698
21996SOL    HW166014   5.200   2.011   6.753
21996SOL    HW266015   5.099   2.139   6.759
21997SOL     OW66016   4.725   1.896   6.740
21997SOL    HW166017   4.662   1.824   6.709
21997SOL    HW266018   4.818   1.860   6.740
21998SOL     OW66019   4.494   3.192   5.887
21998SOL    HW166020   4.448   3.105   5.904
21998SOL    HW266021   4.585   3.189   5.928
21999SOL     OW66022   4.342   3.429   6.870
21999SOL    HW166023   4.337   3.511   6.927
21999SOL    HW266024   4.431   3.426   6.825
22000SOL     OW66025   5.076   1.914   5.754
22000SOL    HW166026   5.111   1.873   5.670
22000SOL    HW266027   4.986   1.876   5.774
22001SOL     OW66028   5.024   2.315   6.277
22001SOL    HW166029   4.965   2.395   6.281
22001SOL    HW266030   5.039   2.280   6.370
22002SOL     OW66031   5.317   2.083   6.468
22002SOL    HW166032   5.233   2.082   6.522
22002SOL    HW266033   5.319   2.166   6.412
22003SOL     OW66034   3.763   2.939   5.886
22003SOL    HW166035   3.862   2.928   5.877
22003SOL    HW266036   3.723   2.853   5.918
22004SOL     OW66037   4.599   3.508   5.923
22004SOL    HW166038   4.522   3.473   5.869
22004SOL    HW266039   4.567   3.579   5.985
22005SOL     OW66040   3.954   2.490   7.561
22005SOL    HW166041   3.861   2.488   7.598
22005SOL    HW266042   3.955   2.451   7.469
22006SOL     OW66043   3.949   2.137   8.444
22006SOL    HW166044   3.984   2.120   8.536
22006SOL    HW266045   3.861   2.092   8.432
22007SOL     OW66046   3.743   2.230   8.095
22007SOL    HW166047   3.661   2.273   8.134
22007SOL    HW266048   3.715   2.157   8.032
22008SOL     OW66049   4.293   3.137   8.613
22008SOL    HW166050   4.200   3.130   8.576
22008SOL    HW266051   4.304   3.226   8.657
22009SOL     OW66052   5.279   3.373   8.151
22009SOL    HW166053   5.222   3.357   8.232
22009SOL    HW266054   5.220   3.383   8.071
22010SOL     OW66055   4.859   2.565   8.165
22010SOL    HW166056   4.916   2.643   8.140
22010SOL    HW266057   4.799   2.591   8.241
22011SOL     OW66058   5.479   2.469   7.679
22011SOL    HW166059   5.467   2.456   7.580
22011SOL    HW266060   5.449   2.388   7.728
22012SOL     OW66061   4.492   3.006   8.471
22012SOL    HW166062   4.414   3.023   8.531
22012SOL    HW266063   4.526   3.093   8.435
22013SOL     OW66064   4.574   2.660   9.271
22013SOL    HW166065   4.570   2.736   9.336
22013SOL    HW266066   4.596   2.696   9.180
22014SOL     OW66067   4.409   2.874   8.113
22014SOL    HW166068   4.478   2.858   8.183
22014SOL    HW266069   4.336   2.931   8.151
22015SOL     OW66070   4.410   3.023   9.251
22015SOL    HW166071   4.470   3.102   9.265
22015SOL    HW266072   4.324   3.054   9.210
22016SOL     OW66073   4.059   3.297   8.509
22016SOL    HW166074   3.981   3.266   8.456
22016SOL    HW266075   4.117   3.355   8.452
22017SOL     OW66076   5.184   3.367   8.787
22017SOL    HW166077   5.208   3.461   8.813
22017SOL    HW266078   5.168   3.313   8.869
22018SOL     OW66079   4.162   2.254   8.947
22018SOL    HW166080   4.244   2.198   8.956
22018SOL    HW266081   4.081   2.196   8.951
22019SOL     OW66082   5.327   2.309   8.185
22019SOL    HW166083   5.253   2.355   8.135
22019SOL    HW266084   5.378   2.377   8.238
22020SOL     OW66085   3.955   3.575   7.931
22020SOL    HW166086   3.989   3.652   7.985
22020SOL    HW266087   3.999   3.575   7.841
22021SOL     OW66088   4.851   3.203   9.138
22021SOL    HW166089   4.898   3.203   9.226
22021SOL    HW266090   4.803   3.116   9.127
22022SOL     OW66091   3.954   3.296   7.986
22022SOL    HW166092   3.928   3.392   7.986
22022SOL    HW266093   3.883   3.242   8.031
22023SOL     OW66094   3.964   2.953   8.334
22023SOL    HW166095   3.978   2.869   8.386
22023SOL    HW266096   3.909   3.017   8.389
22024SOL     OW66097   4.344   3.648   8.887
22024SOL    HW166098   4.252   3.631   8.922
22024SOL    HW266099   4.372   3.740   8.913
22025SOL     OW66100   4.330   2.826   7.571
22025SOL    HW166101   4.337   2.910   7.517
22025SOL    HW266102   4.376   2.839   7.659
22026SOL     OW66103   5.318   1.976   8.928
22026SOL    HW166104   5.300   2.043   8.856
22026SOL    HW266105   5.315   2.022   9.017
22027SOL     OW66106   3.846   2.505   8.011
22027SOL    HW166107   3.801   2.417   8.028
22027SOL    HW266108   3.845   2.559   8.095
22028SOL     OW66109   5.566   3.629   7.807
22028SOL    HW166110   5.620   3.600   7.887
22028SOL    HW266111   5.596   3.719   7.778
22029SOL     OW66112   3.751   3.458   7.565
22029SOL    HW166113   3.732   3.362   7.586
22029SOL    HW266114   3.718   3.516   7.640
22030SOL     OW66115   5.413   2.784   8.060
22030SOL    HW166116   5.508   2.755   8.068
22030SOL    HW266117   5.405   2.849   7.985
22031SOL     OW66118   5.365   2.970   7.880
22031SOL    HW166119   5.451   2.972   7.828
22031SOL    HW266120   5.379   3.017   7.968
22032SOL     OW66121   3.837   2.599   9.045
22032SOL    HW166122   3.925   2.586   9.090
22032SOL    HW266123   3.824   2.696   9.023
22033SOL     OW66124   4.337   3.227   8.174
22033SOL    HW166125   4.288   3.140   8.183
22033SOL    HW266126   4.314   3.270   8.087
22034SOL     OW66127   5.017   3.090   8.871
22034SOL    HW166128   5.054   3.017   8.813
22034SOL    HW266129   5.069   3.095   8.956
22035SOL     OW66130   4.533   1.866   7.950
22035SOL    HW166131   4.573   1.957   7.941
22035SOL    HW266132   4.433   1.874   7.956
22036SOL     OW66133   3.921   2.838   8.712
22036SOL    HW166134   4.010   2.793   8.698
22036SOL    HW266135   3.848   2.773   8.693
22037SOL     OW66136   5.249   2.861   7.638
22037SOL    HW166137   5.186   2.785   7.651
22037SOL    HW266138   5.297   2.879   7.724
22038SOL     OW66139   4.911   3.654   9.064
22038SOL    HW166140   4.935   3.714   8.988
22038SOL    HW266141   4.918   3.559   9.034
22039SOL     OW66142   4.041   2.113   9.249
22039SOL    HW166143   4.112   2.184   9.255
22039SOL    HW266144   3.953   2.152   9.277
22040SOL     OW66145   5.190   3.279   8.401
22040SOL    HW166146   5.131   3.285   8.481
22040SOL    HW266147   5.175   3.191   8.355
22041SOL     OW66148   5.391   3.576   8.020
22041SOL    HW166149   5.350   3.553   7.932
22041SOL    HW266150   5.373   3.502   8.085
22042SOL     OW66151   4.322   2.591   7.718
22042SOL    HW166152   4.346   2.660   7.650
22042SOL    HW266153   4.244   2.624   7.772
22043SOL     OW66154   5.005   2.207   8.392
22043SOL    HW166155   4.919   2.157   8.379
22043SOL    HW266156   5.067   2.153   8.448
22044SOL     OW66157   5.300   3.524   7.755
22044SOL    HW166158   5.389   3.570   7.758
22044SOL    HW266159   5.279   3.500   7.660
22045SOL     OW66160   4.531   2.467   8.913
22045SOL    HW166161   4.484   2.464   9.002
22045SOL    HW266162   4.480   2.412   8.847
22046SOL     OW66163   5.118   2.331   9.122
22046SOL    HW166164   5.098   2.374   9.210
22046SOL    HW266165   5.196   2.269   9.131
22047SOL     OW66166   4.697   2.752   9.020
22047SOL    HW166167   4.743   2.668   8.991
22047SOL    HW266168   4.641   2.786   8.945
22048SOL     OW66169   4.715   2.272   8.690
22048SOL    HW166170   4.638   2.306   8.744
22048SOL    HW266171   4.681   2.221   8.611
22049SOL     OW66172   4.765   2.563   7.877
22049SOL    HW166173   4.791   2.559   7.973
22049SOL    HW266174   4.680   2.512   7.863
22050SOL     OW66175   3.800   2.673   8.237
22050SOL    HW166176   3.899   2.661   8.246
22050SOL    HW266177   3.776   2.768   8.258
22051SOL     OW66178   3.854   3.683   9.019
22051SOL    HW166179   3.844   3.668   9.118
22051SOL    HW266180   3.768   3.719   8.983
22052SOL     OW66181   4.589   2.210   7.643
22052SOL    HW166182   4.648   2.273   7.594
22052SOL    HW266183   4.608   2.116   7.614
22053SOL     OW66184   5.443   2.447   9.279
22053SOL    HW166185   5.417   2.536   9.243
22053SOL    HW266186   5.441   2.379   9.206
22054SOL     OW66187   5.086   3.006   7.993
22054SOL    HW166188   5.169   2.977   7.945
22054SOL    HW266189   5.037   3.073   7.937
22055SOL     OW66190   4.274   2.058   8.333
22055SOL    HW166191   4.269   2.053   8.433
22055SOL    HW266192   4.276   2.154   8.304
22056SOL     OW66193   4.732   3.318   7.925
22056SOL    HW166194   4.686   3.390   7.873
22056SOL    HW266195   4.728   3.338   8.023
22057SOL     OW66196   4.075   3.663   8.301
22057SOL    HW166197   4.125   3.577   8.307
22057SOL    HW266198   4.140   3.740   8.298
22058SOL     OW66199   5.519   2.928   8.321
22058SOL    HW166200   5.457   2.913   8.245
22058SOL    HW266201   5.467   2.939   8.406
22059SOL     OW66202   4.951   3.412   8.954
22059SOL    HW166203   4.957   3.335   9.018
22059SOL    HW266204   4.899   3.386   8.874
22060SOL     OW66205   4.045   2.805   7.690
22060SOL    HW166206   4.127   2.844   7.648
22060SOL    HW266207   4.018   2.723   7.641
22061SOL     OW66208   5.182   2.597   8.176
22061SOL    HW166209   5.177   2.532   8.251
22061SOL    HW266210   5.262   2.656   8.189
22062SOL     OW66211   4.185   3.128   9.175
22062SOL    HW166212   4.135   3.129   9.089
22062SOL    HW266213   4.122   3.110   9.251
22063SOL     OW66214   4.835   3.638   7.685
22063SOL    HW166215   4.775   3.576   7.735
22063SOL    HW266216   4.866   3.594   7.600
22064SOL     OW66217   3.926   2.147   8.946
22064SOL    HW166218   3.846   2.207   8.933
22064SOL    HW266219   3.916   2.098   9.032
22065SOL     OW66220   5.356   3.239   7.529
22065SOL    HW166221   5.324   3.333   7.519
22065SOL    HW266222   5.280   3.176   7.517
22066SOL     OW66223   4.188   3.605   7.771
22066SOL    HW166224   4.221   3.644   7.857
22066SOL    HW266225   4.264   3.598   7.706
22067SOL     OW66226   5.124   1.969   7.874
22067SOL    HW166227   5.100   1.932   7.784
22067SOL    HW266228   5.223   1.985   7.878
22068SOL     OW66229   3.973   3.647   8.689
22068SOL    HW166230   4.030   3.582   8.739
22068SOL    HW266231   3.957   3.614   8.596
22069SOL     OW66232   4.664   3.560   8.352
22069SOL    HW166233   4.744   3.503   8.373
22069SOL    HW266234   4.615   3.520   8.275
22070SOL     OW66235   4.106   2.562   7.928
22070SOL    HW166236   4.151   2.472   7.925
22070SOL    HW266237   4.012   2.551   7.961
22071SOL     OW66238   5.271   2.084   9.177
22071SOL    HW166239   5.266   2.121   9.269
22071SOL    HW266240   5.199   2.015   9.165
22072SOL     OW66241   4.338   1.984   7.565
22072SOL    HW166242   4.436   1.962   7.572
22072SOL    HW266243   4.307   1.967   7.472
22073SOL     OW66244   4.505   2.126   9.197
22073SOL    HW166245   4.572   2.065   9.240
22073SOL    HW266246   4.432   2.145   9.262
22074SOL     OW66247   4.612   3.376   8.643
22074SOL    HW166248   4.589   3.351   8.549
22074SOL    HW266249   4.673   3.307   8.682
22075SOL     OW66250   5.075   2.452   8.881
22075SOL    HW166251   5.103   2.409   8.966
22075SOL    HW266252   5.100   2.548   8.882
22076SOL     OW66253   4.527   3.264   8.372
22076SOL    HW166254   4.617   3.278   8.330
22076SOL    HW266255   4.456   3.266   8.301
22077SOL     OW66256   4.646   2.365   8.347
22077SOL    HW166257   4.621   2.356   8.251
22077SOL    HW266258   4.694   2.283   8.378
22078SOL     OW66259   4.263   1.926   7.960
22078SOL    HW166260   4.182   1.927   8.018
22078SOL    HW266261   4.266   2.009   7.905
22079SOL     OW66262   5.158   3.050   7.489
22079SOL    HW166263   5.190   2.974   7.546
22079SOL    HW266264   5.066   3.077   7.519
22080SOL     OW66265   4.021   1.897   7.619
22080SOL    HW166266   4.070   1.981   7.598
22080SOL    HW266267   4.083   1.832   7.664
22081SOL     OW66268   4.659   2.098   7.928
22081SOL    HW166269   4.611   2.139   7.850
22081SOL    HW266270   4.758   2.096   7.909
22082SOL     OW66271   4.800   2.545   8.912
22082SOL    HW166272   4.720   2.484   8.915
22082SOL    HW266273   4.881   2.492   8.888
22083SOL     OW66274   4.951   3.432   8.241
22083SOL    HW166275   4.972   3.506   8.176
22083SOL    HW266276   5.019   3.432   8.314
22084SOL     OW66277   4.183   3.014   8.189
22084SOL    HW166278   4.112   2.987   8.254
22084SOL    HW266279   4.157   2.986   8.096
22085SOL     OW66280   4.995   3.659   8.039
22085SOL    HW166281   5.039   3.723   7.975
22085SOL    HW266282   4.945   3.711   8.109
22086SOL     OW66283   4.756   2.411   7.464
22086SOL    HW166284   4.715   2.493   7.425
22086SOL    HW266285   4.820   2.437   7.537
22087SOL     OW66286   3.802   2.418   8.834
22087SOL    HW166287   3.894   2.417   8.793
22087SOL    HW266288   3.796   2.492   8.901
22088SOL     OW66289   4.285   2.084   8.595
22088SOL    HW166290   4.323   2.000   8.632
22088SOL    HW266291   4.197   2.103   8.639
22089SOL     OW66292   4.590   2.316   8.090
22089SOL    HW166293   4.558   2.388   8.028
22089SOL    HW266294   4.614   2.235   8.037
22090SOL     OW66295   4.741   1.901   8.201
22090SOL    HW166296   4.669   1.906   8.132
22090SOL    HW266297   4.717   1.832   8.270
22091SOL     OW66298   5.153   3.035   8.315
22091SOL    HW166299   5.098   2.951   8.308
22091SOL    HW266300   5.179   3.064   8.223
22092SOL     OW66301   5.190   2.452   8.440
22092SOL    HW166302   5.160   2.357   8.447
22092SOL    HW266303   5.263   2.468   8.506
22093SOL     OW66304   5.581   2.695   7.825
22093SOL    HW166305   5.623   2.631   7.889
22093SOL    HW266306   5.543   2.644   7.747
22094SOL     OW66307   4.212   3.247   7.622
22094SOL    HW166308   4.125   3.232   7.669
22094SOL    HW266309   4.195   3.273   7.527
22095SOL     OW66310   5.388   3.142   8.105
22095SOL    HW166311   5.487   3.150   8.119
22095SOL    HW266312   5.343   3.226   8.136
22096SOL     OW66313   5.114   2.437   7.526
22096SOL    HW166314   5.060   2.416   7.607
22096SOL    HW266315   5.205   2.396   7.535
22097SOL     OW66316   4.251   2.118   7.776
22097SOL    HW166317   4.278   2.059   7.701
22097SOL    HW266318   4.251   2.213   7.745
22098SOL     OW66319   5.478   3.085   9.036
22098SOL    HW166320   5.569   3.046   9.023
22098SOL    HW266321   5.486   3.181   9.060
22099SOL     OW66322   4.788   3.209   8.788
22099SOL    HW166323   4.708   3.186   8.843
22099SOL    HW266324   4.871   3.183   8.837
22100SOL     OW66325   5.316   3.491   9.073
22100SOL    HW166326   5.343   3.525   8.983
22100SOL    HW266327   5.395   3.453   9.119
22101SOL     OW66328   4.835   3.057   8.548
22101SOL    HW166329   4.795   3.101   8.629
22101SOL    HW266330   4.794   3.094   8.465
22102SOL     OW66331   5.362   2.961   8.527
22102SOL    HW166332   5.367   3.042   8.586
22102SOL    HW266333   5.276   2.963   8.476
22103SOL     OW66334   4.639   1.951   8.850
22103SOL    HW166335   4.664   1.931   8.755
22103SOL    HW266336   4.711   2.007   8.892
22104SOL     OW66337   4.704   2.978   9.167
22104SOL    HW166338   4.605   2.984   9.177
22104SOL    HW266339   4.727   2.898   9.111
22105SOL     OW66340   4.429   2.912   7.816
22105SOL    HW166341   4.415   2.919   7.915
22105SOL    HW266342   4.513   2.861   7.798
22106SOL     OW66343   4.134   2.675   8.699
22106SOL    HW166344   4.220   2.687   8.749
22106SOL    HW266345   4.092   2.588   8.726
22107SOL     OW66346   4.998   2.248   8.710
22107SOL    HW166347   5.019   2.322   8.774
22107SOL    HW266348   4.909   2.265   8.667
22108SOL     OW66349   3.788   3.426   8.779
22108SOL    HW166350   3.742   3.508   8.745
22108SOL    HW266351   3.886   3.445   8.788
22109SOL     OW66352   4.091   2.962   7.949
22109SOL    HW166353   4.084   3.045   7.893
22109SOL    HW266354   4.095   2.882   7.889
22110SOL     OW66355   4.290   2.399   8.313
22110SOL    HW166356   4.302   2.465   8.239
22110SOL    HW266357   4.336   2.433   8.396
22111SOL     OW66358   4.976   3.210   7.836
22111SOL    HW166359   5.026   3.287   7.876
22111SOL    HW266360   4.881   3.212   7.868
22112SOL     OW66361   4.996   3.307   8.590
22112SOL    HW166362   5.043   3.320   8.677
22112SOL    HW266363   4.930   3.233   8.599
22113SOL     OW66364   5.306   2.501   7.920
22113SOL    HW166365   5.275   2.562   7.993
22113SOL    HW266366   5.356   2.553   7.851
22114SOL     OW66367   4.078   3.372   8.777
22114SOL    HW166368   4.057   3.328   8.690
22114SOL    HW266369   4.175   3.398   8.780
22115SOL     OW66370   4.126   2.613   9.046
22115SOL    HW166371   4.194   2.668   8.999
22115SOL    HW266372   4.166   2.525   9.073
22116SOL     OW66373   5.311   2.641   9.118
22116SOL    HW166374   5.219   2.679   9.113
22116SOL    HW266375   5.371   2.688   9.053
22117SOL     OW66376   4.737   1.967   9.218
22117SOL    HW166377   4.743   2.052   9.166
22117SOL    HW266378   4.769   1.891   9.161
22118SOL     OW66379   4.228   1.912   9.188
22118SOL    HW166380   4.186   1.855   9.118
22118SOL    HW266381   4.162   1.981   9.220
22119SOL     OW66382   4.297   2.732   8.477
22119SOL    HW166383   4.341   2.821   8.468
22119SOL    HW266384   4.234   2.732   8.554
22120SOL     OW66385   5.084   2.724   8.493
22120SOL    HW166386   5.009   2.724   8.427
22120SOL    HW266387   5.121   2.632   8.502
22121SOL     OW66388   4.933   2.387   7.723
22121SOL    HW166389   4.946   2.303   7.777
22121SOL    HW266390   4.904   2.461   7.783
22122SOL     OW66391   4.031   2.075   8.679
22122SOL    HW166392   4.008   2.112   8.769
22122SOL    HW266393   4.001   1.980   8.673
22123SOL     OW66394   3.761   3.172   8.730
22123SOL    HW166395   3.814   3.123   8.798
22123SOL    HW266396   3.783   3.270   8.735
22124SOL     OW66397   4.456   2.496   8.512
22124SOL    HW166398   4.515   2.470   8.436
22124SOL    HW266399   4.428   2.592   8.501
22125SOL     OW66400   5.452   2.797   9.302
22125SOL    HW166401   5.406   2.790   9.213
22125SOL    HW266402   5.390   2.841   9.368
22126SOL     OW66403   4.031   1.925   8.066
22126SOL    HW166404   4.020   2.019   8.099
22126SOL    HW266405   4.026   1.862   8.143
22127SOL     OW66406   5.346   2.229   7.822
22127SOL    HW166407   5.348   2.153   7.886
22127SOL    HW266408   5.298   2.306   7.862
22128SOL     OW66409   4.747   2.628   8.414
22128SOL    HW166410   4.762   2.649   8.510
22128SOL    HW266411   4.717   2.533   8.405
22129SOL     OW66412   4.704   3.435   9.148
22129SOL    HW166413   4.684   3.479   9.060
22129SOL    HW266414   4.743   3.344   9.132
22130SOL     OW66415   5.583   3.380   9.053
22130SOL    HW166416   5.597   3.407   8.958
22130SOL    HW266417   5.666   3.402   9.106
22131SOL     OW66418   4.074   2.760   9.252
22131SOL    HW166419   4.150   2.804   9.300
22131SOL    HW266420   4.109   2.713   9.170
22132SOL     OW66421   5.264   2.136   7.573
22132SOL    HW166422   5.203   2.061   7.596
22132SOL    HW266423   5.286   2.188   7.656
22133SOL     OW66424   5.027   2.700   7.490
22133SOL    HW166425   5.061   2.607   7.505
22133SOL    HW266426   5.045   2.727   7.395
22134SOL     OW66427   4.792   3.195   8.297
22134SOL    HW166428   4.799   3.111   8.242
22134SOL    HW266429   4.854   3.264   8.261
22135SOL     OW66430   4.043   2.672   8.397
22135SOL    HW166431   4.136   2.708   8.402
22135SOL    HW266432   4.037   2.587   8.449
22136SOL     OW66433   4.063   2.371   8.454
22136SOL    HW166434   4.011   2.288   8.437
22136SOL    HW266435   4.140   2.376   8.390
22137SOL     OW66436   4.862   2.242   9.126
22137SOL    HW166437   4.817   2.305   9.190
22137SOL    HW266438   4.955   2.273   9.109
22138SOL     OW66439   4.884   2.069   8.925
22138SOL    HW166440   4.884   2.133   9.002
22138SOL    HW266441   4.912   2.117   8.842
22139SOL     OW66442   3.732   3.188   7.648
22139SOL    HW166443   3.639   3.209   7.617
22139SOL    HW266444   3.742   3.089   7.661
22140SOL     OW66445   3.812   3.663   8.375
22140SOL    HW166446   3.770   3.577   8.348
22140SOL    HW266447   3.906   3.666   8.341
22141SOL     OW66448   4.228   3.430   8.358
22141SOL    HW166449   4.294   3.504   8.367
22141SOL    HW266450   4.272   3.351   8.316
22142SOL     OW66451   4.726   2.658   8.686
22142SOL    HW166452   4.767   2.626   8.772
22142SOL    HW266453   4.630   2.631   8.683
22143SOL     OW66454   3.913   2.382   9.170
22143SOL    HW166455   3.972   2.342   9.100
22143SOL    HW266456   3.855   2.453   9.129
22144SOL     OW66457   5.093   2.812   9.108
22144SOL    HW166458   5.132   2.901   9.128
22144SOL    HW266459   5.103   2.792   9.011
22145SOL     OW66460   4.539   2.434   7.773
22145SOL    HW166461   4.546   2.345   7.727
22145SOL    HW266462   4.445   2.468   7.765
22146SOL     OW66463   5.381   2.466   8.654
22146SOL    HW166464   5.343   2.397   8.716
22146SOL    HW266465   5.463   2.430   8.610
22147SOL     OW66466   3.976   3.426   9.192
22147SOL    HW166467   3.946   3.483   9.268
22147SOL    HW266468   3.969   3.329   9.218
22148SOL     OW66469   4.395   2.326   8.717
22148SOL    HW166470   4.361   2.237   8.687
22148SOL    HW266471   4.421   2.380   8.637
22149SOL     OW66472   4.654   3.540   8.913
22149SOL    HW166473   4.630   3.522   8.818
22149SOL    HW266474   4.684   3.634   8.923
22150SOL     OW66475   4.197   2.362   7.639
22150SOL    HW166476   4.258   2.442   7.643
22150SOL    HW266477   4.102   2.393   7.646
22151SOL     OW66478   3.883   2.999   8.914
22151SOL    HW166479   3.905   2.938   8.990
22151SOL    HW266480   3.893   2.950   8.828
22152SOL     OW66481   5.071   2.921   8.682
22152SOL    HW166482   5.095   2.858   8.608
22152SOL    HW266483   4.981   2.961   8.664
22153SOL     OW66484   5.026   2.717   7.757
22153SOL    HW166485   4.940   2.686   7.799
22153SOL    HW266486   5.022   2.703   7.658
22154SOL     OW66487   5.483   3.609   8.602
22154SOL    HW166488   5.544   3.639   8.529
22154SOL    HW266489   5.445   3.520   8.580
22155SOL     OW66490   4.976   3.593   8.576
22155SOL    HW166491   5.060   3.598   8.522
22155SOL    HW266492   4.953   3.497   8.594
22156SOL     OW66493   3.807   3.120   8.470
22156SOL    HW166494   3.802   3.119   8.570
22156SOL    HW266495   3.724   3.079   8.432
22157SOL     OW66496   4.412   3.524   9.164
22157SOL    HW166497   4.356   3.605   9.173
22157SOL    HW266498   4.464   3.528   9.078
22158SOL     OW66499   5.450   1.997   7.971
22158SOL    HW166500   5.523   1.980   7.904
22158SOL    HW266501   5.419   1.910   8.009
22159SOL     OW66502   5.112   3.435   7.925
22159SOL    HW166503   5.179   3.447   7.851
22159SOL    HW266504   5.072   3.524   7.948
22160SOL     OW66505   3.854   3.656   9.299
22160SOL    HW166506   3.813   3.582   9.352
22160SOL    HW266507   3.918   3.707   9.357
22161SOL     OW66508   5.004   2.789   8.120
22161SOL    HW166509   5.064   2.708   8.122
22161SOL    HW266510   5.044   2.858   8.060
22162SOL     OW66511   4.554   3.135   8.870
22162SOL    HW166512   4.549   3.168   8.965
22162SOL    HW266513   4.468   3.154   8.824
22163SOL     OW66514   4.396   3.478   7.602
22163SOL    HW166515   4.405   3.488   7.503
22163SOL    HW266516   4.356   3.389   7.623
22164SOL     OW66517   5.374   3.582   8.842
22164SOL    HW166518   5.427   3.592   8.758
22164SOL    HW266519   5.347   3.672   8.876
22165SOL     OW66520   5.565   2.037   8.411
22165SOL    HW166521   5.604   1.952   8.375
22165SOL    HW266522   5.467   2.039   8.392
22166SOL     OW66523   3.987   2.188   8.168
22166SOL    HW166524   3.908   2.239   8.134
22166SOL    HW266525   3.978   2.173   8.266
22167SOL     OW66526   4.918   3.474   7.479
22167SOL    HW166527   4.924   3.381   7.516
22167SOL    HW266528   4.859   3.474   7.399
22168SOL     OW66529   4.546   2.864   8.820
22168SOL    HW166530   4.586   2.863   8.728
22168SOL    HW266531   4.556   2.956   8.860
22169SOL     OW66532   4.640   2.772   7.739
22169SOL    HW166533   4.703   2.810   7.671
22169SOL    HW266534   4.680   2.689   7.778
22170SOL     OW66535   5.228   3.469   7.492
22170SOL    HW166536   5.136   3.506   7.499
22170SOL    HW266537   5.266   3.489   7.402
22171SOL     OW66538   4.096   3.150   8.938
22171SOL    HW166539   4.083   3.243   8.904
22171SOL    HW266540   4.012   3.098   8.925
22172SOL     OW66541   5.338   3.154   8.737
22172SOL    HW166542   5.398   3.157   8.817
22172SOL    HW266543   5.263   3.218   8.750
22173SOL     OW66544   4.763   2.960   8.144
22173SOL    HW166545   4.693   2.913   8.198
22173SOL    HW266546   4.822   2.892   8.101
22174SOL     OW66547   4.738   2.098   8.419
22174SOL    HW166548   4.730   2.062   8.326
22174SOL    HW266549   4.736   2.022   8.484
22175SOL     OW66550   4.314   3.349   7.939
22175SOL    HW166551   4.356   3.291   7.869
22175SOL    HW266552   4.270   3.428   7.895
22176SOL     OW66553   5.433   2.247   8.829
22176SOL    HW166554   5.506   2.316   8.833
22176SOL    HW266555   5.461   2.172   8.770
22177SOL     OW66556   3.979   3.210   7.738
22177SOL    HW166557   3.883   3.211   7.711
22177SOL    HW266558   3.991   3.263   7.822
22178SOL     OW66559   3.829   2.875   9.174
22178SOL    HW166560   3.752   2.842   9.228
22178SOL    HW266561   3.914   2.845   9.216
22179SOL     OW66562   4.396   2.065   8.937
22179SOL    HW166563   4.486   2.049   8.897
22179SOL    HW266564   4.404   2.070   9.036
22180SOL     OW66565   3.799   2.207   7.481
22180SOL    HW166566   3.707   2.179   7.452
22180SOL    HW266567   3.830   2.284   7.425
22181SOL     OW66568   5.164   2.718   8.846
22181SOL    HW166569   5.107   2.770   8.783
22181SOL    HW266570   5.260   2.730   8.822
22182SOL     OW66571   3.796   2.028   7.766
22182SOL    HW166572   3.779   2.111   7.712
22182SOL    HW266573   3.886   1.991   7.744
22183SOL     OW66574   4.907   3.197   7.567
22183SOL    HW166575   4.808   3.186   7.569
22183SOL    HW266576   4.941   3.212   7.660
22184SOL     OW66577   4.337   2.704   8.879
22184SOL    HW166578   4.393   2.785   8.862
22184SOL    HW266579   4.396   2.624   8.882
22185SOL     OW66580   5.217   3.629   8.407
22185SOL    HW166581   5.250   3.693   8.338
22185SOL    HW266582   5.283   3.623   8.482
22186SOL     OW66583   4.440   2.427   9.156
22186SOL    HW166584   4.459   2.492   9.230
22186SOL    HW266585   4.500   2.347   9.165
22187SOL     OW66586   5.174   3.082   9.081
22187SOL    HW166587   5.165   3.072   9.180
22187SOL    HW266588   5.270   3.075   9.055
22188SOL     OW66589   4.114   3.603   9.008
22188SOL    HW166590   4.023   3.644   9.006
22188SOL    HW266591   4.107   3.509   9.040
22189SOL     OW66592   5.398   2.745   8.702
22189SOL    HW166593   5.371   2.656   8.665
22189SOL    HW266594   5.399   2.813   8.629
22190SOL     OW66595   4.949   2.187   7.897
22190SOL    HW166596   5.014   2.113   7.886
22190SOL    HW266597   4.969   2.237   7.981
22191SOL     OW66598   4.318   2.607   8.100
22191SOL    HW166599   4.368   2.692   8.081
22191SOL    HW266600   4.230   2.609   8.052
22192SOL     OW66601   5.501   2.204   9.090
22192SOL    HW166602   5.484   2.235   8.996
22192SOL    HW266603   5.417   2.167   9.128
22193SOL     OW66604   5.454   2.796   8.965
22193SOL    HW166605   5.492   2.887   8.980
22193SOL    HW266606   5.446   2.779   8.866
22194SOL     OW66607   4.583   3.236   7.464
22194SOL    HW166608   4.537   3.251   7.552
22194SOL    HW266609   4.627   3.321   7.434
22195SOL     OW66610   4.385   3.652   8.401
22195SOL    HW166611   4.339   3.740   8.388
22195SOL    HW266612   4.484   3.664   8.394
22196SOL     OW66613   4.583   2.818   8.309
22196SOL    HW166614   4.637   2.749   8.357
22196SOL    HW266615   4.551   2.887   8.375
22197SOL     OW66616   4.807   2.846   7.535
22197SOL    HW166617   4.784   2.899   7.453
22197SOL    HW266618   4.888   2.790   7.516
22198SOL     OW66619   5.585   3.431   8.299
22198SOL    HW166620   5.514   3.419   8.229
22198SOL    HW266621   5.586   3.352   8.359
22199SOL     OW66622   3.945   3.176   9.292
22199SOL    HW166623   3.880   3.103   9.271
22199SOL    HW266624   3.949   3.190   9.390
22200SOL     OW66625   3.803   3.102   8.101
22200SOL    HW166626   3.802   3.055   8.189
22200SOL    HW266627   3.885   3.074   8.050
22201SOL     OW66628   4.396   3.253   9.072
22201SOL    HW166629   4.318   3.203   9.110
22201SOL    HW266630   4.393   3.348   9.103
22202SOL     OW66631   5.548   2.054   8.675
22202SOL    HW166632   5.544   1.964   8.719
22202SOL    HW266633   5.551   2.043   8.576
22203SOL     OW66634   4.152   2.286   7.968
22203SOL    HW166635   4.182   2.214   7.906
22203SOL    HW266636   4.113   2.246   8.051
22204SOL     OW66637   5.429   3.349   8.552
22204SOL    HW166638   5.336   3.324   8.525
22204SOL    HW266639   5.455   3.299   8.634
22205SOL     OW66640   4.041   2.409   8.728
22205SOL    HW166641   4.079   2.350   8.800
22205SOL    HW266642   4.081   2.383   8.640
22206SOL     OW66643   4.536   3.448   8.135
22206SOL    HW166644   4.568   3.458   8.041
22206SOL    HW266645   4.457   3.386   8.137
22207SOL     OW66646   5.148   2.076   8.560
22207SOL    HW166647   5.200   2.011   8.615
22207SOL    HW266648   5.099   2.139   8.621
22208SOL     OW66649   4.725   1.896   8.602
22208SOL    HW166650   4.662   1.824   8.571
22208SOL    HW266651   4.818   1.860   8.602
22209SOL     OW66652   4.494   3.192   7.749
22209SOL    HW166653   4.448   3.105   7.766
22209SOL    HW266654   4.585   3.189   7.790
22210SOL     OW66655   4.342   3.429   8.732
22210SOL    HW166656   4.337   3.511   8.789
22210SOL    HW266657   4.431   3.426   8.687
22211SOL     OW66658   5.076   1.914   7.616
22211SOL    HW166659   5.111   1.873   7.532
22211SOL    HW266660   4.986   1.876   7.636
22212SOL     OW66661   5.024   2.315   8.139
22212SOL    HW166662   4.965   2.395   8.143
22212SOL    HW266663   5.039   2.280   8.232
22213SOL     OW66664   5.317   2.083   8.330
22213SOL    HW166665   5.233   2.082   8.384
22213SOL    HW266666   5.319   2.166   8.274
22214SOL     OW66667   3.763   2.939   7.748
22214SOL    HW166668   3.862   2.928   7.739
22214SOL    HW266669   3.723   2.853   7.780
22215SOL     OW66670   4.599   3.508   7.785
22215SOL    HW166671   4.522   3.473   7.731
22215SOL    HW266672   4.567   3.579   7.847
22216SOL     OW66673   3.954   2.490   9.423
22216SOL    HW166674   3.861   2.488   9.460
22216SOL    HW266675   3.955   2.451   9.331
22217SOL     OW66676   3.949   2.137  10.306
22217SOL    HW166677   3.984   2.120  10.398
22217SOL    HW266678   3.861   2.092  10.294
22218SOL     OW66679   3.743   2.230   9.957
22218SOL    HW166680   3.661   2.273   9.996
22218SOL    HW266681   3.715   2.157   9.894
22219SOL     OW66682   4.293   3.137  10.475
22219SOL    HW166683   4.200   3.130  10.438
22219SOL    HW266684   4.304   3.226  10.519
22220SOL     OW66685   5.279   3.373  10.013
22220SOL    HW166686   5.222   3.357  10.094
22220SOL    HW266687   5.220   3.383   9.933
22221SOL     OW66688   4.859   2.565  10.027
22221SOL    HW166689   4.916   2.643  10.002
22221SOL    HW266690   4.799   2.591  10.103
22222SOL     OW66691   5.479   2.469   9.541
22222SOL    HW166692   5.467   2.456   9.442
22222SOL    HW266693   5.449   2.388   9.590
22223SOL     OW66694   4.492   3.006  10.333
22223SOL    HW166695   4.414   3.023  10.393
22223SOL    HW266696   4.526   3.093  10.297
22224SOL     OW66697   4.574   2.660  11.133
22224SOL    HW166698   4.570   2.736  11.198
22224SOL    HW266699   4.596   2.696  11.042
22225SOL     OW66700   4.409   2.874   9.975
22225SOL    HW166701   4.478   2.858  10.045
22225SOL    HW266702   4.336   2.931  10.013
22226SOL     OW66703   4.410   3.023  11.113
22226SOL    HW166704   4.470   3.102  11.127
22226SOL    HW266705   4.324   3.054  11.072
22227SOL     OW66706   4.059   3.297  10.371
22227SOL    HW166707   3.981   3.266  10.318
22227SOL    HW266708   4.117   3.355  10.314
22228SOL     OW66709   5.184   3.367  10.649
22228SOL    HW166710   5.208   3.461  10.675
22228SOL    HW266711   5.168   3.313  10.731
22229SOL     OW66712   4.162   2.254  10.809
22229SOL    HW166713   4.244   2.198  10.818
22229SOL    HW266714   4.081   2.196  10.813
22230SOL     OW66715   5.327   2.309  10.047
22230SOL    HW166716   5.253   2.355   9.997
22230SOL    HW266717   5.378   2.377  10.100
22231SOL     OW66718   3.955   3.575   9.793
22231SOL    HW166719   3.989   3.652   9.847
22231SOL    HW266720   3.999   3.575   9.703
22232SOL     OW66721   4.851   3.203  11.000
22232SOL    HW166722   4.898   3.203  11.088
22232SOL    HW266723   4.803   3.116  10.989
22233SOL     OW66724   3.954   3.296   9.848
22233SOL    HW166725   3.928   3.392   9.848
22233SOL    HW266726   3.883   3.242   9.893
22234SOL     OW66727   3.964   2.953  10.196
22234SOL    HW166728   3.978   2.869  10.248
22234SOL    HW266729   3.909   3.017  10.251
22235SOL     OW66730   4.344   3.648  10.749
22235SOL    HW166731   4.252   3.631  10.784
22235SOL    HW266732   4.372   3.740  10.775
22236SOL     OW66733   4.330   2.826   9.433
22236SOL    HW166734   4.337   2.910   9.379
22236SOL    HW266735   4.376   2.839   9.521
22237SOL     OW66736   5.318   1.976  10.790
22237SOL    HW166737   5.300   2.043  10.718
22237SOL    HW266738   5.315   2.022  10.879
22238SOL     OW66739   3.846   2.505   9.873
22238SOL    HW166740   3.801   2.417   9.890
22238SOL    HW266741   3.845   2.559   9.957
22239SOL     OW66742   5.566   3.629   9.669
22239SOL    HW166743   5.620   3.600   9.749
22239SOL    HW266744   5.596   3.719   9.640
22240SOL     OW66745   3.751   3.458   9.427
22240SOL    HW166746   3.732   3.362   9.448
22240SOL    HW266747   3.718   3.516   9.502
22241SOL     OW66748   5.413   2.784   9.922
22241SOL    HW166749   5.508   2.755   9.930
22241SOL    HW266750   5.405   2.849   9.847
22242SOL     OW66751   5.365   2.970   9.742
22242SOL    HW166752   5.451   2.972   9.690
22242SOL    HW266753   5.379   3.017   9.830
22243SOL     OW66754   3.837   2.599  10.907
22243SOL    HW166755   3.925   2.586  10.952
22243SOL    HW266756   3.824   2.696  10.885
22244SOL     OW66757   4.337   3.227  10.036
22244SOL    HW166758   4.288   3.140  10.045
22244SOL    HW266759   4.314   3.270   9.949
22245SOL     OW66760   5.017   3.090  10.733
22245SOL    HW166761   5.054   3.017  10.675
22245SOL    HW266762   5.069   3.095  10.818
22246SOL     OW66763   4.533   1.866   9.812
22246SOL    HW166764   4.573   1.957   9.803
22246SOL    HW266765   4.433   1.874   9.818
22247SOL     OW66766   3.921   2.838  10.574
22247SOL    HW166767   4.010   2.793  10.560
22247SOL    HW266768   3.848   2.773  10.555
22248SOL     OW66769   5.249   2.861   9.500
22248SOL    HW166770   5.186   2.785   9.513
22248SOL    HW266771   5.297   2.879   9.586
22249SOL     OW66772   4.911   3.654  10.926
22249SOL    HW166773   4.935   3.714  10.850
22249SOL    HW266774   4.918   3.559  10.896
22250SOL     OW66775   4.041   2.113  11.111
22250SOL    HW166776   4.112   2.184  11.117
22250SOL    HW266777   3.953   2.152  11.139
22251SOL     OW66778   5.190   3.279  10.263
22251SOL    HW166779   5.131   3.285  10.343
22251SOL    HW266780   5.175   3.191  10.217
22252SOL     OW66781   5.391   3.576   9.882
22252SOL    HW166782   5.350   3.553   9.794
22252SOL    HW266783   5.373   3.502   9.947
22253SOL     OW66784   4.322   2.591   9.580
22253SOL    HW166785   4.346   2.660   9.512
22253SOL    HW266786   4.244   2.624   9.634
22254SOL     OW66787   5.005   2.207  10.254
22254SOL    HW166788   4.919   2.157  10.241
22254SOL    HW266789   5.067   2.153  10.310
22255SOL     OW66790   5.300   3.524   9.617
22255SOL    HW166791   5.389   3.570   9.620
22255SOL    HW266792   5.279   3.500   9.522
22256SOL     OW66793   4.531   2.467  10.775
22256SOL    HW166794   4.484   2.464  10.864
22256SOL    HW266795   4.480   2.412  10.709
22257SOL     OW66796   5.118   2.331  10.984
22257SOL    HW166797   5.098   2.374  11.072
22257SOL    HW266798   5.196   2.269  10.993
22258SOL     OW66799   4.697   2.752  10.882
22258SOL    HW166800   4.743   2.668  10.853
22258SOL    HW266801   4.641   2.786  10.807
22259SOL     OW66802   4.715   2.272  10.552
22259SOL    HW166803   4.638   2.306  10.606
22259SOL    HW266804   4.681   2.221  10.473
22260SOL     OW66805   4.765   2.563   9.739
22260SOL    HW166806   4.791   2.559   9.835
22260SOL    HW266807   4.680   2.512   9.725
22261SOL     OW66808   3.800   2.673  10.099
22261SOL    HW166809   3.899   2.661  10.108
22261SOL    HW266810   3.776   2.768  10.120
22262SOL     OW66811   3.854   3.683  10.881
22262SOL    HW166812   3.844   3.668  10.980
22262SOL    HW266813   3.768   3.719  10.845
22263SOL     OW66814   4.589   2.210   9.505
22263SOL    HW166815   4.648   2.273   9.456
22263SOL    HW266816   4.608   2.116   9.476
22264SOL     OW66817   5.443   2.447  11.141
22264SOL    HW166818   5.417   2.536  11.105
22264SOL    HW266819   5.441   2.379  11.068
22265SOL     OW66820   5.086   3.006   9.855
22265SOL    HW166821   5.169   2.977   9.807
22265SOL    HW266822   5.037   3.073   9.799
22266SOL     OW66823   4.732   3.318   9.787
22266SOL    HW166824   4.686   3.390   9.735
22266SOL    HW266825   4.728   3.338   9.885
22267SOL     OW66826   4.075   3.663  10.163
22267SOL    HW166827   4.125   3.577  10.169
22267SOL    HW266828   4.140   3.740  10.160
22268SOL     OW66829   5.519   2.928  10.183
22268SOL    HW166830   5.457   2.913  10.107
22268SOL    HW266831   5.467   2.939  10.268
22269SOL     OW66832   4.951   3.412  10.816
22269SOL    HW166833   4.957   3.335  10.880
22269SOL    HW266834   4.899   3.386  10.736
22270SOL     OW66835   4.045   2.805   9.552
22270SOL    HW166836   4.127   2.844   9.510
22270SOL    HW266837   4.018   2.723   9.503
22271SOL     OW66838   5.182   2.597  10.038
22271SOL    HW166839   5.177   2.532  10.113
22271SOL    HW266840   5.262   2.656  10.051
22272SOL     OW66841   4.185   3.128  11.037
22272SOL    HW166842   4.135   3.129  10.951
22272SOL    HW266843   4.122   3.110  11.113
22273SOL     OW66844   4.835   3.638   9.547
22273SOL    HW166845   4.775   3.576   9.597
22273SOL    HW266846   4.866   3.594   9.462
22274SOL     OW66847   3.926   2.147  10.808
22274SOL    HW166848   3.846   2.207  10.795
22274SOL    HW266849   3.916   2.098  10.894
22275SOL     OW66850   5.356   3.239   9.391
22275SOL    HW166851   5.324   3.333   9.381
22275SOL    HW266852   5.280   3.176   9.379
22276SOL     OW66853   4.188   3.605   9.633
22276SOL    HW166854   4.221   3.644   9.719
22276SOL    HW266855   4.264   3.598   9.568
22277SOL     OW66856   5.124   1.969   9.736
22277SOL    HW166857   5.100   1.932   9.646
22277SOL    HW266858   5.223   1.985   9.740
22278SOL     OW66859   3.973   3.647  10.551
22278SOL    HW166860   4.030   3.582  10.601
22278SOL    HW266861   3.957   3.614  10.458
22279SOL     OW66862   4.664   3.560  10.214
22279SOL    HW166863   4.744   3.503  10.235
22279SOL    HW266864   4.615   3.520  10.137
22280SOL     OW66865   4.106   2.562   9.790
22280SOL    HW166866   4.151   2.472   9.787
22280SOL    HW266867   4.012   2.551   9.823
22281SOL     OW66868   5.271   2.084  11.039
22281SOL    HW166869   5.266   2.121  11.131
22281SOL    HW266870   5.199   2.015  11.027
22282SOL     OW66871   4.338   1.984   9.427
22282SOL    HW166872   4.436   1.962   9.434
22282SOL    HW266873   4.307   1.967   9.334
22283SOL     OW66874   4.505   2.126  11.059
22283SOL    HW166875   4.572   2.065  11.102
22283SOL    HW266876   4.432   2.145  11.124
22284SOL     OW66877   4.612   3.376  10.505
22284SOL    HW166878   4.589   3.351  10.411
22284SOL    HW266879   4.673   3.307  10.544
22285SOL     OW66880   5.075   2.452  10.743
22285SOL    HW166881   5.103   2.409  10.828
22285SOL    HW266882   5.100   2.548  10.744
22286SOL     OW66883   4.527   3.264  10.234
22286SOL    HW166884   4.617   3.278  10.192
22286SOL    HW266885   4.456   3.266  10.163
22287SOL     OW66886   4.646   2.365  10.209
22287SOL    HW166887   4.621   2.356  10.113
22287SOL    HW266888   4.694   2.283  10.240
22288SOL     OW66889   4.263   1.926   9.822
22288SOL    HW166890   4.182   1.927   9.880
22288SOL    HW266891   4.266   2.009   9.767
22289SOL     OW66892   5.158   3.050   9.351
22289SOL    HW166893   5.190   2.974   9.408
22289SOL    HW266894   5.066   3.077   9.381
22290SOL     OW66895   4.021   1.897   9.481
22290SOL    HW166896   4.070   1.981   9.460
22290SOL    HW266897   4.083   1.832   9.526
22291SOL     OW66898   4.659   2.098   9.790
22291SOL    HW166899   4.611   2.139   9.712
22291SOL    HW266900   4.758   2.096   9.771
22292SOL     OW66901   4.800   2.545  10.774
22292SOL    HW166902   4.720   2.484  10.777
22292SOL    HW266903   4.881   2.492  10.750
22293SOL     OW66904   4.951   3.432  10.103
22293SOL    HW166905   4.972   3.506  10.038
22293SOL    HW266906   5.019   3.432  10.176
22294SOL     OW66907   4.183   3.014  10.051
22294SOL    HW166908   4.112   2.987  10.116
22294SOL    HW266909   4.157   2.986   9.958
22295SOL     OW66910   4.995   3.659   9.901
22295SOL    HW166911   5.039   3.723   9.837
22295SOL    HW266912   4.945   3.711   9.971
22296SOL     OW66913   4.756   2.411   9.326
22296SOL    HW166914   4.715   2.493   9.287
22296SOL    HW266915   4.820   2.437   9.399
22297SOL     OW66916   3.802   2.418  10.696
22297SOL    HW166917   3.894   2.417  10.655
22297SOL    HW266918   3.796   2.492  10.763
22298SOL     OW66919   4.285   2.084  10.457
22298SOL    HW166920   4.323   2.000  10.494
22298SOL    HW266921   4.197   2.103  10.501
22299SOL     OW66922   4.590   2.316   9.952
22299SOL    HW166923   4.558   2.388   9.890
22299SOL    HW266924   4.614   2.235   9.899
22300SOL     OW66925   4.741   1.901  10.063
22300SOL    HW166926   4.669   1.906   9.994
22300SOL    HW266927   4.717   1.832  10.132
22301SOL     OW66928   5.153   3.035  10.177
22301SOL    HW166929   5.098   2.951  10.170
22301SOL    HW266930   5.179   3.064  10.085
22302SOL     OW66931   5.190   2.452  10.302
22302SOL    HW166932   5.160   2.357  10.309
22302SOL    HW266933   5.263   2.468  10.368
22303SOL     OW66934   5.581   2.695   9.687
22303SOL    HW166935   5.623   2.631   9.751
22303SOL    HW266936   5.543   2.644   9.609
22304SOL     OW66937   4.212   3.247   9.484
22304SOL    HW166938   4.125   3.232   9.531
22304SOL    HW266939   4.195   3.273   9.389
22305SOL     OW66940   5.388   3.142   9.967
22305SOL    HW166941   5.487   3.150   9.981
22305SOL    HW266942   5.343   3.226   9.998
22306SOL     OW66943   5.114   2.437   9.388
22306SOL    HW166944   5.060   2.416   9.469
22306SOL    HW266945   5.205   2.396   9.397
22307SOL     OW66946   4.251   2.118   9.638
22307SOL    HW166947   4.278   2.059   9.563
22307SOL    HW266948   4.251   2.213   9.607
22308SOL     OW66949   5.478   3.085  10.898
22308SOL    HW166950   5.569   3.046  10.885
22308SOL    HW266951   5.486   3.181  10.922
22309SOL     OW66952   4.788   3.209  10.650
22309SOL    HW166953   4.708   3.186  10.705
22309SOL    HW266954   4.871   3.183  10.699
22310SOL     OW66955   5.316   3.491  10.935
22310SOL    HW166956   5.343   3.525  10.845
22310SOL    HW266957   5.395   3.453  10.981
22311SOL     OW66958   4.835   3.057  10.410
22311SOL    HW166959   4.795   3.101  10.491
22311SOL    HW266960   4.794   3.094  10.327
22312SOL     OW66961   5.362   2.961  10.389
22312SOL    HW166962   5.367   3.042  10.448
22312SOL    HW266963   5.276   2.963  10.338
22313SOL     OW66964   4.639   1.951  10.712
22313SOL    HW166965   4.664   1.931  10.617
22313SOL    HW266966   4.711   2.007  10.754
22314SOL     OW66967   4.704   2.978  11.029
22314SOL    HW166968   4.605   2.984  11.039
22314SOL    HW266969   4.727   2.898  10.973
22315SOL     OW66970   4.429   2.912   9.678
22315SOL    HW166971   4.415   2.919   9.777
22315SOL    HW266972   4.513   2.861   9.660
22316SOL     OW66973   4.134   2.675  10.561
22316SOL    HW166974   4.220   2.687  10.611
22316SOL    HW266975   4.092   2.588  10.588
22317SOL     OW66976   4.998   2.248  10.572
22317SOL    HW166977   5.019   2.322  10.636
22317SOL    HW266978   4.909   2.265  10.529
22318SOL     OW66979   3.788   3.426  10.641
22318SOL    HW166980   3.742   3.508  10.607
22318SOL    HW266981   3.886   3.445  10.650
22319SOL     OW66982   4.091   2.962   9.811
22319SOL    HW166983   4.084   3.045   9.755
22319SOL    HW266984   4.095   2.882   9.751
22320SOL     OW66985   4.290   2.399  10.175
22320SOL    HW166986   4.302   2.465  10.101
22320SOL    HW266987   4.336   2.433  10.258
22321SOL     OW66988   4.976   3.210   9.698
22321SOL    HW166989   5.026   3.287   9.738
22321SOL    HW266990   4.881   3.212   9.730
22322SOL     OW66991   4.996   3.307  10.452
22322SOL    HW166992   5.043   3.320  10.539
22322SOL    HW266993   4.930   3.233  10.461
22323SOL     OW66994   5.306   2.501   9.782
22323SOL    HW166995   5.275   2.562   9.855
22323SOL    HW266996   5.356   2.553   9.713
22324SOL     OW66997   4.078   3.372  10.639
22324SOL    HW166998   4.057   3.328  10.552
22324SOL    HW266999   4.175   3.398  10.642
22325SOL     OW67000   4.126   2.613  10.908
22325SOL    HW167001   4.194   2.668  10.861
22325SOL    HW267002   4.166   2.525  10.935
22326SOL     OW67003   5.311   2.641  10.980
22326SOL    HW167004   5.219   2.679  10.975
22326SOL    HW267005   5.371   2.688  10.915
22327SOL     OW67006   4.737   1.967  11.080
22327SOL    HW167007   4.743   2.052  11.028
22327SOL    HW267008   4.769   1.891  11.023
22328SOL     OW67009   4.228   1.912  11.050
22328SOL    HW167010   4.186   1.855  10.980
22328SOL    HW267011   4.162   1.981  11.082
22329SOL     OW67012   4.297   2.732  10.339
22329SOL    HW167013   4.341   2.821  10.330
22329SOL    HW267014   4.234   2.732  10.416
22330SOL     OW67015   5.084   2.724  10.355
22330SOL    HW167016   5.009   2.724  10.289
22330SOL    HW267017   5.121   2.632  10.364
22331SOL     OW67018   4.933   2.387   9.585
22331SOL    HW167019   4.946   2.303   9.639
22331SOL    HW267020   4.904   2.461   9.645
22332SOL     OW67021   4.031   2.075  10.541
22332SOL    HW167022   4.008   2.112  10.631
22332SOL    HW267023   4.001   1.980  10.535
22333SOL     OW67024   3.761   3.172  10.592
22333SOL    HW167025   3.814   3.123  10.660
22333SOL    HW267026   3.783   3.270  10.597
22334SOL     OW67027   4.456   2.496  10.374
22334SOL    HW167028   4.515   2.470  10.298
22334SOL    HW267029   4.428   2.592  10.363
22335SOL     OW67030   5.452   2.797  11.164
22335SOL    HW167031   5.406   2.790  11.075
22335SOL    HW267032   5.390   2.841  11.230
22336SOL     OW67033   4.031   1.925   9.928
22336SOL    HW167034   4.020   2.019   9.961
22336SOL    HW267035   4.026   1.862  10.005
22337SOL     OW67036   5.346   2.229   9.684
22337SOL    HW167037   5.348   2.153   9.748
22337SOL    HW267038   5.298   2.306   9.724
22338SOL     OW67039   4.747   2.628  10.276
22338SOL    HW167040   4.762   2.649  10.372
22338SOL    HW267041   4.717   2.533  10.267
22339SOL     OW67042   4.704   3.435  11.010
22339SOL    HW167043   4.684   3.479  10.922
22339SOL    HW267044   4.743   3.344  10.994
22340SOL     OW67045   5.583   3.380  10.915
22340SOL    HW167046   5.597   3.407  10.820
22340SOL    HW267047   5.666   3.402  10.968
22341SOL     OW67048   4.074   2.760  11.114
22341SOL    HW167049   4.150   2.804  11.162
22341SOL    HW267050   4.109   2.713  11.032
22342SOL     OW67051   5.264   2.136   9.435
22342SOL    HW167052   5.203   2.061   9.458
22342SOL    HW267053   5.286   2.188   9.518
22343SOL     OW67054   5.027   2.700   9.352
22343SOL    HW167055   5.061   2.607   9.367
22343SOL    HW267056   5.045   2.727   9.257
22344SOL     OW67057   4.792   3.195  10.159
22344SOL    HW167058   4.799   3.111  10.104
22344SOL    HW267059   4.854   3.264  10.123
22345SOL     OW67060   4.043   2.672  10.259
22345SOL    HW167061   4.136   2.708  10.264
22345SOL    HW267062   4.037   2.587  10.311
22346SOL     OW67063   4.063   2.371  10.316
22346SOL    HW167064   4.011   2.288  10.299
22346SOL    HW267065   4.140   2.376  10.252
22347SOL     OW67066   4.862   2.242  10.988
22347SOL    HW167067   4.817   2.305  11.052
22347SOL    HW267068   4.955   2.273  10.971
22348SOL     OW67069   4.884   2.069  10.787
22348SOL    HW167070   4.884   2.133  10.864
22348SOL    HW267071   4.912   2.117  10.704
22349SOL     OW67072   3.732   3.188   9.510
22349SOL    HW167073   3.639   3.209   9.479
22349SOL    HW267074   3.742   3.089   9.523
22350SOL     OW67075   3.812   3.663  10.237
22350SOL    HW167076   3.770   3.577  10.210
22350SOL    HW267077   3.906   3.666  10.203
22351SOL     OW67078   4.228   3.430  10.220
22351SOL    HW167079   4.294   3.504  10.229
22351SOL    HW267080   4.272   3.351  10.178
22352SOL     OW67081   4.726   2.658  10.548
22352SOL    HW167082   4.767   2.626  10.634
22352SOL    HW267083   4.630   2.631  10.545
22353SOL     OW67084   3.764   2.406  10.424
22353SOL    HW167085   3.849   2.373  10.383
22353SOL    HW267086   3.777   2.421  10.522
22354SOL     OW67087   3.913   2.382  11.032
22354SOL    HW167088   3.972   2.342  10.962
22354SOL    HW267089   3.855   2.453  10.991
22355SOL     OW67090   5.093   2.812  10.970
22355SOL    HW167091   5.132   2.901  10.990
22355SOL    HW267092   5.103   2.792  10.873
22356SOL     OW67093   4.539   2.434   9.635
22356SOL    HW167094   4.546   2.345   9.589
22356SOL    HW267095   4.445   2.468   9.627
22357SOL     OW67096   5.381   2.466  10.516
22357SOL    HW167097   5.343   2.397  10.578
22357SOL    HW267098   5.463   2.430  10.472
22358SOL     OW67099   3.976   3.426  11.054
22358SOL    HW167100   3.946   3.483  11.130
22358SOL    HW267101   3.969   3.329  11.080
22359SOL     OW67102   4.395   2.326  10.579
22359SOL    HW167103   4.361   2.237  10.549
22359SOL    HW267104   4.421   2.380  10.499
22360SOL     OW67105   4.654   3.540  10.775
22360SOL    HW167106   4.630   3.522  10.680
22360SOL    HW267107   4.684   3.634  10.785
22361SOL     OW67108   4.197   2.362   9.501
22361SOL    HW167109   4.258   2.442   9.505
22361SOL    HW267110   4.102   2.393   9.508
22362SOL     OW67111   3.883   2.999  10.776
22362SOL    HW167112   3.905   2.938  10.852
22362SOL    HW267113   3.893   2.950  10.690
22363SOL     OW67114   5.071   2.921  10.544
22363SOL    HW167115   5.095   2.858  10.470
22363SOL    HW267116   4.981   2.961  10.526
22364SOL     OW67117   5.026   2.717   9.619
22364SOL    HW167118   4.940   2.686   9.661
22364SOL    HW267119   5.022   2.703   9.520
22365SOL     OW67120   5.483   3.609  10.464
22365SOL    HW167121   5.544   3.639  10.391
22365SOL    HW267122   5.445   3.520  10.442
22366SOL     OW67123   4.976   3.593  10.438
22366SOL    HW167124   5.060   3.598  10.384
22366SOL    HW267125   4.953   3.497  10.456
22367SOL     OW67126   3.807   3.120  10.332
22367SOL    HW167127   3.802   3.119  10.432
22367SOL    HW267128   3.724   3.079  10.294
22368SOL     OW67129   4.412   3.524  11.026
22368SOL    HW167130   4.356   3.605  11.035
22368SOL    HW267131   4.464   3.528  10.940
22369SOL     OW67132   5.450   1.997   9.833
22369SOL    HW167133   5.523   1.980   9.766
22369SOL    HW267134   5.419   1.910   9.871
22370SOL     OW67135   5.112   3.435   9.787
22370SOL    HW167136   5.179   3.447   9.713
22370SOL    HW267137   5.072   3.524   9.810
22371SOL     OW67138   3.854   3.656  11.161
22371SOL    HW167139   3.813   3.582  11.214
22371SOL    HW267140   3.918   3.707  11.219
22372SOL     OW67141   5.004   2.789   9.982
22372SOL    HW167142   5.064   2.708   9.984
22372SOL    HW267143   5.044   2.858   9.922
22373SOL     OW67144   4.554   3.135  10.732
22373SOL    HW167145   4.549   3.168  10.827
22373SOL    HW267146   4.468   3.154  10.686
22374SOL     OW67147   4.396   3.478   9.464
22374SOL    HW167148   4.405   3.488   9.365
22374SOL    HW267149   4.356   3.389   9.485
22375SOL     OW67150   5.374   3.582  10.704
22375SOL    HW167151   5.427   3.592  10.620
22375SOL    HW267152   5.347   3.672  10.738
22376SOL     OW67153   5.565   2.037  10.273
22376SOL    HW167154   5.604   1.952  10.237
22376SOL    HW267155   5.467   2.039  10.254
22377SOL     OW67156   3.987   2.188  10.030
22377SOL    HW167157   3.908   2.239   9.996
22377SOL    HW267158   3.978   2.173  10.128
22378SOL     OW67159   4.918   3.474   9.341
22378SOL    HW167160   4.924   3.381   9.378
22378SOL    HW267161   4.859   3.474   9.261
22379SOL     OW67162   4.546   2.864  10.682
22379SOL    HW167163   4.586   2.863  10.590
22379SOL    HW267164   4.556   2.956  10.722
22380SOL     OW67165   4.640   2.772   9.601
22380SOL    HW167166   4.703   2.810   9.533
22380SOL    HW267167   4.680   2.689   9.640
22381SOL     OW67168   5.228   3.469   9.354
22381SOL    HW167169   5.136   3.506   9.361
22381SOL    HW267170   5.266   3.489   9.264
22382SOL     OW67171   4.096   3.150  10.800
22382SOL    HW167172   4.083   3.243  10.766
22382SOL    HW267173   4.012   3.098  10.787
22383SOL     OW67174   5.338   3.154  10.599
22383SOL    HW167175   5.398   3.157  10.679
22383SOL    HW267176   5.263   3.218  10.612
22384SOL     OW67177   4.763   2.960  10.006
22384SOL    HW167178   4.693   2.913  10.060
22384SOL    HW267179   4.822   2.892   9.963
22385SOL     OW67180   4.738   2.098  10.281
22385SOL    HW167181   4.730   2.062  10.188
22385SOL    HW267182   4.736   2.022  10.346
22386SOL     OW67183   4.314   3.349   9.801
22386SOL    HW167184   4.356   3.291   9.731
22386SOL    HW267185   4.270   3.428   9.757
22387SOL     OW67186   5.433   2.247  10.691
22387SOL    HW167187   5.506   2.316  10.695
22387SOL    HW267188   5.461   2.172  10.632
22388SOL     OW67189   3.979   3.210   9.600
22388SOL    HW167190   3.883   3.211   9.573
22388SOL    HW267191   3.991   3.263   9.684
22389SOL     OW67192   3.829   2.875  11.036
22389SOL    HW167193   3.752   2.842  11.090
22389SOL    HW267194   3.914   2.845  11.078
22390SOL     OW67195   4.396   2.065  10.799
22390SOL    HW167196   4.486   2.049  10.759
22390SOL    HW267197   4.404   2.070  10.898
22391SOL     OW67198   3.799   2.207   9.343
22391SOL    HW167199   3.707   2.179   9.314
22391SOL    HW267200   3.830   2.284   9.287
22392SOL     OW67201   5.164   2.718  10.708
22392SOL    HW167202   5.107   2.770  10.645
22392SOL    HW267203   5.260   2.730  10.684
22393SOL     OW67204   3.796   2.028   9.628
22393SOL    HW167205   3.779   2.111   9.574
22393SOL    HW267206   3.886   1.991   9.606
22394SOL     OW67207   4.907   3.197   9.429
22394SOL    HW167208   4.808   3.186   9.431
22394SOL    HW267209   4.941   3.212   9.522
22395SOL     OW67210   4.337   2.704  10.741
22395SOL    HW167211   4.393   2.785  10.724
22395SOL    HW267212   4.396   2.624  10.744
22396SOL     OW67213   5.217   3.629  10.269
22396SOL    HW167214   5.250   3.693  10.200
22396SOL    HW267215   5.283   3.623  10.344
22397SOL     OW67216   4.440   2.427  11.018
22397SOL    HW167217   4.459   2.492  11.092
22397SOL    HW267218   4.500   2.347  11.027
22398SOL     OW67219   5.174   3.082  10.943
22398SOL    HW167220   5.165   3.072  11.042
22398SOL    HW267221   5.270   3.075  10.917
22399SOL     OW67222   4.114   3.603  10.870
22399SOL    HW167223   4.023   3.644  10.868
22399SOL    HW267224   4.107   3.509  10.902
22400SOL     OW67225   5.398   2.745  10.564
22400SOL    HW167226   5.371   2.656  10.527
22400SOL    HW267227   5.399   2.813  10.491
22401SOL     OW67228   4.949   2.187   9.759
22401SOL    HW167229   5.014   2.113   9.748
22401SOL    HW267230   4.969   2.237   9.843
22402SOL     OW67231   4.318   2.607   9.962
22402SOL    HW167232   4.368   2.692   9.943
22402SOL    HW267233   4.230   2.609   9.914
22403SOL     OW67234   5.501   2.204  10.952
22403SOL    HW167235   5.484   2.235  10.858
22403SOL    HW267236   5.417   2.167  10.990
22404SOL     OW67237   5.454   2.796  10.827
22404SOL    HW167238   5.492   2.887  10.842
22404SOL    HW267239   5.446   2.779  10.728
22405SOL     OW67240   4.583   3.236   9.326
22405SOL    HW167241   4.537   3.251   9.414
22405SOL    HW267242   4.627   3.321   9.296
22406SOL     OW67243   4.385   3.652  10.263
22406SOL    HW167244   4.339   3.740  10.250
22406SOL    HW267245   4.484   3.664  10.256
22407SOL     OW67246   4.583   2.818  10.171
22407SOL    HW167247   4.637   2.749  10.219
22407SOL    HW267248   4.551   2.887  10.237
22408SOL     OW67249   4.807   2.846   9.397
22408SOL    HW167250   4.784   2.899   9.315
22408SOL    HW267251   4.888   2.790   9.378
22409SOL     OW67252   5.585   3.431  10.161
22409SOL    HW167253   5.514   3.419  10.091
22409SOL    HW267254   5.586   3.352  10.221
22410SOL     OW67255   3.945   3.176  11.154
22410SOL    HW167256   3.880   3.103  11.133
22410SOL    HW267257   3.949   3.190  11.252
22411SOL     OW67258   3.803   3.102   9.963
22411SOL    HW167259   3.802   3.055  10.051
22411SOL    HW267260   3.885   3.074   9.912
22412SOL     OW67261   4.396   3.253  10.934
22412SOL    HW167262   4.318   3.203  10.972
22412SOL    HW267263   4.393   3.348  10.965
22413SOL     OW67264   5.548   2.054  10.537
22413SOL    HW167265   5.544   1.964  10.581
22413SOL    HW267266   5.551   2.043  10.438
22414SOL     OW67267   4.152   2.286   9.830
22414SOL    HW167268   4.182   2.214   9.768
22414SOL    HW267269   4.113   2.246   9.913
22415SOL     OW67270   5.429   3.349  10.414
22415SOL    HW167271   5.336   3.324  10.387
22415SOL    HW267272   5.455   3.299  10.496
22416SOL     OW67273   4.041   2.409  10.590
22416SOL    HW167274   4.079   2.350  10.662
22416SOL    HW267275   4.081   2.383  10.502
22417SOL     OW67276   4.536   3.448   9.997
22417SOL    HW167277   4.568   3.458   9.903
22417SOL    HW267278   4.457   3.386   9.999
22418SOL     OW67279   5.148   2.076  10.422
22418SOL    HW167280   5.200   2.011  10.477
22418SOL    HW267281   5.099   2.139  10.483
22419SOL     OW67282   4.725   1.896  10.464
22419SOL    HW167283   4.662   1.824  10.433
22419SOL    HW267284   4.818   1.860  10.464
22420SOL     OW67285   4.494   3.192   9.611
22420SOL    HW167286   4.448   3.105   9.628
22420SOL    HW267287   4.585   3.189   9.652
22421SOL     OW67288   4.342   3.429  10.594
22421SOL    HW167289   4.337   3.511  10.651
22421SOL    HW267290   4.431   3.426  10.549
22422SOL     OW67291   5.076   1.914   9.478
22422SOL    HW167292   5.111   1.873   9.394
22422SOL    HW267293   4.986   1.876   9.498
22423SOL     OW67294   5.024   2.315  10.001
22423SOL    HW167295   4.965   2.395  10.005
22423SOL    HW267296   5.039   2.280  10.094
22424SOL     OW67297   5.317   2.083  10.192
22424SOL    HW167298   5.233   2.082  10.246
22424SOL    HW267299   5.319   2.166  10.136
22425SOL     OW67300   3.763   2.939   9.610
22425SOL    HW167301   3.862   2.928   9.601
22425SOL    HW267302   3.723   2.853   9.642
22426SOL     OW67303   4.599   3.508   9.647
22426SOL    HW167304   4.522   3.473   9.593
22426SOL    HW267305   4.567   3.579   9.709
22427SOL     OW67306   3.954   2.490  11.285
22427SOL    HW167307   3.861   2.488  11.322
22427SOL    HW267308   3.955   2.451  11.193
22428SOL     OW67309   3.949   2.137  12.168
22428SOL    HW167310   3.984   2.120  12.260
22428SOL    HW267311   3.861   2.092  12.156
22429SOL     OW67312   3.743   2.230  11.819
22429SOL    HW167313   3.661   2.273  11.858
22429SOL    HW267314   3.715   2.157  11.756
22430SOL     OW67315   4.293   3.137  12.337
22430SOL    HW167316   4.200   3.130  12.300
22430SOL    HW267317   4.304   3.226  12.381
22431SOL     OW67318   5.279   3.373  11.875
22431SOL    HW167319   5.222   3.357  11.956
22431SOL    HW267320   5.220   3.383  11.795
22432SOL     OW67321   4.859   2.565  11.889
22432SOL    HW167322   4.916   2.643  11.864
22432SOL    HW267323   4.799   2.591  11.965
22433SOL     OW67324   5.479   2.469  11.403
22433SOL    HW167325   5.467   2.456  11.304
22433SOL    HW267326   5.449   2.388  11.452
22434SOL     OW67327   4.492   3.006  12.195
22434SOL    HW167328   4.414   3.023  12.255
22434SOL    HW267329   4.526   3.093  12.159
22435SOL     OW67330   4.409   2.874  11.837
22435SOL    HW167331   4.478   2.858  11.907
22435SOL    HW267332   4.336   2.931  11.875
22436SOL     OW67333   4.059   3.297  12.233
22436SOL    HW167334   3.981   3.266  12.180
22436SOL    HW267335   4.117   3.355  12.176
22437SOL     OW67336   5.184   3.367  12.511
22437SOL    HW167337   5.208   3.461  12.537
22437SOL    HW267338   5.168   3.313  12.593
22438SOL     OW67339   4.162   2.254  12.671
22438SOL    HW167340   4.244   2.198  12.680
22438SOL    HW267341   4.081   2.196  12.675
22439SOL     OW67342   5.327   2.309  11.909
22439SOL    HW167343   5.253   2.355  11.859
22439SOL    HW267344   5.378   2.377  11.962
22440SOL     OW67345   3.955   3.575  11.655
22440SOL    HW167346   3.989   3.652  11.709
22440SOL    HW267347   3.999   3.575  11.565
22441SOL     OW67348   3.954   3.296  11.710
22441SOL    HW167349   3.928   3.392  11.710
22441SOL    HW267350   3.883   3.242  11.755
22442SOL     OW67351   3.964   2.953  12.058
22442SOL    HW167352   3.978   2.869  12.110
22442SOL    HW267353   3.909   3.017  12.113
22443SOL     OW67354   4.344   3.648  12.611
22443SOL    HW167355   4.252   3.631  12.646
22443SOL    HW267356   4.372   3.740  12.637
22444SOL     OW67357   4.330   2.826  11.295
22444SOL    HW167358   4.337   2.910  11.241
22444SOL    HW267359   4.376   2.839  11.383
22445SOL     OW67360   5.318   1.976  12.652
22445SOL    HW167361   5.300   2.043  12.580
22445SOL    HW267362   5.315   2.022  12.741
22446SOL     OW67363   3.846   2.505  11.735
22446SOL    HW167364   3.801   2.417  11.752
22446SOL    HW267365   3.845   2.559  11.819
22447SOL     OW67366   5.566   3.629  11.531
22447SOL    HW167367   5.620   3.600  11.611
22447SOL    HW267368   5.596   3.719  11.502
22448SOL     OW67369   3.751   3.458  11.289
22448SOL    HW167370   3.732   3.362  11.310
22448SOL    HW267371   3.718   3.516  11.364
22449SOL     OW67372   5.413   2.784  11.784
22449SOL    HW167373   5.508   2.755  11.792
22449SOL    HW267374   5.405   2.849  11.709
22450SOL     OW67375   5.365   2.970  11.604
22450SOL    HW167376   5.451   2.972  11.552
22450SOL    HW267377   5.379   3.017  11.692
22451SOL     OW67378   4.337   3.227  11.898
22451SOL    HW167379   4.288   3.140  11.907
22451SOL    HW267380   4.314   3.270  11.811
22452SOL     OW67381   4.533   1.866  11.674
22452SOL    HW167382   4.573   1.957  11.665
22452SOL    HW267383   4.433   1.874  11.680
22453SOL     OW67384   3.921   2.838  12.436
22453SOL    HW167385   4.010   2.793  12.422
22453SOL    HW267386   3.848   2.773  12.417
22454SOL     OW67387   5.249   2.861  11.362
22454SOL    HW167388   5.186   2.785  11.375
22454SOL    HW267389   5.297   2.879  11.448
22455SOL     OW67390   4.041   2.113  12.973
22455SOL    HW167391   4.112   2.184  12.979
22455SOL    HW267392   3.953   2.152  13.001
22456SOL     OW67393   5.190   3.279  12.125
22456SOL    HW167394   5.131   3.285  12.205
22456SOL    HW267395   5.175   3.191  12.079
22457SOL     OW67396   5.391   3.576  11.744
22457SOL    HW167397   5.350   3.553  11.656
22457SOL    HW267398   5.373   3.502  11.809
22458SOL     OW67399   4.322   2.591  11.442
22458SOL    HW167400   4.346   2.660  11.374
22458SOL    HW267401   4.244   2.624  11.496
22459SOL     OW67402   5.005   2.207  12.116
22459SOL    HW167403   4.919   2.157  12.103
22459SOL    HW267404   5.067   2.153  12.172
22460SOL     OW67405   5.300   3.524  11.479
22460SOL    HW167406   5.389   3.570  11.482
22460SOL    HW267407   5.279   3.500  11.384
22461SOL     OW67408   4.531   2.467  12.637
22461SOL    HW167409   4.484   2.464  12.726
22461SOL    HW267410   4.480   2.412  12.571
22462SOL     OW67411   4.715   2.272  12.414
22462SOL    HW167412   4.638   2.306  12.468
22462SOL    HW267413   4.681   2.221  12.335
22463SOL     OW67414   4.765   2.563  11.601
22463SOL    HW167415   4.791   2.559  11.697
22463SOL    HW267416   4.680   2.512  11.587
22464SOL     OW67417   3.800   2.673  11.961
22464SOL    HW167418   3.899   2.661  11.970
22464SOL    HW267419   3.776   2.768  11.982
22465SOL     OW67420   3.854   3.683  12.743
22465SOL    HW167421   3.844   3.668  12.842
22465SOL    HW267422   3.768   3.719  12.707
22466SOL     OW67423   4.589   2.210  11.367
22466SOL    HW167424   4.648   2.273  11.318
22466SOL    HW267425   4.608   2.116  11.338
22467SOL     OW67426   5.086   3.006  11.717
22467SOL    HW167427   5.169   2.977  11.669
22467SOL    HW267428   5.037   3.073  11.661
22468SOL     OW67429   4.274   2.058  12.057
22468SOL    HW167430   4.269   2.053  12.157
22468SOL    HW267431   4.276   2.154  12.028
22469SOL     OW67432   4.732   3.318  11.649
22469SOL    HW167433   4.686   3.390  11.597
22469SOL    HW267434   4.728   3.338  11.747
22470SOL     OW67435   4.075   3.663  12.025
22470SOL    HW167436   4.125   3.577  12.031
22470SOL    HW267437   4.140   3.740  12.022
22471SOL     OW67438   5.519   2.928  12.045
22471SOL    HW167439   5.457   2.913  11.969
22471SOL    HW267440   5.467   2.939  12.130
22472SOL     OW67441   4.045   2.805  11.414
22472SOL    HW167442   4.127   2.844  11.372
22472SOL    HW267443   4.018   2.723  11.365
22473SOL     OW67444   5.182   2.597  11.900
22473SOL    HW167445   5.177   2.532  11.975
22473SOL    HW267446   5.262   2.656  11.913
22474SOL     OW67447   4.835   3.638  11.409
22474SOL    HW167448   4.775   3.576  11.459
22474SOL    HW267449   4.866   3.594  11.324
22475SOL     OW67450   3.926   2.147  12.670
22475SOL    HW167451   3.846   2.207  12.657
22475SOL    HW267452   3.916   2.098  12.756
22476SOL     OW67453   5.356   3.239  11.253
22476SOL    HW167454   5.324   3.333  11.243
22476SOL    HW267455   5.280   3.176  11.241
22477SOL     OW67456   4.188   3.605  11.495
22477SOL    HW167457   4.221   3.644  11.581
22477SOL    HW267458   4.264   3.598  11.430
22478SOL     OW67459   5.124   1.969  11.598
22478SOL    HW167460   5.100   1.932  11.508
22478SOL    HW267461   5.223   1.985  11.602
22479SOL     OW67462   3.973   3.647  12.413
22479SOL    HW167463   4.030   3.582  12.463
22479SOL    HW267464   3.957   3.614  12.320
22480SOL     OW67465   4.664   3.560  12.076
22480SOL    HW167466   4.744   3.503  12.097
22480SOL    HW267467   4.615   3.520  11.999
22481SOL     OW67468   4.106   2.562  11.652
22481SOL    HW167469   4.151   2.472  11.649
22481SOL    HW267470   4.012   2.551  11.685
22482SOL     OW67471   4.338   1.984  11.289
22482SOL    HW167472   4.436   1.962  11.296
22482SOL    HW267473   4.307   1.967  11.196
22483SOL     OW67474   4.612   3.376  12.367
22483SOL    HW167475   4.589   3.351  12.273
22483SOL    HW267476   4.673   3.307  12.406
22484SOL     OW67477   4.527   3.264  12.096
22484SOL    HW167478   4.617   3.278  12.054
22484SOL    HW267479   4.456   3.266  12.025
22485SOL     OW67480   4.646   2.365  12.071
22485SOL    HW167481   4.621   2.356  11.975
22485SOL    HW267482   4.694   2.283  12.102
22486SOL     OW67483   4.263   1.926  11.684
22486SOL    HW167484   4.182   1.927  11.742
22486SOL    HW267485   4.266   2.009  11.629
22487SOL     OW67486   5.158   3.050  11.213
22487SOL    HW167487   5.190   2.974  11.270
22487SOL    HW267488   5.066   3.077  11.243
22488SOL     OW67489   4.021   1.897  11.343
22488SOL    HW167490   4.070   1.981  11.322
22488SOL    HW267491   4.083   1.832  11.388
22489SOL     OW67492   4.659   2.098  11.652
22489SOL    HW167493   4.611   2.139  11.574
22489SOL    HW267494   4.758   2.096  11.633
22490SOL     OW67495   4.951   3.432  11.965
22490SOL    HW167496   4.972   3.506  11.900
22490SOL    HW267497   5.019   3.432  12.038
22491SOL     OW67498   4.183   3.014  11.913
22491SOL    HW167499   4.112   2.987  11.978
22491SOL    HW267500   4.157   2.986  11.820
22492SOL     OW67501   4.995   3.659  11.763
22492SOL    HW167502   5.039   3.723  11.699
22492SOL    HW267503   4.945   3.711  11.833
22493SOL     OW67504   4.756   2.411  11.188
22493SOL    HW167505   4.715   2.493  11.149
22493SOL    HW267506   4.820   2.437  11.261
22494SOL     OW67507   3.802   2.418  12.558
22494SOL    HW167508   3.894   2.417  12.517
22494SOL    HW267509   3.796   2.492  12.625
22495SOL     OW67510   4.285   2.084  12.319
22495SOL    HW167511   4.323   2.000  12.356
22495SOL    HW267512   4.197   2.103  12.363
22496SOL     OW67513   4.590   2.316  11.814
22496SOL    HW167514   4.558   2.388  11.752
22496SOL    HW267515   4.614   2.235  11.761
22497SOL     OW67516   4.741   1.901  11.925
22497SOL    HW167517   4.669   1.906  11.856
22497SOL    HW267518   4.717   1.832  11.994
22498SOL     OW67519   5.153   3.035  12.039
22498SOL    HW167520   5.098   2.951  12.032
22498SOL    HW267521   5.179   3.064  11.947
22499SOL     OW67522   5.190   2.452  12.164
22499SOL    HW167523   5.160   2.357  12.171
22499SOL    HW267524   5.263   2.468  12.230
22500SOL     OW67525   5.581   2.695  11.549
22500SOL    HW167526   5.623   2.631  11.613
22500SOL    HW267527   5.543   2.644  11.471
22501SOL     OW67528   4.212   3.247  11.346
22501SOL    HW167529   4.125   3.232  11.393
22501SOL    HW267530   4.195   3.273  11.251
22502SOL     OW67531   5.388   3.142  11.829
22502SOL    HW167532   5.487   3.150  11.843
22502SOL    HW267533   5.343   3.226  11.860
22503SOL     OW67534   4.251   2.118  11.500
22503SOL    HW167535   4.278   2.059  11.425
22503SOL    HW267536   4.251   2.213  11.469
22504SOL     OW67537   4.788   3.209  12.512
22504SOL    HW167538   4.708   3.186  12.567
22504SOL    HW267539   4.871   3.183  12.561
22505SOL     OW67540   4.835   3.057  12.272
22505SOL    HW167541   4.795   3.101  12.353
22505SOL    HW267542   4.794   3.094  12.189
22506SOL     OW67543   5.362   2.961  12.251
22506SOL    HW167544   5.367   3.042  12.310
22506SOL    HW267545   5.276   2.963  12.200
22507SOL     OW67546   4.639   1.951  12.574
22507SOL    HW167547   4.664   1.931  12.479
22507SOL    HW267548   4.711   2.007  12.616
22508SOL     OW67549   4.429   2.912  11.540
22508SOL    HW167550   4.415   2.919  11.639
22508SOL    HW267551   4.513   2.861  11.522
22509SOL     OW67552   4.134   2.675  12.423
22509SOL    HW167553   4.220   2.687  12.473
22509SOL    HW267554   4.092   2.588  12.450
22510SOL     OW67555   4.998   2.248  12.434
22510SOL    HW167556   5.019   2.322  12.498
22510SOL    HW267557   4.909   2.265  12.391
22511SOL     OW67558   3.788   3.426  12.503
22511SOL    HW167559   3.742   3.508  12.469
22511SOL    HW267560   3.886   3.445  12.512
22512SOL     OW67561   4.091   2.962  11.673
22512SOL    HW167562   4.084   3.045  11.617
22512SOL    HW267563   4.095   2.882  11.613
22513SOL     OW67564   4.290   2.399  12.037
22513SOL    HW167565   4.302   2.465  11.963
22513SOL    HW267566   4.336   2.433  12.120
22514SOL     OW67567   4.976   3.210  11.560
22514SOL    HW167568   5.026   3.287  11.600
22514SOL    HW267569   4.881   3.212  11.592
22515SOL     OW67570   4.996   3.307  12.314
22515SOL    HW167571   5.043   3.320  12.401
22515SOL    HW267572   4.930   3.233  12.323
22516SOL     OW67573   5.306   2.501  11.644
22516SOL    HW167574   5.275   2.562  11.717
22516SOL    HW267575   5.356   2.553  11.575
22517SOL     OW67576   4.078   3.372  12.501
22517SOL    HW167577   4.057   3.328  12.414
22517SOL    HW267578   4.175   3.398  12.504
22518SOL     OW67579   4.126   2.613  12.770
22518SOL    HW167580   4.194   2.668  12.723
22518SOL    HW267581   4.166   2.525  12.797
22519SOL     OW67582   5.311   2.641  12.842
22519SOL    HW167583   5.219   2.679  12.837
22519SOL    HW267584   5.371   2.688  12.777
22520SOL     OW67585   4.297   2.732  12.201
22520SOL    HW167586   4.341   2.821  12.192
22520SOL    HW267587   4.234   2.732  12.278
22521SOL     OW67588   5.084   2.724  12.217
22521SOL    HW167589   5.009   2.724  12.151
22521SOL    HW267590   5.121   2.632  12.226
22522SOL     OW67591   4.933   2.387  11.447
22522SOL    HW167592   4.946   2.303  11.501
22522SOL    HW267593   4.904   2.461  11.507
22523SOL     OW67594   4.031   2.075  12.403
22523SOL    HW167595   4.008   2.112  12.493
22523SOL    HW267596   4.001   1.980  12.397
22524SOL     OW67597   3.761   3.172  12.454
22524SOL    HW167598   3.814   3.123  12.522
22524SOL    HW267599   3.783   3.270  12.459
22525SOL     OW67600   4.456   2.496  12.236
22525SOL    HW167601   4.515   2.470  12.160
22525SOL    HW267602   4.428   2.592  12.225
22526SOL     OW67603   4.031   1.925  11.790
22526SOL    HW167604   4.020   2.019  11.823
22526SOL    HW267605   4.026   1.862  11.867
22527SOL     OW67606   5.346   2.229  11.546
22527SOL    HW167607   5.348   2.153  11.610
22527SOL    HW267608   5.298   2.306  11.586
22528SOL     OW67609   4.747   2.628  12.138
22528SOL    HW167610   4.762   2.649  12.234
22528SOL    HW267611   4.717   2.533  12.129
22529SOL     OW67612   4.704   3.435  12.872
22529SOL    HW167613   4.684   3.479  12.784
22529SOL    HW267614   4.743   3.344  12.856
22530SOL     OW67615   5.264   2.136  11.297
22530SOL    HW167616   5.203   2.061  11.320
22530SOL    HW267617   5.286   2.188  11.380
22531SOL     OW67618   5.027   2.700  11.214
22531SOL    HW167619   5.061   2.607  11.229
22531SOL    HW267620   5.045   2.727  11.119
22532SOL     OW67621   4.792   3.195  12.021
22532SOL    HW167622   4.799   3.111  11.966
22532SOL    HW267623   4.854   3.264  11.985
22533SOL     OW67624   4.043   2.672  12.121
22533SOL    HW167625   4.136   2.708  12.126
22533SOL    HW267626   4.037   2.587  12.173
22534SOL     OW67627   4.063   2.371  12.178
22534SOL    HW167628   4.011   2.288  12.161
22534SOL    HW267629   4.140   2.376  12.114
22535SOL     OW67630   4.862   2.242  12.850
22535SOL    HW167631   4.817   2.305  12.914
22535SOL    HW267632   4.955   2.273  12.833
22536SOL     OW67633   4.884   2.069  12.649
22536SOL    HW167634   4.884   2.133  12.726
22536SOL    HW267635   4.912   2.117  12.566
22537SOL     OW67636   3.732   3.188  11.372
22537SOL    HW167637   3.639   3.209  11.341
22537SOL    HW267638   3.742   3.089  11.385
22538SOL     OW67639   3.812   3.663  12.099
22538SOL    HW167640   3.770   3.577  12.072
22538SOL    HW267641   3.906   3.666  12.065
22539SOL     OW67642   4.228   3.430  12.082
22539SOL    HW167643   4.294   3.504  12.091
22539SOL    HW267644   4.272   3.351  12.040
22540SOL     OW67645   4.726   2.658  12.410
22540SOL    HW167646   4.767   2.626  12.496
22540SOL    HW267647   4.630   2.631  12.407
22541SOL     OW67648   3.764   2.406  12.286
22541SOL    HW167649   3.849   2.373  12.245
22541SOL    HW267650   3.777   2.421  12.384
22542SOL     OW67651   4.539   2.434  11.497
22542SOL    HW167652   4.546   2.345  11.451
22542SOL    HW267653   4.445   2.468  11.489
22543SOL     OW67654   5.381   2.466  12.378
22543SOL    HW167655   5.343   2.397  12.440
22543SOL    HW267656   5.463   2.430  12.334
22544SOL     OW67657   4.395   2.326  12.441
22544SOL    HW167658   4.361   2.237  12.411
22544SOL    HW267659   4.421   2.380  12.361
22545SOL     OW67660   4.654   3.540  12.637
22545SOL    HW167661   4.630   3.522  12.542
22545SOL    HW267662   4.684   3.634  12.647
22546SOL     OW67663   4.197   2.362  11.363
22546SOL    HW167664   4.258   2.442  11.367
22546SOL    HW267665   4.102   2.393  11.370
22547SOL     OW67666   3.883   2.999  12.638
22547SOL    HW167667   3.905   2.938  12.714
22547SOL    HW267668   3.893   2.950  12.552
22548SOL     OW67669   5.071   2.921  12.406
22548SOL    HW167670   5.095   2.858  12.332
22548SOL    HW267671   4.981   2.961  12.388
22549SOL     OW67672   5.026   2.717  11.481
22549SOL    HW167673   4.940   2.686  11.523
22549SOL    HW267674   5.022   2.703  11.382
22550SOL     OW67675   5.483   3.609  12.326
22550SOL    HW167676   5.544   3.639  12.253
22550SOL    HW267677   5.445   3.520  12.304
22551SOL     OW67678   4.976   3.593  12.300
22551SOL    HW167679   5.060   3.598  12.246
22551SOL    HW267680   4.953   3.497  12.318
22552SOL     OW67681   3.807   3.120  12.194
22552SOL    HW167682   3.802   3.119  12.294
22552SOL    HW267683   3.724   3.079  12.156
22553SOL     OW67684   5.450   1.997  11.695
22553SOL    HW167685   5.523   1.980  11.628
22553SOL    HW267686   5.419   1.910  11.733
22554SOL     OW67687   5.112   3.435  11.649
22554SOL    HW167688   5.179   3.447  11.575
22554SOL    HW267689   5.072   3.524  11.672
22555SOL     OW67690   5.004   2.789  11.844
22555SOL    HW167691   5.064   2.708  11.846
22555SOL    HW267692   5.044   2.858  11.784
22556SOL     OW67693   4.396   3.478  11.326
22556SOL    HW167694   4.405   3.488  11.227
22556SOL    HW267695   4.356   3.389  11.347
22557SOL     OW67696   5.374   3.582  12.566
22557SOL    HW167697   5.427   3.592  12.482
22557SOL    HW267698   5.347   3.672  12.600
22558SOL     OW67699   5.565   2.037  12.135
22558SOL    HW167700   5.604   1.952  12.099
22558SOL    HW267701   5.467   2.039  12.116
22559SOL     OW67702   3.987   2.188  11.892
22559SOL    HW167703   3.908   2.239  11.858
22559SOL    HW267704   3.978   2.173  11.990
22560SOL     OW67705   4.918   3.474  11.203
22560SOL    HW167706   4.924   3.381  11.240
22560SOL    HW267707   4.859   3.474  11.123
22561SOL     OW67708   4.546   2.864  12.544
22561SOL    HW167709   4.586   2.863  12.452
22561SOL    HW267710   4.556   2.956  12.584
22562SOL     OW67711   4.640   2.772  11.463
22562SOL    HW167712   4.703   2.810  11.395
22562SOL    HW267713   4.680   2.689  11.502
22563SOL     OW67714   5.228   3.469  11.216
22563SOL    HW167715   5.136   3.506  11.223
22563SOL    HW267716   5.266   3.489  11.126
22564SOL     OW67717   4.096   3.150  12.662
22564SOL    HW167718   4.083   3.243  12.628
22564SOL    HW267719   4.012   3.098  12.649
22565SOL     OW67720   5.338   3.154  12.461
22565SOL    HW167721   5.398   3.157  12.541
22565SOL    HW267722   5.263   3.218  12.474
22566SOL     OW67723   4.763   2.960  11.868
22566SOL    HW167724   4.693   2.913  11.922
22566SOL    HW267725   4.822   2.892  11.825
22567SOL     OW67726   4.738   2.098  12.143
22567SOL    HW167727   4.730   2.062  12.050
22567SOL    HW267728   4.736   2.022  12.208
22568SOL     OW67729   4.314   3.349  11.663
22568SOL    HW167730   4.356   3.291  11.593
22568SOL    HW267731   4.270   3.428  11.619
22569SOL     OW67732   5.433   2.247  12.553
22569SOL    HW167733   5.506   2.316  12.557
22569SOL    HW267734   5.461   2.172  12.494
22570SOL     OW67735   3.979   3.210  11.462
22570SOL    HW167736   3.883   3.211  11.435
22570SOL    HW267737   3.991   3.263  11.546
22571SOL     OW67738   3.799   2.207  11.205
22571SOL    HW167739   3.707   2.179  11.176
22571SOL    HW267740   3.830   2.284  11.149
22572SOL     OW67741   5.164   2.718  12.570
22572SOL    HW167742   5.107   2.770  12.507
22572SOL    HW267743   5.260   2.730  12.546
22573SOL     OW67744   3.796   2.028  11.490
22573SOL    HW167745   3.779   2.111  11.436
22573SOL    HW267746   3.886   1.991  11.468
22574SOL     OW67747   4.907   3.197  11.291
22574SOL    HW167748   4.808   3.186  11.293
22574SOL    HW267749   4.941   3.212  11.384
22575SOL     OW67750   4.337   2.704  12.603
22575SOL    HW167751   4.393   2.785  12.586
22575SOL    HW267752   4.396   2.624  12.606
22576SOL     OW67753   5.217   3.629  12.131
22576SOL    HW167754   5.250   3.693  12.062
22576SOL    HW267755   5.283   3.623  12.206
22577SOL     OW67756   4.114   3.603  12.732
22577SOL    HW167757   4.023   3.644  12.730
22577SOL    HW267758   4.107   3.509  12.764
22578SOL     OW67759   5.398   2.745  12.426
22578SOL    HW167760   5.371   2.656  12.389
22578SOL    HW267761   5.399   2.813  12.353
22579SOL     OW67762   4.949   2.187  11.621
22579SOL    HW167763   5.014   2.113  11.610
22579SOL    HW267764   4.969   2.237  11.705
22580SOL     OW67765   4.318   2.607  11.824
22580SOL    HW167766   4.368   2.692  11.805
22580SOL    HW267767   4.230   2.609  11.776
22581SOL     OW67768   5.501   2.204  12.814
22581SOL    HW167769   5.484   2.235  12.720
22581SOL    HW267770   5.417   2.167  12.852
22582SOL     OW67771   5.454   2.796  12.689
22582SOL    HW167772   5.492   2.887  12.704
22582SOL    HW267773   5.446   2.779  12.590
22583SOL     OW67774   4.583   3.236  11.188
22583SOL    HW167775   4.537   3.251  11.276
22583SOL    HW267776   4.627   3.321  11.158
22584SOL     OW67777   4.385   3.652  12.125
22584SOL    HW167778   4.339   3.740  12.112
22584SOL    HW267779   4.484   3.664  12.118
22585SOL     OW67780   4.583   2.818  12.033
22585SOL    HW167781   4.637   2.749  12.081
22585SOL    HW267782   4.551   2.887  12.099
22586SOL     OW67783   4.807   2.846  11.259
22586SOL    HW167784   4.784   2.899  11.177
22586SOL    HW267785   4.888   2.790  11.240
22587SOL     OW67786   5.585   3.431  12.023
22587SOL    HW167787   5.514   3.419  11.953
22587SOL    HW267788   5.586   3.352  12.083
22588SOL     OW67789   3.803   3.102  11.825
22588SOL    HW167790   3.802   3.055  11.913
22588SOL    HW267791   3.885   3.074  11.774
22589SOL     OW67792   5.548   2.054  12.399
22589SOL    HW167793   5.544   1.964  12.443
22589SOL    HW267794   5.551   2.043  12.300
22590SOL     OW67795   4.152   2.286  11.692
22590SOL    HW167796   4.182   2.214  11.630
22590SOL    HW267797   4.113   2.246  11.775
22591SOL     OW67798   5.429   3.349  12.276
22591SOL    HW167799   5.336   3.324  12.249
22591SOL    HW267800   5.455   3.299  12.358
22592SOL     OW67801   4.041   2.409  12.452
22592SOL    HW167802   4.079   2.350  12.524
22592SOL    HW267803   4.081   2.383  12.364
22593SOL     OW67804   4.536   3.448  11.859
22593SOL    HW167805   4.568   3.458  11.765
22593SOL    HW267806   4.457   3.386  11.861
22594SOL     OW67807   5.148   2.076  12.284
22594SOL    HW167808   5.200   2.011  12.339
22594SOL    HW267809   5.099   2.139  12.345
22595SOL     OW67810   4.725   1.896  12.326
22595SOL    HW167811   4.662   1.824  12.295
22595SOL    HW267812   4.818   1.860  12.326
22596SOL     OW67813   4.494   3.192  11.473
22596SOL    HW167814   4.448   3.105  11.490
22596SOL    HW267815   4.585   3.189  11.514
22597SOL     OW67816   4.342   3.429  12.456
22597SOL    HW167817   4.337   3.511  12.513
22597SOL    HW267818   4.431   3.426  12.411
22598SOL     OW67819   5.076   1.914  11.340
22598SOL    HW167820   5.111   1.873  11.256
22598SOL    HW267821   4.986   1.876  11.360
22599SOL     OW67822   5.024   2.315  11.863
22599SOL    HW167823   4.965   2.395  11.867
22599SOL    HW267824   5.039   2.280  11.956
22600SOL     OW67825   5.317   2.083  12.054
22600SOL    HW167826   5.233   2.082  12.108
22600SOL    HW267827   5.319   2.166  11.998
22601SOL     OW67828   3.763   2.939  11.472
22601SOL    HW167829   3.862   2.928  11.463
22601SOL    HW267830   3.723   2.853  11.504
22602SOL     OW67831   4.599   3.508  11.509
22602SOL    HW167832   4.522   3.473  11.455
22602SOL    HW267833   4.567   3.579  11.571
22603SOL     OW67834   3.954   4.352   0.113
22603SOL    HW167835   3.861   4.350   0.150
22603SOL    HW267836   3.955   4.313   0.021
22604SOL     OW67837   3.949   3.999   0.996
22604SOL    HW167838   3.984   3.982   1.088
22604SOL    HW267839   3.861   3.954   0.984
22605SOL     OW67840   3.743   4.092   0.647
22605SOL    HW167841   3.661   4.135   0.686
22605SOL    HW267842   3.715   4.019   0.584
22606SOL     OW67843   4.293   4.999   1.165
22606SOL    HW167844   4.200   4.992   1.128
22606SOL    HW267845   4.304   5.088   1.209
22607SOL     OW67846   5.279   5.235   0.703
22607SOL    HW167847   5.222   5.219   0.784
22607SOL    HW267848   5.220   5.245   0.623
22608SOL     OW67849   4.859   4.427   0.717
22608SOL    HW167850   4.916   4.505   0.692
22608SOL    HW267851   4.799   4.453   0.793
22609SOL     OW67852   5.479   4.331   0.231
22609SOL    HW167853   5.467   4.318   0.132
22609SOL    HW267854   5.449   4.250   0.280
22610SOL     OW67855   4.492   4.868   1.023
22610SOL    HW167856   4.414   4.885   1.083
22610SOL    HW267857   4.526   4.955   0.987
22611SOL     OW67858   4.574   4.522   1.823
22611SOL    HW167859   4.570   4.598   1.888
22611SOL    HW267860   4.596   4.558   1.732
22612SOL     OW67861   4.409   4.736   0.665
22612SOL    HW167862   4.478   4.720   0.735
22612SOL    HW267863   4.336   4.793   0.703
22613SOL     OW67864   4.410   4.885   1.803
22613SOL    HW167865   4.470   4.964   1.817
22613SOL    HW267866   4.324   4.916   1.762
22614SOL     OW67867   4.059   5.159   1.061
22614SOL    HW167868   3.981   5.128   1.008
22614SOL    HW267869   4.117   5.217   1.004
22615SOL     OW67870   5.184   5.229   1.339
22615SOL    HW167871   5.208   5.323   1.365
22615SOL    HW267872   5.168   5.175   1.421
22616SOL     OW67873   4.162   4.116   1.499
22616SOL    HW167874   4.244   4.060   1.508
22616SOL    HW267875   4.081   4.058   1.503
22617SOL     OW67876   5.327   4.171   0.737
22617SOL    HW167877   5.253   4.217   0.687
22617SOL    HW267878   5.378   4.239   0.790
22618SOL     OW67879   3.955   5.437   0.483
22618SOL    HW167880   3.989   5.514   0.537
22618SOL    HW267881   3.999   5.437   0.393
22619SOL     OW67882   4.851   5.065   1.690
22619SOL    HW167883   4.898   5.065   1.778
22619SOL    HW267884   4.803   4.978   1.679
22620SOL     OW67885   3.954   5.158   0.538
22620SOL    HW167886   3.928   5.254   0.538
22620SOL    HW267887   3.883   5.104   0.583
22621SOL     OW67888   3.964   4.815   0.886
22621SOL    HW167889   3.978   4.731   0.938
22621SOL    HW267890   3.909   4.879   0.941
22622SOL     OW67891   4.344   5.510   1.439
22622SOL    HW167892   4.252   5.493   1.474
22622SOL    HW267893   4.372   5.602   1.465
22623SOL     OW67894   4.330   4.688   0.123
22623SOL    HW167895   4.337   4.772   0.069
22623SOL    HW267896   4.376   4.701   0.211
22624SOL     OW67897   5.318   3.838   1.480
22624SOL    HW167898   5.300   3.905   1.408
22624SOL    HW267899   5.315   3.884   1.569
22625SOL     OW67900   3.846   4.367   0.563
22625SOL    HW167901   3.801   4.279   0.580
22625SOL    HW267902   3.845   4.421   0.647
22626SOL     OW67903   5.566   5.491   0.359
22626SOL    HW167904   5.620   5.462   0.439
22626SOL    HW267905   5.596   5.581   0.330
22627SOL     OW67906   3.751   5.320   0.117
22627SOL    HW167907   3.732   5.224   0.138
22627SOL    HW267908   3.718   5.378   0.192
22628SOL     OW67909   5.413   4.646   0.612
22628SOL    HW167910   5.508   4.617   0.620
22628SOL    HW267911   5.405   4.711   0.537
22629SOL     OW67912   5.365   4.832   0.432
22629SOL    HW167913   5.451   4.834   0.380
22629SOL    HW267914   5.379   4.879   0.520
22630SOL     OW67915   3.837   4.461   1.597
22630SOL    HW167916   3.925   4.448   1.642
22630SOL    HW267917   3.824   4.558   1.575
22631SOL     OW67918   4.337   5.089   0.726
22631SOL    HW167919   4.288   5.002   0.735
22631SOL    HW267920   4.314   5.132   0.639
22632SOL     OW67921   5.017   4.952   1.423
22632SOL    HW167922   5.054   4.879   1.365
22632SOL    HW267923   5.069   4.957   1.508
22633SOL     OW67924   4.533   3.728   0.502
22633SOL    HW167925   4.573   3.819   0.493
22633SOL    HW267926   4.433   3.736   0.508
22634SOL     OW67927   3.921   4.700   1.264
22634SOL    HW167928   4.010   4.655   1.250
22634SOL    HW267929   3.848   4.635   1.245
22635SOL     OW67930   5.249   4.723   0.190
22635SOL    HW167931   5.186   4.647   0.203
22635SOL    HW267932   5.297   4.741   0.276
22636SOL     OW67933   4.911   5.516   1.616
22636SOL    HW167934   4.935   5.576   1.540
22636SOL    HW267935   4.918   5.421   1.586
22637SOL     OW67936   4.041   3.975   1.801
22637SOL    HW167937   4.112   4.046   1.807
22637SOL    HW267938   3.953   4.014   1.829
22638SOL     OW67939   5.190   5.141   0.953
22638SOL    HW167940   5.131   5.147   1.033
22638SOL    HW267941   5.175   5.053   0.907
22639SOL     OW67942   5.391   5.438   0.572
22639SOL    HW167943   5.350   5.415   0.484
22639SOL    HW267944   5.373   5.364   0.637
22640SOL     OW67945   4.322   4.453   0.270
22640SOL    HW167946   4.346   4.522   0.202
22640SOL    HW267947   4.244   4.486   0.324
22641SOL     OW67948   5.005   4.069   0.944
22641SOL    HW167949   4.919   4.019   0.931
22641SOL    HW267950   5.067   4.015   1.000
22642SOL     OW67951   5.300   5.386   0.307
22642SOL    HW167952   5.389   5.432   0.310
22642SOL    HW267953   5.279   5.362   0.212
22643SOL     OW67954   4.531   4.329   1.465
22643SOL    HW167955   4.484   4.326   1.554
22643SOL    HW267956   4.480   4.274   1.399
22644SOL     OW67957   5.118   4.193   1.674
22644SOL    HW167958   5.098   4.236   1.762
22644SOL    HW267959   5.196   4.131   1.683
22645SOL     OW67960   4.697   4.614   1.572
22645SOL    HW167961   4.743   4.530   1.543
22645SOL    HW267962   4.641   4.648   1.497
22646SOL     OW67963   4.715   4.134   1.242
22646SOL    HW167964   4.638   4.168   1.296
22646SOL    HW267965   4.681   4.083   1.163
22647SOL     OW67966   4.765   4.425   0.429
22647SOL    HW167967   4.791   4.421   0.525
22647SOL    HW267968   4.680   4.374   0.415
22648SOL     OW67969   3.800   4.535   0.789
22648SOL    HW167970   3.899   4.523   0.798
22648SOL    HW267971   3.776   4.630   0.810
22649SOL     OW67972   3.854   5.545   1.571
22649SOL    HW167973   3.844   5.530   1.670
22649SOL    HW267974   3.768   5.581   1.535
22650SOL     OW67975   4.589   4.072   0.195
22650SOL    HW167976   4.648   4.135   0.146
22650SOL    HW267977   4.608   3.978   0.166
22651SOL     OW67978   5.443   4.309   1.831
22651SOL    HW167979   5.417   4.398   1.795
22651SOL    HW267980   5.441   4.241   1.758
22652SOL     OW67981   5.086   4.868   0.545
22652SOL    HW167982   5.169   4.839   0.497
22652SOL    HW267983   5.037   4.935   0.489
22653SOL     OW67984   4.274   3.920   0.885
22653SOL    HW167985   4.269   3.915   0.985
22653SOL    HW267986   4.276   4.016   0.856
22654SOL     OW67987   4.732   5.180   0.477
22654SOL    HW167988   4.686   5.252   0.425
22654SOL    HW267989   4.728   5.200   0.575
22655SOL     OW67990   4.075   5.525   0.853
22655SOL    HW167991   4.125   5.439   0.859
22655SOL    HW267992   4.140   5.602   0.850
22656SOL     OW67993   5.519   4.790   0.873
22656SOL    HW167994   5.457   4.775   0.797
22656SOL    HW267995   5.467   4.801   0.958
22657SOL     OW67996   4.951   5.274   1.506
22657SOL    HW167997   4.957   5.197   1.570
22657SOL    HW267998   4.899   5.248   1.426
22658SOL     OW67999   4.045   4.667   0.242
22658SOL    HW168000   4.127   4.706   0.200
22658SOL    HW268001   4.018   4.585   0.193
22659SOL     OW68002   5.182   4.459   0.728
22659SOL    HW168003   5.177   4.394   0.803
22659SOL    HW268004   5.262   4.518   0.741
22660SOL     OW68005   4.185   4.990   1.727
22660SOL    HW168006   4.135   4.991   1.641
22660SOL    HW268007   4.122   4.972   1.803
22661SOL     OW68008   4.835   5.500   0.237
22661SOL    HW168009   4.775   5.438   0.287
22661SOL    HW268010   4.866   5.456   0.152
22662SOL     OW68011   3.926   4.009   1.498
22662SOL    HW168012   3.846   4.069   1.485
22662SOL    HW268013   3.916   3.960   1.584
22663SOL     OW68014   5.356   5.101   0.081
22663SOL    HW168015   5.324   5.195   0.071
22663SOL    HW268016   5.280   5.038   0.069
22664SOL     OW68017   4.188   5.467   0.323
22664SOL    HW168018   4.221   5.506   0.409
22664SOL    HW268019   4.264   5.460   0.258
22665SOL     OW68020   5.124   3.831   0.426
22665SOL    HW168021   5.100   3.794   0.336
22665SOL    HW268022   5.223   3.847   0.430
22666SOL     OW68023   3.973   5.509   1.241
22666SOL    HW168024   4.030   5.444   1.291
22666SOL    HW268025   3.957   5.476   1.148
22667SOL     OW68026   4.664   5.422   0.904
22667SOL    HW168027   4.744   5.365   0.925
22667SOL    HW268028   4.615   5.382   0.827
22668SOL     OW68029   4.106   4.424   0.480
22668SOL    HW168030   4.151   4.334   0.477
22668SOL    HW268031   4.012   4.413   0.513
22669SOL     OW68032   5.271   3.946   1.729
22669SOL    HW168033   5.266   3.983   1.821
22669SOL    HW268034   5.199   3.877   1.717
22670SOL     OW68035   4.338   3.846   0.117
22670SOL    HW168036   4.436   3.824   0.124
22670SOL    HW268037   4.307   3.829   0.024
22671SOL     OW68038   4.505   3.988   1.749
22671SOL    HW168039   4.572   3.927   1.792
22671SOL    HW268040   4.432   4.007   1.814
22672SOL     OW68041   4.612   5.238   1.195
22672SOL    HW168042   4.589   5.213   1.101
22672SOL    HW268043   4.673   5.169   1.234
22673SOL     OW68044   5.075   4.314   1.433
22673SOL    HW168045   5.103   4.271   1.518
22673SOL    HW268046   5.100   4.410   1.434
22674SOL     OW68047   4.527   5.126   0.924
22674SOL    HW168048   4.617   5.140   0.882
22674SOL    HW268049   4.456   5.128   0.853
22675SOL     OW68050   4.646   4.227   0.899
22675SOL    HW168051   4.621   4.218   0.803
22675SOL    HW268052   4.694   4.145   0.930
22676SOL     OW68053   4.263   3.788   0.512
22676SOL    HW168054   4.182   3.789   0.570
22676SOL    HW268055   4.266   3.871   0.457
22677SOL     OW68056   5.158   4.912   0.041
22677SOL    HW168057   5.190   4.836   0.098
22677SOL    HW268058   5.066   4.939   0.071
22678SOL     OW68059   4.021   3.759   0.171
22678SOL    HW168060   4.070   3.843   0.150
22678SOL    HW268061   4.083   3.694   0.216
22679SOL     OW68062   4.659   3.960   0.480
22679SOL    HW168063   4.611   4.001   0.402
22679SOL    HW268064   4.758   3.958   0.461
22680SOL     OW68065   4.800   4.407   1.464
22680SOL    HW168066   4.720   4.346   1.467
22680SOL    HW268067   4.881   4.354   1.440
22681SOL     OW68068   4.951   5.294   0.793
22681SOL    HW168069   4.972   5.368   0.728
22681SOL    HW268070   5.019   5.294   0.866
22682SOL     OW68071   4.183   4.876   0.741
22682SOL    HW168072   4.112   4.849   0.806
22682SOL    HW268073   4.157   4.848   0.648
22683SOL     OW68074   4.995   5.521   0.591
22683SOL    HW168075   5.039   5.585   0.527
22683SOL    HW268076   4.945   5.573   0.661
22684SOL     OW68077   4.756   4.273   0.016
22684SOL    HW168078   4.715   4.355  -0.023
22684SOL    HW268079   4.820   4.299   0.089
22685SOL     OW68080   3.802   4.280   1.386
22685SOL    HW168081   3.894   4.279   1.345
22685SOL    HW268082   3.796   4.354   1.453
22686SOL     OW68083   4.285   3.946   1.147
22686SOL    HW168084   4.323   3.862   1.184
22686SOL    HW268085   4.197   3.965   1.191
22687SOL     OW68086   4.590   4.178   0.642
22687SOL    HW168087   4.558   4.250   0.580
22687SOL    HW268088   4.614   4.097   0.589
22688SOL     OW68089   4.741   3.763   0.753
22688SOL    HW168090   4.669   3.768   0.684
22688SOL    HW268091   4.717   3.694   0.822
22689SOL     OW68092   5.153   4.897   0.867
22689SOL    HW168093   5.098   4.813   0.860
22689SOL    HW268094   5.179   4.926   0.775
22690SOL     OW68095   5.190   4.314   0.992
22690SOL    HW168096   5.160   4.219   0.999
22690SOL    HW268097   5.263   4.330   1.058
22691SOL     OW68098   5.581   4.557   0.377
22691SOL    HW168099   5.623   4.493   0.441
22691SOL    HW268100   5.543   4.506   0.299
22692SOL     OW68101   4.212   5.109   0.174
22692SOL    HW168102   4.125   5.094   0.221
22692SOL    HW268103   4.195   5.135   0.079
22693SOL     OW68104   5.388   5.004   0.657
22693SOL    HW168105   5.487   5.012   0.671
22693SOL    HW268106   5.343   5.088   0.688
22694SOL     OW68107   5.114   4.299   0.078
22694SOL    HW168108   5.060   4.278   0.159
22694SOL    HW268109   5.205   4.258   0.087
22695SOL     OW68110   4.251   3.980   0.328
22695SOL    HW168111   4.278   3.921   0.253
22695SOL    HW268112   4.251   4.075   0.297
22696SOL     OW68113   5.478   4.947   1.588
22696SOL    HW168114   5.569   4.908   1.575
22696SOL    HW268115   5.486   5.043   1.612
22697SOL     OW68116   4.788   5.071   1.340
22697SOL    HW168117   4.708   5.048   1.395
22697SOL    HW268118   4.871   5.045   1.389
22698SOL     OW68119   5.316   5.353   1.625
22698SOL    HW168120   5.343   5.387   1.535
22698SOL    HW268121   5.395   5.315   1.671
22699SOL     OW68122   4.835   4.919   1.100
22699SOL    HW168123   4.795   4.963   1.181
22699SOL    HW268124   4.794   4.956   1.017
22700SOL     OW68125   5.362   4.823   1.079
22700SOL    HW168126   5.367   4.904   1.138
22700SOL    HW268127   5.276   4.825   1.028
22701SOL     OW68128   4.639   3.813   1.402
22701SOL    HW168129   4.664   3.793   1.307
22701SOL    HW268130   4.711   3.869   1.444
22702SOL     OW68131   4.704   4.840   1.719
22702SOL    HW168132   4.605   4.846   1.729
22702SOL    HW268133   4.727   4.760   1.663
22703SOL     OW68134   4.429   4.774   0.368
22703SOL    HW168135   4.415   4.781   0.467
22703SOL    HW268136   4.513   4.723   0.350
22704SOL     OW68137   4.134   4.537   1.251
22704SOL    HW168138   4.220   4.549   1.301
22704SOL    HW268139   4.092   4.450   1.278
22705SOL     OW68140   4.998   4.110   1.262
22705SOL    HW168141   5.019   4.184   1.326
22705SOL    HW268142   4.909   4.127   1.219
22706SOL     OW68143   3.788   5.288   1.331
22706SOL    HW168144   3.742   5.370   1.297
22706SOL    HW268145   3.886   5.307   1.340
22707SOL     OW68146   4.091   4.824   0.501
22707SOL    HW168147   4.084   4.907   0.445
22707SOL    HW268148   4.095   4.744   0.441
22708SOL     OW68149   4.290   4.261   0.865
22708SOL    HW168150   4.302   4.327   0.791
22708SOL    HW268151   4.336   4.295   0.948
22709SOL     OW68152   4.976   5.072   0.388
22709SOL    HW168153   5.026   5.149   0.428
22709SOL    HW268154   4.881   5.074   0.420
22710SOL     OW68155   4.996   5.169   1.142
22710SOL    HW168156   5.043   5.182   1.229
22710SOL    HW268157   4.930   5.095   1.151
22711SOL     OW68158   5.306   4.363   0.472
22711SOL    HW168159   5.275   4.424   0.545
22711SOL    HW268160   5.356   4.415   0.403
22712SOL     OW68161   4.078   5.234   1.329
22712SOL    HW168162   4.057   5.190   1.242
22712SOL    HW268163   4.175   5.260   1.332
22713SOL     OW68164   4.126   4.475   1.598
22713SOL    HW168165   4.194   4.530   1.551
22713SOL    HW268166   4.166   4.387   1.625
22714SOL     OW68167   5.311   4.503   1.670
22714SOL    HW168168   5.219   4.541   1.665
22714SOL    HW268169   5.371   4.550   1.605
22715SOL     OW68170   4.737   3.829   1.770
22715SOL    HW168171   4.743   3.914   1.718
22715SOL    HW268172   4.769   3.753   1.713
22716SOL     OW68173   4.228   3.774   1.740
22716SOL    HW168174   4.186   3.717   1.670
22716SOL    HW268175   4.162   3.843   1.772
22717SOL     OW68176   4.297   4.594   1.029
22717SOL    HW168177   4.341   4.683   1.020
22717SOL    HW268178   4.234   4.594   1.106
22718SOL     OW68179   5.084   4.586   1.045
22718SOL    HW168180   5.009   4.586   0.979
22718SOL    HW268181   5.121   4.494   1.054
22719SOL     OW68182   4.933   4.249   0.275
22719SOL    HW168183   4.946   4.165   0.329
22719SOL    HW268184   4.904   4.323   0.335
22720SOL     OW68185   4.031   3.937   1.231
22720SOL    HW168186   4.008   3.974   1.321
22720SOL    HW268187   4.001   3.842   1.225
22721SOL     OW68188   3.761   5.034   1.282
22721SOL    HW168189   3.814   4.985   1.350
22721SOL    HW268190   3.783   5.132   1.287
22722SOL     OW68191   4.456   4.358   1.064
22722SOL    HW168192   4.515   4.332   0.988
22722SOL    HW268193   4.428   4.454   1.053
22723SOL     OW68194   5.452   4.659   1.854
22723SOL    HW168195   5.406   4.652   1.765
22723SOL    HW268196   5.390   4.703   1.920
22724SOL     OW68197   4.031   3.787   0.618
22724SOL    HW168198   4.020   3.881   0.651
22724SOL    HW268199   4.026   3.724   0.695
22725SOL     OW68200   5.346   4.091   0.374
22725SOL    HW168201   5.348   4.015   0.438
22725SOL    HW268202   5.298   4.168   0.414
22726SOL     OW68203   4.747   4.490   0.966
22726SOL    HW168204   4.762   4.511   1.062
22726SOL    HW268205   4.717   4.395   0.957
22727SOL     OW68206   4.704   5.297   1.700
22727SOL    HW168207   4.684   5.341   1.612
22727SOL    HW268208   4.743   5.206   1.684
22728SOL     OW68209   5.583   5.242   1.605
22728SOL    HW168210   5.597   5.269   1.510
22728SOL    HW268211   5.666   5.264   1.658
22729SOL     OW68212   4.074   4.622   1.804
22729SOL    HW168213   4.150   4.666   1.852
22729SOL    HW268214   4.109   4.575   1.722
22730SOL     OW68215   5.264   3.998   0.125
22730SOL    HW168216   5.203   3.923   0.148
22730SOL    HW268217   5.286   4.050   0.208
22731SOL     OW68218   5.027   4.562   0.042
22731SOL    HW168219   5.061   4.469   0.057
22731SOL    HW268220   5.045   4.589  -0.053
22732SOL     OW68221   4.792   5.057   0.849
22732SOL    HW168222   4.799   4.973   0.794
22732SOL    HW268223   4.854   5.126   0.813
22733SOL     OW68224   4.043   4.534   0.949
22733SOL    HW168225   4.136   4.570   0.954
22733SOL    HW268226   4.037   4.449   1.001
22734SOL     OW68227   4.063   4.233   1.006
22734SOL    HW168228   4.011   4.150   0.989
22734SOL    HW268229   4.140   4.238   0.942
22735SOL     OW68230   4.862   4.104   1.678
22735SOL    HW168231   4.817   4.167   1.742
22735SOL    HW268232   4.955   4.135   1.661
22736SOL     OW68233   4.884   3.931   1.477
22736SOL    HW168234   4.884   3.995   1.554
22736SOL    HW268235   4.912   3.979   1.394
22737SOL     OW68236   3.732   5.050   0.200
22737SOL    HW168237   3.639   5.071   0.169
22737SOL    HW268238   3.742   4.951   0.213
22738SOL     OW68239   3.812   5.525   0.927
22738SOL    HW168240   3.770   5.439   0.900
22738SOL    HW268241   3.906   5.528   0.893
22739SOL     OW68242   4.228   5.292   0.910
22739SOL    HW168243   4.294   5.366   0.919
22739SOL    HW268244   4.272   5.213   0.868
22740SOL     OW68245   4.726   4.520   1.238
22740SOL    HW168246   4.767   4.488   1.324
22740SOL    HW268247   4.630   4.493   1.235
22741SOL     OW68248   3.764   4.268   1.114
22741SOL    HW168249   3.849   4.235   1.073
22741SOL    HW268250   3.777   4.283   1.212
22742SOL     OW68251   3.913   4.244   1.722
22742SOL    HW168252   3.972   4.204   1.652
22742SOL    HW268253   3.855   4.315   1.681
22743SOL     OW68254   5.093   4.674   1.660
22743SOL    HW168255   5.132   4.763   1.680
22743SOL    HW268256   5.103   4.654   1.563
22744SOL     OW68257   4.539   4.296   0.325
22744SOL    HW168258   4.546   4.207   0.279
22744SOL    HW268259   4.445   4.330   0.317
22745SOL     OW68260   5.381   4.328   1.206
22745SOL    HW168261   5.343   4.259   1.268
22745SOL    HW268262   5.463   4.292   1.162
22746SOL     OW68263   3.976   5.288   1.744
22746SOL    HW168264   3.946   5.345   1.820
22746SOL    HW268265   3.969   5.191   1.770
22747SOL     OW68266   4.395   4.188   1.269
22747SOL    HW168267   4.361   4.099   1.239
22747SOL    HW268268   4.421   4.242   1.189
22748SOL     OW68269   4.654   5.402   1.465
22748SOL    HW168270   4.630   5.384   1.370
22748SOL    HW268271   4.684   5.496   1.475
22749SOL     OW68272   4.197   4.224   0.191
22749SOL    HW168273   4.258   4.304   0.195
22749SOL    HW268274   4.102   4.255   0.198
22750SOL     OW68275   3.883   4.861   1.466
22750SOL    HW168276   3.905   4.800   1.542
22750SOL    HW268277   3.893   4.812   1.380
22751SOL     OW68278   5.071   4.783   1.234
22751SOL    HW168279   5.095   4.720   1.160
22751SOL    HW268280   4.981   4.823   1.216
22752SOL     OW68281   5.026   4.579   0.309
22752SOL    HW168282   4.940   4.548   0.351
22752SOL    HW268283   5.022   4.565   0.210
22753SOL     OW68284   5.483   5.471   1.154
22753SOL    HW168285   5.544   5.501   1.081
22753SOL    HW268286   5.445   5.382   1.132
22754SOL     OW68287   4.976   5.455   1.128
22754SOL    HW168288   5.060   5.460   1.074
22754SOL    HW268289   4.953   5.359   1.146
22755SOL     OW68290   3.807   4.982   1.022
22755SOL    HW168291   3.802   4.981   1.122
22755SOL    HW268292   3.724   4.941   0.984
22756SOL     OW68293   4.412   5.386   1.716
22756SOL    HW168294   4.356   5.467   1.725
22756SOL    HW268295   4.464   5.390   1.630
22757SOL     OW68296   4.627   3.810   0.133
22757SOL    HW168297   4.678   3.811   0.047
22757SOL    HW268298   4.683   3.768   0.204
22758SOL     OW68299   5.450   3.859   0.523
22758SOL    HW168300   5.523   3.842   0.456
22758SOL    HW268301   5.419   3.772   0.561
22759SOL     OW68302   5.112   5.297   0.477
22759SOL    HW168303   5.179   5.309   0.403
22759SOL    HW268304   5.072   5.386   0.500
22760SOL     OW68305   3.854   5.518   1.851
22760SOL    HW168306   3.813   5.444   1.904
22760SOL    HW268307   3.918   5.569   1.909
22761SOL     OW68308   5.004   4.651   0.672
22761SOL    HW168309   5.064   4.570   0.674
22761SOL    HW268310   5.044   4.720   0.612
22762SOL     OW68311   4.554   4.997   1.422
22762SOL    HW168312   4.549   5.030   1.517
22762SOL    HW268313   4.468   5.016   1.376
22763SOL     OW68314   4.396   5.340   0.154
22763SOL    HW168315   4.405   5.350   0.055
22763SOL    HW268316   4.356   5.251   0.175
22764SOL     OW68317   5.374   5.444   1.394
22764SOL    HW168318   5.427   5.454   1.310
22764SOL    HW268319   5.347   5.534   1.428
22765SOL     OW68320   5.565   3.899   0.963
22765SOL    HW168321   5.604   3.814   0.927
22765SOL    HW268322   5.467   3.901   0.944
22766SOL     OW68323   3.987   4.050   0.720
22766SOL    HW168324   3.908   4.101   0.686
22766SOL    HW268325   3.978   4.035   0.818
22767SOL     OW68326   4.918   5.336   0.031
22767SOL    HW168327   4.924   5.243   0.068
22767SOL    HW268328   4.859   5.336  -0.049
22768SOL     OW68329   4.546   4.726   1.372
22768SOL    HW168330   4.586   4.725   1.280
22768SOL    HW268331   4.556   4.818   1.412
22769SOL     OW68332   4.640   4.634   0.291
22769SOL    HW168333   4.703   4.672   0.223
22769SOL    HW268334   4.680   4.551   0.330
22770SOL     OW68335   5.228   5.331   0.044
22770SOL    HW168336   5.136   5.368   0.051
22770SOL    HW268337   5.266   5.351  -0.046
22771SOL     OW68338   4.096   5.012   1.490
22771SOL    HW168339   4.083   5.105   1.456
22771SOL    HW268340   4.012   4.960   1.477
22772SOL     OW68341   5.338   5.016   1.289
22772SOL    HW168342   5.398   5.019   1.369
22772SOL    HW268343   5.263   5.080   1.302
22773SOL     OW68344   4.763   4.822   0.696
22773SOL    HW168345   4.693   4.775   0.750
22773SOL    HW268346   4.822   4.754   0.653
22774SOL     OW68347   4.738   3.960   0.971
22774SOL    HW168348   4.730   3.924   0.878
22774SOL    HW268349   4.736   3.884   1.036
22775SOL     OW68350   4.314   5.211   0.491
22775SOL    HW168351   4.356   5.153   0.421
22775SOL    HW268352   4.270   5.290   0.447
22776SOL     OW68353   5.433   4.109   1.381
22776SOL    HW168354   5.506   4.178   1.385
22776SOL    HW268355   5.461   4.034   1.322
22777SOL     OW68356   3.979   5.072   0.290
22777SOL    HW168357   3.883   5.073   0.263
22777SOL    HW268358   3.991   5.125   0.374
22778SOL     OW68359   3.829   4.737   1.726
22778SOL    HW168360   3.752   4.704   1.780
22778SOL    HW268361   3.914   4.707   1.768
22779SOL     OW68362   4.396   3.927   1.489
22779SOL    HW168363   4.486   3.911   1.449
22779SOL    HW268364   4.404   3.932   1.588
22780SOL     OW68365   5.164   4.580   1.398
22780SOL    HW168366   5.107   4.632   1.335
22780SOL    HW268367   5.260   4.592   1.374
22781SOL     OW68368   3.796   3.890   0.318
22781SOL    HW168369   3.779   3.973   0.264
22781SOL    HW268370   3.886   3.853   0.296
22782SOL     OW68371   4.907   5.059   0.119
22782SOL    HW168372   4.808   5.048   0.121
22782SOL    HW268373   4.941   5.074   0.212
22783SOL     OW68374   4.337   4.566   1.431
22783SOL    HW168375   4.393   4.647   1.414
22783SOL    HW268376   4.396   4.486   1.434
22784SOL     OW68377   5.217   5.491   0.959
22784SOL    HW168378   5.250   5.555   0.890
22784SOL    HW268379   5.283   5.485   1.034
22785SOL     OW68380   4.440   4.289   1.708
22785SOL    HW168381   4.459   4.354   1.782
22785SOL    HW268382   4.500   4.209   1.717
22786SOL     OW68383   5.174   4.944   1.633
22786SOL    HW168384   5.165   4.934   1.732
22786SOL    HW268385   5.270   4.937   1.607
22787SOL     OW68386   4.114   5.465   1.560
22787SOL    HW168387   4.023   5.506   1.558
22787SOL    HW268388   4.107   5.371   1.592
22788SOL     OW68389   5.398   4.607   1.254
22788SOL    HW168390   5.371   4.518   1.217
22788SOL    HW268391   5.399   4.675   1.181
22789SOL     OW68392   4.949   4.049   0.449
22789SOL    HW168393   5.014   3.975   0.438
22789SOL    HW268394   4.969   4.099   0.533
22790SOL     OW68395   4.318   4.469   0.652
22790SOL    HW168396   4.368   4.554   0.633
22790SOL    HW268397   4.230   4.471   0.604
22791SOL     OW68398   5.501   4.066   1.642
22791SOL    HW168399   5.484   4.097   1.548
22791SOL    HW268400   5.417   4.029   1.680
22792SOL     OW68401   5.454   4.658   1.517
22792SOL    HW168402   5.492   4.749   1.532
22792SOL    HW268403   5.446   4.641   1.418
22793SOL     OW68404   4.583   5.098   0.016
22793SOL    HW168405   4.537   5.113   0.104
22793SOL    HW268406   4.627   5.183  -0.014
22794SOL     OW68407   4.385   5.514   0.953
22794SOL    HW168408   4.339   5.602   0.940
22794SOL    HW268409   4.484   5.526   0.946
22795SOL     OW68410   4.583   4.680   0.861
22795SOL    HW168411   4.637   4.611   0.909
22795SOL    HW268412   4.551   4.749   0.927
22796SOL     OW68413   4.807   4.708   0.087
22796SOL    HW168414   4.784   4.761   0.005
22796SOL    HW268415   4.888   4.652   0.068
22797SOL     OW68416   5.585   5.293   0.851
22797SOL    HW168417   5.514   5.281   0.781
22797SOL    HW268418   5.586   5.214   0.911
22798SOL     OW68419   3.945   5.038   1.844
22798SOL    HW168420   3.880   4.965   1.823
22798SOL    HW268421   3.949   5.052   1.942
22799SOL     OW68422   3.803   4.964   0.653
22799SOL    HW168423   3.802   4.917   0.741
22799SOL    HW268424   3.885   4.936   0.602
22800SOL     OW68425   4.396   5.115   1.624
22800SOL    HW168426   4.318   5.065   1.662
22800SOL    HW268427   4.393   5.210   1.655
22801SOL     OW68428   5.548   3.916   1.227
22801SOL    HW168429   5.544   3.826   1.271
22801SOL    HW268430   5.551   3.905   1.128
22802SOL     OW68431   4.152   4.148   0.520
22802SOL    HW168432   4.182   4.076   0.458
22802SOL    HW268433   4.113   4.108   0.603
22803SOL     OW68434   5.429   5.211   1.104
22803SOL    HW168435   5.336   5.186   1.077
22803SOL    HW268436   5.455   5.161   1.186
22804SOL     OW68437   4.041   4.271   1.280
22804SOL    HW168438   4.079   4.212   1.352
22804SOL    HW268439   4.081   4.245   1.192
22805SOL     OW68440   4.536   5.310   0.687
22805SOL    HW168441   4.568   5.320   0.593
22805SOL    HW268442   4.457   5.248   0.689
22806SOL     OW68443   5.148   3.938   1.112
22806SOL    HW168444   5.200   3.873   1.167
22806SOL    HW268445   5.099   4.001   1.173
22807SOL     OW68446   4.725   3.758   1.154
22807SOL    HW168447   4.662   3.686   1.123
22807SOL    HW268448   4.818   3.722   1.154
22808SOL     OW68449   4.494   5.054   0.301
22808SOL    HW168450   4.448   4.967   0.318
22808SOL    HW268451   4.585   5.051   0.342
22809SOL     OW68452   4.342   5.291   1.284
22809SOL    HW168453   4.337   5.373   1.341
22809SOL    HW268454   4.431   5.288   1.239
22810SOL     OW68455   5.076   3.776   0.168
22810SOL    HW168456   5.111   3.735   0.084
22810SOL    HW268457   4.986   3.738   0.188
22811SOL     OW68458   5.024   4.177   0.691
22811SOL    HW168459   4.965   4.257   0.695
22811SOL    HW268460   5.039   4.142   0.784
22812SOL     OW68461   5.317   3.945   0.882
22812SOL    HW168462   5.233   3.944   0.936
22812SOL    HW268463   5.319   4.028   0.826
22813SOL     OW68464   3.763   4.801   0.300
22813SOL    HW168465   3.862   4.790   0.291
22813SOL    HW268466   3.723   4.715   0.332
22814SOL     OW68467   4.599   5.370   0.337
22814SOL    HW168468   4.522   5.335   0.283
22814SOL    HW268469   4.567   5.441   0.399
22815SOL     OW68470   3.954   4.352   1.975
22815SOL    HW168471   3.861   4.350   2.012
22815SOL    HW268472   3.955   4.313   1.883
22816SOL     OW68473   3.949   3.999   2.858
22816SOL    HW168474   3.984   3.982   2.950
22816SOL    HW268475   3.861   3.954   2.846
22817SOL     OW68476   3.743   4.092   2.509
22817SOL    HW168477   3.661   4.135   2.548
22817SOL    HW268478   3.715   4.019   2.446
22818SOL     OW68479   4.293   4.999   3.027
22818SOL    HW168480   4.200   4.992   2.990
22818SOL    HW268481   4.304   5.088   3.071
22819SOL     OW68482   5.279   5.235   2.565
22819SOL    HW168483   5.222   5.219   2.646
22819SOL    HW268484   5.220   5.245   2.485
22820SOL     OW68485   4.859   4.427   2.579
22820SOL    HW168486   4.916   4.505   2.554
22820SOL    HW268487   4.799   4.453   2.655
22821SOL     OW68488   5.479   4.331   2.093
22821SOL    HW168489   5.467   4.318   1.994
22821SOL    HW268490   5.449   4.250   2.142
22822SOL     OW68491   4.492   4.868   2.885
22822SOL    HW168492   4.414   4.885   2.945
22822SOL    HW268493   4.526   4.955   2.849
22823SOL     OW68494   4.574   4.522   3.685
22823SOL    HW168495   4.570   4.598   3.750
22823SOL    HW268496   4.596   4.558   3.594
22824SOL     OW68497   4.409   4.736   2.527
22824SOL    HW168498   4.478   4.720   2.597
22824SOL    HW268499   4.336   4.793   2.565
22825SOL     OW68500   4.410   4.885   3.665
22825SOL    HW168501   4.470   4.964   3.679
22825SOL    HW268502   4.324   4.916   3.624
22826SOL     OW68503   4.059   5.159   2.923
22826SOL    HW168504   3.981   5.128   2.870
22826SOL    HW268505   4.117   5.217   2.866
22827SOL     OW68506   5.184   5.229   3.201
22827SOL    HW168507   5.208   5.323   3.227
22827SOL    HW268508   5.168   5.175   3.283
22828SOL     OW68509   4.162   4.116   3.361
22828SOL    HW168510   4.244   4.060   3.370
22828SOL    HW268511   4.081   4.058   3.365
22829SOL     OW68512   5.327   4.171   2.599
22829SOL    HW168513   5.253   4.217   2.549
22829SOL    HW268514   5.378   4.239   2.652
22830SOL     OW68515   3.955   5.437   2.345
22830SOL    HW168516   3.989   5.514   2.399
22830SOL    HW268517   3.999   5.437   2.255
22831SOL     OW68518   4.851   5.065   3.552
22831SOL    HW168519   4.898   5.065   3.640
22831SOL    HW268520   4.803   4.978   3.541
22832SOL     OW68521   3.954   5.158   2.400
22832SOL    HW168522   3.928   5.254   2.400
22832SOL    HW268523   3.883   5.104   2.445
22833SOL     OW68524   3.964   4.815   2.748
22833SOL    HW168525   3.978   4.731   2.800
22833SOL    HW268526   3.909   4.879   2.803
22834SOL     OW68527   4.344   5.510   3.301
22834SOL    HW168528   4.252   5.493   3.336
22834SOL    HW268529   4.372   5.602   3.327
22835SOL     OW68530   4.330   4.688   1.985
22835SOL    HW168531   4.337   4.772   1.931
22835SOL    HW268532   4.376   4.701   2.073
22836SOL     OW68533   5.318   3.838   3.342
22836SOL    HW168534   5.300   3.905   3.270
22836SOL    HW268535   5.315   3.884   3.431
22837SOL     OW68536   3.846   4.367   2.425
22837SOL    HW168537   3.801   4.279   2.442
22837SOL    HW268538   3.845   4.421   2.509
22838SOL     OW68539   5.566   5.491   2.221
22838SOL    HW168540   5.620   5.462   2.301
22838SOL    HW268541   5.596   5.581   2.192
22839SOL     OW68542   3.751   5.320   1.979
22839SOL    HW168543   3.732   5.224   2.000
22839SOL    HW268544   3.718   5.378   2.054
22840SOL     OW68545   5.413   4.646   2.474
22840SOL    HW168546   5.508   4.617   2.482
22840SOL    HW268547   5.405   4.711   2.399
22841SOL     OW68548   5.365   4.832   2.294
22841SOL    HW168549   5.451   4.834   2.242
22841SOL    HW268550   5.379   4.879   2.382
22842SOL     OW68551   3.837   4.461   3.459
22842SOL    HW168552   3.925   4.448   3.504
22842SOL    HW268553   3.824   4.558   3.437
22843SOL     OW68554   4.337   5.089   2.588
22843SOL    HW168555   4.288   5.002   2.597
22843SOL    HW268556   4.314   5.132   2.501
22844SOL     OW68557   5.017   4.952   3.285
22844SOL    HW168558   5.054   4.879   3.227
22844SOL    HW268559   5.069   4.957   3.370
22845SOL     OW68560   4.533   3.728   2.364
22845SOL    HW168561   4.573   3.819   2.355
22845SOL    HW268562   4.433   3.736   2.370
22846SOL     OW68563   3.921   4.700   3.126
22846SOL    HW168564   4.010   4.655   3.112
22846SOL    HW268565   3.848   4.635   3.107
22847SOL     OW68566   5.249   4.723   2.052
22847SOL    HW168567   5.186   4.647   2.065
22847SOL    HW268568   5.297   4.741   2.138
22848SOL     OW68569   4.911   5.516   3.478
22848SOL    HW168570   4.935   5.576   3.402
22848SOL    HW268571   4.918   5.421   3.448
22849SOL     OW68572   4.041   3.975   3.663
22849SOL    HW168573   4.112   4.046   3.669
22849SOL    HW268574   3.953   4.014   3.691
22850SOL     OW68575   5.190   5.141   2.815
22850SOL    HW168576   5.131   5.147   2.895
22850SOL    HW268577   5.175   5.053   2.769
22851SOL     OW68578   5.391   5.438   2.434
22851SOL    HW168579   5.350   5.415   2.346
22851SOL    HW268580   5.373   5.364   2.499
22852SOL     OW68581   4.322   4.453   2.132
22852SOL    HW168582   4.346   4.522   2.064
22852SOL    HW268583   4.244   4.486   2.186
22853SOL     OW68584   5.005   4.069   2.806
22853SOL    HW168585   4.919   4.019   2.793
22853SOL    HW268586   5.067   4.015   2.862
22854SOL     OW68587   5.300   5.386   2.169
22854SOL    HW168588   5.389   5.432   2.172
22854SOL    HW268589   5.279   5.362   2.074
22855SOL     OW68590   4.531   4.329   3.327
22855SOL    HW168591   4.484   4.326   3.416
22855SOL    HW268592   4.480   4.274   3.261
22856SOL     OW68593   5.118   4.193   3.536
22856SOL    HW168594   5.098   4.236   3.624
22856SOL    HW268595   5.196   4.131   3.545
22857SOL     OW68596   4.697   4.614   3.434
22857SOL    HW168597   4.743   4.530   3.405
22857SOL    HW268598   4.641   4.648   3.359
22858SOL     OW68599   4.715   4.134   3.104
22858SOL    HW168600   4.638   4.168   3.158
22858SOL    HW268601   4.681   4.083   3.025
22859SOL     OW68602   4.765   4.425   2.291
22859SOL    HW168603   4.791   4.421   2.387
22859SOL    HW268604   4.680   4.374   2.277
22860SOL     OW68605   3.800   4.535   2.651
22860SOL    HW168606   3.899   4.523   2.660
22860SOL    HW268607   3.776   4.630   2.672
22861SOL     OW68608   3.854   5.545   3.433
22861SOL    HW168609   3.844   5.530   3.532
22861SOL    HW268610   3.768   5.581   3.397
22862SOL     OW68611   4.589   4.072   2.057
22862SOL    HW168612   4.648   4.135   2.008
22862SOL    HW268613   4.608   3.978   2.028
22863SOL     OW68614   5.443   4.309   3.693
22863SOL    HW168615   5.417   4.398   3.657
22863SOL    HW268616   5.441   4.241   3.620
22864SOL     OW68617   5.086   4.868   2.407
22864SOL    HW168618   5.169   4.839   2.359
22864SOL    HW268619   5.037   4.935   2.351
22865SOL     OW68620   4.274   3.920   2.747
22865SOL    HW168621   4.269   3.915   2.847
22865SOL    HW268622   4.276   4.016   2.718
22866SOL     OW68623   4.732   5.180   2.339
22866SOL    HW168624   4.686   5.252   2.287
22866SOL    HW268625   4.728   5.200   2.437
22867SOL     OW68626   4.075   5.525   2.715
22867SOL    HW168627   4.125   5.439   2.721
22867SOL    HW268628   4.140   5.602   2.712
22868SOL     OW68629   5.519   4.790   2.735
22868SOL    HW168630   5.457   4.775   2.659
22868SOL    HW268631   5.467   4.801   2.820
22869SOL     OW68632   4.951   5.274   3.368
22869SOL    HW168633   4.957   5.197   3.432
22869SOL    HW268634   4.899   5.248   3.288
22870SOL     OW68635   4.045   4.667   2.104
22870SOL    HW168636   4.127   4.706   2.062
22870SOL    HW268637   4.018   4.585   2.055
22871SOL     OW68638   5.182   4.459   2.590
22871SOL    HW168639   5.177   4.394   2.665
22871SOL    HW268640   5.262   4.518   2.603
22872SOL     OW68641   4.185   4.990   3.589
22872SOL    HW168642   4.135   4.991   3.503
22872SOL    HW268643   4.122   4.972   3.665
22873SOL     OW68644   4.835   5.500   2.099
22873SOL    HW168645   4.775   5.438   2.149
22873SOL    HW268646   4.866   5.456   2.014
22874SOL     OW68647   3.926   4.009   3.360
22874SOL    HW168648   3.846   4.069   3.347
22874SOL    HW268649   3.916   3.960   3.446
22875SOL     OW68650   5.356   5.101   1.943
22875SOL    HW168651   5.324   5.195   1.933
22875SOL    HW268652   5.280   5.038   1.931
22876SOL     OW68653   4.188   5.467   2.185
22876SOL    HW168654   4.221   5.506   2.271
22876SOL    HW268655   4.264   5.460   2.120
22877SOL     OW68656   5.124   3.831   2.288
22877SOL    HW168657   5.100   3.794   2.198
22877SOL    HW268658   5.223   3.847   2.292
22878SOL     OW68659   3.973   5.509   3.103
22878SOL    HW168660   4.030   5.444   3.153
22878SOL    HW268661   3.957   5.476   3.010
22879SOL     OW68662   4.664   5.422   2.766
22879SOL    HW168663   4.744   5.365   2.787
22879SOL    HW268664   4.615   5.382   2.689
22880SOL     OW68665   4.106   4.424   2.342
22880SOL    HW168666   4.151   4.334   2.339
22880SOL    HW268667   4.012   4.413   2.375
22881SOL     OW68668   5.271   3.946   3.591
22881SOL    HW168669   5.266   3.983   3.683
22881SOL    HW268670   5.199   3.877   3.579
22882SOL     OW68671   4.338   3.846   1.979
22882SOL    HW168672   4.436   3.824   1.986
22882SOL    HW268673   4.307   3.829   1.886
22883SOL     OW68674   4.505   3.988   3.611
22883SOL    HW168675   4.572   3.927   3.654
22883SOL    HW268676   4.432   4.007   3.676
22884SOL     OW68677   4.612   5.238   3.057
22884SOL    HW168678   4.589   5.213   2.963
22884SOL    HW268679   4.673   5.169   3.096
22885SOL     OW68680   5.075   4.314   3.295
22885SOL    HW168681   5.103   4.271   3.380
22885SOL    HW268682   5.100   4.410   3.296
22886SOL     OW68683   4.527   5.126   2.786
22886SOL    HW168684   4.617   5.140   2.744
22886SOL    HW268685   4.456   5.128   2.715
22887SOL     OW68686   4.646   4.227   2.761
22887SOL    HW168687   4.621   4.218   2.665
22887SOL    HW268688   4.694   4.145   2.792
22888SOL     OW68689   4.263   3.788   2.374
22888SOL    HW168690   4.182   3.789   2.432
22888SOL    HW268691   4.266   3.871   2.319
22889SOL     OW68692   5.158   4.912   1.903
22889SOL    HW168693   5.190   4.836   1.960
22889SOL    HW268694   5.066   4.939   1.933
22890SOL     OW68695   4.021   3.759   2.033
22890SOL    HW168696   4.070   3.843   2.012
22890SOL    HW268697   4.083   3.694   2.078
22891SOL     OW68698   4.659   3.960   2.342
22891SOL    HW168699   4.611   4.001   2.264
22891SOL    HW268700   4.758   3.958   2.323
22892SOL     OW68701   4.800   4.407   3.326
22892SOL    HW168702   4.720   4.346   3.329
22892SOL    HW268703   4.881   4.354   3.302
22893SOL     OW68704   4.951   5.294   2.655
22893SOL    HW168705   4.972   5.368   2.590
22893SOL    HW268706   5.019   5.294   2.728
22894SOL     OW68707   4.183   4.876   2.603
22894SOL    HW168708   4.112   4.849   2.668
22894SOL    HW268709   4.157   4.848   2.510
22895SOL     OW68710   4.995   5.521   2.453
22895SOL    HW168711   5.039   5.585   2.389
22895SOL    HW268712   4.945   5.573   2.523
22896SOL     OW68713   3.802   4.280   3.248
22896SOL    HW168714   3.894   4.279   3.207
22896SOL    HW268715   3.796   4.354   3.315
22897SOL     OW68716   4.285   3.946   3.009
22897SOL    HW168717   4.323   3.862   3.046
22897SOL    HW268718   4.197   3.965   3.053
22898SOL     OW68719   4.590   4.178   2.504
22898SOL    HW168720   4.558   4.250   2.442
22898SOL    HW268721   4.614   4.097   2.451
22899SOL     OW68722   4.741   3.763   2.615
22899SOL    HW168723   4.669   3.768   2.546
22899SOL    HW268724   4.717   3.694   2.684
22900SOL     OW68725   5.153   4.897   2.729
22900SOL    HW168726   5.098   4.813   2.722
22900SOL    HW268727   5.179   4.926   2.637
22901SOL     OW68728   5.190   4.314   2.854
22901SOL    HW168729   5.160   4.219   2.861
22901SOL    HW268730   5.263   4.330   2.920
22902SOL     OW68731   5.581   4.557   2.239
22902SOL    HW168732   5.623   4.493   2.303
22902SOL    HW268733   5.543   4.506   2.161
22903SOL     OW68734   4.212   5.109   2.036
22903SOL    HW168735   4.125   5.094   2.083
22903SOL    HW268736   4.195   5.135   1.941
22904SOL     OW68737   5.388   5.004   2.519
22904SOL    HW168738   5.487   5.012   2.533
22904SOL    HW268739   5.343   5.088   2.550
22905SOL     OW68740   5.114   4.299   1.940
22905SOL    HW168741   5.060   4.278   2.021
22905SOL    HW268742   5.205   4.258   1.949
22906SOL     OW68743   4.251   3.980   2.190
22906SOL    HW168744   4.278   3.921   2.115
22906SOL    HW268745   4.251   4.075   2.159
22907SOL     OW68746   5.478   4.947   3.450
22907SOL    HW168747   5.569   4.908   3.437
22907SOL    HW268748   5.486   5.043   3.474
22908SOL     OW68749   4.788   5.071   3.202
22908SOL    HW168750   4.708   5.048   3.257
22908SOL    HW268751   4.871   5.045   3.251
22909SOL     OW68752   5.316   5.353   3.487
22909SOL    HW168753   5.343   5.387   3.397
22909SOL    HW268754   5.395   5.315   3.533
22910SOL     OW68755   4.835   4.919   2.962
22910SOL    HW168756   4.795   4.963   3.043
22910SOL    HW268757   4.794   4.956   2.879
22911SOL     OW68758   5.362   4.823   2.941
22911SOL    HW168759   5.367   4.904   3.000
22911SOL    HW268760   5.276   4.825   2.890
22912SOL     OW68761   4.639   3.813   3.264
22912SOL    HW168762   4.664   3.793   3.169
22912SOL    HW268763   4.711   3.869   3.306
22913SOL     OW68764   4.704   4.840   3.581
22913SOL    HW168765   4.605   4.846   3.591
22913SOL    HW268766   4.727   4.760   3.525
22914SOL     OW68767   4.429   4.774   2.230
22914SOL    HW168768   4.415   4.781   2.329
22914SOL    HW268769   4.513   4.723   2.212
22915SOL     OW68770   4.134   4.537   3.113
22915SOL    HW168771   4.220   4.549   3.163
22915SOL    HW268772   4.092   4.450   3.140
22916SOL     OW68773   4.998   4.110   3.124
22916SOL    HW168774   5.019   4.184   3.188
22916SOL    HW268775   4.909   4.127   3.081
22917SOL     OW68776   3.788   5.288   3.193
22917SOL    HW168777   3.742   5.370   3.159
22917SOL    HW268778   3.886   5.307   3.202
22918SOL     OW68779   4.091   4.824   2.363
22918SOL    HW168780   4.084   4.907   2.307
22918SOL    HW268781   4.095   4.744   2.303
22919SOL     OW68782   4.290   4.261   2.727
22919SOL    HW168783   4.302   4.327   2.653
22919SOL    HW268784   4.336   4.295   2.810
22920SOL     OW68785   4.976   5.072   2.250
22920SOL    HW168786   5.026   5.149   2.290
22920SOL    HW268787   4.881   5.074   2.282
22921SOL     OW68788   4.996   5.169   3.004
22921SOL    HW168789   5.043   5.182   3.091
22921SOL    HW268790   4.930   5.095   3.013
22922SOL     OW68791   5.306   4.363   2.334
22922SOL    HW168792   5.275   4.424   2.407
22922SOL    HW268793   5.356   4.415   2.265
22923SOL     OW68794   4.078   5.234   3.191
22923SOL    HW168795   4.057   5.190   3.104
22923SOL    HW268796   4.175   5.260   3.194
22924SOL     OW68797   4.126   4.475   3.460
22924SOL    HW168798   4.194   4.530   3.413
22924SOL    HW268799   4.166   4.387   3.487
22925SOL     OW68800   5.311   4.503   3.532
22925SOL    HW168801   5.219   4.541   3.527
22925SOL    HW268802   5.371   4.550   3.467
22926SOL     OW68803   4.737   3.829   3.632
22926SOL    HW168804   4.743   3.914   3.580
22926SOL    HW268805   4.769   3.753   3.575
22927SOL     OW68806   4.228   3.774   3.602
22927SOL    HW168807   4.186   3.717   3.532
22927SOL    HW268808   4.162   3.843   3.634
22928SOL     OW68809   4.297   4.594   2.891
22928SOL    HW168810   4.341   4.683   2.882
22928SOL    HW268811   4.234   4.594   2.968
22929SOL     OW68812   5.084   4.586   2.907
22929SOL    HW168813   5.009   4.586   2.841
22929SOL    HW268814   5.121   4.494   2.916
22930SOL     OW68815   4.933   4.249   2.137
22930SOL    HW168816   4.946   4.165   2.191
22930SOL    HW268817   4.904   4.323   2.197
22931SOL     OW68818   4.031   3.937   3.093
22931SOL    HW168819   4.008   3.974   3.183
22931SOL    HW268820   4.001   3.842   3.087
22932SOL     OW68821   3.761   5.034   3.144
22932SOL    HW168822   3.814   4.985   3.212
22932SOL    HW268823   3.783   5.132   3.149
22933SOL     OW68824   4.456   4.358   2.926
22933SOL    HW168825   4.515   4.332   2.850
22933SOL    HW268826   4.428   4.454   2.915
22934SOL     OW68827   5.452   4.659   3.716
22934SOL    HW168828   5.406   4.652   3.627
22934SOL    HW268829   5.390   4.703   3.782
22935SOL     OW68830   4.031   3.787   2.480
22935SOL    HW168831   4.020   3.881   2.513
22935SOL    HW268832   4.026   3.724   2.557
22936SOL     OW68833   5.346   4.091   2.236
22936SOL    HW168834   5.348   4.015   2.300
22936SOL    HW268835   5.298   4.168   2.276
22937SOL     OW68836   4.747   4.490   2.828
22937SOL    HW168837   4.762   4.511   2.924
22937SOL    HW268838   4.717   4.395   2.819
22938SOL     OW68839   4.704   5.297   3.562
22938SOL    HW168840   4.684   5.341   3.474
22938SOL    HW268841   4.743   5.206   3.546
22939SOL     OW68842   5.583   5.242   3.467
22939SOL    HW168843   5.597   5.269   3.372
22939SOL    HW268844   5.666   5.264   3.520
22940SOL     OW68845   4.074   4.622   3.666
22940SOL    HW168846   4.150   4.666   3.714
22940SOL    HW268847   4.109   4.575   3.584
22941SOL     OW68848   5.264   3.998   1.987
22941SOL    HW168849   5.203   3.923   2.010
22941SOL    HW268850   5.286   4.050   2.070
22942SOL     OW68851   5.027   4.562   1.904
22942SOL    HW168852   5.061   4.469   1.919
22942SOL    HW268853   5.045   4.589   1.809
22943SOL     OW68854   4.792   5.057   2.711
22943SOL    HW168855   4.799   4.973   2.656
22943SOL    HW268856   4.854   5.126   2.675
22944SOL     OW68857   4.043   4.534   2.811
22944SOL    HW168858   4.136   4.570   2.816
22944SOL    HW268859   4.037   4.449   2.863
22945SOL     OW68860   4.063   4.233   2.868
22945SOL    HW168861   4.011   4.150   2.851
22945SOL    HW268862   4.140   4.238   2.804
22946SOL     OW68863   4.862   4.104   3.540
22946SOL    HW168864   4.817   4.167   3.604
22946SOL    HW268865   4.955   4.135   3.523
22947SOL     OW68866   4.884   3.931   3.339
22947SOL    HW168867   4.884   3.995   3.416
22947SOL    HW268868   4.912   3.979   3.256
22948SOL     OW68869   3.732   5.050   2.062
22948SOL    HW168870   3.639   5.071   2.031
22948SOL    HW268871   3.742   4.951   2.075
22949SOL     OW68872   3.812   5.525   2.789
22949SOL    HW168873   3.770   5.439   2.762
22949SOL    HW268874   3.906   5.528   2.755
22950SOL     OW68875   4.228   5.292   2.772
22950SOL    HW168876   4.294   5.366   2.781
22950SOL    HW268877   4.272   5.213   2.730
22951SOL     OW68878   4.726   4.520   3.100
22951SOL    HW168879   4.767   4.488   3.186
22951SOL    HW268880   4.630   4.493   3.097
22952SOL     OW68881   3.764   4.268   2.976
22952SOL    HW168882   3.849   4.235   2.935
22952SOL    HW268883   3.777   4.283   3.074
22953SOL     OW68884   3.913   4.244   3.584
22953SOL    HW168885   3.972   4.204   3.514
22953SOL    HW268886   3.855   4.315   3.543
22954SOL     OW68887   5.093   4.674   3.522
22954SOL    HW168888   5.132   4.763   3.542
22954SOL    HW268889   5.103   4.654   3.425
22955SOL     OW68890   4.539   4.296   2.187
22955SOL    HW168891   4.546   4.207   2.141
22955SOL    HW268892   4.445   4.330   2.179
22956SOL     OW68893   5.381   4.328   3.068
22956SOL    HW168894   5.343   4.259   3.130
22956SOL    HW268895   5.463   4.292   3.024
22957SOL     OW68896   3.976   5.288   3.606
22957SOL    HW168897   3.946   5.345   3.682
22957SOL    HW268898   3.969   5.191   3.632
22958SOL     OW68899   4.395   4.188   3.131
22958SOL    HW168900   4.361   4.099   3.101
22958SOL    HW268901   4.421   4.242   3.051
22959SOL     OW68902   4.654   5.402   3.327
22959SOL    HW168903   4.630   5.384   3.232
22959SOL    HW268904   4.684   5.496   3.337
22960SOL     OW68905   4.197   4.224   2.053
22960SOL    HW168906   4.258   4.304   2.057
22960SOL    HW268907   4.102   4.255   2.060
22961SOL     OW68908   3.883   4.861   3.328
22961SOL    HW168909   3.905   4.800   3.404
22961SOL    HW268910   3.893   4.812   3.242
22962SOL     OW68911   5.071   4.783   3.096
22962SOL    HW168912   5.095   4.720   3.022
22962SOL    HW268913   4.981   4.823   3.078
22963SOL     OW68914   5.026   4.579   2.171
22963SOL    HW168915   4.940   4.548   2.213
22963SOL    HW268916   5.022   4.565   2.072
22964SOL     OW68917   5.483   5.471   3.016
22964SOL    HW168918   5.544   5.501   2.943
22964SOL    HW268919   5.445   5.382   2.994
22965SOL     OW68920   4.976   5.455   2.990
22965SOL    HW168921   5.060   5.460   2.936
22965SOL    HW268922   4.953   5.359   3.008
22966SOL     OW68923   3.807   4.982   2.884
22966SOL    HW168924   3.802   4.981   2.984
22966SOL    HW268925   3.724   4.941   2.846
22967SOL     OW68926   4.412   5.386   3.578
22967SOL    HW168927   4.356   5.467   3.587
22967SOL    HW268928   4.464   5.390   3.492
22968SOL     OW68929   5.450   3.859   2.385
22968SOL    HW168930   5.523   3.842   2.318
22968SOL    HW268931   5.419   3.772   2.423
22969SOL     OW68932   5.112   5.297   2.339
22969SOL    HW168933   5.179   5.309   2.265
22969SOL    HW268934   5.072   5.386   2.362
22970SOL     OW68935   3.854   5.518   3.713
22970SOL    HW168936   3.813   5.444   3.766
22970SOL    HW268937   3.918   5.569   3.771
22971SOL     OW68938   5.004   4.651   2.534
22971SOL    HW168939   5.064   4.570   2.536
22971SOL    HW268940   5.044   4.720   2.474
22972SOL     OW68941   4.554   4.997   3.284
22972SOL    HW168942   4.549   5.030   3.379
22972SOL    HW268943   4.468   5.016   3.238
22973SOL     OW68944   4.396   5.340   2.016
22973SOL    HW168945   4.405   5.350   1.917
22973SOL    HW268946   4.356   5.251   2.037
22974SOL     OW68947   5.565   3.899   2.825
22974SOL    HW168948   5.604   3.814   2.789
22974SOL    HW268949   5.467   3.901   2.806
22975SOL     OW68950   3.987   4.050   2.582
22975SOL    HW168951   3.908   4.101   2.548
22975SOL    HW268952   3.978   4.035   2.680
22976SOL     OW68953   4.918   5.336   1.893
22976SOL    HW168954   4.924   5.243   1.930
22976SOL    HW268955   4.859   5.336   1.813
22977SOL     OW68956   4.546   4.726   3.234
22977SOL    HW168957   4.586   4.725   3.142
22977SOL    HW268958   4.556   4.818   3.274
22978SOL     OW68959   4.640   4.634   2.153
22978SOL    HW168960   4.703   4.672   2.085
22978SOL    HW268961   4.680   4.551   2.192
22979SOL     OW68962   5.228   5.331   1.906
22979SOL    HW168963   5.136   5.368   1.913
22979SOL    HW268964   5.266   5.351   1.816
22980SOL     OW68965   4.096   5.012   3.352
22980SOL    HW168966   4.083   5.105   3.318
22980SOL    HW268967   4.012   4.960   3.339
22981SOL     OW68968   5.338   5.016   3.151
22981SOL    HW168969   5.398   5.019   3.231
22981SOL    HW268970   5.263   5.080   3.164
22982SOL     OW68971   4.763   4.822   2.558
22982SOL    HW168972   4.693   4.775   2.612
22982SOL    HW268973   4.822   4.754   2.515
22983SOL     OW68974   4.738   3.960   2.833
22983SOL    HW168975   4.730   3.924   2.740
22983SOL    HW268976   4.736   3.884   2.898
22984SOL     OW68977   4.314   5.211   2.353
22984SOL    HW168978   4.356   5.153   2.283
22984SOL    HW268979   4.270   5.290   2.309
22985SOL     OW68980   5.433   4.109   3.243
22985SOL    HW168981   5.506   4.178   3.247
22985SOL    HW268982   5.461   4.034   3.184
22986SOL     OW68983   3.979   5.072   2.152
22986SOL    HW168984   3.883   5.073   2.125
22986SOL    HW268985   3.991   5.125   2.236
22987SOL     OW68986   3.829   4.737   3.588
22987SOL    HW168987   3.752   4.704   3.642
22987SOL    HW268988   3.914   4.707   3.630
22988SOL     OW68989   4.396   3.927   3.351
22988SOL    HW168990   4.486   3.911   3.311
22988SOL    HW268991   4.404   3.932   3.450
22989SOL     OW68992   3.799   4.069   1.895
22989SOL    HW168993   3.707   4.041   1.866
22989SOL    HW268994   3.830   4.146   1.839
22990SOL     OW68995   5.164   4.580   3.260
22990SOL    HW168996   5.107   4.632   3.197
22990SOL    HW268997   5.260   4.592   3.236
22991SOL     OW68998   3.796   3.890   2.180
22991SOL    HW168999   3.779   3.973   2.126
22991SOL    HW269000   3.886   3.853   2.158
22992SOL     OW69001   4.907   5.059   1.981
22992SOL    HW169002   4.808   5.048   1.983
22992SOL    HW269003   4.941   5.074   2.074
22993SOL     OW69004   4.337   4.566   3.293
22993SOL    HW169005   4.393   4.647   3.276
22993SOL    HW269006   4.396   4.486   3.296
22994SOL     OW69007   5.217   5.491   2.821
22994SOL    HW169008   5.250   5.555   2.752
22994SOL    HW269009   5.283   5.485   2.896
22995SOL     OW69010   4.440   4.289   3.570
22995SOL    HW169011   4.459   4.354   3.644
22995SOL    HW269012   4.500   4.209   3.579
22996SOL     OW69013   5.174   4.944   3.495
22996SOL    HW169014   5.165   4.934   3.594
22996SOL    HW269015   5.270   4.937   3.469
22997SOL     OW69016   4.114   5.465   3.422
22997SOL    HW169017   4.023   5.506   3.420
22997SOL    HW269018   4.107   5.371   3.454
22998SOL     OW69019   5.398   4.607   3.116
22998SOL    HW169020   5.371   4.518   3.079
22998SOL    HW269021   5.399   4.675   3.043
22999SOL     OW69022   4.949   4.049   2.311
22999SOL    HW169023   5.014   3.975   2.300
22999SOL    HW269024   4.969   4.099   2.395
23000SOL     OW69025   4.318   4.469   2.514
23000SOL    HW169026   4.368   4.554   2.495
23000SOL    HW269027   4.230   4.471   2.466
23001SOL     OW69028   5.501   4.066   3.504
23001SOL    HW169029   5.484   4.097   3.410
23001SOL    HW269030   5.417   4.029   3.542
23002SOL     OW69031   5.454   4.658   3.379
23002SOL    HW169032   5.492   4.749   3.394
23002SOL    HW269033   5.446   4.641   3.280
23003SOL     OW69034   4.583   5.098   1.878
23003SOL    HW169035   4.537   5.113   1.966
23003SOL    HW269036   4.627   5.183   1.848
23004SOL     OW69037   4.385   5.514   2.815
23004SOL    HW169038   4.339   5.602   2.802
23004SOL    HW269039   4.484   5.526   2.808
23005SOL     OW69040   4.583   4.680   2.723
23005SOL    HW169041   4.637   4.611   2.771
23005SOL    HW269042   4.551   4.749   2.789
23006SOL     OW69043   4.807   4.708   1.949
23006SOL    HW169044   4.784   4.761   1.867
23006SOL    HW269045   4.888   4.652   1.930
23007SOL     OW69046   5.585   5.293   2.713
23007SOL    HW169047   5.514   5.281   2.643
23007SOL    HW269048   5.586   5.214   2.773
23008SOL     OW69049   3.945   5.038   3.706
23008SOL    HW169050   3.880   4.965   3.685
23008SOL    HW269051   3.949   5.052   3.804
23009SOL     OW69052   3.803   4.964   2.515
23009SOL    HW169053   3.802   4.917   2.603
23009SOL    HW269054   3.885   4.936   2.464
23010SOL     OW69055   4.396   5.115   3.486
23010SOL    HW169056   4.318   5.065   3.524
23010SOL    HW269057   4.393   5.210   3.517
23011SOL     OW69058   5.548   3.916   3.089
23011SOL    HW169059   5.544   3.826   3.133
23011SOL    HW269060   5.551   3.905   2.990
23012SOL     OW69061   4.152   4.148   2.382
23012SOL    HW169062   4.182   4.076   2.320
23012SOL    HW269063   4.113   4.108   2.465
23013SOL     OW69064   5.429   5.211   2.966
23013SOL    HW169065   5.336   5.186   2.939
23013SOL    HW269066   5.455   5.161   3.048
23014SOL     OW69067   4.041   4.271   3.142
23014SOL    HW169068   4.079   4.212   3.214
23014SOL    HW269069   4.081   4.245   3.054
23015SOL     OW69070   4.536   5.310   2.549
23015SOL    HW169071   4.568   5.320   2.455
23015SOL    HW269072   4.457   5.248   2.551
23016SOL     OW69073   5.148   3.938   2.974
23016SOL    HW169074   5.200   3.873   3.029
23016SOL    HW269075   5.099   4.001   3.035
23017SOL     OW69076   4.725   3.758   3.016
23017SOL    HW169077   4.662   3.686   2.985
23017SOL    HW269078   4.818   3.722   3.016
23018SOL     OW69079   4.494   5.054   2.163
23018SOL    HW169080   4.448   4.967   2.180
23018SOL    HW269081   4.585   5.051   2.204
23019SOL     OW69082   4.342   5.291   3.146
23019SOL    HW169083   4.337   5.373   3.203
23019SOL    HW269084   4.431   5.288   3.101
23020SOL     OW69085   5.076   3.776   2.030
23020SOL    HW169086   5.111   3.735   1.946
23020SOL    HW269087   4.986   3.738   2.050
23021SOL     OW69088   5.024   4.177   2.553
23021SOL    HW169089   4.965   4.257   2.557
23021SOL    HW269090   5.039   4.142   2.646
23022SOL     OW69091   5.317   3.945   2.744
23022SOL    HW169092   5.233   3.944   2.798
23022SOL    HW269093   5.319   4.028   2.688
23023SOL     OW69094   3.763   4.801   2.162
23023SOL    HW169095   3.862   4.790   2.153
23023SOL    HW269096   3.723   4.715   2.194
23024SOL     OW69097   4.599   5.370   2.199
23024SOL    HW169098   4.522   5.335   2.145
23024SOL    HW269099   4.567   5.441   2.261
23025SOL     OW69100   3.954   4.352   3.837
23025SOL    HW169101   3.861   4.350   3.874
23025SOL    HW269102   3.955   4.313   3.745
23026SOL     OW69103   3.949   3.999   4.720
23026SOL    HW169104   3.984   3.982   4.812
23026SOL    HW269105   3.861   3.954   4.708
23027SOL     OW69106   3.743   4.092   4.371
23027SOL    HW169107   3.661   4.135   4.410
23027SOL    HW269108   3.715   4.019   4.308
23028SOL     OW69109   4.293   4.999   4.889
23028SOL    HW169110   4.200   4.992   4.852
23028SOL    HW269111   4.304   5.088   4.933
23029SOL     OW69112   5.279   5.235   4.427
23029SOL    HW169113   5.222   5.219   4.508
23029SOL    HW269114   5.220   5.245   4.347
23030SOL     OW69115   4.859   4.427   4.441
23030SOL    HW169116   4.916   4.505   4.416
23030SOL    HW269117   4.799   4.453   4.517
23031SOL     OW69118   5.479   4.331   3.955
23031SOL    HW169119   5.467   4.318   3.856
23031SOL    HW269120   5.449   4.250   4.004
23032SOL     OW69121   4.492   4.868   4.747
23032SOL    HW169122   4.414   4.885   4.807
23032SOL    HW269123   4.526   4.955   4.711
23033SOL     OW69124   4.574   4.522   5.547
23033SOL    HW169125   4.570   4.598   5.612
23033SOL    HW269126   4.596   4.558   5.456
23034SOL     OW69127   4.409   4.736   4.389
23034SOL    HW169128   4.478   4.720   4.459
23034SOL    HW269129   4.336   4.793   4.427
23035SOL     OW69130   4.410   4.885   5.527
23035SOL    HW169131   4.470   4.964   5.541
23035SOL    HW269132   4.324   4.916   5.486
23036SOL     OW69133   4.059   5.159   4.785
23036SOL    HW169134   3.981   5.128   4.732
23036SOL    HW269135   4.117   5.217   4.728
23037SOL     OW69136   5.184   5.229   5.063
23037SOL    HW169137   5.208   5.323   5.089
23037SOL    HW269138   5.168   5.175   5.145
23038SOL     OW69139   4.162   4.116   5.223
23038SOL    HW169140   4.244   4.060   5.232
23038SOL    HW269141   4.081   4.058   5.227
23039SOL     OW69142   5.327   4.171   4.461
23039SOL    HW169143   5.253   4.217   4.411
23039SOL    HW269144   5.378   4.239   4.514
23040SOL     OW69145   3.955   5.437   4.207
23040SOL    HW169146   3.989   5.514   4.261
23040SOL    HW269147   3.999   5.437   4.117
23041SOL     OW69148   4.851   5.065   5.414
23041SOL    HW169149   4.898   5.065   5.502
23041SOL    HW269150   4.803   4.978   5.403
23042SOL     OW69151   3.954   5.158   4.262
23042SOL    HW169152   3.928   5.254   4.262
23042SOL    HW269153   3.883   5.104   4.307
23043SOL     OW69154   3.964   4.815   4.610
23043SOL    HW169155   3.978   4.731   4.662
23043SOL    HW269156   3.909   4.879   4.665
23044SOL     OW69157   4.344   5.510   5.163
23044SOL    HW169158   4.252   5.493   5.198
23044SOL    HW269159   4.372   5.602   5.189
23045SOL     OW69160   4.330   4.688   3.847
23045SOL    HW169161   4.337   4.772   3.793
23045SOL    HW269162   4.376   4.701   3.935
23046SOL     OW69163   5.318   3.838   5.204
23046SOL    HW169164   5.300   3.905   5.132
23046SOL    HW269165   5.315   3.884   5.293
23047SOL     OW69166   3.846   4.367   4.287
23047SOL    HW169167   3.801   4.279   4.304
23047SOL    HW269168   3.845   4.421   4.371
23048SOL     OW69169   3.751   5.320   3.841
23048SOL    HW169170   3.732   5.224   3.862
23048SOL    HW269171   3.718   5.378   3.916
23049SOL     OW69172   5.413   4.646   4.336
23049SOL    HW169173   5.508   4.617   4.344
23049SOL    HW269174   5.405   4.711   4.261
23050SOL     OW69175   5.365   4.832   4.156
23050SOL    HW169176   5.451   4.834   4.104
23050SOL    HW269177   5.379   4.879   4.244
23051SOL     OW69178   3.837   4.461   5.321
23051SOL    HW169179   3.925   4.448   5.366
23051SOL    HW269180   3.824   4.558   5.299
23052SOL     OW69181   4.337   5.089   4.450
23052SOL    HW169182   4.288   5.002   4.459
23052SOL    HW269183   4.314   5.132   4.363
23053SOL     OW69184   5.017   4.952   5.147
23053SOL    HW169185   5.054   4.879   5.089
23053SOL    HW269186   5.069   4.957   5.232
23054SOL     OW69187   4.533   3.728   4.226
23054SOL    HW169188   4.573   3.819   4.217
23054SOL    HW269189   4.433   3.736   4.232
23055SOL     OW69190   3.921   4.700   4.988
23055SOL    HW169191   4.010   4.655   4.974
23055SOL    HW269192   3.848   4.635   4.969
23056SOL     OW69193   5.249   4.723   3.914
23056SOL    HW169194   5.186   4.647   3.927
23056SOL    HW269195   5.297   4.741   4.000
23057SOL     OW69196   4.911   5.516   5.340
23057SOL    HW169197   4.935   5.576   5.264
23057SOL    HW269198   4.918   5.421   5.310
23058SOL     OW69199   4.041   3.975   5.525
23058SOL    HW169200   4.112   4.046   5.531
23058SOL    HW269201   3.953   4.014   5.553
23059SOL     OW69202   5.190   5.141   4.677
23059SOL    HW169203   5.131   5.147   4.757
23059SOL    HW269204   5.175   5.053   4.631
23060SOL     OW69205   5.391   5.438   4.296
23060SOL    HW169206   5.350   5.415   4.208
23060SOL    HW269207   5.373   5.364   4.361
23061SOL     OW69208   4.322   4.453   3.994
23061SOL    HW169209   4.346   4.522   3.926
23061SOL    HW269210   4.244   4.486   4.048
23062SOL     OW69211   5.005   4.069   4.668
23062SOL    HW169212   4.919   4.019   4.655
23062SOL    HW269213   5.067   4.015   4.724
23063SOL     OW69214   5.300   5.386   4.031
23063SOL    HW169215   5.389   5.432   4.034
23063SOL    HW269216   5.279   5.362   3.936
23064SOL     OW69217   4.531   4.329   5.189
23064SOL    HW169218   4.484   4.326   5.278
23064SOL    HW269219   4.480   4.274   5.123
23065SOL     OW69220   5.118   4.193   5.398
23065SOL    HW169221   5.098   4.236   5.486
23065SOL    HW269222   5.196   4.131   5.407
23066SOL     OW69223   4.697   4.614   5.296
23066SOL    HW169224   4.743   4.530   5.267
23066SOL    HW269225   4.641   4.648   5.221
23067SOL     OW69226   4.715   4.134   4.966
23067SOL    HW169227   4.638   4.168   5.020
23067SOL    HW269228   4.681   4.083   4.887
23068SOL     OW69229   4.765   4.425   4.153
23068SOL    HW169230   4.791   4.421   4.249
23068SOL    HW269231   4.680   4.374   4.139
23069SOL     OW69232   3.800   4.535   4.513
23069SOL    HW169233   3.899   4.523   4.522
23069SOL    HW269234   3.776   4.630   4.534
23070SOL     OW69235   3.854   5.545   5.295
23070SOL    HW169236   3.844   5.530   5.394
23070SOL    HW269237   3.768   5.581   5.259
23071SOL     OW69238   4.589   4.072   3.919
23071SOL    HW169239   4.648   4.135   3.870
23071SOL    HW269240   4.608   3.978   3.890
23072SOL     OW69241   5.443   4.309   5.555
23072SOL    HW169242   5.417   4.398   5.519
23072SOL    HW269243   5.441   4.241   5.482
23073SOL     OW69244   5.086   4.868   4.269
23073SOL    HW169245   5.169   4.839   4.221
23073SOL    HW269246   5.037   4.935   4.213
23074SOL     OW69247   4.274   3.920   4.609
23074SOL    HW169248   4.269   3.915   4.709
23074SOL    HW269249   4.276   4.016   4.580
23075SOL     OW69250   4.732   5.180   4.201
23075SOL    HW169251   4.686   5.252   4.149
23075SOL    HW269252   4.728   5.200   4.299
23076SOL     OW69253   5.519   4.790   4.597
23076SOL    HW169254   5.457   4.775   4.521
23076SOL    HW269255   5.467   4.801   4.682
23077SOL     OW69256   4.951   5.274   5.230
23077SOL    HW169257   4.957   5.197   5.294
23077SOL    HW269258   4.899   5.248   5.150
23078SOL     OW69259   4.045   4.667   3.966
23078SOL    HW169260   4.127   4.706   3.924
23078SOL    HW269261   4.018   4.585   3.917
23079SOL     OW69262   5.182   4.459   4.452
23079SOL    HW169263   5.177   4.394   4.527
23079SOL    HW269264   5.262   4.518   4.465
23080SOL     OW69265   4.185   4.990   5.451
23080SOL    HW169266   4.135   4.991   5.365
23080SOL    HW269267   4.122   4.972   5.527
23081SOL     OW69268   4.835   5.500   3.961
23081SOL    HW169269   4.775   5.438   4.011
23081SOL    HW269270   4.866   5.456   3.876
23082SOL     OW69271   3.926   4.009   5.222
23082SOL    HW169272   3.846   4.069   5.209
23082SOL    HW269273   3.916   3.960   5.308
23083SOL     OW69274   5.356   5.101   3.805
23083SOL    HW169275   5.324   5.195   3.795
23083SOL    HW269276   5.280   5.038   3.793
23084SOL     OW69277   4.188   5.467   4.047
23084SOL    HW169278   4.221   5.506   4.133
23084SOL    HW269279   4.264   5.460   3.982
23085SOL     OW69280   5.124   3.831   4.150
23085SOL    HW169281   5.100   3.794   4.060
23085SOL    HW269282   5.223   3.847   4.154
23086SOL     OW69283   3.973   5.509   4.965
23086SOL    HW169284   4.030   5.444   5.015
23086SOL    HW269285   3.957   5.476   4.872
23087SOL     OW69286   4.664   5.422   4.628
23087SOL    HW169287   4.744   5.365   4.649
23087SOL    HW269288   4.615   5.382   4.551
23088SOL     OW69289   4.106   4.424   4.204
23088SOL    HW169290   4.151   4.334   4.201
23088SOL    HW269291   4.012   4.413   4.237
23089SOL     OW69292   5.271   3.946   5.453
23089SOL    HW169293   5.266   3.983   5.545
23089SOL    HW269294   5.199   3.877   5.441
23090SOL     OW69295   4.338   3.846   3.841
23090SOL    HW169296   4.436   3.824   3.848
23090SOL    HW269297   4.307   3.829   3.748
23091SOL     OW69298   4.505   3.988   5.473
23091SOL    HW169299   4.572   3.927   5.516
23091SOL    HW269300   4.432   4.007   5.538
23092SOL     OW69301   4.612   5.238   4.919
23092SOL    HW169302   4.589   5.213   4.825
23092SOL    HW269303   4.673   5.169   4.958
23093SOL     OW69304   5.075   4.314   5.157
23093SOL    HW169305   5.103   4.271   5.242
23093SOL    HW269306   5.100   4.410   5.158
23094SOL     OW69307   4.527   5.126   4.648
23094SOL    HW169308   4.617   5.140   4.606
23094SOL    HW269309   4.456   5.128   4.577
23095SOL     OW69310   4.646   4.227   4.623
23095SOL    HW169311   4.621   4.218   4.527
23095SOL    HW269312   4.694   4.145   4.654
23096SOL     OW69313   5.158   4.912   3.765
23096SOL    HW169314   5.190   4.836   3.822
23096SOL    HW269315   5.066   4.939   3.795
23097SOL     OW69316   4.021   3.759   3.895
23097SOL    HW169317   4.070   3.843   3.874
23097SOL    HW269318   4.083   3.694   3.940
23098SOL     OW69319   4.659   3.960   4.204
23098SOL    HW169320   4.611   4.001   4.126
23098SOL    HW269321   4.758   3.958   4.185
23099SOL     OW69322   4.800   4.407   5.188
23099SOL    HW169323   4.720   4.346   5.191
23099SOL    HW269324   4.881   4.354   5.164
23100SOL     OW69325   4.951   5.294   4.517
23100SOL    HW169326   4.972   5.368   4.452
23100SOL    HW269327   5.019   5.294   4.590
23101SOL     OW69328   4.183   4.876   4.465
23101SOL    HW169329   4.112   4.849   4.530
23101SOL    HW269330   4.157   4.848   4.372
23102SOL     OW69331   4.995   5.521   4.315
23102SOL    HW169332   5.039   5.585   4.251
23102SOL    HW269333   4.945   5.573   4.385
23103SOL     OW69334   4.756   4.273   3.740
23103SOL    HW169335   4.715   4.355   3.701
23103SOL    HW269336   4.820   4.299   3.813
23104SOL     OW69337   3.802   4.280   5.110
23104SOL    HW169338   3.894   4.279   5.069
23104SOL    HW269339   3.796   4.354   5.177
23105SOL     OW69340   4.285   3.946   4.871
23105SOL    HW169341   4.323   3.862   4.908
23105SOL    HW269342   4.197   3.965   4.915
23106SOL     OW69343   4.590   4.178   4.366
23106SOL    HW169344   4.558   4.250   4.304
23106SOL    HW269345   4.614   4.097   4.313
23107SOL     OW69346   4.741   3.763   4.477
23107SOL    HW169347   4.669   3.768   4.408
23107SOL    HW269348   4.717   3.694   4.546
23108SOL     OW69349   5.153   4.897   4.591
23108SOL    HW169350   5.098   4.813   4.584
23108SOL    HW269351   5.179   4.926   4.499
23109SOL     OW69352   5.190   4.314   4.716
23109SOL    HW169353   5.160   4.219   4.723
23109SOL    HW269354   5.263   4.330   4.782
23110SOL     OW69355   5.581   4.557   4.101
23110SOL    HW169356   5.623   4.493   4.165
23110SOL    HW269357   5.543   4.506   4.023
23111SOL     OW69358   4.212   5.109   3.898
23111SOL    HW169359   4.125   5.094   3.945
23111SOL    HW269360   4.195   5.135   3.803
23112SOL     OW69361   5.388   5.004   4.381
23112SOL    HW169362   5.487   5.012   4.395
23112SOL    HW269363   5.343   5.088   4.412
23113SOL     OW69364   5.114   4.299   3.802
23113SOL    HW169365   5.060   4.278   3.883
23113SOL    HW269366   5.205   4.258   3.811
23114SOL     OW69367   4.251   3.980   4.052
23114SOL    HW169368   4.278   3.921   3.977
23114SOL    HW269369   4.251   4.075   4.021
23115SOL     OW69370   5.478   4.947   5.312
23115SOL    HW169371   5.569   4.908   5.299
23115SOL    HW269372   5.486   5.043   5.336
23116SOL     OW69373   4.788   5.071   5.064
23116SOL    HW169374   4.708   5.048   5.119
23116SOL    HW269375   4.871   5.045   5.113
23117SOL     OW69376   5.316   5.353   5.349
23117SOL    HW169377   5.343   5.387   5.259
23117SOL    HW269378   5.395   5.315   5.395
23118SOL     OW69379   4.835   4.919   4.824
23118SOL    HW169380   4.795   4.963   4.905
23118SOL    HW269381   4.794   4.956   4.741
23119SOL     OW69382   5.362   4.823   4.803
23119SOL    HW169383   5.367   4.904   4.862
23119SOL    HW269384   5.276   4.825   4.752
23120SOL     OW69385   4.639   3.813   5.126
23120SOL    HW169386   4.664   3.793   5.031
23120SOL    HW269387   4.711   3.869   5.168
23121SOL     OW69388   4.704   4.840   5.443
23121SOL    HW169389   4.605   4.846   5.453
23121SOL    HW269390   4.727   4.760   5.387
23122SOL     OW69391   4.429   4.774   4.092
23122SOL    HW169392   4.415   4.781   4.191
23122SOL    HW269393   4.513   4.723   4.074
23123SOL     OW69394   4.134   4.537   4.975
23123SOL    HW169395   4.220   4.549   5.025
23123SOL    HW269396   4.092   4.450   5.002
23124SOL     OW69397   4.998   4.110   4.986
23124SOL    HW169398   5.019   4.184   5.050
23124SOL    HW269399   4.909   4.127   4.943
23125SOL     OW69400   3.788   5.288   5.055
23125SOL    HW169401   3.742   5.370   5.021
23125SOL    HW269402   3.886   5.307   5.064
23126SOL     OW69403   4.091   4.824   4.225
23126SOL    HW169404   4.084   4.907   4.169
23126SOL    HW269405   4.095   4.744   4.165
23127SOL     OW69406   4.290   4.261   4.589
23127SOL    HW169407   4.302   4.327   4.515
23127SOL    HW269408   4.336   4.295   4.672
23128SOL     OW69409   4.976   5.072   4.112
23128SOL    HW169410   5.026   5.149   4.152
23128SOL    HW269411   4.881   5.074   4.144
23129SOL     OW69412   4.996   5.169   4.866
23129SOL    HW169413   5.043   5.182   4.953
23129SOL    HW269414   4.930   5.095   4.875
23130SOL     OW69415   5.306   4.363   4.196
23130SOL    HW169416   5.275   4.424   4.269
23130SOL    HW269417   5.356   4.415   4.127
23131SOL     OW69418   4.078   5.234   5.053
23131SOL    HW169419   4.057   5.190   4.966
23131SOL    HW269420   4.175   5.260   5.056
23132SOL     OW69421   4.126   4.475   5.322
23132SOL    HW169422   4.194   4.530   5.275
23132SOL    HW269423   4.166   4.387   5.349
23133SOL     OW69424   5.311   4.503   5.394
23133SOL    HW169425   5.219   4.541   5.389
23133SOL    HW269426   5.371   4.550   5.329
23134SOL     OW69427   4.737   3.829   5.494
23134SOL    HW169428   4.743   3.914   5.442
23134SOL    HW269429   4.769   3.753   5.437
23135SOL     OW69430   4.228   3.774   5.464
23135SOL    HW169431   4.186   3.717   5.394
23135SOL    HW269432   4.162   3.843   5.496
23136SOL     OW69433   4.297   4.594   4.753
23136SOL    HW169434   4.341   4.683   4.744
23136SOL    HW269435   4.234   4.594   4.830
23137SOL     OW69436   5.084   4.586   4.769
23137SOL    HW169437   5.009   4.586   4.703
23137SOL    HW269438   5.121   4.494   4.778
23138SOL     OW69439   4.933   4.249   3.999
23138SOL    HW169440   4.946   4.165   4.053
23138SOL    HW269441   4.904   4.323   4.059
23139SOL     OW69442   4.031   3.937   4.955
23139SOL    HW169443   4.008   3.974   5.045
23139SOL    HW269444   4.001   3.842   4.949
23140SOL     OW69445   3.761   5.034   5.006
23140SOL    HW169446   3.814   4.985   5.074
23140SOL    HW269447   3.783   5.132   5.011
23141SOL     OW69448   4.456   4.358   4.788
23141SOL    HW169449   4.515   4.332   4.712
23141SOL    HW269450   4.428   4.454   4.777
23142SOL     OW69451   5.452   4.659   5.578
23142SOL    HW169452   5.406   4.652   5.489
23142SOL    HW269453   5.390   4.703   5.644
23143SOL     OW69454   4.031   3.787   4.342
23143SOL    HW169455   4.020   3.881   4.375
23143SOL    HW269456   4.026   3.724   4.419
23144SOL     OW69457   5.346   4.091   4.098
23144SOL    HW169458   5.348   4.015   4.162
23144SOL    HW269459   5.298   4.168   4.138
23145SOL     OW69460   4.747   4.490   4.690
23145SOL    HW169461   4.762   4.511   4.786
23145SOL    HW269462   4.717   4.395   4.681
23146SOL     OW69463   4.704   5.297   5.424
23146SOL    HW169464   4.684   5.341   5.336
23146SOL    HW269465   4.743   5.206   5.408
23147SOL     OW69466   5.583   5.242   5.329
23147SOL    HW169467   5.597   5.269   5.234
23147SOL    HW269468   5.666   5.264   5.382
23148SOL     OW69469   4.074   4.622   5.528
23148SOL    HW169470   4.150   4.666   5.576
23148SOL    HW269471   4.109   4.575   5.446
23149SOL     OW69472   5.264   3.998   3.849
23149SOL    HW169473   5.203   3.923   3.872
23149SOL    HW269474   5.286   4.050   3.932
23150SOL     OW69475   5.027   4.562   3.766
23150SOL    HW169476   5.061   4.469   3.781
23150SOL    HW269477   5.045   4.589   3.671
23151SOL     OW69478   4.792   5.057   4.573
23151SOL    HW169479   4.799   4.973   4.518
23151SOL    HW269480   4.854   5.126   4.537
23152SOL     OW69481   4.043   4.534   4.673
23152SOL    HW169482   4.136   4.570   4.678
23152SOL    HW269483   4.037   4.449   4.725
23153SOL     OW69484   4.063   4.233   4.730
23153SOL    HW169485   4.011   4.150   4.713
23153SOL    HW269486   4.140   4.238   4.666
23154SOL     OW69487   4.862   4.104   5.402
23154SOL    HW169488   4.817   4.167   5.466
23154SOL    HW269489   4.955   4.135   5.385
23155SOL     OW69490   4.884   3.931   5.201
23155SOL    HW169491   4.884   3.995   5.278
23155SOL    HW269492   4.912   3.979   5.118
23156SOL     OW69493   3.732   5.050   3.924
23156SOL    HW169494   3.639   5.071   3.893
23156SOL    HW269495   3.742   4.951   3.937
23157SOL     OW69496   3.812   5.525   4.651
23157SOL    HW169497   3.770   5.439   4.624
23157SOL    HW269498   3.906   5.528   4.617
23158SOL     OW69499   4.228   5.292   4.634
23158SOL    HW169500   4.294   5.366   4.643
23158SOL    HW269501   4.272   5.213   4.592
23159SOL     OW69502   4.726   4.520   4.962
23159SOL    HW169503   4.767   4.488   5.048
23159SOL    HW269504   4.630   4.493   4.959
23160SOL     OW69505   3.764   4.268   4.838
23160SOL    HW169506   3.849   4.235   4.797
23160SOL    HW269507   3.777   4.283   4.936
23161SOL     OW69508   3.913   4.244   5.446
23161SOL    HW169509   3.972   4.204   5.376
23161SOL    HW269510   3.855   4.315   5.405
23162SOL     OW69511   5.093   4.674   5.384
23162SOL    HW169512   5.132   4.763   5.404
23162SOL    HW269513   5.103   4.654   5.287
23163SOL     OW69514   4.539   4.296   4.049
23163SOL    HW169515   4.546   4.207   4.003
23163SOL    HW269516   4.445   4.330   4.041
23164SOL     OW69517   5.381   4.328   4.930
23164SOL    HW169518   5.343   4.259   4.992
23164SOL    HW269519   5.463   4.292   4.886
23165SOL     OW69520   3.976   5.288   5.468
23165SOL    HW169521   3.946   5.345   5.544
23165SOL    HW269522   3.969   5.191   5.494
23166SOL     OW69523   4.395   4.188   4.993
23166SOL    HW169524   4.361   4.099   4.963
23166SOL    HW269525   4.421   4.242   4.913
23167SOL     OW69526   4.654   5.402   5.189
23167SOL    HW169527   4.630   5.384   5.094
23167SOL    HW269528   4.684   5.496   5.199
23168SOL     OW69529   4.197   4.224   3.915
23168SOL    HW169530   4.258   4.304   3.919
23168SOL    HW269531   4.102   4.255   3.922
23169SOL     OW69532   3.883   4.861   5.190
23169SOL    HW169533   3.905   4.800   5.266
23169SOL    HW269534   3.893   4.812   5.104
23170SOL     OW69535   5.071   4.783   4.958
23170SOL    HW169536   5.095   4.720   4.884
23170SOL    HW269537   4.981   4.823   4.940
23171SOL     OW69538   5.026   4.579   4.033
23171SOL    HW169539   4.940   4.548   4.075
23171SOL    HW269540   5.022   4.565   3.934
23172SOL     OW69541   5.483   5.471   4.878
23172SOL    HW169542   5.544   5.501   4.805
23172SOL    HW269543   5.445   5.382   4.856
23173SOL     OW69544   4.976   5.455   4.852
23173SOL    HW169545   5.060   5.460   4.798
23173SOL    HW269546   4.953   5.359   4.870
23174SOL     OW69547   3.807   4.982   4.746
23174SOL    HW169548   3.802   4.981   4.846
23174SOL    HW269549   3.724   4.941   4.708
23175SOL     OW69550   4.412   5.386   5.440
23175SOL    HW169551   4.356   5.467   5.449
23175SOL    HW269552   4.464   5.390   5.354
23176SOL     OW69553   5.450   3.859   4.247
23176SOL    HW169554   5.523   3.842   4.180
23176SOL    HW269555   5.419   3.772   4.285
23177SOL     OW69556   5.112   5.297   4.201
23177SOL    HW169557   5.179   5.309   4.127
23177SOL    HW269558   5.072   5.386   4.224
23178SOL     OW69559   3.854   5.518   5.575
23178SOL    HW169560   3.813   5.444   5.628
23178SOL    HW269561   3.918   5.569   5.633
23179SOL     OW69562   5.004   4.651   4.396
23179SOL    HW169563   5.064   4.570   4.398
23179SOL    HW269564   5.044   4.720   4.336
23180SOL     OW69565   4.554   4.997   5.146
23180SOL    HW169566   4.549   5.030   5.241
23180SOL    HW269567   4.468   5.016   5.100
23181SOL     OW69568   4.396   5.340   3.878
23181SOL    HW169569   4.405   5.350   3.779
23181SOL    HW269570   4.356   5.251   3.899
23182SOL     OW69571   5.374   5.444   5.118
23182SOL    HW169572   5.427   5.454   5.034
23182SOL    HW269573   5.347   5.534   5.152
23183SOL     OW69574   5.565   3.899   4.687
23183SOL    HW169575   5.604   3.814   4.651
23183SOL    HW269576   5.467   3.901   4.668
23184SOL     OW69577   3.987   4.050   4.444
23184SOL    HW169578   3.908   4.101   4.410
23184SOL    HW269579   3.978   4.035   4.542
23185SOL     OW69580   4.918   5.336   3.755
23185SOL    HW169581   4.924   5.243   3.792
23185SOL    HW269582   4.859   5.336   3.675
23186SOL     OW69583   4.546   4.726   5.096
23186SOL    HW169584   4.586   4.725   5.004
23186SOL    HW269585   4.556   4.818   5.136
23187SOL     OW69586   4.640   4.634   4.015
23187SOL    HW169587   4.703   4.672   3.947
23187SOL    HW269588   4.680   4.551   4.054
23188SOL     OW69589   5.228   5.331   3.768
23188SOL    HW169590   5.136   5.368   3.775
23188SOL    HW269591   5.266   5.351   3.678
23189SOL     OW69592   4.096   5.012   5.214
23189SOL    HW169593   4.083   5.105   5.180
23189SOL    HW269594   4.012   4.960   5.201
23190SOL     OW69595   5.338   5.016   5.013
23190SOL    HW169596   5.398   5.019   5.093
23190SOL    HW269597   5.263   5.080   5.026
23191SOL     OW69598   4.763   4.822   4.420
23191SOL    HW169599   4.693   4.775   4.474
23191SOL    HW269600   4.822   4.754   4.377
23192SOL     OW69601   4.738   3.960   4.695
23192SOL    HW169602   4.730   3.924   4.602
23192SOL    HW269603   4.736   3.884   4.760
23193SOL     OW69604   4.314   5.211   4.215
23193SOL    HW169605   4.356   5.153   4.145
23193SOL    HW269606   4.270   5.290   4.171
23194SOL     OW69607   5.433   4.109   5.105
23194SOL    HW169608   5.506   4.178   5.109
23194SOL    HW269609   5.461   4.034   5.046
23195SOL     OW69610   3.979   5.072   4.014
23195SOL    HW169611   3.883   5.073   3.987
23195SOL    HW269612   3.991   5.125   4.098
23196SOL     OW69613   3.829   4.737   5.450
23196SOL    HW169614   3.752   4.704   5.504
23196SOL    HW269615   3.914   4.707   5.492
23197SOL     OW69616   4.396   3.927   5.213
23197SOL    HW169617   4.486   3.911   5.173
23197SOL    HW269618   4.404   3.932   5.312
23198SOL     OW69619   3.799   4.069   3.757
23198SOL    HW169620   3.707   4.041   3.728
23198SOL    HW269621   3.830   4.146   3.701
23199SOL     OW69622   5.164   4.580   5.122
23199SOL    HW169623   5.107   4.632   5.059
23199SOL    HW269624   5.260   4.592   5.098
23200SOL     OW69625   3.796   3.890   4.042
23200SOL    HW169626   3.779   3.973   3.988
23200SOL    HW269627   3.886   3.853   4.020
23201SOL     OW69628   4.907   5.059   3.843
23201SOL    HW169629   4.808   5.048   3.845
23201SOL    HW269630   4.941   5.074   3.936
23202SOL     OW69631   4.337   4.566   5.155
23202SOL    HW169632   4.393   4.647   5.138
23202SOL    HW269633   4.396   4.486   5.158
23203SOL     OW69634   5.217   5.491   4.683
23203SOL    HW169635   5.250   5.555   4.614
23203SOL    HW269636   5.283   5.485   4.758
23204SOL     OW69637   4.440   4.289   5.432
23204SOL    HW169638   4.459   4.354   5.506
23204SOL    HW269639   4.500   4.209   5.441
23205SOL     OW69640   5.174   4.944   5.357
23205SOL    HW169641   5.165   4.934   5.456
23205SOL    HW269642   5.270   4.937   5.331
23206SOL     OW69643   4.114   5.465   5.284
23206SOL    HW169644   4.023   5.506   5.282
23206SOL    HW269645   4.107   5.371   5.316
23207SOL     OW69646   5.398   4.607   4.978
23207SOL    HW169647   5.371   4.518   4.941
23207SOL    HW269648   5.399   4.675   4.905
23208SOL     OW69649   4.949   4.049   4.173
23208SOL    HW169650   5.014   3.975   4.162
23208SOL    HW269651   4.969   4.099   4.257
23209SOL     OW69652   4.318   4.469   4.376
23209SOL    HW169653   4.368   4.554   4.357
23209SOL    HW269654   4.230   4.471   4.328
23210SOL     OW69655   5.501   4.066   5.366
23210SOL    HW169656   5.484   4.097   5.272
23210SOL    HW269657   5.417   4.029   5.404
23211SOL     OW69658   5.454   4.658   5.241
23211SOL    HW169659   5.492   4.749   5.256
23211SOL    HW269660   5.446   4.641   5.142
23212SOL     OW69661   4.583   5.098   3.740
23212SOL    HW169662   4.537   5.113   3.828
23212SOL    HW269663   4.627   5.183   3.710
23213SOL     OW69664   4.385   5.514   4.677
23213SOL    HW169665   4.339   5.602   4.664
23213SOL    HW269666   4.484   5.526   4.670
23214SOL     OW69667   4.583   4.680   4.585
23214SOL    HW169668   4.637   4.611   4.633
23214SOL    HW269669   4.551   4.749   4.651
23215SOL     OW69670   4.807   4.708   3.811
23215SOL    HW169671   4.784   4.761   3.729
23215SOL    HW269672   4.888   4.652   3.792
23216SOL     OW69673   5.585   5.293   4.575
23216SOL    HW169674   5.514   5.281   4.505
23216SOL    HW269675   5.586   5.214   4.635
23217SOL     OW69676   3.945   5.038   5.568
23217SOL    HW169677   3.880   4.965   5.547
23217SOL    HW269678   3.949   5.052   5.666
23218SOL     OW69679   3.803   4.964   4.377
23218SOL    HW169680   3.802   4.917   4.465
23218SOL    HW269681   3.885   4.936   4.326
23219SOL     OW69682   4.396   5.115   5.348
23219SOL    HW169683   4.318   5.065   5.386
23219SOL    HW269684   4.393   5.210   5.379
23220SOL     OW69685   5.548   3.916   4.951
23220SOL    HW169686   5.544   3.826   4.995
23220SOL    HW269687   5.551   3.905   4.852
23221SOL     OW69688   4.152   4.148   4.244
23221SOL    HW169689   4.182   4.076   4.182
23221SOL    HW269690   4.113   4.108   4.327
23222SOL     OW69691   5.429   5.211   4.828
23222SOL    HW169692   5.336   5.186   4.801
23222SOL    HW269693   5.455   5.161   4.910
23223SOL     OW69694   4.041   4.271   5.004
23223SOL    HW169695   4.079   4.212   5.076
23223SOL    HW269696   4.081   4.245   4.916
23224SOL     OW69697   4.536   5.310   4.411
23224SOL    HW169698   4.568   5.320   4.317
23224SOL    HW269699   4.457   5.248   4.413
23225SOL     OW69700   5.148   3.938   4.836
23225SOL    HW169701   5.200   3.873   4.891
23225SOL    HW269702   5.099   4.001   4.897
23226SOL     OW69703   4.725   3.758   4.878
23226SOL    HW169704   4.662   3.686   4.847
23226SOL    HW269705   4.818   3.722   4.878
23227SOL     OW69706   4.342   5.291   5.008
23227SOL    HW169707   4.337   5.373   5.065
23227SOL    HW269708   4.431   5.288   4.963
23228SOL     OW69709   5.076   3.776   3.892
23228SOL    HW169710   5.111   3.735   3.808
23228SOL    HW269711   4.986   3.738   3.912
23229SOL     OW69712   5.024   4.177   4.415
23229SOL    HW169713   4.965   4.257   4.419
23229SOL    HW269714   5.039   4.142   4.508
23230SOL     OW69715   5.317   3.945   4.606
23230SOL    HW169716   5.233   3.944   4.660
23230SOL    HW269717   5.319   4.028   4.550
23231SOL     OW69718   3.763   4.801   4.024
23231SOL    HW169719   3.862   4.790   4.015
23231SOL    HW269720   3.723   4.715   4.056
23232SOL     OW69721   4.599   5.370   4.061
23232SOL    HW169722   4.522   5.335   4.007
23232SOL    HW269723   4.567   5.441   4.123
23233SOL     OW69724   3.954   4.352   5.699
23233SOL    HW169725   3.861   4.350   5.736
23233SOL    HW269726   3.955   4.313   5.607
23234SOL     OW69727   3.949   3.999   6.582
23234SOL    HW169728   3.984   3.982   6.674
23234SOL    HW269729   3.861   3.954   6.570
23235SOL     OW69730   3.743   4.092   6.233
23235SOL    HW169731   3.661   4.135   6.272
23235SOL    HW269732   3.715   4.019   6.170
23236SOL     OW69733   4.293   4.999   6.751
23236SOL    HW169734   4.200   4.992   6.714
23236SOL    HW269735   4.304   5.088   6.795
23237SOL     OW69736   5.279   5.235   6.289
23237SOL    HW169737   5.222   5.219   6.370
23237SOL    HW269738   5.220   5.245   6.209
23238SOL     OW69739   4.859   4.427   6.303
23238SOL    HW169740   4.916   4.505   6.278
23238SOL    HW269741   4.799   4.453   6.379
23239SOL     OW69742   5.479   4.331   5.817
23239SOL    HW169743   5.467   4.318   5.718
23239SOL    HW269744   5.449   4.250   5.866
23240SOL     OW69745   4.492   4.868   6.609
23240SOL    HW169746   4.414   4.885   6.669
23240SOL    HW269747   4.526   4.955   6.573
23241SOL     OW69748   4.574   4.522   7.409
23241SOL    HW169749   4.570   4.598   7.474
23241SOL    HW269750   4.596   4.558   7.318
23242SOL     OW69751   4.409   4.736   6.251
23242SOL    HW169752   4.478   4.720   6.321
23242SOL    HW269753   4.336   4.793   6.289
23243SOL     OW69754   4.410   4.885   7.389
23243SOL    HW169755   4.470   4.964   7.403
23243SOL    HW269756   4.324   4.916   7.348
23244SOL     OW69757   4.059   5.159   6.647
23244SOL    HW169758   3.981   5.128   6.594
23244SOL    HW269759   4.117   5.217   6.590
23245SOL     OW69760   5.184   5.229   6.925
23245SOL    HW169761   5.208   5.323   6.951
23245SOL    HW269762   5.168   5.175   7.007
23246SOL     OW69763   4.162   4.116   7.085
23246SOL    HW169764   4.244   4.060   7.094
23246SOL    HW269765   4.081   4.058   7.089
23247SOL     OW69766   5.327   4.171   6.323
23247SOL    HW169767   5.253   4.217   6.273
23247SOL    HW269768   5.378   4.239   6.376
23248SOL     OW69769   3.955   5.437   6.069
23248SOL    HW169770   3.989   5.514   6.123
23248SOL    HW269771   3.999   5.437   5.979
23249SOL     OW69772   4.851   5.065   7.276
23249SOL    HW169773   4.898   5.065   7.364
23249SOL    HW269774   4.803   4.978   7.265
23250SOL     OW69775   3.954   5.158   6.124
23250SOL    HW169776   3.928   5.254   6.124
23250SOL    HW269777   3.883   5.104   6.169
23251SOL     OW69778   3.964   4.815   6.472
23251SOL    HW169779   3.978   4.731   6.524
23251SOL    HW269780   3.909   4.879   6.527
23252SOL     OW69781   4.344   5.510   7.025
23252SOL    HW169782   4.252   5.493   7.060
23252SOL    HW269783   4.372   5.602   7.051
23253SOL     OW69784   4.330   4.688   5.709
23253SOL    HW169785   4.337   4.772   5.655
23253SOL    HW269786   4.376   4.701   5.797
23254SOL     OW69787   5.318   3.838   7.066
23254SOL    HW169788   5.300   3.905   6.994
23254SOL    HW269789   5.315   3.884   7.155
23255SOL     OW69790   3.846   4.367   6.149
23255SOL    HW169791   3.801   4.279   6.166
23255SOL    HW269792   3.845   4.421   6.233
23256SOL     OW69793   5.566   5.491   5.945
23256SOL    HW169794   5.620   5.462   6.025
23256SOL    HW269795   5.596   5.581   5.916
23257SOL     OW69796   3.751   5.320   5.703
23257SOL    HW169797   3.732   5.224   5.724
23257SOL    HW269798   3.718   5.378   5.778
23258SOL     OW69799   5.413   4.646   6.198
23258SOL    HW169800   5.508   4.617   6.206
23258SOL    HW269801   5.405   4.711   6.123
23259SOL     OW69802   5.365   4.832   6.018
23259SOL    HW169803   5.451   4.834   5.966
23259SOL    HW269804   5.379   4.879   6.106
23260SOL     OW69805   3.837   4.461   7.183
23260SOL    HW169806   3.925   4.448   7.228
23260SOL    HW269807   3.824   4.558   7.161
23261SOL     OW69808   4.337   5.089   6.312
23261SOL    HW169809   4.288   5.002   6.321
23261SOL    HW269810   4.314   5.132   6.225
23262SOL     OW69811   5.017   4.952   7.009
23262SOL    HW169812   5.054   4.879   6.951
23262SOL    HW269813   5.069   4.957   7.094
23263SOL     OW69814   4.533   3.728   6.088
23263SOL    HW169815   4.573   3.819   6.079
23263SOL    HW269816   4.433   3.736   6.094
23264SOL     OW69817   3.921   4.700   6.850
23264SOL    HW169818   4.010   4.655   6.836
23264SOL    HW269819   3.848   4.635   6.831
23265SOL     OW69820   5.249   4.723   5.776
23265SOL    HW169821   5.186   4.647   5.789
23265SOL    HW269822   5.297   4.741   5.862
23266SOL     OW69823   4.911   5.516   7.202
23266SOL    HW169824   4.935   5.576   7.126
23266SOL    HW269825   4.918   5.421   7.172
23267SOL     OW69826   4.041   3.975   7.387
23267SOL    HW169827   4.112   4.046   7.393
23267SOL    HW269828   3.953   4.014   7.415
23268SOL     OW69829   5.190   5.141   6.539
23268SOL    HW169830   5.131   5.147   6.619
23268SOL    HW269831   5.175   5.053   6.493
23269SOL     OW69832   5.391   5.438   6.158
23269SOL    HW169833   5.350   5.415   6.070
23269SOL    HW269834   5.373   5.364   6.223
23270SOL     OW69835   4.322   4.453   5.856
23270SOL    HW169836   4.346   4.522   5.788
23270SOL    HW269837   4.244   4.486   5.910
23271SOL     OW69838   5.005   4.069   6.530
23271SOL    HW169839   4.919   4.019   6.517
23271SOL    HW269840   5.067   4.015   6.586
23272SOL     OW69841   5.300   5.386   5.893
23272SOL    HW169842   5.389   5.432   5.896
23272SOL    HW269843   5.279   5.362   5.798
23273SOL     OW69844   4.531   4.329   7.051
23273SOL    HW169845   4.484   4.326   7.140
23273SOL    HW269846   4.480   4.274   6.985
23274SOL     OW69847   5.118   4.193   7.260
23274SOL    HW169848   5.098   4.236   7.348
23274SOL    HW269849   5.196   4.131   7.269
23275SOL     OW69850   4.697   4.614   7.158
23275SOL    HW169851   4.743   4.530   7.129
23275SOL    HW269852   4.641   4.648   7.083
23276SOL     OW69853   4.715   4.134   6.828
23276SOL    HW169854   4.638   4.168   6.882
23276SOL    HW269855   4.681   4.083   6.749
23277SOL     OW69856   4.765   4.425   6.015
23277SOL    HW169857   4.791   4.421   6.111
23277SOL    HW269858   4.680   4.374   6.001
23278SOL     OW69859   3.800   4.535   6.375
23278SOL    HW169860   3.899   4.523   6.384
23278SOL    HW269861   3.776   4.630   6.396
23279SOL     OW69862   3.854   5.545   7.157
23279SOL    HW169863   3.844   5.530   7.256
23279SOL    HW269864   3.768   5.581   7.121
23280SOL     OW69865   4.589   4.072   5.781
23280SOL    HW169866   4.648   4.135   5.732
23280SOL    HW269867   4.608   3.978   5.752
23281SOL     OW69868   5.443   4.309   7.417
23281SOL    HW169869   5.417   4.398   7.381
23281SOL    HW269870   5.441   4.241   7.344
23282SOL     OW69871   5.086   4.868   6.131
23282SOL    HW169872   5.169   4.839   6.083
23282SOL    HW269873   5.037   4.935   6.075
23283SOL     OW69874   4.274   3.920   6.471
23283SOL    HW169875   4.269   3.915   6.571
23283SOL    HW269876   4.276   4.016   6.442
23284SOL     OW69877   4.732   5.180   6.063
23284SOL    HW169878   4.686   5.252   6.011
23284SOL    HW269879   4.728   5.200   6.161
23285SOL     OW69880   4.075   5.525   6.439
23285SOL    HW169881   4.125   5.439   6.445
23285SOL    HW269882   4.140   5.602   6.436
23286SOL     OW69883   5.519   4.790   6.459
23286SOL    HW169884   5.457   4.775   6.383
23286SOL    HW269885   5.467   4.801   6.544
23287SOL     OW69886   4.951   5.274   7.092
23287SOL    HW169887   4.957   5.197   7.156
23287SOL    HW269888   4.899   5.248   7.012
23288SOL     OW69889   4.045   4.667   5.828
23288SOL    HW169890   4.127   4.706   5.786
23288SOL    HW269891   4.018   4.585   5.779
23289SOL     OW69892   5.182   4.459   6.314
23289SOL    HW169893   5.177   4.394   6.389
23289SOL    HW269894   5.262   4.518   6.327
23290SOL     OW69895   4.185   4.990   7.313
23290SOL    HW169896   4.135   4.991   7.227
23290SOL    HW269897   4.122   4.972   7.389
23291SOL     OW69898   4.835   5.500   5.823
23291SOL    HW169899   4.775   5.438   5.873
23291SOL    HW269900   4.866   5.456   5.738
23292SOL     OW69901   3.926   4.009   7.084
23292SOL    HW169902   3.846   4.069   7.071
23292SOL    HW269903   3.916   3.960   7.170
23293SOL     OW69904   5.356   5.101   5.667
23293SOL    HW169905   5.324   5.195   5.657
23293SOL    HW269906   5.280   5.038   5.655
23294SOL     OW69907   4.188   5.467   5.909
23294SOL    HW169908   4.221   5.506   5.995
23294SOL    HW269909   4.264   5.460   5.844
23295SOL     OW69910   5.124   3.831   6.012
23295SOL    HW169911   5.100   3.794   5.922
23295SOL    HW269912   5.223   3.847   6.016
23296SOL     OW69913   3.973   5.509   6.827
23296SOL    HW169914   4.030   5.444   6.877
23296SOL    HW269915   3.957   5.476   6.734
23297SOL     OW69916   4.664   5.422   6.490
23297SOL    HW169917   4.744   5.365   6.511
23297SOL    HW269918   4.615   5.382   6.413
23298SOL     OW69919   4.106   4.424   6.066
23298SOL    HW169920   4.151   4.334   6.063
23298SOL    HW269921   4.012   4.413   6.099
23299SOL     OW69922   5.271   3.946   7.315
23299SOL    HW169923   5.266   3.983   7.407
23299SOL    HW269924   5.199   3.877   7.303
23300SOL     OW69925   4.338   3.846   5.703
23300SOL    HW169926   4.436   3.824   5.710
23300SOL    HW269927   4.307   3.829   5.610
23301SOL     OW69928   4.505   3.988   7.335
23301SOL    HW169929   4.572   3.927   7.378
23301SOL    HW269930   4.432   4.007   7.400
23302SOL     OW69931   4.612   5.238   6.781
23302SOL    HW169932   4.589   5.213   6.687
23302SOL    HW269933   4.673   5.169   6.820
23303SOL     OW69934   5.075   4.314   7.019
23303SOL    HW169935   5.103   4.271   7.104
23303SOL    HW269936   5.100   4.410   7.020
23304SOL     OW69937   4.527   5.126   6.510
23304SOL    HW169938   4.617   5.140   6.468
23304SOL    HW269939   4.456   5.128   6.439
23305SOL     OW69940   4.646   4.227   6.485
23305SOL    HW169941   4.621   4.218   6.389
23305SOL    HW269942   4.694   4.145   6.516
23306SOL     OW69943   4.263   3.788   6.098
23306SOL    HW169944   4.182   3.789   6.156
23306SOL    HW269945   4.266   3.871   6.043
23307SOL     OW69946   5.158   4.912   5.627
23307SOL    HW169947   5.190   4.836   5.684
23307SOL    HW269948   5.066   4.939   5.657
23308SOL     OW69949   4.021   3.759   5.757
23308SOL    HW169950   4.070   3.843   5.736
23308SOL    HW269951   4.083   3.694   5.802
23309SOL     OW69952   4.659   3.960   6.066
23309SOL    HW169953   4.611   4.001   5.988
23309SOL    HW269954   4.758   3.958   6.047
23310SOL     OW69955   4.800   4.407   7.050
23310SOL    HW169956   4.720   4.346   7.053
23310SOL    HW269957   4.881   4.354   7.026
23311SOL     OW69958   4.951   5.294   6.379
23311SOL    HW169959   4.972   5.368   6.314
23311SOL    HW269960   5.019   5.294   6.452
23312SOL     OW69961   4.183   4.876   6.327
23312SOL    HW169962   4.112   4.849   6.392
23312SOL    HW269963   4.157   4.848   6.234
23313SOL     OW69964   4.995   5.521   6.177
23313SOL    HW169965   5.039   5.585   6.113
23313SOL    HW269966   4.945   5.573   6.247
23314SOL     OW69967   4.756   4.273   5.602
23314SOL    HW169968   4.715   4.355   5.563
23314SOL    HW269969   4.820   4.299   5.675
23315SOL     OW69970   3.802   4.280   6.972
23315SOL    HW169971   3.894   4.279   6.931
23315SOL    HW269972   3.796   4.354   7.039
23316SOL     OW69973   4.285   3.946   6.733
23316SOL    HW169974   4.323   3.862   6.770
23316SOL    HW269975   4.197   3.965   6.777
23317SOL     OW69976   4.590   4.178   6.228
23317SOL    HW169977   4.558   4.250   6.166
23317SOL    HW269978   4.614   4.097   6.175
23318SOL     OW69979   4.741   3.763   6.339
23318SOL    HW169980   4.669   3.768   6.270
23318SOL    HW269981   4.717   3.694   6.408
23319SOL     OW69982   5.153   4.897   6.453
23319SOL    HW169983   5.098   4.813   6.446
23319SOL    HW269984   5.179   4.926   6.361
23320SOL     OW69985   5.190   4.314   6.578
23320SOL    HW169986   5.160   4.219   6.585
23320SOL    HW269987   5.263   4.330   6.644
23321SOL     OW69988   5.581   4.557   5.963
23321SOL    HW169989   5.623   4.493   6.027
23321SOL    HW269990   5.543   4.506   5.885
23322SOL     OW69991   4.212   5.109   5.760
23322SOL    HW169992   4.125   5.094   5.807
23322SOL    HW269993   4.195   5.135   5.665
23323SOL     OW69994   5.388   5.004   6.243
23323SOL    HW169995   5.487   5.012   6.257
23323SOL    HW269996   5.343   5.088   6.274
23324SOL     OW69997   5.114   4.299   5.664
23324SOL    HW169998   5.060   4.278   5.745
23324SOL    HW269999   5.205   4.258   5.673
23325SOL     OW70000   4.251   3.980   5.914
23325SOL    HW170001   4.278   3.921   5.839
23325SOL    HW270002   4.251   4.075   5.883
23326SOL     OW70003   5.478   4.947   7.174
23326SOL    HW170004   5.569   4.908   7.161
23326SOL    HW270005   5.486   5.043   7.198
23327SOL     OW70006   4.788   5.071   6.926
23327SOL    HW170007   4.708   5.048   6.981
23327SOL    HW270008   4.871   5.045   6.975
23328SOL     OW70009   5.316   5.353   7.211
23328SOL    HW170010   5.343   5.387   7.121
23328SOL    HW270011   5.395   5.315   7.257
23329SOL     OW70012   4.835   4.919   6.686
23329SOL    HW170013   4.795   4.963   6.767
23329SOL    HW270014   4.794   4.956   6.603
23330SOL     OW70015   5.362   4.823   6.665
23330SOL    HW170016   5.367   4.904   6.724
23330SOL    HW270017   5.276   4.825   6.614
23331SOL     OW70018   4.639   3.813   6.988
23331SOL    HW170019   4.664   3.793   6.893
23331SOL    HW270020   4.711   3.869   7.030
23332SOL     OW70021   4.704   4.840   7.305
23332SOL    HW170022   4.605   4.846   7.315
23332SOL    HW270023   4.727   4.760   7.249
23333SOL     OW70024   4.429   4.774   5.954
23333SOL    HW170025   4.415   4.781   6.053
23333SOL    HW270026   4.513   4.723   5.936
23334SOL     OW70027   4.134   4.537   6.837
23334SOL    HW170028   4.220   4.549   6.887
23334SOL    HW270029   4.092   4.450   6.864
23335SOL     OW70030   4.998   4.110   6.848
23335SOL    HW170031   5.019   4.184   6.912
23335SOL    HW270032   4.909   4.127   6.805
23336SOL     OW70033   3.788   5.288   6.917
23336SOL    HW170034   3.742   5.370   6.883
23336SOL    HW270035   3.886   5.307   6.926
23337SOL     OW70036   4.091   4.824   6.087
23337SOL    HW170037   4.084   4.907   6.031
23337SOL    HW270038   4.095   4.744   6.027
23338SOL     OW70039   4.290   4.261   6.451
23338SOL    HW170040   4.302   4.327   6.377
23338SOL    HW270041   4.336   4.295   6.534
23339SOL     OW70042   4.976   5.072   5.974
23339SOL    HW170043   5.026   5.149   6.014
23339SOL    HW270044   4.881   5.074   6.006
23340SOL     OW70045   4.996   5.169   6.728
23340SOL    HW170046   5.043   5.182   6.815
23340SOL    HW270047   4.930   5.095   6.737
23341SOL     OW70048   5.306   4.363   6.058
23341SOL    HW170049   5.275   4.424   6.131
23341SOL    HW270050   5.356   4.415   5.989
23342SOL     OW70051   4.078   5.234   6.915
23342SOL    HW170052   4.057   5.190   6.828
23342SOL    HW270053   4.175   5.260   6.918
23343SOL     OW70054   4.126   4.475   7.184
23343SOL    HW170055   4.194   4.530   7.137
23343SOL    HW270056   4.166   4.387   7.211
23344SOL     OW70057   5.311   4.503   7.256
23344SOL    HW170058   5.219   4.541   7.251
23344SOL    HW270059   5.371   4.550   7.191
23345SOL     OW70060   4.737   3.829   7.356
23345SOL    HW170061   4.743   3.914   7.304
23345SOL    HW270062   4.769   3.753   7.299
23346SOL     OW70063   4.228   3.774   7.326
23346SOL    HW170064   4.186   3.717   7.256
23346SOL    HW270065   4.162   3.843   7.358
23347SOL     OW70066   4.297   4.594   6.615
23347SOL    HW170067   4.341   4.683   6.606
23347SOL    HW270068   4.234   4.594   6.692
23348SOL     OW70069   5.084   4.586   6.631
23348SOL    HW170070   5.009   4.586   6.565
23348SOL    HW270071   5.121   4.494   6.640
23349SOL     OW70072   4.933   4.249   5.861
23349SOL    HW170073   4.946   4.165   5.915
23349SOL    HW270074   4.904   4.323   5.921
23350SOL     OW70075   4.031   3.937   6.817
23350SOL    HW170076   4.008   3.974   6.907
23350SOL    HW270077   4.001   3.842   6.811
23351SOL     OW70078   3.761   5.034   6.868
23351SOL    HW170079   3.814   4.985   6.936
23351SOL    HW270080   3.783   5.132   6.873
23352SOL     OW70081   4.456   4.358   6.650
23352SOL    HW170082   4.515   4.332   6.574
23352SOL    HW270083   4.428   4.454   6.639
23353SOL     OW70084   5.452   4.659   7.440
23353SOL    HW170085   5.406   4.652   7.351
23353SOL    HW270086   5.390   4.703   7.506
23354SOL     OW70087   4.031   3.787   6.204
23354SOL    HW170088   4.020   3.881   6.237
23354SOL    HW270089   4.026   3.724   6.281
23355SOL     OW70090   5.346   4.091   5.960
23355SOL    HW170091   5.348   4.015   6.024
23355SOL    HW270092   5.298   4.168   6.000
23356SOL     OW70093   4.747   4.490   6.552
23356SOL    HW170094   4.762   4.511   6.648
23356SOL    HW270095   4.717   4.395   6.543
23357SOL     OW70096   4.704   5.297   7.286
23357SOL    HW170097   4.684   5.341   7.198
23357SOL    HW270098   4.743   5.206   7.270
23358SOL     OW70099   5.583   5.242   7.191
23358SOL    HW170100   5.597   5.269   7.096
23358SOL    HW270101   5.666   5.264   7.244
23359SOL     OW70102   4.074   4.622   7.390
23359SOL    HW170103   4.150   4.666   7.438
23359SOL    HW270104   4.109   4.575   7.308
23360SOL     OW70105   5.264   3.998   5.711
23360SOL    HW170106   5.203   3.923   5.734
23360SOL    HW270107   5.286   4.050   5.794
23361SOL     OW70108   5.027   4.562   5.628
23361SOL    HW170109   5.061   4.469   5.643
23361SOL    HW270110   5.045   4.589   5.533
23362SOL     OW70111   4.792   5.057   6.435
23362SOL    HW170112   4.799   4.973   6.380
23362SOL    HW270113   4.854   5.126   6.399
23363SOL     OW70114   4.043   4.534   6.535
23363SOL    HW170115   4.136   4.570   6.540
23363SOL    HW270116   4.037   4.449   6.587
23364SOL     OW70117   4.063   4.233   6.592
23364SOL    HW170118   4.011   4.150   6.575
23364SOL    HW270119   4.140   4.238   6.528
23365SOL     OW70120   4.862   4.104   7.264
23365SOL    HW170121   4.817   4.167   7.328
23365SOL    HW270122   4.955   4.135   7.247
23366SOL     OW70123   4.884   3.931   7.063
23366SOL    HW170124   4.884   3.995   7.140
23366SOL    HW270125   4.912   3.979   6.980
23367SOL     OW70126   3.732   5.050   5.786
23367SOL    HW170127   3.639   5.071   5.755
23367SOL    HW270128   3.742   4.951   5.799
23368SOL     OW70129   3.812   5.525   6.513
23368SOL    HW170130   3.770   5.439   6.486
23368SOL    HW270131   3.906   5.528   6.479
23369SOL     OW70132   4.228   5.292   6.496
23369SOL    HW170133   4.294   5.366   6.505
23369SOL    HW270134   4.272   5.213   6.454
23370SOL     OW70135   4.726   4.520   6.824
23370SOL    HW170136   4.767   4.488   6.910
23370SOL    HW270137   4.630   4.493   6.821
23371SOL     OW70138   3.764   4.268   6.700
23371SOL    HW170139   3.849   4.235   6.659
23371SOL    HW270140   3.777   4.283   6.798
23372SOL     OW70141   3.913   4.244   7.308
23372SOL    HW170142   3.972   4.204   7.238
23372SOL    HW270143   3.855   4.315   7.267
23373SOL     OW70144   5.093   4.674   7.246
23373SOL    HW170145   5.132   4.763   7.266
23373SOL    HW270146   5.103   4.654   7.149
23374SOL     OW70147   4.539   4.296   5.911
23374SOL    HW170148   4.546   4.207   5.865
23374SOL    HW270149   4.445   4.330   5.903
23375SOL     OW70150   5.381   4.328   6.792
23375SOL    HW170151   5.343   4.259   6.854
23375SOL    HW270152   5.463   4.292   6.748
23376SOL     OW70153   3.976   5.288   7.330
23376SOL    HW170154   3.946   5.345   7.406
23376SOL    HW270155   3.969   5.191   7.356
23377SOL     OW70156   4.395   4.188   6.855
23377SOL    HW170157   4.361   4.099   6.825
23377SOL    HW270158   4.421   4.242   6.775
23378SOL     OW70159   4.654   5.402   7.051
23378SOL    HW170160   4.630   5.384   6.956
23378SOL    HW270161   4.684   5.496   7.061
23379SOL     OW70162   4.197   4.224   5.777
23379SOL    HW170163   4.258   4.304   5.781
23379SOL    HW270164   4.102   4.255   5.784
23380SOL     OW70165   3.883   4.861   7.052
23380SOL    HW170166   3.905   4.800   7.128
23380SOL    HW270167   3.893   4.812   6.966
23381SOL     OW70168   5.071   4.783   6.820
23381SOL    HW170169   5.095   4.720   6.746
23381SOL    HW270170   4.981   4.823   6.802
23382SOL     OW70171   5.026   4.579   5.895
23382SOL    HW170172   4.940   4.548   5.937
23382SOL    HW270173   5.022   4.565   5.796
23383SOL     OW70174   5.483   5.471   6.740
23383SOL    HW170175   5.544   5.501   6.667
23383SOL    HW270176   5.445   5.382   6.718
23384SOL     OW70177   4.976   5.455   6.714
23384SOL    HW170178   5.060   5.460   6.660
23384SOL    HW270179   4.953   5.359   6.732
23385SOL     OW70180   3.807   4.982   6.608
23385SOL    HW170181   3.802   4.981   6.708
23385SOL    HW270182   3.724   4.941   6.570
23386SOL     OW70183   4.412   5.386   7.302
23386SOL    HW170184   4.356   5.467   7.311
23386SOL    HW270185   4.464   5.390   7.216
23387SOL     OW70186   5.450   3.859   6.109
23387SOL    HW170187   5.523   3.842   6.042
23387SOL    HW270188   5.419   3.772   6.147
23388SOL     OW70189   5.112   5.297   6.063
23388SOL    HW170190   5.179   5.309   5.989
23388SOL    HW270191   5.072   5.386   6.086
23389SOL     OW70192   3.854   5.518   7.437
23389SOL    HW170193   3.813   5.444   7.490
23389SOL    HW270194   3.918   5.569   7.495
23390SOL     OW70195   5.004   4.651   6.258
23390SOL    HW170196   5.064   4.570   6.260
23390SOL    HW270197   5.044   4.720   6.198
23391SOL     OW70198   4.554   4.997   7.008
23391SOL    HW170199   4.549   5.030   7.103
23391SOL    HW270200   4.468   5.016   6.962
23392SOL     OW70201   4.396   5.340   5.740
23392SOL    HW170202   4.405   5.350   5.641
23392SOL    HW270203   4.356   5.251   5.761
23393SOL     OW70204   5.374   5.444   6.980
23393SOL    HW170205   5.427   5.454   6.896
23393SOL    HW270206   5.347   5.534   7.014
23394SOL     OW70207   5.565   3.899   6.549
23394SOL    HW170208   5.604   3.814   6.513
23394SOL    HW270209   5.467   3.901   6.530
23395SOL     OW70210   3.987   4.050   6.306
23395SOL    HW170211   3.908   4.101   6.272
23395SOL    HW270212   3.978   4.035   6.404
23396SOL     OW70213   4.918   5.336   5.617
23396SOL    HW170214   4.924   5.243   5.654
23396SOL    HW270215   4.859   5.336   5.537
23397SOL     OW70216   4.546   4.726   6.958
23397SOL    HW170217   4.586   4.725   6.866
23397SOL    HW270218   4.556   4.818   6.998
23398SOL     OW70219   4.640   4.634   5.877
23398SOL    HW170220   4.703   4.672   5.809
23398SOL    HW270221   4.680   4.551   5.916
23399SOL     OW70222   5.228   5.331   5.630
23399SOL    HW170223   5.136   5.368   5.637
23399SOL    HW270224   5.266   5.351   5.540
23400SOL     OW70225   4.096   5.012   7.076
23400SOL    HW170226   4.083   5.105   7.042
23400SOL    HW270227   4.012   4.960   7.063
23401SOL     OW70228   5.338   5.016   6.875
23401SOL    HW170229   5.398   5.019   6.955
23401SOL    HW270230   5.263   5.080   6.888
23402SOL     OW70231   4.763   4.822   6.282
23402SOL    HW170232   4.693   4.775   6.336
23402SOL    HW270233   4.822   4.754   6.239
23403SOL     OW70234   4.738   3.960   6.557
23403SOL    HW170235   4.730   3.924   6.464
23403SOL    HW270236   4.736   3.884   6.622
23404SOL     OW70237   4.314   5.211   6.077
23404SOL    HW170238   4.356   5.153   6.007
23404SOL    HW270239   4.270   5.290   6.033
23405SOL     OW70240   5.433   4.109   6.967
23405SOL    HW170241   5.506   4.178   6.971
23405SOL    HW270242   5.461   4.034   6.908
23406SOL     OW70243   3.979   5.072   5.876
23406SOL    HW170244   3.883   5.073   5.849
23406SOL    HW270245   3.991   5.125   5.960
23407SOL     OW70246   3.829   4.737   7.312
23407SOL    HW170247   3.752   4.704   7.366
23407SOL    HW270248   3.914   4.707   7.354
23408SOL     OW70249   4.396   3.927   7.075
23408SOL    HW170250   4.486   3.911   7.035
23408SOL    HW270251   4.404   3.932   7.174
23409SOL     OW70252   3.799   4.069   5.619
23409SOL    HW170253   3.707   4.041   5.590
23409SOL    HW270254   3.830   4.146   5.563
23410SOL     OW70255   5.164   4.580   6.984
23410SOL    HW170256   5.107   4.632   6.921
23410SOL    HW270257   5.260   4.592   6.960
23411SOL     OW70258   3.796   3.890   5.904
23411SOL    HW170259   3.779   3.973   5.850
23411SOL    HW270260   3.886   3.853   5.882
23412SOL     OW70261   4.907   5.059   5.705
23412SOL    HW170262   4.808   5.048   5.707
23412SOL    HW270263   4.941   5.074   5.798
23413SOL     OW70264   4.337   4.566   7.017
23413SOL    HW170265   4.393   4.647   7.000
23413SOL    HW270266   4.396   4.486   7.020
23414SOL     OW70267   5.217   5.491   6.545
23414SOL    HW170268   5.250   5.555   6.476
23414SOL    HW270269   5.283   5.485   6.620
23415SOL     OW70270   4.440   4.289   7.294
23415SOL    HW170271   4.459   4.354   7.368
23415SOL    HW270272   4.500   4.209   7.303
23416SOL     OW70273   5.174   4.944   7.219
23416SOL    HW170274   5.165   4.934   7.318
23416SOL    HW270275   5.270   4.937   7.193
23417SOL     OW70276   4.114   5.465   7.146
23417SOL    HW170277   4.023   5.506   7.144
23417SOL    HW270278   4.107   5.371   7.178
23418SOL     OW70279   5.398   4.607   6.840
23418SOL    HW170280   5.371   4.518   6.803
23418SOL    HW270281   5.399   4.675   6.767
23419SOL     OW70282   4.949   4.049   6.035
23419SOL    HW170283   5.014   3.975   6.024
23419SOL    HW270284   4.969   4.099   6.119
23420SOL     OW70285   4.318   4.469   6.238
23420SOL    HW170286   4.368   4.554   6.219
23420SOL    HW270287   4.230   4.471   6.190
23421SOL     OW70288   5.501   4.066   7.228
23421SOL    HW170289   5.484   4.097   7.134
23421SOL    HW270290   5.417   4.029   7.266
23422SOL     OW70291   5.454   4.658   7.103
23422SOL    HW170292   5.492   4.749   7.118
23422SOL    HW270293   5.446   4.641   7.004
23423SOL     OW70294   4.583   5.098   5.602
23423SOL    HW170295   4.537   5.113   5.690
23423SOL    HW270296   4.627   5.183   5.572
23424SOL     OW70297   4.385   5.514   6.539
23424SOL    HW170298   4.339   5.602   6.526
23424SOL    HW270299   4.484   5.526   6.532
23425SOL     OW70300   4.583   4.680   6.447
23425SOL    HW170301   4.637   4.611   6.495
23425SOL    HW270302   4.551   4.749   6.513
23426SOL     OW70303   4.807   4.708   5.673
23426SOL    HW170304   4.784   4.761   5.591
23426SOL    HW270305   4.888   4.652   5.654
23427SOL     OW70306   5.585   5.293   6.437
23427SOL    HW170307   5.514   5.281   6.367
23427SOL    HW270308   5.586   5.214   6.497
23428SOL     OW70309   3.945   5.038   7.430
23428SOL    HW170310   3.880   4.965   7.409
23428SOL    HW270311   3.949   5.052   7.528
23429SOL     OW70312   3.803   4.964   6.239
23429SOL    HW170313   3.802   4.917   6.327
23429SOL    HW270314   3.885   4.936   6.188
23430SOL     OW70315   4.396   5.115   7.210
23430SOL    HW170316   4.318   5.065   7.248
23430SOL    HW270317   4.393   5.210   7.241
23431SOL     OW70318   5.548   3.916   6.813
23431SOL    HW170319   5.544   3.826   6.857
23431SOL    HW270320   5.551   3.905   6.714
23432SOL     OW70321   4.152   4.148   6.106
23432SOL    HW170322   4.182   4.076   6.044
23432SOL    HW270323   4.113   4.108   6.189
23433SOL     OW70324   5.429   5.211   6.690
23433SOL    HW170325   5.336   5.186   6.663
23433SOL    HW270326   5.455   5.161   6.772
23434SOL     OW70327   4.041   4.271   6.866
23434SOL    HW170328   4.079   4.212   6.938
23434SOL    HW270329   4.081   4.245   6.778
23435SOL     OW70330   4.536   5.310   6.273
23435SOL    HW170331   4.568   5.320   6.179
23435SOL    HW270332   4.457   5.248   6.275
23436SOL     OW70333   5.148   3.938   6.698
23436SOL    HW170334   5.200   3.873   6.753
23436SOL    HW270335   5.099   4.001   6.759
23437SOL     OW70336   4.725   3.758   6.740
23437SOL    HW170337   4.662   3.686   6.709
23437SOL    HW270338   4.818   3.722   6.740
23438SOL     OW70339   4.494   5.054   5.887
23438SOL    HW170340   4.448   4.967   5.904
23438SOL    HW270341   4.585   5.051   5.928
23439SOL     OW70342   4.342   5.291   6.870
23439SOL    HW170343   4.337   5.373   6.927
23439SOL    HW270344   4.431   5.288   6.825
23440SOL     OW70345   5.076   3.776   5.754
23440SOL    HW170346   5.111   3.735   5.670
23440SOL    HW270347   4.986   3.738   5.774
23441SOL     OW70348   5.024   4.177   6.277
23441SOL    HW170349   4.965   4.257   6.281
23441SOL    HW270350   5.039   4.142   6.370
23442SOL     OW70351   5.317   3.945   6.468
23442SOL    HW170352   5.233   3.944   6.522
23442SOL    HW270353   5.319   4.028   6.412
23443SOL     OW70354   3.763   4.801   5.886
23443SOL    HW170355   3.862   4.790   5.877
23443SOL    HW270356   3.723   4.715   5.918
23444SOL     OW70357   4.599   5.370   5.923
23444SOL    HW170358   4.522   5.335   5.869
23444SOL    HW270359   4.567   5.441   5.985
23445SOL     OW70360   3.954   4.352   7.561
23445SOL    HW170361   3.861   4.350   7.598
23445SOL    HW270362   3.955   4.313   7.469
23446SOL     OW70363   3.949   3.999   8.444
23446SOL    HW170364   3.984   3.982   8.536
23446SOL    HW270365   3.861   3.954   8.432
23447SOL     OW70366   3.743   4.092   8.095
23447SOL    HW170367   3.661   4.135   8.134
23447SOL    HW270368   3.715   4.019   8.032
23448SOL     OW70369   4.293   4.999   8.613
23448SOL    HW170370   4.200   4.992   8.576
23448SOL    HW270371   4.304   5.088   8.657
23449SOL     OW70372   5.279   5.235   8.151
23449SOL    HW170373   5.222   5.219   8.232
23449SOL    HW270374   5.220   5.245   8.071
23450SOL     OW70375   4.859   4.427   8.165
23450SOL    HW170376   4.916   4.505   8.140
23450SOL    HW270377   4.799   4.453   8.241
23451SOL     OW70378   5.479   4.331   7.679
23451SOL    HW170379   5.467   4.318   7.580
23451SOL    HW270380   5.449   4.250   7.728
23452SOL     OW70381   4.492   4.868   8.471
23452SOL    HW170382   4.414   4.885   8.531
23452SOL    HW270383   4.526   4.955   8.435
23453SOL     OW70384   4.574   4.522   9.271
23453SOL    HW170385   4.570   4.598   9.336
23453SOL    HW270386   4.596   4.558   9.180
23454SOL     OW70387   4.409   4.736   8.113
23454SOL    HW170388   4.478   4.720   8.183
23454SOL    HW270389   4.336   4.793   8.151
23455SOL     OW70390   4.410   4.885   9.251
23455SOL    HW170391   4.470   4.964   9.265
23455SOL    HW270392   4.324   4.916   9.210
23456SOL     OW70393   4.059   5.159   8.509
23456SOL    HW170394   3.981   5.128   8.456
23456SOL    HW270395   4.117   5.217   8.452
23457SOL     OW70396   5.184   5.229   8.787
23457SOL    HW170397   5.208   5.323   8.813
23457SOL    HW270398   5.168   5.175   8.869
23458SOL     OW70399   4.162   4.116   8.947
23458SOL    HW170400   4.244   4.060   8.956
23458SOL    HW270401   4.081   4.058   8.951
23459SOL     OW70402   5.327   4.171   8.185
23459SOL    HW170403   5.253   4.217   8.135
23459SOL    HW270404   5.378   4.239   8.238
23460SOL     OW70405   3.955   5.437   7.931
23460SOL    HW170406   3.989   5.514   7.985
23460SOL    HW270407   3.999   5.437   7.841
23461SOL     OW70408   4.851   5.065   9.138
23461SOL    HW170409   4.898   5.065   9.226
23461SOL    HW270410   4.803   4.978   9.127
23462SOL     OW70411   3.954   5.158   7.986
23462SOL    HW170412   3.928   5.254   7.986
23462SOL    HW270413   3.883   5.104   8.031
23463SOL     OW70414   3.964   4.815   8.334
23463SOL    HW170415   3.978   4.731   8.386
23463SOL    HW270416   3.909   4.879   8.389
23464SOL     OW70417   4.344   5.510   8.887
23464SOL    HW170418   4.252   5.493   8.922
23464SOL    HW270419   4.372   5.602   8.913
23465SOL     OW70420   4.330   4.688   7.571
23465SOL    HW170421   4.337   4.772   7.517
23465SOL    HW270422   4.376   4.701   7.659
23466SOL     OW70423   5.318   3.838   8.928
23466SOL    HW170424   5.300   3.905   8.856
23466SOL    HW270425   5.315   3.884   9.017
23467SOL     OW70426   3.846   4.367   8.011
23467SOL    HW170427   3.801   4.279   8.028
23467SOL    HW270428   3.845   4.421   8.095
23468SOL     OW70429   5.566   5.491   7.807
23468SOL    HW170430   5.620   5.462   7.887
23468SOL    HW270431   5.596   5.581   7.778
23469SOL     OW70432   3.751   5.320   7.565
23469SOL    HW170433   3.732   5.224   7.586
23469SOL    HW270434   3.718   5.378   7.640
23470SOL     OW70435   5.413   4.646   8.060
23470SOL    HW170436   5.508   4.617   8.068
23470SOL    HW270437   5.405   4.711   7.985
23471SOL     OW70438   5.365   4.832   7.880
23471SOL    HW170439   5.451   4.834   7.828
23471SOL    HW270440   5.379   4.879   7.968
23472SOL     OW70441   3.837   4.461   9.045
23472SOL    HW170442   3.925   4.448   9.090
23472SOL    HW270443   3.824   4.558   9.023
23473SOL     OW70444   4.337   5.089   8.174
23473SOL    HW170445   4.288   5.002   8.183
23473SOL    HW270446   4.314   5.132   8.087
23474SOL     OW70447   5.017   4.952   8.871
23474SOL    HW170448   5.054   4.879   8.813
23474SOL    HW270449   5.069   4.957   8.956
23475SOL     OW70450   4.533   3.728   7.950
23475SOL    HW170451   4.573   3.819   7.941
23475SOL    HW270452   4.433   3.736   7.956
23476SOL     OW70453   3.921   4.700   8.712
23476SOL    HW170454   4.010   4.655   8.698
23476SOL    HW270455   3.848   4.635   8.693
23477SOL     OW70456   5.249   4.723   7.638
23477SOL    HW170457   5.186   4.647   7.651
23477SOL    HW270458   5.297   4.741   7.724
23478SOL     OW70459   4.911   5.516   9.064
23478SOL    HW170460   4.935   5.576   8.988
23478SOL    HW270461   4.918   5.421   9.034
23479SOL     OW70462   4.041   3.975   9.249
23479SOL    HW170463   4.112   4.046   9.255
23479SOL    HW270464   3.953   4.014   9.277
23480SOL     OW70465   5.190   5.141   8.401
23480SOL    HW170466   5.131   5.147   8.481
23480SOL    HW270467   5.175   5.053   8.355
23481SOL     OW70468   5.391   5.438   8.020
23481SOL    HW170469   5.350   5.415   7.932
23481SOL    HW270470   5.373   5.364   8.085
23482SOL     OW70471   4.322   4.453   7.718
23482SOL    HW170472   4.346   4.522   7.650
23482SOL    HW270473   4.244   4.486   7.772
23483SOL     OW70474   5.005   4.069   8.392
23483SOL    HW170475   4.919   4.019   8.379
23483SOL    HW270476   5.067   4.015   8.448
23484SOL     OW70477   5.300   5.386   7.755
23484SOL    HW170478   5.389   5.432   7.758
23484SOL    HW270479   5.279   5.362   7.660
23485SOL     OW70480   4.531   4.329   8.913
23485SOL    HW170481   4.484   4.326   9.002
23485SOL    HW270482   4.480   4.274   8.847
23486SOL     OW70483   5.118   4.193   9.122
23486SOL    HW170484   5.098   4.236   9.210
23486SOL    HW270485   5.196   4.131   9.131
23487SOL     OW70486   4.697   4.614   9.020
23487SOL    HW170487   4.743   4.530   8.991
23487SOL    HW270488   4.641   4.648   8.945
23488SOL     OW70489   4.715   4.134   8.690
23488SOL    HW170490   4.638   4.168   8.744
23488SOL    HW270491   4.681   4.083   8.611
23489SOL     OW70492   4.765   4.425   7.877
23489SOL    HW170493   4.791   4.421   7.973
23489SOL    HW270494   4.680   4.374   7.863
23490SOL     OW70495   3.800   4.535   8.237
23490SOL    HW170496   3.899   4.523   8.246
23490SOL    HW270497   3.776   4.630   8.258
23491SOL     OW70498   3.854   5.545   9.019
23491SOL    HW170499   3.844   5.530   9.118
23491SOL    HW270500   3.768   5.581   8.983
23492SOL     OW70501   4.589   4.072   7.643
23492SOL    HW170502   4.648   4.135   7.594
23492SOL    HW270503   4.608   3.978   7.614
23493SOL     OW70504   5.443   4.309   9.279
23493SOL    HW170505   5.417   4.398   9.243
23493SOL    HW270506   5.441   4.241   9.206
23494SOL     OW70507   5.086   4.868   7.993
23494SOL    HW170508   5.169   4.839   7.945
23494SOL    HW270509   5.037   4.935   7.937
23495SOL     OW70510   4.274   3.920   8.333
23495SOL    HW170511   4.269   3.915   8.433
23495SOL    HW270512   4.276   4.016   8.304
23496SOL     OW70513   4.732   5.180   7.925
23496SOL    HW170514   4.686   5.252   7.873
23496SOL    HW270515   4.728   5.200   8.023
23497SOL     OW70516   4.075   5.525   8.301
23497SOL    HW170517   4.125   5.439   8.307
23497SOL    HW270518   4.140   5.602   8.298
23498SOL     OW70519   5.519   4.790   8.321
23498SOL    HW170520   5.457   4.775   8.245
23498SOL    HW270521   5.467   4.801   8.406
23499SOL     OW70522   4.951   5.274   8.954
23499SOL    HW170523   4.957   5.197   9.018
23499SOL    HW270524   4.899   5.248   8.874
23500SOL     OW70525   4.045   4.667   7.690
23500SOL    HW170526   4.127   4.706   7.648
23500SOL    HW270527   4.018   4.585   7.641
23501SOL     OW70528   5.182   4.459   8.176
23501SOL    HW170529   5.177   4.394   8.251
23501SOL    HW270530   5.262   4.518   8.189
23502SOL     OW70531   4.185   4.990   9.175
23502SOL    HW170532   4.135   4.991   9.089
23502SOL    HW270533   4.122   4.972   9.251
23503SOL     OW70534   4.835   5.500   7.685
23503SOL    HW170535   4.775   5.438   7.735
23503SOL    HW270536   4.866   5.456   7.600
23504SOL     OW70537   3.926   4.009   8.946
23504SOL    HW170538   3.846   4.069   8.933
23504SOL    HW270539   3.916   3.960   9.032
23505SOL     OW70540   5.356   5.101   7.529
23505SOL    HW170541   5.324   5.195   7.519
23505SOL    HW270542   5.280   5.038   7.517
23506SOL     OW70543   4.188   5.467   7.771
23506SOL    HW170544   4.221   5.506   7.857
23506SOL    HW270545   4.264   5.460   7.706
23507SOL     OW70546   5.124   3.831   7.874
23507SOL    HW170547   5.100   3.794   7.784
23507SOL    HW270548   5.223   3.847   7.878
23508SOL     OW70549   3.973   5.509   8.689
23508SOL    HW170550   4.030   5.444   8.739
23508SOL    HW270551   3.957   5.476   8.596
23509SOL     OW70552   4.664   5.422   8.352
23509SOL    HW170553   4.744   5.365   8.373
23509SOL    HW270554   4.615   5.382   8.275
23510SOL     OW70555   4.106   4.424   7.928
23510SOL    HW170556   4.151   4.334   7.925
23510SOL    HW270557   4.012   4.413   7.961
23511SOL     OW70558   5.271   3.946   9.177
23511SOL    HW170559   5.266   3.983   9.269
23511SOL    HW270560   5.199   3.877   9.165
23512SOL     OW70561   4.338   3.846   7.565
23512SOL    HW170562   4.436   3.824   7.572
23512SOL    HW270563   4.307   3.829   7.472
23513SOL     OW70564   4.505   3.988   9.197
23513SOL    HW170565   4.572   3.927   9.240
23513SOL    HW270566   4.432   4.007   9.262
23514SOL     OW70567   4.612   5.238   8.643
23514SOL    HW170568   4.589   5.213   8.549
23514SOL    HW270569   4.673   5.169   8.682
23515SOL     OW70570   5.075   4.314   8.881
23515SOL    HW170571   5.103   4.271   8.966
23515SOL    HW270572   5.100   4.410   8.882
23516SOL     OW70573   4.527   5.126   8.372
23516SOL    HW170574   4.617   5.140   8.330
23516SOL    HW270575   4.456   5.128   8.301
23517SOL     OW70576   4.646   4.227   8.347
23517SOL    HW170577   4.621   4.218   8.251
23517SOL    HW270578   4.694   4.145   8.378
23518SOL     OW70579   4.263   3.788   7.960
23518SOL    HW170580   4.182   3.789   8.018
23518SOL    HW270581   4.266   3.871   7.905
23519SOL     OW70582   5.158   4.912   7.489
23519SOL    HW170583   5.190   4.836   7.546
23519SOL    HW270584   5.066   4.939   7.519
23520SOL     OW70585   4.021   3.759   7.619
23520SOL    HW170586   4.070   3.843   7.598
23520SOL    HW270587   4.083   3.694   7.664
23521SOL     OW70588   4.659   3.960   7.928
23521SOL    HW170589   4.611   4.001   7.850
23521SOL    HW270590   4.758   3.958   7.909
23522SOL     OW70591   4.800   4.407   8.912
23522SOL    HW170592   4.720   4.346   8.915
23522SOL    HW270593   4.881   4.354   8.888
23523SOL     OW70594   4.951   5.294   8.241
23523SOL    HW170595   4.972   5.368   8.176
23523SOL    HW270596   5.019   5.294   8.314
23524SOL     OW70597   4.183   4.876   8.189
23524SOL    HW170598   4.112   4.849   8.254
23524SOL    HW270599   4.157   4.848   8.096
23525SOL     OW70600   4.995   5.521   8.039
23525SOL    HW170601   5.039   5.585   7.975
23525SOL    HW270602   4.945   5.573   8.109
23526SOL     OW70603   4.756   4.273   7.464
23526SOL    HW170604   4.715   4.355   7.425
23526SOL    HW270605   4.820   4.299   7.537
23527SOL     OW70606   3.802   4.280   8.834
23527SOL    HW170607   3.894   4.279   8.793
23527SOL    HW270608   3.796   4.354   8.901
23528SOL     OW70609   4.285   3.946   8.595
23528SOL    HW170610   4.323   3.862   8.632
23528SOL    HW270611   4.197   3.965   8.639
23529SOL     OW70612   4.590   4.178   8.090
23529SOL    HW170613   4.558   4.250   8.028
23529SOL    HW270614   4.614   4.097   8.037
23530SOL     OW70615   4.741   3.763   8.201
23530SOL    HW170616   4.669   3.768   8.132
23530SOL    HW270617   4.717   3.694   8.270
23531SOL     OW70618   5.153   4.897   8.315
23531SOL    HW170619   5.098   4.813   8.308
23531SOL    HW270620   5.179   4.926   8.223
23532SOL     OW70621   5.190   4.314   8.440
23532SOL    HW170622   5.160   4.219   8.447
23532SOL    HW270623   5.263   4.330   8.506
23533SOL     OW70624   5.581   4.557   7.825
23533SOL    HW170625   5.623   4.493   7.889
23533SOL    HW270626   5.543   4.506   7.747
23534SOL     OW70627   4.212   5.109   7.622
23534SOL    HW170628   4.125   5.094   7.669
23534SOL    HW270629   4.195   5.135   7.527
23535SOL     OW70630   5.388   5.004   8.105
23535SOL    HW170631   5.487   5.012   8.119
23535SOL    HW270632   5.343   5.088   8.136
23536SOL     OW70633   5.114   4.299   7.526
23536SOL    HW170634   5.060   4.278   7.607
23536SOL    HW270635   5.205   4.258   7.535
23537SOL     OW70636   4.251   3.980   7.776
23537SOL    HW170637   4.278   3.921   7.701
23537SOL    HW270638   4.251   4.075   7.745
23538SOL     OW70639   5.478   4.947   9.036
23538SOL    HW170640   5.569   4.908   9.023
23538SOL    HW270641   5.486   5.043   9.060
23539SOL     OW70642   4.788   5.071   8.788
23539SOL    HW170643   4.708   5.048   8.843
23539SOL    HW270644   4.871   5.045   8.837
23540SOL     OW70645   5.316   5.353   9.073
23540SOL    HW170646   5.343   5.387   8.983
23540SOL    HW270647   5.395   5.315   9.119
23541SOL     OW70648   4.835   4.919   8.548
23541SOL    HW170649   4.795   4.963   8.629
23541SOL    HW270650   4.794   4.956   8.465
23542SOL     OW70651   5.362   4.823   8.527
23542SOL    HW170652   5.367   4.904   8.586
23542SOL    HW270653   5.276   4.825   8.476
23543SOL     OW70654   4.639   3.813   8.850
23543SOL    HW170655   4.664   3.793   8.755
23543SOL    HW270656   4.711   3.869   8.892
23544SOL     OW70657   4.704   4.840   9.167
23544SOL    HW170658   4.605   4.846   9.177
23544SOL    HW270659   4.727   4.760   9.111
23545SOL     OW70660   4.429   4.774   7.816
23545SOL    HW170661   4.415   4.781   7.915
23545SOL    HW270662   4.513   4.723   7.798
23546SOL     OW70663   4.134   4.537   8.699
23546SOL    HW170664   4.220   4.549   8.749
23546SOL    HW270665   4.092   4.450   8.726
23547SOL     OW70666   4.998   4.110   8.710
23547SOL    HW170667   5.019   4.184   8.774
23547SOL    HW270668   4.909   4.127   8.667
23548SOL     OW70669   3.788   5.288   8.779
23548SOL    HW170670   3.742   5.370   8.745
23548SOL    HW270671   3.886   5.307   8.788
23549SOL     OW70672   4.091   4.824   7.949
23549SOL    HW170673   4.084   4.907   7.893
23549SOL    HW270674   4.095   4.744   7.889
23550SOL     OW70675   4.290   4.261   8.313
23550SOL    HW170676   4.302   4.327   8.239
23550SOL    HW270677   4.336   4.295   8.396
23551SOL     OW70678   4.976   5.072   7.836
23551SOL    HW170679   5.026   5.149   7.876
23551SOL    HW270680   4.881   5.074   7.868
23552SOL     OW70681   4.996   5.169   8.590
23552SOL    HW170682   5.043   5.182   8.677
23552SOL    HW270683   4.930   5.095   8.599
23553SOL     OW70684   5.306   4.363   7.920
23553SOL    HW170685   5.275   4.424   7.993
23553SOL    HW270686   5.356   4.415   7.851
23554SOL     OW70687   4.078   5.234   8.777
23554SOL    HW170688   4.057   5.190   8.690
23554SOL    HW270689   4.175   5.260   8.780
23555SOL     OW70690   4.126   4.475   9.046
23555SOL    HW170691   4.194   4.530   8.999
23555SOL    HW270692   4.166   4.387   9.073
23556SOL     OW70693   5.311   4.503   9.118
23556SOL    HW170694   5.219   4.541   9.113
23556SOL    HW270695   5.371   4.550   9.053
23557SOL     OW70696   4.737   3.829   9.218
23557SOL    HW170697   4.743   3.914   9.166
23557SOL    HW270698   4.769   3.753   9.161
23558SOL     OW70699   4.228   3.774   9.188
23558SOL    HW170700   4.186   3.717   9.118
23558SOL    HW270701   4.162   3.843   9.220
23559SOL     OW70702   4.297   4.594   8.477
23559SOL    HW170703   4.341   4.683   8.468
23559SOL    HW270704   4.234   4.594   8.554
23560SOL     OW70705   5.084   4.586   8.493
23560SOL    HW170706   5.009   4.586   8.427
23560SOL    HW270707   5.121   4.494   8.502
23561SOL     OW70708   4.933   4.249   7.723
23561SOL    HW170709   4.946   4.165   7.777
23561SOL    HW270710   4.904   4.323   7.783
23562SOL     OW70711   4.031   3.937   8.679
23562SOL    HW170712   4.008   3.974   8.769
23562SOL    HW270713   4.001   3.842   8.673
23563SOL     OW70714   3.761   5.034   8.730
23563SOL    HW170715   3.814   4.985   8.798
23563SOL    HW270716   3.783   5.132   8.735
23564SOL     OW70717   4.456   4.358   8.512
23564SOL    HW170718   4.515   4.332   8.436
23564SOL    HW270719   4.428   4.454   8.501
23565SOL     OW70720   5.452   4.659   9.302
23565SOL    HW170721   5.406   4.652   9.213
23565SOL    HW270722   5.390   4.703   9.368
23566SOL     OW70723   4.031   3.787   8.066
23566SOL    HW170724   4.020   3.881   8.099
23566SOL    HW270725   4.026   3.724   8.143
23567SOL     OW70726   5.346   4.091   7.822
23567SOL    HW170727   5.348   4.015   7.886
23567SOL    HW270728   5.298   4.168   7.862
23568SOL     OW70729   4.747   4.490   8.414
23568SOL    HW170730   4.762   4.511   8.510
23568SOL    HW270731   4.717   4.395   8.405
23569SOL     OW70732   4.704   5.297   9.148
23569SOL    HW170733   4.684   5.341   9.060
23569SOL    HW270734   4.743   5.206   9.132
23570SOL     OW70735   5.583   5.242   9.053
23570SOL    HW170736   5.597   5.269   8.958
23570SOL    HW270737   5.666   5.264   9.106
23571SOL     OW70738   4.074   4.622   9.252
23571SOL    HW170739   4.150   4.666   9.300
23571SOL    HW270740   4.109   4.575   9.170
23572SOL     OW70741   5.264   3.998   7.573
23572SOL    HW170742   5.203   3.923   7.596
23572SOL    HW270743   5.286   4.050   7.656
23573SOL     OW70744   5.027   4.562   7.490
23573SOL    HW170745   5.061   4.469   7.505
23573SOL    HW270746   5.045   4.589   7.395
23574SOL     OW70747   4.792   5.057   8.297
23574SOL    HW170748   4.799   4.973   8.242
23574SOL    HW270749   4.854   5.126   8.261
23575SOL     OW70750   4.043   4.534   8.397
23575SOL    HW170751   4.136   4.570   8.402
23575SOL    HW270752   4.037   4.449   8.449
23576SOL     OW70753   4.063   4.233   8.454
23576SOL    HW170754   4.011   4.150   8.437
23576SOL    HW270755   4.140   4.238   8.390
23577SOL     OW70756   4.862   4.104   9.126
23577SOL    HW170757   4.817   4.167   9.190
23577SOL    HW270758   4.955   4.135   9.109
23578SOL     OW70759   4.884   3.931   8.925
23578SOL    HW170760   4.884   3.995   9.002
23578SOL    HW270761   4.912   3.979   8.842
23579SOL     OW70762   3.732   5.050   7.648
23579SOL    HW170763   3.639   5.071   7.617
23579SOL    HW270764   3.742   4.951   7.661
23580SOL     OW70765   3.812   5.525   8.375
23580SOL    HW170766   3.770   5.439   8.348
23580SOL    HW270767   3.906   5.528   8.341
23581SOL     OW70768   4.228   5.292   8.358
23581SOL    HW170769   4.294   5.366   8.367
23581SOL    HW270770   4.272   5.213   8.316
23582SOL     OW70771   4.726   4.520   8.686
23582SOL    HW170772   4.767   4.488   8.772
23582SOL    HW270773   4.630   4.493   8.683
23583SOL     OW70774   3.764   4.268   8.562
23583SOL    HW170775   3.849   4.235   8.521
23583SOL    HW270776   3.777   4.283   8.660
23584SOL     OW70777   3.913   4.244   9.170
23584SOL    HW170778   3.972   4.204   9.100
23584SOL    HW270779   3.855   4.315   9.129
23585SOL     OW70780   5.093   4.674   9.108
23585SOL    HW170781   5.132   4.763   9.128
23585SOL    HW270782   5.103   4.654   9.011
23586SOL     OW70783   4.539   4.296   7.773
23586SOL    HW170784   4.546   4.207   7.727
23586SOL    HW270785   4.445   4.330   7.765
23587SOL     OW70786   5.381   4.328   8.654
23587SOL    HW170787   5.343   4.259   8.716
23587SOL    HW270788   5.463   4.292   8.610
23588SOL     OW70789   3.976   5.288   9.192
23588SOL    HW170790   3.946   5.345   9.268
23588SOL    HW270791   3.969   5.191   9.218
23589SOL     OW70792   4.395   4.188   8.717
23589SOL    HW170793   4.361   4.099   8.687
23589SOL    HW270794   4.421   4.242   8.637
23590SOL     OW70795   4.654   5.402   8.913
23590SOL    HW170796   4.630   5.384   8.818
23590SOL    HW270797   4.684   5.496   8.923
23591SOL     OW70798   4.197   4.224   7.639
23591SOL    HW170799   4.258   4.304   7.643
23591SOL    HW270800   4.102   4.255   7.646
23592SOL     OW70801   3.883   4.861   8.914
23592SOL    HW170802   3.905   4.800   8.990
23592SOL    HW270803   3.893   4.812   8.828
23593SOL     OW70804   5.071   4.783   8.682
23593SOL    HW170805   5.095   4.720   8.608
23593SOL    HW270806   4.981   4.823   8.664
23594SOL     OW70807   5.026   4.579   7.757
23594SOL    HW170808   4.940   4.548   7.799
23594SOL    HW270809   5.022   4.565   7.658
23595SOL     OW70810   5.483   5.471   8.602
23595SOL    HW170811   5.544   5.501   8.529
23595SOL    HW270812   5.445   5.382   8.580
23596SOL     OW70813   4.976   5.455   8.576
23596SOL    HW170814   5.060   5.460   8.522
23596SOL    HW270815   4.953   5.359   8.594
23597SOL     OW70816   3.807   4.982   8.470
23597SOL    HW170817   3.802   4.981   8.570
23597SOL    HW270818   3.724   4.941   8.432
23598SOL     OW70819   4.412   5.386   9.164
23598SOL    HW170820   4.356   5.467   9.173
23598SOL    HW270821   4.464   5.390   9.078
23599SOL     OW70822   5.450   3.859   7.971
23599SOL    HW170823   5.523   3.842   7.904
23599SOL    HW270824   5.419   3.772   8.009
23600SOL     OW70825   5.112   5.297   7.925
23600SOL    HW170826   5.179   5.309   7.851
23600SOL    HW270827   5.072   5.386   7.948
23601SOL     OW70828   3.854   5.518   9.299
23601SOL    HW170829   3.813   5.444   9.352
23601SOL    HW270830   3.918   5.569   9.357
23602SOL     OW70831   5.004   4.651   8.120
23602SOL    HW170832   5.064   4.570   8.122
23602SOL    HW270833   5.044   4.720   8.060
23603SOL     OW70834   4.554   4.997   8.870
23603SOL    HW170835   4.549   5.030   8.965
23603SOL    HW270836   4.468   5.016   8.824
23604SOL     OW70837   4.396   5.340   7.602
23604SOL    HW170838   4.405   5.350   7.503
23604SOL    HW270839   4.356   5.251   7.623
23605SOL     OW70840   5.374   5.444   8.842
23605SOL    HW170841   5.427   5.454   8.758
23605SOL    HW270842   5.347   5.534   8.876
23606SOL     OW70843   5.565   3.899   8.411
23606SOL    HW170844   5.604   3.814   8.375
23606SOL    HW270845   5.467   3.901   8.392
23607SOL     OW70846   3.987   4.050   8.168
23607SOL    HW170847   3.908   4.101   8.134
23607SOL    HW270848   3.978   4.035   8.266
23608SOL     OW70849   4.918   5.336   7.479
23608SOL    HW170850   4.924   5.243   7.516
23608SOL    HW270851   4.859   5.336   7.399
23609SOL     OW70852   4.546   4.726   8.820
23609SOL    HW170853   4.586   4.725   8.728
23609SOL    HW270854   4.556   4.818   8.860
23610SOL     OW70855   4.640   4.634   7.739
23610SOL    HW170856   4.703   4.672   7.671
23610SOL    HW270857   4.680   4.551   7.778
23611SOL     OW70858   5.228   5.331   7.492
23611SOL    HW170859   5.136   5.368   7.499
23611SOL    HW270860   5.266   5.351   7.402
23612SOL     OW70861   4.096   5.012   8.938
23612SOL    HW170862   4.083   5.105   8.904
23612SOL    HW270863   4.012   4.960   8.925
23613SOL     OW70864   5.338   5.016   8.737
23613SOL    HW170865   5.398   5.019   8.817
23613SOL    HW270866   5.263   5.080   8.750
23614SOL     OW70867   4.763   4.822   8.144
23614SOL    HW170868   4.693   4.775   8.198
23614SOL    HW270869   4.822   4.754   8.101
23615SOL     OW70870   4.738   3.960   8.419
23615SOL    HW170871   4.730   3.924   8.326
23615SOL    HW270872   4.736   3.884   8.484
23616SOL     OW70873   4.314   5.211   7.939
23616SOL    HW170874   4.356   5.153   7.869
23616SOL    HW270875   4.270   5.290   7.895
23617SOL     OW70876   5.433   4.109   8.829
23617SOL    HW170877   5.506   4.178   8.833
23617SOL    HW270878   5.461   4.034   8.770
23618SOL     OW70879   3.979   5.072   7.738
23618SOL    HW170880   3.883   5.073   7.711
23618SOL    HW270881   3.991   5.125   7.822
23619SOL     OW70882   3.829   4.737   9.174
23619SOL    HW170883   3.752   4.704   9.228
23619SOL    HW270884   3.914   4.707   9.216
23620SOL     OW70885   4.396   3.927   8.937
23620SOL    HW170886   4.486   3.911   8.897
23620SOL    HW270887   4.404   3.932   9.036
23621SOL     OW70888   3.799   4.069   7.481
23621SOL    HW170889   3.707   4.041   7.452
23621SOL    HW270890   3.830   4.146   7.425
23622SOL     OW70891   3.796   3.890   7.766
23622SOL    HW170892   3.779   3.973   7.712
23622SOL    HW270893   3.886   3.853   7.744
23623SOL     OW70894   4.907   5.059   7.567
23623SOL    HW170895   4.808   5.048   7.569
23623SOL    HW270896   4.941   5.074   7.660
23624SOL     OW70897   4.337   4.566   8.879
23624SOL    HW170898   4.393   4.647   8.862
23624SOL    HW270899   4.396   4.486   8.882
23625SOL     OW70900   5.217   5.491   8.407
23625SOL    HW170901   5.250   5.555   8.338
23625SOL    HW270902   5.283   5.485   8.482
23626SOL     OW70903   4.440   4.289   9.156
23626SOL    HW170904   4.459   4.354   9.230
23626SOL    HW270905   4.500   4.209   9.165
23627SOL     OW70906   5.174   4.944   9.081
23627SOL    HW170907   5.165   4.934   9.180
23627SOL    HW270908   5.270   4.937   9.055
23628SOL     OW70909   4.114   5.465   9.008
23628SOL    HW170910   4.023   5.506   9.006
23628SOL    HW270911   4.107   5.371   9.040
23629SOL     OW70912   5.398   4.607   8.702
23629SOL    HW170913   5.371   4.518   8.665
23629SOL    HW270914   5.399   4.675   8.629
23630SOL     OW70915   4.949   4.049   7.897
23630SOL    HW170916   5.014   3.975   7.886
23630SOL    HW270917   4.969   4.099   7.981
23631SOL     OW70918   4.318   4.469   8.100
23631SOL    HW170919   4.368   4.554   8.081
23631SOL    HW270920   4.230   4.471   8.052
23632SOL     OW70921   5.501   4.066   9.090
23632SOL    HW170922   5.484   4.097   8.996
23632SOL    HW270923   5.417   4.029   9.128
23633SOL     OW70924   5.454   4.658   8.965
23633SOL    HW170925   5.492   4.749   8.980
23633SOL    HW270926   5.446   4.641   8.866
23634SOL     OW70927   4.583   5.098   7.464
23634SOL    HW170928   4.537   5.113   7.552
23634SOL    HW270929   4.627   5.183   7.434
23635SOL     OW70930   4.385   5.514   8.401
23635SOL    HW170931   4.339   5.602   8.388
23635SOL    HW270932   4.484   5.526   8.394
23636SOL     OW70933   4.583   4.680   8.309
23636SOL    HW170934   4.637   4.611   8.357
23636SOL    HW270935   4.551   4.749   8.375
23637SOL     OW70936   4.807   4.708   7.535
23637SOL    HW170937   4.784   4.761   7.453
23637SOL    HW270938   4.888   4.652   7.516
23638SOL     OW70939   5.585   5.293   8.299
23638SOL    HW170940   5.514   5.281   8.229
23638SOL    HW270941   5.586   5.214   8.359
23639SOL     OW70942   3.945   5.038   9.292
23639SOL    HW170943   3.880   4.965   9.271
23639SOL    HW270944   3.949   5.052   9.390
23640SOL     OW70945   3.803   4.964   8.101
23640SOL    HW170946   3.802   4.917   8.189
23640SOL    HW270947   3.885   4.936   8.050
23641SOL     OW70948   4.396   5.115   9.072
23641SOL    HW170949   4.318   5.065   9.110
23641SOL    HW270950   4.393   5.210   9.103
23642SOL     OW70951   5.548   3.916   8.675
23642SOL    HW170952   5.544   3.826   8.719
23642SOL    HW270953   5.551   3.905   8.576
23643SOL     OW70954   4.152   4.148   7.968
23643SOL    HW170955   4.182   4.076   7.906
23643SOL    HW270956   4.113   4.108   8.051
23644SOL     OW70957   5.429   5.211   8.552
23644SOL    HW170958   5.336   5.186   8.525
23644SOL    HW270959   5.455   5.161   8.634
23645SOL     OW70960   4.041   4.271   8.728
23645SOL    HW170961   4.079   4.212   8.800
23645SOL    HW270962   4.081   4.245   8.640
23646SOL     OW70963   4.536   5.310   8.135
23646SOL    HW170964   4.568   5.320   8.041
23646SOL    HW270965   4.457   5.248   8.137
23647SOL     OW70966   5.148   3.938   8.560
23647SOL    HW170967   5.200   3.873   8.615
23647SOL    HW270968   5.099   4.001   8.621
23648SOL     OW70969   4.725   3.758   8.602
23648SOL    HW170970   4.662   3.686   8.571
23648SOL    HW270971   4.818   3.722   8.602
23649SOL     OW70972   4.494   5.054   7.749
23649SOL    HW170973   4.448   4.967   7.766
23649SOL    HW270974   4.585   5.051   7.790
23650SOL     OW70975   4.342   5.291   8.732
23650SOL    HW170976   4.337   5.373   8.789
23650SOL    HW270977   4.431   5.288   8.687
23651SOL     OW70978   5.076   3.776   7.616
23651SOL    HW170979   5.111   3.735   7.532
23651SOL    HW270980   4.986   3.738   7.636
23652SOL     OW70981   5.024   4.177   8.139
23652SOL    HW170982   4.965   4.257   8.143
23652SOL    HW270983   5.039   4.142   8.232
23653SOL     OW70984   5.317   3.945   8.330
23653SOL    HW170985   5.233   3.944   8.384
23653SOL    HW270986   5.319   4.028   8.274
23654SOL     OW70987   3.763   4.801   7.748
23654SOL    HW170988   3.862   4.790   7.739
23654SOL    HW270989   3.723   4.715   7.780
23655SOL     OW70990   4.599   5.370   7.785
23655SOL    HW170991   4.522   5.335   7.731
23655SOL    HW270992   4.567   5.441   7.847
23656SOL     OW70993   3.954   4.352   9.423
23656SOL    HW170994   3.861   4.350   9.460
23656SOL    HW270995   3.955   4.313   9.331
23657SOL     OW70996   3.949   3.999  10.306
23657SOL    HW170997   3.984   3.982  10.398
23657SOL    HW270998   3.861   3.954  10.294
23658SOL     OW70999   3.743   4.092   9.957
23658SOL    HW171000   3.661   4.135   9.996
23658SOL    HW271001   3.715   4.019   9.894
23659SOL     OW71002   4.293   4.999  10.475
23659SOL    HW171003   4.200   4.992  10.438
23659SOL    HW271004   4.304   5.088  10.519
23660SOL     OW71005   5.279   5.235  10.013
23660SOL    HW171006   5.222   5.219  10.094
23660SOL    HW271007   5.220   5.245   9.933
23661SOL     OW71008   4.859   4.427  10.027
23661SOL    HW171009   4.916   4.505  10.002
23661SOL    HW271010   4.799   4.453  10.103
23662SOL     OW71011   5.479   4.331   9.541
23662SOL    HW171012   5.467   4.318   9.442
23662SOL    HW271013   5.449   4.250   9.590
23663SOL     OW71014   4.492   4.868  10.333
23663SOL    HW171015   4.414   4.885  10.393
23663SOL    HW271016   4.526   4.955  10.297
23664SOL     OW71017   4.574   4.522  11.133
23664SOL    HW171018   4.570   4.598  11.198
23664SOL    HW271019   4.596   4.558  11.042
23665SOL     OW71020   4.409   4.736   9.975
23665SOL    HW171021   4.478   4.720  10.045
23665SOL    HW271022   4.336   4.793  10.013
23666SOL     OW71023   4.410   4.885  11.113
23666SOL    HW171024   4.470   4.964  11.127
23666SOL    HW271025   4.324   4.916  11.072
23667SOL     OW71026   4.059   5.159  10.371
23667SOL    HW171027   3.981   5.128  10.318
23667SOL    HW271028   4.117   5.217  10.314
23668SOL     OW71029   5.184   5.229  10.649
23668SOL    HW171030   5.208   5.323  10.675
23668SOL    HW271031   5.168   5.175  10.731
23669SOL     OW71032   4.162   4.116  10.809
23669SOL    HW171033   4.244   4.060  10.818
23669SOL    HW271034   4.081   4.058  10.813
23670SOL     OW71035   5.327   4.171  10.047
23670SOL    HW171036   5.253   4.217   9.997
23670SOL    HW271037   5.378   4.239  10.100
23671SOL     OW71038   3.955   5.437   9.793
23671SOL    HW171039   3.989   5.514   9.847
23671SOL    HW271040   3.999   5.437   9.703
23672SOL     OW71041   4.851   5.065  11.000
23672SOL    HW171042   4.898   5.065  11.088
23672SOL    HW271043   4.803   4.978  10.989
23673SOL     OW71044   3.954   5.158   9.848
23673SOL    HW171045   3.928   5.254   9.848
23673SOL    HW271046   3.883   5.104   9.893
23674SOL     OW71047   3.964   4.815  10.196
23674SOL    HW171048   3.978   4.731  10.248
23674SOL    HW271049   3.909   4.879  10.251
23675SOL     OW71050   4.344   5.510  10.749
23675SOL    HW171051   4.252   5.493  10.784
23675SOL    HW271052   4.372   5.602  10.775
23676SOL     OW71053   4.330   4.688   9.433
23676SOL    HW171054   4.337   4.772   9.379
23676SOL    HW271055   4.376   4.701   9.521
23677SOL     OW71056   5.318   3.838  10.790
23677SOL    HW171057   5.300   3.905  10.718
23677SOL    HW271058   5.315   3.884  10.879
23678SOL     OW71059   3.846   4.367   9.873
23678SOL    HW171060   3.801   4.279   9.890
23678SOL    HW271061   3.845   4.421   9.957
23679SOL     OW71062   5.566   5.491   9.669
23679SOL    HW171063   5.620   5.462   9.749
23679SOL    HW271064   5.596   5.581   9.640
23680SOL     OW71065   3.751   5.320   9.427
23680SOL    HW171066   3.732   5.224   9.448
23680SOL    HW271067   3.718   5.378   9.502
23681SOL     OW71068   5.413   4.646   9.922
23681SOL    HW171069   5.508   4.617   9.930
23681SOL    HW271070   5.405   4.711   9.847
23682SOL     OW71071   5.365   4.832   9.742
23682SOL    HW171072   5.451   4.834   9.690
23682SOL    HW271073   5.379   4.879   9.830
23683SOL     OW71074   3.837   4.461  10.907
23683SOL    HW171075   3.925   4.448  10.952
23683SOL    HW271076   3.824   4.558  10.885
23684SOL     OW71077   4.337   5.089  10.036
23684SOL    HW171078   4.288   5.002  10.045
23684SOL    HW271079   4.314   5.132   9.949
23685SOL     OW71080   5.017   4.952  10.733
23685SOL    HW171081   5.054   4.879  10.675
23685SOL    HW271082   5.069   4.957  10.818
23686SOL     OW71083   4.533   3.728   9.812
23686SOL    HW171084   4.573   3.819   9.803
23686SOL    HW271085   4.433   3.736   9.818
23687SOL     OW71086   3.921   4.700  10.574
23687SOL    HW171087   4.010   4.655  10.560
23687SOL    HW271088   3.848   4.635  10.555
23688SOL     OW71089   5.249   4.723   9.500
23688SOL    HW171090   5.186   4.647   9.513
23688SOL    HW271091   5.297   4.741   9.586
23689SOL     OW71092   4.911   5.516  10.926
23689SOL    HW171093   4.935   5.576  10.850
23689SOL    HW271094   4.918   5.421  10.896
23690SOL     OW71095   4.041   3.975  11.111
23690SOL    HW171096   4.112   4.046  11.117
23690SOL    HW271097   3.953   4.014  11.139
23691SOL     OW71098   5.190   5.141  10.263
23691SOL    HW171099   5.131   5.147  10.343
23691SOL    HW271100   5.175   5.053  10.217
23692SOL     OW71101   5.391   5.438   9.882
23692SOL    HW171102   5.350   5.415   9.794
23692SOL    HW271103   5.373   5.364   9.947
23693SOL     OW71104   4.322   4.453   9.580
23693SOL    HW171105   4.346   4.522   9.512
23693SOL    HW271106   4.244   4.486   9.634
23694SOL     OW71107   5.005   4.069  10.254
23694SOL    HW171108   4.919   4.019  10.241
23694SOL    HW271109   5.067   4.015  10.310
23695SOL     OW71110   5.300   5.386   9.617
23695SOL    HW171111   5.389   5.432   9.620
23695SOL    HW271112   5.279   5.362   9.522
23696SOL     OW71113   4.531   4.329  10.775
23696SOL    HW171114   4.484   4.326  10.864
23696SOL    HW271115   4.480   4.274  10.709
23697SOL     OW71116   5.118   4.193  10.984
23697SOL    HW171117   5.098   4.236  11.072
23697SOL    HW271118   5.196   4.131  10.993
23698SOL     OW71119   4.697   4.614  10.882
23698SOL    HW171120   4.743   4.530  10.853
23698SOL    HW271121   4.641   4.648  10.807
23699SOL     OW71122   4.715   4.134  10.552
23699SOL    HW171123   4.638   4.168  10.606
23699SOL    HW271124   4.681   4.083  10.473
23700SOL     OW71125   4.765   4.425   9.739
23700SOL    HW171126   4.791   4.421   9.835
23700SOL    HW271127   4.680   4.374   9.725
23701SOL     OW71128   3.800   4.535  10.099
23701SOL    HW171129   3.899   4.523  10.108
23701SOL    HW271130   3.776   4.630  10.120
23702SOL     OW71131   3.854   5.545  10.881
23702SOL    HW171132   3.844   5.530  10.980
23702SOL    HW271133   3.768   5.581  10.845
23703SOL     OW71134   4.589   4.072   9.505
23703SOL    HW171135   4.648   4.135   9.456
23703SOL    HW271136   4.608   3.978   9.476
23704SOL     OW71137   5.443   4.309  11.141
23704SOL    HW171138   5.417   4.398  11.105
23704SOL    HW271139   5.441   4.241  11.068
23705SOL     OW71140   5.086   4.868   9.855
23705SOL    HW171141   5.169   4.839   9.807
23705SOL    HW271142   5.037   4.935   9.799
23706SOL     OW71143   4.274   3.920  10.195
23706SOL    HW171144   4.269   3.915  10.295
23706SOL    HW271145   4.276   4.016  10.166
23707SOL     OW71146   4.732   5.180   9.787
23707SOL    HW171147   4.686   5.252   9.735
23707SOL    HW271148   4.728   5.200   9.885
23708SOL     OW71149   4.075   5.525  10.163
23708SOL    HW171150   4.125   5.439  10.169
23708SOL    HW271151   4.140   5.602  10.160
23709SOL     OW71152   5.519   4.790  10.183
23709SOL    HW171153   5.457   4.775  10.107
23709SOL    HW271154   5.467   4.801  10.268
23710SOL     OW71155   4.951   5.274  10.816
23710SOL    HW171156   4.957   5.197  10.880
23710SOL    HW271157   4.899   5.248  10.736
23711SOL     OW71158   4.045   4.667   9.552
23711SOL    HW171159   4.127   4.706   9.510
23711SOL    HW271160   4.018   4.585   9.503
23712SOL     OW71161   5.182   4.459  10.038
23712SOL    HW171162   5.177   4.394  10.113
23712SOL    HW271163   5.262   4.518  10.051
23713SOL     OW71164   4.185   4.990  11.037
23713SOL    HW171165   4.135   4.991  10.951
23713SOL    HW271166   4.122   4.972  11.113
23714SOL     OW71167   4.835   5.500   9.547
23714SOL    HW171168   4.775   5.438   9.597
23714SOL    HW271169   4.866   5.456   9.462
23715SOL     OW71170   3.926   4.009  10.808
23715SOL    HW171171   3.846   4.069  10.795
23715SOL    HW271172   3.916   3.960  10.894
23716SOL     OW71173   5.356   5.101   9.391
23716SOL    HW171174   5.324   5.195   9.381
23716SOL    HW271175   5.280   5.038   9.379
23717SOL     OW71176   4.188   5.467   9.633
23717SOL    HW171177   4.221   5.506   9.719
23717SOL    HW271178   4.264   5.460   9.568
23718SOL     OW71179   5.124   3.831   9.736
23718SOL    HW171180   5.100   3.794   9.646
23718SOL    HW271181   5.223   3.847   9.740
23719SOL     OW71182   3.973   5.509  10.551
23719SOL    HW171183   4.030   5.444  10.601
23719SOL    HW271184   3.957   5.476  10.458
23720SOL     OW71185   4.664   5.422  10.214
23720SOL    HW171186   4.744   5.365  10.235
23720SOL    HW271187   4.615   5.382  10.137
23721SOL     OW71188   4.106   4.424   9.790
23721SOL    HW171189   4.151   4.334   9.787
23721SOL    HW271190   4.012   4.413   9.823
23722SOL     OW71191   5.271   3.946  11.039
23722SOL    HW171192   5.266   3.983  11.131
23722SOL    HW271193   5.199   3.877  11.027
23723SOL     OW71194   4.338   3.846   9.427
23723SOL    HW171195   4.436   3.824   9.434
23723SOL    HW271196   4.307   3.829   9.334
23724SOL     OW71197   4.505   3.988  11.059
23724SOL    HW171198   4.572   3.927  11.102
23724SOL    HW271199   4.432   4.007  11.124
23725SOL     OW71200   4.612   5.238  10.505
23725SOL    HW171201   4.589   5.213  10.411
23725SOL    HW271202   4.673   5.169  10.544
23726SOL     OW71203   5.075   4.314  10.743
23726SOL    HW171204   5.103   4.271  10.828
23726SOL    HW271205   5.100   4.410  10.744
23727SOL     OW71206   4.527   5.126  10.234
23727SOL    HW171207   4.617   5.140  10.192
23727SOL    HW271208   4.456   5.128  10.163
23728SOL     OW71209   4.646   4.227  10.209
23728SOL    HW171210   4.621   4.218  10.113
23728SOL    HW271211   4.694   4.145  10.240
23729SOL     OW71212   4.263   3.788   9.822
23729SOL    HW171213   4.182   3.789   9.880
23729SOL    HW271214   4.266   3.871   9.767
23730SOL     OW71215   5.158   4.912   9.351
23730SOL    HW171216   5.190   4.836   9.408
23730SOL    HW271217   5.066   4.939   9.381
23731SOL     OW71218   4.021   3.759   9.481
23731SOL    HW171219   4.070   3.843   9.460
23731SOL    HW271220   4.083   3.694   9.526
23732SOL     OW71221   4.659   3.960   9.790
23732SOL    HW171222   4.611   4.001   9.712
23732SOL    HW271223   4.758   3.958   9.771
23733SOL     OW71224   4.800   4.407  10.774
23733SOL    HW171225   4.720   4.346  10.777
23733SOL    HW271226   4.881   4.354  10.750
23734SOL     OW71227   4.951   5.294  10.103
23734SOL    HW171228   4.972   5.368  10.038
23734SOL    HW271229   5.019   5.294  10.176
23735SOL     OW71230   4.183   4.876  10.051
23735SOL    HW171231   4.112   4.849  10.116
23735SOL    HW271232   4.157   4.848   9.958
23736SOL     OW71233   4.995   5.521   9.901
23736SOL    HW171234   5.039   5.585   9.837
23736SOL    HW271235   4.945   5.573   9.971
23737SOL     OW71236   4.756   4.273   9.326
23737SOL    HW171237   4.715   4.355   9.287
23737SOL    HW271238   4.820   4.299   9.399
23738SOL     OW71239   3.802   4.280  10.696
23738SOL    HW171240   3.894   4.279  10.655
23738SOL    HW271241   3.796   4.354  10.763
23739SOL     OW71242   4.285   3.946  10.457
23739SOL    HW171243   4.323   3.862  10.494
23739SOL    HW271244   4.197   3.965  10.501
23740SOL     OW71245   4.590   4.178   9.952
23740SOL    HW171246   4.558   4.250   9.890
23740SOL    HW271247   4.614   4.097   9.899
23741SOL     OW71248   4.741   3.763  10.063
23741SOL    HW171249   4.669   3.768   9.994
23741SOL    HW271250   4.717   3.694  10.132
23742SOL     OW71251   5.153   4.897  10.177
23742SOL    HW171252   5.098   4.813  10.170
23742SOL    HW271253   5.179   4.926  10.085
23743SOL     OW71254   5.190   4.314  10.302
23743SOL    HW171255   5.160   4.219  10.309
23743SOL    HW271256   5.263   4.330  10.368
23744SOL     OW71257   5.581   4.557   9.687
23744SOL    HW171258   5.623   4.493   9.751
23744SOL    HW271259   5.543   4.506   9.609
23745SOL     OW71260   4.212   5.109   9.484
23745SOL    HW171261   4.125   5.094   9.531
23745SOL    HW271262   4.195   5.135   9.389
23746SOL     OW71263   5.388   5.004   9.967
23746SOL    HW171264   5.487   5.012   9.981
23746SOL    HW271265   5.343   5.088   9.998
23747SOL     OW71266   5.114   4.299   9.388
23747SOL    HW171267   5.060   4.278   9.469
23747SOL    HW271268   5.205   4.258   9.397
23748SOL     OW71269   4.251   3.980   9.638
23748SOL    HW171270   4.278   3.921   9.563
23748SOL    HW271271   4.251   4.075   9.607
23749SOL     OW71272   5.478   4.947  10.898
23749SOL    HW171273   5.569   4.908  10.885
23749SOL    HW271274   5.486   5.043  10.922
23750SOL     OW71275   4.788   5.071  10.650
23750SOL    HW171276   4.708   5.048  10.705
23750SOL    HW271277   4.871   5.045  10.699
23751SOL     OW71278   5.316   5.353  10.935
23751SOL    HW171279   5.343   5.387  10.845
23751SOL    HW271280   5.395   5.315  10.981
23752SOL     OW71281   4.835   4.919  10.410
23752SOL    HW171282   4.795   4.963  10.491
23752SOL    HW271283   4.794   4.956  10.327
23753SOL     OW71284   5.362   4.823  10.389
23753SOL    HW171285   5.367   4.904  10.448
23753SOL    HW271286   5.276   4.825  10.338
23754SOL     OW71287   4.639   3.813  10.712
23754SOL    HW171288   4.664   3.793  10.617
23754SOL    HW271289   4.711   3.869  10.754
23755SOL     OW71290   4.704   4.840  11.029
23755SOL    HW171291   4.605   4.846  11.039
23755SOL    HW271292   4.727   4.760  10.973
23756SOL     OW71293   4.429   4.774   9.678
23756SOL    HW171294   4.415   4.781   9.777
23756SOL    HW271295   4.513   4.723   9.660
23757SOL     OW71296   4.134   4.537  10.561
23757SOL    HW171297   4.220   4.549  10.611
23757SOL    HW271298   4.092   4.450  10.588
23758SOL     OW71299   4.998   4.110  10.572
23758SOL    HW171300   5.019   4.184  10.636
23758SOL    HW271301   4.909   4.127  10.529
23759SOL     OW71302   3.788   5.288  10.641
23759SOL    HW171303   3.742   5.370  10.607
23759SOL    HW271304   3.886   5.307  10.650
23760SOL     OW71305   4.091   4.824   9.811
23760SOL    HW171306   4.084   4.907   9.755
23760SOL    HW271307   4.095   4.744   9.751
23761SOL     OW71308   4.290   4.261  10.175
23761SOL    HW171309   4.302   4.327  10.101
23761SOL    HW271310   4.336   4.295  10.258
23762SOL     OW71311   4.976   5.072   9.698
23762SOL    HW171312   5.026   5.149   9.738
23762SOL    HW271313   4.881   5.074   9.730
23763SOL     OW71314   4.996   5.169  10.452
23763SOL    HW171315   5.043   5.182  10.539
23763SOL    HW271316   4.930   5.095  10.461
23764SOL     OW71317   5.306   4.363   9.782
23764SOL    HW171318   5.275   4.424   9.855
23764SOL    HW271319   5.356   4.415   9.713
23765SOL     OW71320   4.078   5.234  10.639
23765SOL    HW171321   4.057   5.190  10.552
23765SOL    HW271322   4.175   5.260  10.642
23766SOL     OW71323   4.126   4.475  10.908
23766SOL    HW171324   4.194   4.530  10.861
23766SOL    HW271325   4.166   4.387  10.935
23767SOL     OW71326   5.311   4.503  10.980
23767SOL    HW171327   5.219   4.541  10.975
23767SOL    HW271328   5.371   4.550  10.915
23768SOL     OW71329   4.737   3.829  11.080
23768SOL    HW171330   4.743   3.914  11.028
23768SOL    HW271331   4.769   3.753  11.023
23769SOL     OW71332   4.228   3.774  11.050
23769SOL    HW171333   4.186   3.717  10.980
23769SOL    HW271334   4.162   3.843  11.082
23770SOL     OW71335   4.297   4.594  10.339
23770SOL    HW171336   4.341   4.683  10.330
23770SOL    HW271337   4.234   4.594  10.416
23771SOL     OW71338   5.084   4.586  10.355
23771SOL    HW171339   5.009   4.586  10.289
23771SOL    HW271340   5.121   4.494  10.364
23772SOL     OW71341   4.933   4.249   9.585
23772SOL    HW171342   4.946   4.165   9.639
23772SOL    HW271343   4.904   4.323   9.645
23773SOL     OW71344   4.031   3.937  10.541
23773SOL    HW171345   4.008   3.974  10.631
23773SOL    HW271346   4.001   3.842  10.535
23774SOL     OW71347   3.761   5.034  10.592
23774SOL    HW171348   3.814   4.985  10.660
23774SOL    HW271349   3.783   5.132  10.597
23775SOL     OW71350   4.456   4.358  10.374
23775SOL    HW171351   4.515   4.332  10.298
23775SOL    HW271352   4.428   4.454  10.363
23776SOL     OW71353   5.452   4.659  11.164
23776SOL    HW171354   5.406   4.652  11.075
23776SOL    HW271355   5.390   4.703  11.230
23777SOL     OW71356   4.031   3.787   9.928
23777SOL    HW171357   4.020   3.881   9.961
23777SOL    HW271358   4.026   3.724  10.005
23778SOL     OW71359   5.346   4.091   9.684
23778SOL    HW171360   5.348   4.015   9.748
23778SOL    HW271361   5.298   4.168   9.724
23779SOL     OW71362   4.747   4.490  10.276
23779SOL    HW171363   4.762   4.511  10.372
23779SOL    HW271364   4.717   4.395  10.267
23780SOL     OW71365   4.704   5.297  11.010
23780SOL    HW171366   4.684   5.341  10.922
23780SOL    HW271367   4.743   5.206  10.994
23781SOL     OW71368   5.583   5.242  10.915
23781SOL    HW171369   5.597   5.269  10.820
23781SOL    HW271370   5.666   5.264  10.968
23782SOL     OW71371   4.074   4.622  11.114
23782SOL    HW171372   4.150   4.666  11.162
23782SOL    HW271373   4.109   4.575  11.032
23783SOL     OW71374   5.264   3.998   9.435
23783SOL    HW171375   5.203   3.923   9.458
23783SOL    HW271376   5.286   4.050   9.518
23784SOL     OW71377   5.027   4.562   9.352
23784SOL    HW171378   5.061   4.469   9.367
23784SOL    HW271379   5.045   4.589   9.257
23785SOL     OW71380   4.792   5.057  10.159
23785SOL    HW171381   4.799   4.973  10.104
23785SOL    HW271382   4.854   5.126  10.123
23786SOL     OW71383   4.043   4.534  10.259
23786SOL    HW171384   4.136   4.570  10.264
23786SOL    HW271385   4.037   4.449  10.311
23787SOL     OW71386   4.063   4.233  10.316
23787SOL    HW171387   4.011   4.150  10.299
23787SOL    HW271388   4.140   4.238  10.252
23788SOL     OW71389   4.862   4.104  10.988
23788SOL    HW171390   4.817   4.167  11.052
23788SOL    HW271391   4.955   4.135  10.971
23789SOL     OW71392   4.884   3.931  10.787
23789SOL    HW171393   4.884   3.995  10.864
23789SOL    HW271394   4.912   3.979  10.704
23790SOL     OW71395   3.732   5.050   9.510
23790SOL    HW171396   3.639   5.071   9.479
23790SOL    HW271397   3.742   4.951   9.523
23791SOL     OW71398   3.812   5.525  10.237
23791SOL    HW171399   3.770   5.439  10.210
23791SOL    HW271400   3.906   5.528  10.203
23792SOL     OW71401   4.228   5.292  10.220
23792SOL    HW171402   4.294   5.366  10.229
23792SOL    HW271403   4.272   5.213  10.178
23793SOL     OW71404   4.726   4.520  10.548
23793SOL    HW171405   4.767   4.488  10.634
23793SOL    HW271406   4.630   4.493  10.545
23794SOL     OW71407   3.764   4.268  10.424
23794SOL    HW171408   3.849   4.235  10.383
23794SOL    HW271409   3.777   4.283  10.522
23795SOL     OW71410   3.913   4.244  11.032
23795SOL    HW171411   3.972   4.204  10.962
23795SOL    HW271412   3.855   4.315  10.991
23796SOL     OW71413   5.093   4.674  10.970
23796SOL    HW171414   5.132   4.763  10.990
23796SOL    HW271415   5.103   4.654  10.873
23797SOL     OW71416   4.539   4.296   9.635
23797SOL    HW171417   4.546   4.207   9.589
23797SOL    HW271418   4.445   4.330   9.627
23798SOL     OW71419   5.381   4.328  10.516
23798SOL    HW171420   5.343   4.259  10.578
23798SOL    HW271421   5.463   4.292  10.472
23799SOL     OW71422   3.976   5.288  11.054
23799SOL    HW171423   3.946   5.345  11.130
23799SOL    HW271424   3.969   5.191  11.080
23800SOL     OW71425   4.395   4.188  10.579
23800SOL    HW171426   4.361   4.099  10.549
23800SOL    HW271427   4.421   4.242  10.499
23801SOL     OW71428   4.654   5.402  10.775
23801SOL    HW171429   4.630   5.384  10.680
23801SOL    HW271430   4.684   5.496  10.785
23802SOL     OW71431   4.197   4.224   9.501
23802SOL    HW171432   4.258   4.304   9.505
23802SOL    HW271433   4.102   4.255   9.508
23803SOL     OW71434   3.883   4.861  10.776
23803SOL    HW171435   3.905   4.800  10.852
23803SOL    HW271436   3.893   4.812  10.690
23804SOL     OW71437   5.071   4.783  10.544
23804SOL    HW171438   5.095   4.720  10.470
23804SOL    HW271439   4.981   4.823  10.526
23805SOL     OW71440   5.026   4.579   9.619
23805SOL    HW171441   4.940   4.548   9.661
23805SOL    HW271442   5.022   4.565   9.520
23806SOL     OW71443   5.483   5.471  10.464
23806SOL    HW171444   5.544   5.501  10.391
23806SOL    HW271445   5.445   5.382  10.442
23807SOL     OW71446   4.976   5.455  10.438
23807SOL    HW171447   5.060   5.460  10.384
23807SOL    HW271448   4.953   5.359  10.456
23808SOL     OW71449   3.807   4.982  10.332
23808SOL    HW171450   3.802   4.981  10.432
23808SOL    HW271451   3.724   4.941  10.294
23809SOL     OW71452   4.412   5.386  11.026
23809SOL    HW171453   4.356   5.467  11.035
23809SOL    HW271454   4.464   5.390  10.940
23810SOL     OW71455   5.450   3.859   9.833
23810SOL    HW171456   5.523   3.842   9.766
23810SOL    HW271457   5.419   3.772   9.871
23811SOL     OW71458   5.112   5.297   9.787
23811SOL    HW171459   5.179   5.309   9.713
23811SOL    HW271460   5.072   5.386   9.810
23812SOL     OW71461   3.854   5.518  11.161
23812SOL    HW171462   3.813   5.444  11.214
23812SOL    HW271463   3.918   5.569  11.219
23813SOL     OW71464   5.004   4.651   9.982
23813SOL    HW171465   5.064   4.570   9.984
23813SOL    HW271466   5.044   4.720   9.922
23814SOL     OW71467   4.554   4.997  10.732
23814SOL    HW171468   4.549   5.030  10.827
23814SOL    HW271469   4.468   5.016  10.686
23815SOL     OW71470   4.396   5.340   9.464
23815SOL    HW171471   4.405   5.350   9.365
23815SOL    HW271472   4.356   5.251   9.485
23816SOL     OW71473   5.374   5.444  10.704
23816SOL    HW171474   5.427   5.454  10.620
23816SOL    HW271475   5.347   5.534  10.738
23817SOL     OW71476   5.565   3.899  10.273
23817SOL    HW171477   5.604   3.814  10.237
23817SOL    HW271478   5.467   3.901  10.254
23818SOL     OW71479   3.987   4.050  10.030
23818SOL    HW171480   3.908   4.101   9.996
23818SOL    HW271481   3.978   4.035  10.128
23819SOL     OW71482   4.918   5.336   9.341
23819SOL    HW171483   4.924   5.243   9.378
23819SOL    HW271484   4.859   5.336   9.261
23820SOL     OW71485   4.546   4.726  10.682
23820SOL    HW171486   4.586   4.725  10.590
23820SOL    HW271487   4.556   4.818  10.722
23821SOL     OW71488   4.640   4.634   9.601
23821SOL    HW171489   4.703   4.672   9.533
23821SOL    HW271490   4.680   4.551   9.640
23822SOL     OW71491   5.228   5.331   9.354
23822SOL    HW171492   5.136   5.368   9.361
23822SOL    HW271493   5.266   5.351   9.264
23823SOL     OW71494   4.096   5.012  10.800
23823SOL    HW171495   4.083   5.105  10.766
23823SOL    HW271496   4.012   4.960  10.787
23824SOL     OW71497   5.338   5.016  10.599
23824SOL    HW171498   5.398   5.019  10.679
23824SOL    HW271499   5.263   5.080  10.612
23825SOL     OW71500   4.763   4.822  10.006
23825SOL    HW171501   4.693   4.775  10.060
23825SOL    HW271502   4.822   4.754   9.963
23826SOL     OW71503   4.738   3.960  10.281
23826SOL    HW171504   4.730   3.924  10.188
23826SOL    HW271505   4.736   3.884  10.346
23827SOL     OW71506   4.314   5.211   9.801
23827SOL    HW171507   4.356   5.153   9.731
23827SOL    HW271508   4.270   5.290   9.757
23828SOL     OW71509   5.433   4.109  10.691
23828SOL    HW171510   5.506   4.178  10.695
23828SOL    HW271511   5.461   4.034  10.632
23829SOL     OW71512   3.979   5.072   9.600
23829SOL    HW171513   3.883   5.073   9.573
23829SOL    HW271514   3.991   5.125   9.684
23830SOL     OW71515   3.829   4.737  11.036
23830SOL    HW171516   3.752   4.704  11.090
23830SOL    HW271517   3.914   4.707  11.078
23831SOL     OW71518   4.396   3.927  10.799
23831SOL    HW171519   4.486   3.911  10.759
23831SOL    HW271520   4.404   3.932  10.898
23832SOL     OW71521   3.799   4.069   9.343
23832SOL    HW171522   3.707   4.041   9.314
23832SOL    HW271523   3.830   4.146   9.287
23833SOL     OW71524   5.164   4.580  10.708
23833SOL    HW171525   5.107   4.632  10.645
23833SOL    HW271526   5.260   4.592  10.684
23834SOL     OW71527   3.796   3.890   9.628
23834SOL    HW171528   3.779   3.973   9.574
23834SOL    HW271529   3.886   3.853   9.606
23835SOL     OW71530   4.907   5.059   9.429
23835SOL    HW171531   4.808   5.048   9.431
23835SOL    HW271532   4.941   5.074   9.522
23836SOL     OW71533   4.337   4.566  10.741
23836SOL    HW171534   4.393   4.647  10.724
23836SOL    HW271535   4.396   4.486  10.744
23837SOL     OW71536   5.217   5.491  10.269
23837SOL    HW171537   5.250   5.555  10.200
23837SOL    HW271538   5.283   5.485  10.344
23838SOL     OW71539   4.440   4.289  11.018
23838SOL    HW171540   4.459   4.354  11.092
23838SOL    HW271541   4.500   4.209  11.027
23839SOL     OW71542   5.174   4.944  10.943
23839SOL    HW171543   5.165   4.934  11.042
23839SOL    HW271544   5.270   4.937  10.917
23840SOL     OW71545   4.114   5.465  10.870
23840SOL    HW171546   4.023   5.506  10.868
23840SOL    HW271547   4.107   5.371  10.902
23841SOL     OW71548   5.398   4.607  10.564
23841SOL    HW171549   5.371   4.518  10.527
23841SOL    HW271550   5.399   4.675  10.491
23842SOL     OW71551   4.949   4.049   9.759
23842SOL    HW171552   5.014   3.975   9.748
23842SOL    HW271553   4.969   4.099   9.843
23843SOL     OW71554   4.318   4.469   9.962
23843SOL    HW171555   4.368   4.554   9.943
23843SOL    HW271556   4.230   4.471   9.914
23844SOL     OW71557   5.501   4.066  10.952
23844SOL    HW171558   5.484   4.097  10.858
23844SOL    HW271559   5.417   4.029  10.990
23845SOL     OW71560   5.454   4.658  10.827
23845SOL    HW171561   5.492   4.749  10.842
23845SOL    HW271562   5.446   4.641  10.728
23846SOL     OW71563   4.583   5.098   9.326
23846SOL    HW171564   4.537   5.113   9.414
23846SOL    HW271565   4.627   5.183   9.296
23847SOL     OW71566   4.385   5.514  10.263
23847SOL    HW171567   4.339   5.602  10.250
23847SOL    HW271568   4.484   5.526  10.256
23848SOL     OW71569   4.583   4.680  10.171
23848SOL    HW171570   4.637   4.611  10.219
23848SOL    HW271571   4.551   4.749  10.237
23849SOL     OW71572   4.807   4.708   9.397
23849SOL    HW171573   4.784   4.761   9.315
23849SOL    HW271574   4.888   4.652   9.378
23850SOL     OW71575   5.585   5.293  10.161
23850SOL    HW171576   5.514   5.281  10.091
23850SOL    HW271577   5.586   5.214  10.221
23851SOL     OW71578   3.945   5.038  11.154
23851SOL    HW171579   3.880   4.965  11.133
23851SOL    HW271580   3.949   5.052  11.252
23852SOL     OW71581   3.803   4.964   9.963
23852SOL    HW171582   3.802   4.917  10.051
23852SOL    HW271583   3.885   4.936   9.912
23853SOL     OW71584   4.396   5.115  10.934
23853SOL    HW171585   4.318   5.065  10.972
23853SOL    HW271586   4.393   5.210  10.965
23854SOL     OW71587   5.548   3.916  10.537
23854SOL    HW171588   5.544   3.826  10.581
23854SOL    HW271589   5.551   3.905  10.438
23855SOL     OW71590   4.152   4.148   9.830
23855SOL    HW171591   4.182   4.076   9.768
23855SOL    HW271592   4.113   4.108   9.913
23856SOL     OW71593   5.429   5.211  10.414
23856SOL    HW171594   5.336   5.186  10.387
23856SOL    HW271595   5.455   5.161  10.496
23857SOL     OW71596   4.041   4.271  10.590
23857SOL    HW171597   4.079   4.212  10.662
23857SOL    HW271598   4.081   4.245  10.502
23858SOL     OW71599   4.536   5.310   9.997
23858SOL    HW171600   4.568   5.320   9.903
23858SOL    HW271601   4.457   5.248   9.999
23859SOL     OW71602   5.148   3.938  10.422
23859SOL    HW171603   5.200   3.873  10.477
23859SOL    HW271604   5.099   4.001  10.483
23860SOL     OW71605   4.725   3.758  10.464
23860SOL    HW171606   4.662   3.686  10.433
23860SOL    HW271607   4.818   3.722  10.464
23861SOL     OW71608   4.494   5.054   9.611
23861SOL    HW171609   4.448   4.967   9.628
23861SOL    HW271610   4.585   5.051   9.652
23862SOL     OW71611   4.342   5.291  10.594
23862SOL    HW171612   4.337   5.373  10.651
23862SOL    HW271613   4.431   5.288  10.549
23863SOL     OW71614   5.076   3.776   9.478
23863SOL    HW171615   5.111   3.735   9.394
23863SOL    HW271616   4.986   3.738   9.498
23864SOL     OW71617   5.024   4.177  10.001
23864SOL    HW171618   4.965   4.257  10.005
23864SOL    HW271619   5.039   4.142  10.094
23865SOL     OW71620   5.317   3.945  10.192
23865SOL    HW171621   5.233   3.944  10.246
23865SOL    HW271622   5.319   4.028  10.136
23866SOL     OW71623   3.763   4.801   9.610
23866SOL    HW171624   3.862   4.790   9.601
23866SOL    HW271625   3.723   4.715   9.642
23867SOL     OW71626   4.599   5.370   9.647
23867SOL    HW171627   4.522   5.335   9.593
23867SOL    HW271628   4.567   5.441   9.709
23868SOL     OW71629   3.954   4.352  11.285
23868SOL    HW171630   3.861   4.350  11.322
23868SOL    HW271631   3.955   4.313  11.193
23869SOL     OW71632   3.949   3.999  12.168
23869SOL    HW171633   3.984   3.982  12.260
23869SOL    HW271634   3.861   3.954  12.156
23870SOL     OW71635   3.743   4.092  11.819
23870SOL    HW171636   3.661   4.135  11.858
23870SOL    HW271637   3.715   4.019  11.756
23871SOL     OW71638   4.293   4.999  12.337
23871SOL    HW171639   4.200   4.992  12.300
23871SOL    HW271640   4.304   5.088  12.381
23872SOL     OW71641   5.279   5.235  11.875
23872SOL    HW171642   5.222   5.219  11.956
23872SOL    HW271643   5.220   5.245  11.795
23873SOL     OW71644   4.859   4.427  11.889
23873SOL    HW171645   4.916   4.505  11.864
23873SOL    HW271646   4.799   4.453  11.965
23874SOL     OW71647   5.479   4.331  11.403
23874SOL    HW171648   5.467   4.318  11.304
23874SOL    HW271649   5.449   4.250  11.452
23875SOL     OW71650   4.492   4.868  12.195
23875SOL    HW171651   4.414   4.885  12.255
23875SOL    HW271652   4.526   4.955  12.159
23876SOL     OW71653   4.409   4.736  11.837
23876SOL    HW171654   4.478   4.720  11.907
23876SOL    HW271655   4.336   4.793  11.875
23877SOL     OW71656   4.059   5.159  12.233
23877SOL    HW171657   3.981   5.128  12.180
23877SOL    HW271658   4.117   5.217  12.176
23878SOL     OW71659   5.184   5.229  12.511
23878SOL    HW171660   5.208   5.323  12.537
23878SOL    HW271661   5.168   5.175  12.593
23879SOL     OW71662   4.162   4.116  12.671
23879SOL    HW171663   4.244   4.060  12.680
23879SOL    HW271664   4.081   4.058  12.675
23880SOL     OW71665   5.327   4.171  11.909
23880SOL    HW171666   5.253   4.217  11.859
23880SOL    HW271667   5.378   4.239  11.962
23881SOL     OW71668   3.955   5.437  11.655
23881SOL    HW171669   3.989   5.514  11.709
23881SOL    HW271670   3.999   5.437  11.565
23882SOL     OW71671   3.954   5.158  11.710
23882SOL    HW171672   3.928   5.254  11.710
23882SOL    HW271673   3.883   5.104  11.755
23883SOL     OW71674   3.964   4.815  12.058
23883SOL    HW171675   3.978   4.731  12.110
23883SOL    HW271676   3.909   4.879  12.113
23884SOL     OW71677   4.344   5.510  12.611
23884SOL    HW171678   4.252   5.493  12.646
23884SOL    HW271679   4.372   5.602  12.637
23885SOL     OW71680   4.330   4.688  11.295
23885SOL    HW171681   4.337   4.772  11.241
23885SOL    HW271682   4.376   4.701  11.383
23886SOL     OW71683   5.318   3.838  12.652
23886SOL    HW171684   5.300   3.905  12.580
23886SOL    HW271685   5.315   3.884  12.741
23887SOL     OW71686   3.846   4.367  11.735
23887SOL    HW171687   3.801   4.279  11.752
23887SOL    HW271688   3.845   4.421  11.819
23888SOL     OW71689   5.566   5.491  11.531
23888SOL    HW171690   5.620   5.462  11.611
23888SOL    HW271691   5.596   5.581  11.502
23889SOL     OW71692   3.751   5.320  11.289
23889SOL    HW171693   3.732   5.224  11.310
23889SOL    HW271694   3.718   5.378  11.364
23890SOL     OW71695   5.413   4.646  11.784
23890SOL    HW171696   5.508   4.617  11.792
23890SOL    HW271697   5.405   4.711  11.709
23891SOL     OW71698   5.365   4.832  11.604
23891SOL    HW171699   5.451   4.834  11.552
23891SOL    HW271700   5.379   4.879  11.692
23892SOL     OW71701   4.337   5.089  11.898
23892SOL    HW171702   4.288   5.002  11.907
23892SOL    HW271703   4.314   5.132  11.811
23893SOL     OW71704   4.533   3.728  11.674
23893SOL    HW171705   4.573   3.819  11.665
23893SOL    HW271706   4.433   3.736  11.680
23894SOL     OW71707   3.921   4.700  12.436
23894SOL    HW171708   4.010   4.655  12.422
23894SOL    HW271709   3.848   4.635  12.417
23895SOL     OW71710   5.249   4.723  11.362
23895SOL    HW171711   5.186   4.647  11.375
23895SOL    HW271712   5.297   4.741  11.448
23896SOL     OW71713   4.041   3.975  12.973
23896SOL    HW171714   4.112   4.046  12.979
23896SOL    HW271715   3.953   4.014  13.001
23897SOL     OW71716   5.190   5.141  12.125
23897SOL    HW171717   5.131   5.147  12.205
23897SOL    HW271718   5.175   5.053  12.079
23898SOL     OW71719   5.391   5.438  11.744
23898SOL    HW171720   5.350   5.415  11.656
23898SOL    HW271721   5.373   5.364  11.809
23899SOL     OW71722   4.322   4.453  11.442
23899SOL    HW171723   4.346   4.522  11.374
23899SOL    HW271724   4.244   4.486  11.496
23900SOL     OW71725   5.005   4.069  12.116
23900SOL    HW171726   4.919   4.019  12.103
23900SOL    HW271727   5.067   4.015  12.172
23901SOL     OW71728   5.300   5.386  11.479
23901SOL    HW171729   5.389   5.432  11.482
23901SOL    HW271730   5.279   5.362  11.384
23902SOL     OW71731   4.531   4.329  12.637
23902SOL    HW171732   4.484   4.326  12.726
23902SOL    HW271733   4.480   4.274  12.571
23903SOL     OW71734   4.715   4.134  12.414
23903SOL    HW171735   4.638   4.168  12.468
23903SOL    HW271736   4.681   4.083  12.335
23904SOL     OW71737   4.765   4.425  11.601
23904SOL    HW171738   4.791   4.421  11.697
23904SOL    HW271739   4.680   4.374  11.587
23905SOL     OW71740   3.800   4.535  11.961
23905SOL    HW171741   3.899   4.523  11.970
23905SOL    HW271742   3.776   4.630  11.982
23906SOL     OW71743   3.854   5.545  12.743
23906SOL    HW171744   3.844   5.530  12.842
23906SOL    HW271745   3.768   5.581  12.707
23907SOL     OW71746   4.589   4.072  11.367
23907SOL    HW171747   4.648   4.135  11.318
23907SOL    HW271748   4.608   3.978  11.338
23908SOL     OW71749   5.086   4.868  11.717
23908SOL    HW171750   5.169   4.839  11.669
23908SOL    HW271751   5.037   4.935  11.661
23909SOL     OW71752   4.274   3.920  12.057
23909SOL    HW171753   4.269   3.915  12.157
23909SOL    HW271754   4.276   4.016  12.028
23910SOL     OW71755   4.732   5.180  11.649
23910SOL    HW171756   4.686   5.252  11.597
23910SOL    HW271757   4.728   5.200  11.747
23911SOL     OW71758   4.075   5.525  12.025
23911SOL    HW171759   4.125   5.439  12.031
23911SOL    HW271760   4.140   5.602  12.022
23912SOL     OW71761   5.519   4.790  12.045
23912SOL    HW171762   5.457   4.775  11.969
23912SOL    HW271763   5.467   4.801  12.130
23913SOL     OW71764   4.045   4.667  11.414
23913SOL    HW171765   4.127   4.706  11.372
23913SOL    HW271766   4.018   4.585  11.365
23914SOL     OW71767   5.182   4.459  11.900
23914SOL    HW171768   5.177   4.394  11.975
23914SOL    HW271769   5.262   4.518  11.913
23915SOL     OW71770   4.835   5.500  11.409
23915SOL    HW171771   4.775   5.438  11.459
23915SOL    HW271772   4.866   5.456  11.324
23916SOL     OW71773   3.926   4.009  12.670
23916SOL    HW171774   3.846   4.069  12.657
23916SOL    HW271775   3.916   3.960  12.756
23917SOL     OW71776   5.356   5.101  11.253
23917SOL    HW171777   5.324   5.195  11.243
23917SOL    HW271778   5.280   5.038  11.241
23918SOL     OW71779   4.188   5.467  11.495
23918SOL    HW171780   4.221   5.506  11.581
23918SOL    HW271781   4.264   5.460  11.430
23919SOL     OW71782   5.124   3.831  11.598
23919SOL    HW171783   5.100   3.794  11.508
23919SOL    HW271784   5.223   3.847  11.602
23920SOL     OW71785   3.973   5.509  12.413
23920SOL    HW171786   4.030   5.444  12.463
23920SOL    HW271787   3.957   5.476  12.320
23921SOL     OW71788   4.664   5.422  12.076
23921SOL    HW171789   4.744   5.365  12.097
23921SOL    HW271790   4.615   5.382  11.999
23922SOL     OW71791   4.106   4.424  11.652
23922SOL    HW171792   4.151   4.334  11.649
23922SOL    HW271793   4.012   4.413  11.685
23923SOL     OW71794   4.612   5.238  12.367
23923SOL    HW171795   4.589   5.213  12.273
23923SOL    HW271796   4.673   5.169  12.406
23924SOL     OW71797   4.527   5.126  12.096
23924SOL    HW171798   4.617   5.140  12.054
23924SOL    HW271799   4.456   5.128  12.025
23925SOL     OW71800   4.646   4.227  12.071
23925SOL    HW171801   4.621   4.218  11.975
23925SOL    HW271802   4.694   4.145  12.102
23926SOL     OW71803   4.263   3.788  11.684
23926SOL    HW171804   4.182   3.789  11.742
23926SOL    HW271805   4.266   3.871  11.629
23927SOL     OW71806   5.158   4.912  11.213
23927SOL    HW171807   5.190   4.836  11.270
23927SOL    HW271808   5.066   4.939  11.243
23928SOL     OW71809   4.021   3.759  11.343
23928SOL    HW171810   4.070   3.843  11.322
23928SOL    HW271811   4.083   3.694  11.388
23929SOL     OW71812   4.659   3.960  11.652
23929SOL    HW171813   4.611   4.001  11.574
23929SOL    HW271814   4.758   3.958  11.633
23930SOL     OW71815   4.951   5.294  11.965
23930SOL    HW171816   4.972   5.368  11.900
23930SOL    HW271817   5.019   5.294  12.038
23931SOL     OW71818   4.183   4.876  11.913
23931SOL    HW171819   4.112   4.849  11.978
23931SOL    HW271820   4.157   4.848  11.820
23932SOL     OW71821   4.995   5.521  11.763
23932SOL    HW171822   5.039   5.585  11.699
23932SOL    HW271823   4.945   5.573  11.833
23933SOL     OW71824   4.756   4.273  11.188
23933SOL    HW171825   4.715   4.355  11.149
23933SOL    HW271826   4.820   4.299  11.261
23934SOL     OW71827   3.802   4.280  12.558
23934SOL    HW171828   3.894   4.279  12.517
23934SOL    HW271829   3.796   4.354  12.625
23935SOL     OW71830   4.285   3.946  12.319
23935SOL    HW171831   4.323   3.862  12.356
23935SOL    HW271832   4.197   3.965  12.363
23936SOL     OW71833   4.590   4.178  11.814
23936SOL    HW171834   4.558   4.250  11.752
23936SOL    HW271835   4.614   4.097  11.761
23937SOL     OW71836   4.741   3.763  11.925
23937SOL    HW171837   4.669   3.768  11.856
23937SOL    HW271838   4.717   3.694  11.994
23938SOL     OW71839   5.153   4.897  12.039
23938SOL    HW171840   5.098   4.813  12.032
23938SOL    HW271841   5.179   4.926  11.947
23939SOL     OW71842   5.190   4.314  12.164
23939SOL    HW171843   5.160   4.219  12.171
23939SOL    HW271844   5.263   4.330  12.230
23940SOL     OW71845   5.581   4.557  11.549
23940SOL    HW171846   5.623   4.493  11.613
23940SOL    HW271847   5.543   4.506  11.471
23941SOL     OW71848   4.212   5.109  11.346
23941SOL    HW171849   4.125   5.094  11.393
23941SOL    HW271850   4.195   5.135  11.251
23942SOL     OW71851   5.388   5.004  11.829
23942SOL    HW171852   5.487   5.012  11.843
23942SOL    HW271853   5.343   5.088  11.860
23943SOL     OW71854   5.114   4.299  11.250
23943SOL    HW171855   5.060   4.278  11.331
23943SOL    HW271856   5.205   4.258  11.259
23944SOL     OW71857   4.251   3.980  11.500
23944SOL    HW171858   4.278   3.921  11.425
23944SOL    HW271859   4.251   4.075  11.469
23945SOL     OW71860   4.788   5.071  12.512
23945SOL    HW171861   4.708   5.048  12.567
23945SOL    HW271862   4.871   5.045  12.561
23946SOL     OW71863   4.835   4.919  12.272
23946SOL    HW171864   4.795   4.963  12.353
23946SOL    HW271865   4.794   4.956  12.189
23947SOL     OW71866   5.362   4.823  12.251
23947SOL    HW171867   5.367   4.904  12.310
23947SOL    HW271868   5.276   4.825  12.200
23948SOL     OW71869   4.639   3.813  12.574
23948SOL    HW171870   4.664   3.793  12.479
23948SOL    HW271871   4.711   3.869  12.616
23949SOL     OW71872   4.429   4.774  11.540
23949SOL    HW171873   4.415   4.781  11.639
23949SOL    HW271874   4.513   4.723  11.522
23950SOL     OW71875   4.134   4.537  12.423
23950SOL    HW171876   4.220   4.549  12.473
23950SOL    HW271877   4.092   4.450  12.450
23951SOL     OW71878   4.998   4.110  12.434
23951SOL    HW171879   5.019   4.184  12.498
23951SOL    HW271880   4.909   4.127  12.391
23952SOL     OW71881   3.788   5.288  12.503
23952SOL    HW171882   3.742   5.370  12.469
23952SOL    HW271883   3.886   5.307  12.512
23953SOL     OW71884   4.091   4.824  11.673
23953SOL    HW171885   4.084   4.907  11.617
23953SOL    HW271886   4.095   4.744  11.613
23954SOL     OW71887   4.290   4.261  12.037
23954SOL    HW171888   4.302   4.327  11.963
23954SOL    HW271889   4.336   4.295  12.120
23955SOL     OW71890   4.976   5.072  11.560
23955SOL    HW171891   5.026   5.149  11.600
23955SOL    HW271892   4.881   5.074  11.592
23956SOL     OW71893   4.996   5.169  12.314
23956SOL    HW171894   5.043   5.182  12.401
23956SOL    HW271895   4.930   5.095  12.323
23957SOL     OW71896   5.306   4.363  11.644
23957SOL    HW171897   5.275   4.424  11.717
23957SOL    HW271898   5.356   4.415  11.575
23958SOL     OW71899   4.078   5.234  12.501
23958SOL    HW171900   4.057   5.190  12.414
23958SOL    HW271901   4.175   5.260  12.504
23959SOL     OW71902   4.126   4.475  12.770
23959SOL    HW171903   4.194   4.530  12.723
23959SOL    HW271904   4.166   4.387  12.797
23960SOL     OW71905   5.311   4.503  12.842
23960SOL    HW171906   5.219   4.541  12.837
23960SOL    HW271907   5.371   4.550  12.777
23961SOL     OW71908   4.297   4.594  12.201
23961SOL    HW171909   4.341   4.683  12.192
23961SOL    HW271910   4.234   4.594  12.278
23962SOL     OW71911   5.084   4.586  12.217
23962SOL    HW171912   5.009   4.586  12.151
23962SOL    HW271913   5.121   4.494  12.226
23963SOL     OW71914   4.933   4.249  11.447
23963SOL    HW171915   4.946   4.165  11.501
23963SOL    HW271916   4.904   4.323  11.507
23964SOL     OW71917   4.031   3.937  12.403
23964SOL    HW171918   4.008   3.974  12.493
23964SOL    HW271919   4.001   3.842  12.397
23965SOL     OW71920   3.761   5.034  12.454
23965SOL    HW171921   3.814   4.985  12.522
23965SOL    HW271922   3.783   5.132  12.459
23966SOL     OW71923   4.456   4.358  12.236
23966SOL    HW171924   4.515   4.332  12.160
23966SOL    HW271925   4.428   4.454  12.225
23967SOL     OW71926   4.031   3.787  11.790
23967SOL    HW171927   4.020   3.881  11.823
23967SOL    HW271928   4.026   3.724  11.867
23968SOL     OW71929   5.346   4.091  11.546
23968SOL    HW171930   5.348   4.015  11.610
23968SOL    HW271931   5.298   4.168  11.586
23969SOL     OW71932   4.747   4.490  12.138
23969SOL    HW171933   4.762   4.511  12.234
23969SOL    HW271934   4.717   4.395  12.129
23970SOL     OW71935   4.704   5.297  12.872
23970SOL    HW171936   4.684   5.341  12.784
23970SOL    HW271937   4.743   5.206  12.856
23971SOL     OW71938   5.264   3.998  11.297
23971SOL    HW171939   5.203   3.923  11.320
23971SOL    HW271940   5.286   4.050  11.380
23972SOL     OW71941   5.027   4.562  11.214
23972SOL    HW171942   5.061   4.469  11.229
23972SOL    HW271943   5.045   4.589  11.119
23973SOL     OW71944   4.792   5.057  12.021
23973SOL    HW171945   4.799   4.973  11.966
23973SOL    HW271946   4.854   5.126  11.985
23974SOL     OW71947   4.043   4.534  12.121
23974SOL    HW171948   4.136   4.570  12.126
23974SOL    HW271949   4.037   4.449  12.173
23975SOL     OW71950   4.063   4.233  12.178
23975SOL    HW171951   4.011   4.150  12.161
23975SOL    HW271952   4.140   4.238  12.114
23976SOL     OW71953   4.862   4.104  12.850
23976SOL    HW171954   4.817   4.167  12.914
23976SOL    HW271955   4.955   4.135  12.833
23977SOL     OW71956   4.884   3.931  12.649
23977SOL    HW171957   4.884   3.995  12.726
23977SOL    HW271958   4.912   3.979  12.566
23978SOL     OW71959   3.732   5.050  11.372
23978SOL    HW171960   3.639   5.071  11.341
23978SOL    HW271961   3.742   4.951  11.385
23979SOL     OW71962   3.812   5.525  12.099
23979SOL    HW171963   3.770   5.439  12.072
23979SOL    HW271964   3.906   5.528  12.065
23980SOL     OW71965   4.228   5.292  12.082
23980SOL    HW171966   4.294   5.366  12.091
23980SOL    HW271967   4.272   5.213  12.040
23981SOL     OW71968   4.726   4.520  12.410
23981SOL    HW171969   4.767   4.488  12.496
23981SOL    HW271970   4.630   4.493  12.407
23982SOL     OW71971   3.764   4.268  12.286
23982SOL    HW171972   3.849   4.235  12.245
23982SOL    HW271973   3.777   4.283  12.384
23983SOL     OW71974   4.539   4.296  11.497
23983SOL    HW171975   4.546   4.207  11.451
23983SOL    HW271976   4.445   4.330  11.489
23984SOL     OW71977   5.381   4.328  12.378
23984SOL    HW171978   5.343   4.259  12.440
23984SOL    HW271979   5.463   4.292  12.334
23985SOL     OW71980   4.395   4.188  12.441
23985SOL    HW171981   4.361   4.099  12.411
23985SOL    HW271982   4.421   4.242  12.361
23986SOL     OW71983   4.654   5.402  12.637
23986SOL    HW171984   4.630   5.384  12.542
23986SOL    HW271985   4.684   5.496  12.647
23987SOL     OW71986   4.197   4.224  11.363
23987SOL    HW171987   4.258   4.304  11.367
23987SOL    HW271988   4.102   4.255  11.370
23988SOL     OW71989   3.883   4.861  12.638
23988SOL    HW171990   3.905   4.800  12.714
23988SOL    HW271991   3.893   4.812  12.552
23989SOL     OW71992   5.071   4.783  12.406
23989SOL    HW171993   5.095   4.720  12.332
23989SOL    HW271994   4.981   4.823  12.388
23990SOL     OW71995   5.026   4.579  11.481
23990SOL    HW171996   4.940   4.548  11.523
23990SOL    HW271997   5.022   4.565  11.382
23991SOL     OW71998   5.483   5.471  12.326
23991SOL    HW171999   5.544   5.501  12.253
23991SOL    HW272000   5.445   5.382  12.304
23992SOL     OW72001   4.976   5.455  12.300
23992SOL    HW172002   5.060   5.460  12.246
23992SOL    HW272003   4.953   5.359  12.318
23993SOL     OW72004   3.807   4.982  12.194
23993SOL    HW172005   3.802   4.981  12.294
23993SOL    HW272006   3.724   4.941  12.156
23994SOL     OW72007   5.450   3.859  11.695
23994SOL    HW172008   5.523   3.842  11.628
23994SOL    HW272009   5.419   3.772  11.733
23995SOL     OW72010   5.112   5.297  11.649
23995SOL    HW172011   5.179   5.309  11.575
23995SOL    HW272012   5.072   5.386  11.672
23996SOL     OW72013   5.004   4.651  11.844
23996SOL    HW172014   5.064   4.570  11.846
23996SOL    HW272015   5.044   4.720  11.784
23997SOL     OW72016   4.396   5.340  11.326
23997SOL    HW172017   4.405   5.350  11.227
23997SOL    HW272018   4.356   5.251  11.347
23998SOL     OW72019   5.374   5.444  12.566
23998SOL    HW172020   5.427   5.454  12.482
23998SOL    HW272021   5.347   5.534  12.600
23999SOL     OW72022   5.565   3.899  12.135
23999SOL    HW172023   5.604   3.814  12.099
23999SOL    HW272024   5.467   3.901  12.116
24000SOL     OW72025   3.987   4.050  11.892
24000SOL    HW172026   3.908   4.101  11.858
24000SOL    HW272027   3.978   4.035  11.990
24001SOL     OW72028   4.918   5.336  11.203
24001SOL    HW172029   4.924   5.243  11.240
24001SOL    HW272030   4.859   5.336  11.123
24002SOL     OW72031   4.546   4.726  12.544
24002SOL    HW172032   4.586   4.725  12.452
24002SOL    HW272033   4.556   4.818  12.584
24003SOL     OW72034   4.640   4.634  11.463
24003SOL    HW172035   4.703   4.672  11.395
24003SOL    HW272036   4.680   4.551  11.502
24004SOL     OW72037   5.228   5.331  11.216
24004SOL    HW172038   5.136   5.368  11.223
24004SOL    HW272039   5.266   5.351  11.126
24005SOL     OW72040   4.096   5.012  12.662
24005SOL    HW172041   4.083   5.105  12.628
24005SOL    HW272042   4.012   4.960  12.649
24006SOL     OW72043   5.338   5.016  12.461
24006SOL    HW172044   5.398   5.019  12.541
24006SOL    HW272045   5.263   5.080  12.474
24007SOL     OW72046   4.763   4.822  11.868
24007SOL    HW172047   4.693   4.775  11.922
24007SOL    HW272048   4.822   4.754  11.825
24008SOL     OW72049   4.738   3.960  12.143
24008SOL    HW172050   4.730   3.924  12.050
24008SOL    HW272051   4.736   3.884  12.208
24009SOL     OW72052   4.314   5.211  11.663
24009SOL    HW172053   4.356   5.153  11.593
24009SOL    HW272054   4.270   5.290  11.619
24010SOL     OW72055   5.433   4.109  12.553
24010SOL    HW172056   5.506   4.178  12.557
24010SOL    HW272057   5.461   4.034  12.494
24011SOL     OW72058   3.979   5.072  11.462
24011SOL    HW172059   3.883   5.073  11.435
24011SOL    HW272060   3.991   5.125  11.546
24012SOL     OW72061   3.799   4.069  11.205
24012SOL    HW172062   3.707   4.041  11.176
24012SOL    HW272063   3.830   4.146  11.149
24013SOL     OW72064   5.164   4.580  12.570
24013SOL    HW172065   5.107   4.632  12.507
24013SOL    HW272066   5.260   4.592  12.546
24014SOL     OW72067   3.796   3.890  11.490
24014SOL    HW172068   3.779   3.973  11.436
24014SOL    HW272069   3.886   3.853  11.468
24015SOL     OW72070   4.907   5.059  11.291
24015SOL    HW172071   4.808   5.048  11.293
24015SOL    HW272072   4.941   5.074  11.384
24016SOL     OW72073   4.337   4.566  12.603
24016SOL    HW172074   4.393   4.647  12.586
24016SOL    HW272075   4.396   4.486  12.606
24017SOL     OW72076   5.217   5.491  12.131
24017SOL    HW172077   5.250   5.555  12.062
24017SOL    HW272078   5.283   5.485  12.206
24018SOL     OW72079   4.114   5.465  12.732
24018SOL    HW172080   4.023   5.506  12.730
24018SOL    HW272081   4.107   5.371  12.764
24019SOL     OW72082   5.398   4.607  12.426
24019SOL    HW172083   5.371   4.518  12.389
24019SOL    HW272084   5.399   4.675  12.353
24020SOL     OW72085   4.949   4.049  11.621
24020SOL    HW172086   5.014   3.975  11.610
24020SOL    HW272087   4.969   4.099  11.705
24021SOL     OW72088   4.318   4.469  11.824
24021SOL    HW172089   4.368   4.554  11.805
24021SOL    HW272090   4.230   4.471  11.776
24022SOL     OW72091   5.501   4.066  12.814
24022SOL    HW172092   5.484   4.097  12.720
24022SOL    HW272093   5.417   4.029  12.852
24023SOL     OW72094   5.454   4.658  12.689
24023SOL    HW172095   5.492   4.749  12.704
24023SOL    HW272096   5.446   4.641  12.590
24024SOL     OW72097   4.583   5.098  11.188
24024SOL    HW172098   4.537   5.113  11.276
24024SOL    HW272099   4.627   5.183  11.158
24025SOL     OW72100   4.385   5.514  12.125
24025SOL    HW172101   4.339   5.602  12.112
24025SOL    HW272102   4.484   5.526  12.118
24026SOL     OW72103   4.583   4.680  12.033
24026SOL    HW172104   4.637   4.611  12.081
24026SOL    HW272105   4.551   4.749  12.099
24027SOL     OW72106   4.807   4.708  11.259
24027SOL    HW172107   4.784   4.761  11.177
24027SOL    HW272108   4.888   4.652  11.240
24028SOL     OW72109   5.585   5.293  12.023
24028SOL    HW172110   5.514   5.281  11.953
24028SOL    HW272111   5.586   5.214  12.083
24029SOL     OW72112   3.803   4.964  11.825
24029SOL    HW172113   3.802   4.917  11.913
24029SOL    HW272114   3.885   4.936  11.774
24030SOL     OW72115   5.548   3.916  12.399
24030SOL    HW172116   5.544   3.826  12.443
24030SOL    HW272117   5.551   3.905  12.300
24031SOL     OW72118   4.152   4.148  11.692
24031SOL    HW172119   4.182   4.076  11.630
24031SOL    HW272120   4.113   4.108  11.775
24032SOL     OW72121   5.429   5.211  12.276
24032SOL    HW172122   5.336   5.186  12.249
24032SOL    HW272123   5.455   5.161  12.358
24033SOL     OW72124   4.041   4.271  12.452
24033SOL    HW172125   4.079   4.212  12.524
24033SOL    HW272126   4.081   4.245  12.364
24034SOL     OW72127   4.536   5.310  11.859
24034SOL    HW172128   4.568   5.320  11.765
24034SOL    HW272129   4.457   5.248  11.861
24035SOL     OW72130   5.148   3.938  12.284
24035SOL    HW172131   5.200   3.873  12.339
24035SOL    HW272132   5.099   4.001  12.345
24036SOL     OW72133   4.725   3.758  12.326
24036SOL    HW172134   4.662   3.686  12.295
24036SOL    HW272135   4.818   3.722  12.326
24037SOL     OW72136   4.494   5.054  11.473
24037SOL    HW172137   4.448   4.967  11.490
24037SOL    HW272138   4.585   5.051  11.514
24038SOL     OW72139   4.342   5.291  12.456
24038SOL    HW172140   4.337   5.373  12.513
24038SOL    HW272141   4.431   5.288  12.411
24039SOL     OW72142   5.076   3.776  11.340
24039SOL    HW172143   5.111   3.735  11.256
24039SOL    HW272144   4.986   3.738  11.360
24040SOL     OW72145   5.024   4.177  11.863
24040SOL    HW172146   4.965   4.257  11.867
24040SOL    HW272147   5.039   4.142  11.956
24041SOL     OW72148   5.317   3.945  12.054
24041SOL    HW172149   5.233   3.944  12.108
24041SOL    HW272150   5.319   4.028  11.998
24042SOL     OW72151   3.763   4.801  11.472
24042SOL    HW172152   3.862   4.790  11.463
24042SOL    HW272153   3.723   4.715  11.504
24043SOL     OW72154   4.599   5.370  11.509
24043SOL    HW172155   4.522   5.335  11.455
24043SOL    HW272156   4.567   5.441  11.571
24044SOL     OW72157   3.954   6.214   0.113
24044SOL    HW172158   3.861   6.212   0.150
24044SOL    HW272159   3.955   6.175   0.021
24045SOL     OW72160   3.949   5.861   0.996
24045SOL    HW172161   3.984   5.844   1.088
24045SOL    HW272162   3.861   5.816   0.984
24046SOL     OW72163   3.743   5.954   0.647
24046SOL    HW172164   3.661   5.997   0.686
24046SOL    HW272165   3.715   5.881   0.584
24047SOL     OW72166   4.293   6.861   1.165
24047SOL    HW172167   4.200   6.854   1.128
24047SOL    HW272168   4.304   6.950   1.209
24048SOL     OW72169   5.279   7.097   0.703
24048SOL    HW172170   5.222   7.081   0.784
24048SOL    HW272171   5.220   7.107   0.623
24049SOL     OW72172   4.859   6.289   0.717
24049SOL    HW172173   4.916   6.367   0.692
24049SOL    HW272174   4.799   6.315   0.793
24050SOL     OW72175   5.479   6.193   0.231
24050SOL    HW172176   5.467   6.180   0.132
24050SOL    HW272177   5.449   6.112   0.280
24051SOL     OW72178   4.574   6.384   1.823
24051SOL    HW172179   4.570   6.460   1.888
24051SOL    HW272180   4.596   6.420   1.732
24052SOL     OW72181   4.409   6.598   0.665
24052SOL    HW172182   4.478   6.582   0.735
24052SOL    HW272183   4.336   6.655   0.703
24053SOL     OW72184   4.410   6.747   1.803
24053SOL    HW172185   4.470   6.826   1.817
24053SOL    HW272186   4.324   6.778   1.762
24054SOL     OW72187   4.059   7.021   1.061
24054SOL    HW172188   3.981   6.990   1.008
24054SOL    HW272189   4.117   7.079   1.004
24055SOL     OW72190   5.184   7.091   1.339
24055SOL    HW172191   5.208   7.185   1.365
24055SOL    HW272192   5.168   7.037   1.421
24056SOL     OW72193   4.162   5.978   1.499
24056SOL    HW172194   4.244   5.922   1.508
24056SOL    HW272195   4.081   5.920   1.503
24057SOL     OW72196   5.327   6.033   0.737
24057SOL    HW172197   5.253   6.079   0.687
24057SOL    HW272198   5.378   6.101   0.790
24058SOL     OW72199   3.955   7.299   0.483
24058SOL    HW172200   3.989   7.376   0.537
24058SOL    HW272201   3.999   7.299   0.393
24059SOL     OW72202   4.851   6.927   1.690
24059SOL    HW172203   4.898   6.927   1.778
24059SOL    HW272204   4.803   6.840   1.679
24060SOL     OW72205   3.954   7.020   0.538
24060SOL    HW172206   3.928   7.116   0.538
24060SOL    HW272207   3.883   6.966   0.583
24061SOL     OW72208   3.964   6.677   0.886
24061SOL    HW172209   3.978   6.593   0.938
24061SOL    HW272210   3.909   6.741   0.941
24062SOL     OW72211   4.344   7.372   1.439
24062SOL    HW172212   4.252   7.355   1.474
24062SOL    HW272213   4.372   7.464   1.465
24063SOL     OW72214   4.330   6.550   0.123
24063SOL    HW172215   4.337   6.634   0.069
24063SOL    HW272216   4.376   6.563   0.211
24064SOL     OW72217   5.318   5.700   1.480
24064SOL    HW172218   5.300   5.767   1.408
24064SOL    HW272219   5.315   5.746   1.569
24065SOL     OW72220   3.846   6.229   0.563
24065SOL    HW172221   3.801   6.141   0.580
24065SOL    HW272222   3.845   6.283   0.647
24066SOL     OW72223   5.566   7.353   0.359
24066SOL    HW172224   5.620   7.324   0.439
24066SOL    HW272225   5.596   7.443   0.330
24067SOL     OW72226   3.751   7.182   0.117
24067SOL    HW172227   3.732   7.086   0.138
24067SOL    HW272228   3.718   7.240   0.192
24068SOL     OW72229   5.413   6.508   0.612
24068SOL    HW172230   5.508   6.479   0.620
24068SOL    HW272231   5.405   6.573   0.537
24069SOL     OW72232   5.365   6.694   0.432
24069SOL    HW172233   5.451   6.696   0.380
24069SOL    HW272234   5.379   6.741   0.520
24070SOL     OW72235   3.837   6.323   1.597
24070SOL    HW172236   3.925   6.310   1.642
24070SOL    HW272237   3.824   6.420   1.575
24071SOL     OW72238   4.337   6.951   0.726
24071SOL    HW172239   4.288   6.864   0.735
24071SOL    HW272240   4.314   6.994   0.639
24072SOL     OW72241   5.017   6.814   1.423
24072SOL    HW172242   5.054   6.741   1.365
24072SOL    HW272243   5.069   6.819   1.508
24073SOL     OW72244   4.533   5.590   0.502
24073SOL    HW172245   4.573   5.681   0.493
24073SOL    HW272246   4.433   5.598   0.508
24074SOL     OW72247   3.921   6.562   1.264
24074SOL    HW172248   4.010   6.517   1.250
24074SOL    HW272249   3.848   6.497   1.245
24075SOL     OW72250   5.249   6.585   0.190
24075SOL    HW172251   5.186   6.509   0.203
24075SOL    HW272252   5.297   6.603   0.276
24076SOL     OW72253   4.911   7.378   1.616
24076SOL    HW172254   4.935   7.438   1.540
24076SOL    HW272255   4.918   7.283   1.586
24077SOL     OW72256   4.041   5.837   1.801
24077SOL    HW172257   4.112   5.908   1.807
24077SOL    HW272258   3.953   5.876   1.829
24078SOL     OW72259   5.190   7.003   0.953
24078SOL    HW172260   5.131   7.009   1.033
24078SOL    HW272261   5.175   6.915   0.907
24079SOL     OW72262   5.391   7.300   0.572
24079SOL    HW172263   5.350   7.277   0.484
24079SOL    HW272264   5.373   7.226   0.637
24080SOL     OW72265   4.322   6.315   0.270
24080SOL    HW172266   4.346   6.384   0.202
24080SOL    HW272267   4.244   6.348   0.324
24081SOL     OW72268   5.005   5.931   0.944
24081SOL    HW172269   4.919   5.881   0.931
24081SOL    HW272270   5.067   5.877   1.000
24082SOL     OW72271   5.300   7.248   0.307
24082SOL    HW172272   5.389   7.294   0.310
24082SOL    HW272273   5.279   7.224   0.212
24083SOL     OW72274   4.531   6.191   1.465
24083SOL    HW172275   4.484   6.188   1.554
24083SOL    HW272276   4.480   6.136   1.399
24084SOL     OW72277   5.118   6.055   1.674
24084SOL    HW172278   5.098   6.098   1.762
24084SOL    HW272279   5.196   5.993   1.683
24085SOL     OW72280   4.697   6.476   1.572
24085SOL    HW172281   4.743   6.392   1.543
24085SOL    HW272282   4.641   6.510   1.497
24086SOL     OW72283   4.715   5.996   1.242
24086SOL    HW172284   4.638   6.030   1.296
24086SOL    HW272285   4.681   5.945   1.163
24087SOL     OW72286   4.765   6.287   0.429
24087SOL    HW172287   4.791   6.283   0.525
24087SOL    HW272288   4.680   6.236   0.415
24088SOL     OW72289   3.800   6.397   0.789
24088SOL    HW172290   3.899   6.385   0.798
24088SOL    HW272291   3.776   6.492   0.810
24089SOL     OW72292   3.854   7.407   1.571
24089SOL    HW172293   3.844   7.392   1.670
24089SOL    HW272294   3.768   7.443   1.535
24090SOL     OW72295   4.589   5.934   0.195
24090SOL    HW172296   4.648   5.997   0.146
24090SOL    HW272297   4.608   5.840   0.166
24091SOL     OW72298   5.443   6.171   1.831
24091SOL    HW172299   5.417   6.260   1.795
24091SOL    HW272300   5.441   6.103   1.758
24092SOL     OW72301   5.086   6.730   0.545
24092SOL    HW172302   5.169   6.701   0.497
24092SOL    HW272303   5.037   6.797   0.489
24093SOL     OW72304   4.274   5.782   0.885
24093SOL    HW172305   4.269   5.777   0.985
24093SOL    HW272306   4.276   5.878   0.856
24094SOL     OW72307   4.732   7.042   0.477
24094SOL    HW172308   4.686   7.114   0.425
24094SOL    HW272309   4.728   7.062   0.575
24095SOL     OW72310   4.075   7.387   0.853
24095SOL    HW172311   4.125   7.301   0.859
24095SOL    HW272312   4.140   7.464   0.850
24096SOL     OW72313   5.519   6.652   0.873
24096SOL    HW172314   5.457   6.637   0.797
24096SOL    HW272315   5.467   6.663   0.958
24097SOL     OW72316   4.951   7.136   1.506
24097SOL    HW172317   4.957   7.059   1.570
24097SOL    HW272318   4.899   7.110   1.426
24098SOL     OW72319   4.045   6.529   0.242
24098SOL    HW172320   4.127   6.568   0.200
24098SOL    HW272321   4.018   6.447   0.193
24099SOL     OW72322   5.182   6.321   0.728
24099SOL    HW172323   5.177   6.256   0.803
24099SOL    HW272324   5.262   6.380   0.741
24100SOL     OW72325   4.185   6.852   1.727
24100SOL    HW172326   4.135   6.853   1.641
24100SOL    HW272327   4.122   6.834   1.803
24101SOL     OW72328   4.835   7.362   0.237
24101SOL    HW172329   4.775   7.300   0.287
24101SOL    HW272330   4.866   7.318   0.152
24102SOL     OW72331   3.926   5.871   1.498
24102SOL    HW172332   3.846   5.931   1.485
24102SOL    HW272333   3.916   5.822   1.584
24103SOL     OW72334   5.356   6.963   0.081
24103SOL    HW172335   5.324   7.057   0.071
24103SOL    HW272336   5.280   6.900   0.069
24104SOL     OW72337   4.188   7.329   0.323
24104SOL    HW172338   4.221   7.368   0.409
24104SOL    HW272339   4.264   7.322   0.258
24105SOL     OW72340   5.124   5.693   0.426
24105SOL    HW172341   5.100   5.656   0.336
24105SOL    HW272342   5.223   5.709   0.430
24106SOL     OW72343   3.973   7.371   1.241
24106SOL    HW172344   4.030   7.306   1.291
24106SOL    HW272345   3.957   7.338   1.148
24107SOL     OW72346   4.664   7.284   0.904
24107SOL    HW172347   4.744   7.227   0.925
24107SOL    HW272348   4.615   7.244   0.827
24108SOL     OW72349   4.106   6.286   0.480
24108SOL    HW172350   4.151   6.196   0.477
24108SOL    HW272351   4.012   6.275   0.513
24109SOL     OW72352   5.271   5.808   1.729
24109SOL    HW172353   5.266   5.845   1.821
24109SOL    HW272354   5.199   5.739   1.717
24110SOL     OW72355   4.338   5.708   0.117
24110SOL    HW172356   4.436   5.686   0.124
24110SOL    HW272357   4.307   5.691   0.024
24111SOL     OW72358   4.505   5.850   1.749
24111SOL    HW172359   4.572   5.789   1.792
24111SOL    HW272360   4.432   5.869   1.814
24112SOL     OW72361   4.612   7.100   1.195
24112SOL    HW172362   4.589   7.075   1.101
24112SOL    HW272363   4.673   7.031   1.234
24113SOL     OW72364   5.075   6.176   1.433
24113SOL    HW172365   5.103   6.133   1.518
24113SOL    HW272366   5.100   6.272   1.434
24114SOL     OW72367   4.527   6.988   0.924
24114SOL    HW172368   4.617   7.002   0.882
24114SOL    HW272369   4.456   6.990   0.853
24115SOL     OW72370   4.646   6.089   0.899
24115SOL    HW172371   4.621   6.080   0.803
24115SOL    HW272372   4.694   6.007   0.930
24116SOL     OW72373   4.263   5.650   0.512
24116SOL    HW172374   4.182   5.651   0.570
24116SOL    HW272375   4.266   5.733   0.457
24117SOL     OW72376   5.158   6.774   0.041
24117SOL    HW172377   5.190   6.698   0.098
24117SOL    HW272378   5.066   6.801   0.071
24118SOL     OW72379   4.021   5.621   0.171
24118SOL    HW172380   4.070   5.705   0.150
24118SOL    HW272381   4.083   5.556   0.216
24119SOL     OW72382   4.659   5.822   0.480
24119SOL    HW172383   4.611   5.863   0.402
24119SOL    HW272384   4.758   5.820   0.461
24120SOL     OW72385   4.800   6.269   1.464
24120SOL    HW172386   4.720   6.208   1.467
24120SOL    HW272387   4.881   6.216   1.440
24121SOL     OW72388   4.951   7.156   0.793
24121SOL    HW172389   4.972   7.230   0.728
24121SOL    HW272390   5.019   7.156   0.866
24122SOL     OW72391   4.183   6.738   0.741
24122SOL    HW172392   4.112   6.711   0.806
24122SOL    HW272393   4.157   6.710   0.648
24123SOL     OW72394   4.756   6.135   0.016
24123SOL    HW172395   4.715   6.217  -0.023
24123SOL    HW272396   4.820   6.161   0.089
24124SOL     OW72397   3.802   6.142   1.386
24124SOL    HW172398   3.894   6.141   1.345
24124SOL    HW272399   3.796   6.216   1.453
24125SOL     OW72400   4.285   5.808   1.147
24125SOL    HW172401   4.323   5.724   1.184
24125SOL    HW272402   4.197   5.827   1.191
24126SOL     OW72403   4.590   6.040   0.642
24126SOL    HW172404   4.558   6.112   0.580
24126SOL    HW272405   4.614   5.959   0.589
24127SOL     OW72406   4.741   5.625   0.753
24127SOL    HW172407   4.669   5.630   0.684
24127SOL    HW272408   4.717   5.556   0.822
24128SOL     OW72409   5.153   6.759   0.867
24128SOL    HW172410   5.098   6.675   0.860
24128SOL    HW272411   5.179   6.788   0.775
24129SOL     OW72412   5.190   6.176   0.992
24129SOL    HW172413   5.160   6.081   0.999
24129SOL    HW272414   5.263   6.192   1.058
24130SOL     OW72415   5.581   6.419   0.377
24130SOL    HW172416   5.623   6.355   0.441
24130SOL    HW272417   5.543   6.368   0.299
24131SOL     OW72418   4.212   6.971   0.174
24131SOL    HW172419   4.125   6.956   0.221
24131SOL    HW272420   4.195   6.997   0.079
24132SOL     OW72421   5.388   6.866   0.657
24132SOL    HW172422   5.487   6.874   0.671
24132SOL    HW272423   5.343   6.950   0.688
24133SOL     OW72424   5.114   6.161   0.078
24133SOL    HW172425   5.060   6.140   0.159
24133SOL    HW272426   5.205   6.120   0.087
24134SOL     OW72427   4.251   5.842   0.328
24134SOL    HW172428   4.278   5.783   0.253
24134SOL    HW272429   4.251   5.937   0.297
24135SOL     OW72430   5.478   6.809   1.588
24135SOL    HW172431   5.569   6.770   1.575
24135SOL    HW272432   5.486   6.905   1.612
24136SOL     OW72433   4.788   6.933   1.340
24136SOL    HW172434   4.708   6.910   1.395
24136SOL    HW272435   4.871   6.907   1.389
24137SOL     OW72436   5.316   7.215   1.625
24137SOL    HW172437   5.343   7.249   1.535
24137SOL    HW272438   5.395   7.177   1.671
24138SOL     OW72439   4.835   6.781   1.100
24138SOL    HW172440   4.795   6.825   1.181
24138SOL    HW272441   4.794   6.818   1.017
24139SOL     OW72442   5.362   6.685   1.079
24139SOL    HW172443   5.367   6.766   1.138
24139SOL    HW272444   5.276   6.687   1.028
24140SOL     OW72445   4.639   5.675   1.402
24140SOL    HW172446   4.664   5.655   1.307
24140SOL    HW272447   4.711   5.731   1.444
24141SOL     OW72448   4.704   6.702   1.719
24141SOL    HW172449   4.605   6.708   1.729
24141SOL    HW272450   4.727   6.622   1.663
24142SOL     OW72451   4.429   6.636   0.368
24142SOL    HW172452   4.415   6.643   0.467
24142SOL    HW272453   4.513   6.585   0.350
24143SOL     OW72454   4.134   6.399   1.251
24143SOL    HW172455   4.220   6.411   1.301
24143SOL    HW272456   4.092   6.312   1.278
24144SOL     OW72457   4.998   5.972   1.262
24144SOL    HW172458   5.019   6.046   1.326
24144SOL    HW272459   4.909   5.989   1.219
24145SOL     OW72460   3.788   7.150   1.331
24145SOL    HW172461   3.742   7.232   1.297
24145SOL    HW272462   3.886   7.169   1.340
24146SOL     OW72463   4.091   6.686   0.501
24146SOL    HW172464   4.084   6.769   0.445
24146SOL    HW272465   4.095   6.606   0.441
24147SOL     OW72466   4.290   6.123   0.865
24147SOL    HW172467   4.302   6.189   0.791
24147SOL    HW272468   4.336   6.157   0.948
24148SOL     OW72469   4.976   6.934   0.388
24148SOL    HW172470   5.026   7.011   0.428
24148SOL    HW272471   4.881   6.936   0.420
24149SOL     OW72472   4.996   7.031   1.142
24149SOL    HW172473   5.043   7.044   1.229
24149SOL    HW272474   4.930   6.957   1.151
24150SOL     OW72475   5.306   6.225   0.472
24150SOL    HW172476   5.275   6.286   0.545
24150SOL    HW272477   5.356   6.277   0.403
24151SOL     OW72478   4.078   7.096   1.329
24151SOL    HW172479   4.057   7.052   1.242
24151SOL    HW272480   4.175   7.122   1.332
24152SOL     OW72481   4.126   6.337   1.598
24152SOL    HW172482   4.194   6.392   1.551
24152SOL    HW272483   4.166   6.249   1.625
24153SOL     OW72484   5.311   6.365   1.670
24153SOL    HW172485   5.219   6.403   1.665
24153SOL    HW272486   5.371   6.412   1.605
24154SOL     OW72487   4.737   5.691   1.770
24154SOL    HW172488   4.743   5.776   1.718
24154SOL    HW272489   4.769   5.615   1.713
24155SOL     OW72490   4.228   5.636   1.740
24155SOL    HW172491   4.186   5.579   1.670
24155SOL    HW272492   4.162   5.705   1.772
24156SOL     OW72493   4.297   6.456   1.029
24156SOL    HW172494   4.341   6.545   1.020
24156SOL    HW272495   4.234   6.456   1.106
24157SOL     OW72496   5.084   6.448   1.045
24157SOL    HW172497   5.009   6.448   0.979
24157SOL    HW272498   5.121   6.356   1.054
24158SOL     OW72499   4.933   6.111   0.275
24158SOL    HW172500   4.946   6.027   0.329
24158SOL    HW272501   4.904   6.185   0.335
24159SOL     OW72502   4.031   5.799   1.231
24159SOL    HW172503   4.008   5.836   1.321
24159SOL    HW272504   4.001   5.704   1.225
24160SOL     OW72505   3.761   6.896   1.282
24160SOL    HW172506   3.814   6.847   1.350
24160SOL    HW272507   3.783   6.994   1.287
24161SOL     OW72508   4.456   6.220   1.064
24161SOL    HW172509   4.515   6.194   0.988
24161SOL    HW272510   4.428   6.316   1.053
24162SOL     OW72511   5.452   6.521   1.854
24162SOL    HW172512   5.406   6.514   1.765
24162SOL    HW272513   5.390   6.565   1.920
24163SOL     OW72514   4.031   5.649   0.618
24163SOL    HW172515   4.020   5.743   0.651
24163SOL    HW272516   4.026   5.586   0.695
24164SOL     OW72517   5.346   5.953   0.374
24164SOL    HW172518   5.348   5.877   0.438
24164SOL    HW272519   5.298   6.030   0.414
24165SOL     OW72520   4.747   6.352   0.966
24165SOL    HW172521   4.762   6.373   1.062
24165SOL    HW272522   4.717   6.257   0.957
24166SOL     OW72523   4.704   7.159   1.700
24166SOL    HW172524   4.684   7.203   1.612
24166SOL    HW272525   4.743   7.068   1.684
24167SOL     OW72526   5.583   7.104   1.605
24167SOL    HW172527   5.597   7.131   1.510
24167SOL    HW272528   5.666   7.126   1.658
24168SOL     OW72529   4.074   6.484   1.804
24168SOL    HW172530   4.150   6.528   1.852
24168SOL    HW272531   4.109   6.437   1.722
24169SOL     OW72532   5.264   5.860   0.125
24169SOL    HW172533   5.203   5.785   0.148
24169SOL    HW272534   5.286   5.912   0.208
24170SOL     OW72535   5.027   6.424   0.042
24170SOL    HW172536   5.061   6.331   0.057
24170SOL    HW272537   5.045   6.451  -0.053
24171SOL     OW72538   4.792   6.919   0.849
24171SOL    HW172539   4.799   6.835   0.794
24171SOL    HW272540   4.854   6.988   0.813
24172SOL     OW72541   4.043   6.396   0.949
24172SOL    HW172542   4.136   6.432   0.954
24172SOL    HW272543   4.037   6.311   1.001
24173SOL     OW72544   4.063   6.095   1.006
24173SOL    HW172545   4.011   6.012   0.989
24173SOL    HW272546   4.140   6.100   0.942
24174SOL     OW72547   4.862   5.966   1.678
24174SOL    HW172548   4.817   6.029   1.742
24174SOL    HW272549   4.955   5.997   1.661
24175SOL     OW72550   4.884   5.793   1.477
24175SOL    HW172551   4.884   5.857   1.554
24175SOL    HW272552   4.912   5.841   1.394
24176SOL     OW72553   3.732   6.912   0.200
24176SOL    HW172554   3.639   6.933   0.169
24176SOL    HW272555   3.742   6.813   0.213
24177SOL     OW72556   3.812   7.387   0.927
24177SOL    HW172557   3.770   7.301   0.900
24177SOL    HW272558   3.906   7.390   0.893
24178SOL     OW72559   4.228   7.154   0.910
24178SOL    HW172560   4.294   7.228   0.919
24178SOL    HW272561   4.272   7.075   0.868
24179SOL     OW72562   4.726   6.382   1.238
24179SOL    HW172563   4.767   6.350   1.324
24179SOL    HW272564   4.630   6.355   1.235
24180SOL     OW72565   3.764   6.130   1.114
24180SOL    HW172566   3.849   6.097   1.073
24180SOL    HW272567   3.777   6.145   1.212
24181SOL     OW72568   3.913   6.106   1.722
24181SOL    HW172569   3.972   6.066   1.652
24181SOL    HW272570   3.855   6.177   1.681
24182SOL     OW72571   5.093   6.536   1.660
24182SOL    HW172572   5.132   6.625   1.680
24182SOL    HW272573   5.103   6.516   1.563
24183SOL     OW72574   4.539   6.158   0.325
24183SOL    HW172575   4.546   6.069   0.279
24183SOL    HW272576   4.445   6.192   0.317
24184SOL     OW72577   5.381   6.190   1.206
24184SOL    HW172578   5.343   6.121   1.268
24184SOL    HW272579   5.463   6.154   1.162
24185SOL     OW72580   3.976   7.150   1.744
24185SOL    HW172581   3.946   7.207   1.820
24185SOL    HW272582   3.969   7.053   1.770
24186SOL     OW72583   4.395   6.050   1.269
24186SOL    HW172584   4.361   5.961   1.239
24186SOL    HW272585   4.421   6.104   1.189
24187SOL     OW72586   4.654   7.264   1.465
24187SOL    HW172587   4.630   7.246   1.370
24187SOL    HW272588   4.684   7.358   1.475
24188SOL     OW72589   4.197   6.086   0.191
24188SOL    HW172590   4.258   6.166   0.195
24188SOL    HW272591   4.102   6.117   0.198
24189SOL     OW72592   3.883   6.723   1.466
24189SOL    HW172593   3.905   6.662   1.542
24189SOL    HW272594   3.893   6.674   1.380
24190SOL     OW72595   5.071   6.645   1.234
24190SOL    HW172596   5.095   6.582   1.160
24190SOL    HW272597   4.981   6.685   1.216
24191SOL     OW72598   5.026   6.441   0.309
24191SOL    HW172599   4.940   6.410   0.351
24191SOL    HW272600   5.022   6.427   0.210
24192SOL     OW72601   5.483   7.333   1.154
24192SOL    HW172602   5.544   7.363   1.081
24192SOL    HW272603   5.445   7.244   1.132
24193SOL     OW72604   4.976   7.317   1.128
24193SOL    HW172605   5.060   7.322   1.074
24193SOL    HW272606   4.953   7.221   1.146
24194SOL     OW72607   3.807   6.844   1.022
24194SOL    HW172608   3.802   6.843   1.122
24194SOL    HW272609   3.724   6.803   0.984
24195SOL     OW72610   4.412   7.248   1.716
24195SOL    HW172611   4.356   7.329   1.725
24195SOL    HW272612   4.464   7.252   1.630
24196SOL     OW72613   4.627   5.672   0.133
24196SOL    HW172614   4.678   5.673   0.047
24196SOL    HW272615   4.683   5.630   0.204
24197SOL     OW72616   5.450   5.721   0.523
24197SOL    HW172617   5.523   5.704   0.456
24197SOL    HW272618   5.419   5.634   0.561
24198SOL     OW72619   5.112   7.159   0.477
24198SOL    HW172620   5.179   7.171   0.403
24198SOL    HW272621   5.072   7.248   0.500
24199SOL     OW72622   3.854   7.380   1.851
24199SOL    HW172623   3.813   7.306   1.904
24199SOL    HW272624   3.918   7.431   1.909
24200SOL     OW72625   5.004   6.513   0.672
24200SOL    HW172626   5.064   6.432   0.674
24200SOL    HW272627   5.044   6.582   0.612
24201SOL     OW72628   4.554   6.859   1.422
24201SOL    HW172629   4.549   6.892   1.517
24201SOL    HW272630   4.468   6.878   1.376
24202SOL     OW72631   4.396   7.202   0.154
24202SOL    HW172632   4.405   7.212   0.055
24202SOL    HW272633   4.356   7.113   0.175
24203SOL     OW72634   5.374   7.306   1.394
24203SOL    HW172635   5.427   7.316   1.310
24203SOL    HW272636   5.347   7.396   1.428
24204SOL     OW72637   5.565   5.761   0.963
24204SOL    HW172638   5.604   5.676   0.927
24204SOL    HW272639   5.467   5.763   0.944
24205SOL     OW72640   3.987   5.912   0.720
24205SOL    HW172641   3.908   5.963   0.686
24205SOL    HW272642   3.978   5.897   0.818
24206SOL     OW72643   4.918   7.198   0.031
24206SOL    HW172644   4.924   7.105   0.068
24206SOL    HW272645   4.859   7.198  -0.049
24207SOL     OW72646   4.546   6.588   1.372
24207SOL    HW172647   4.586   6.587   1.280
24207SOL    HW272648   4.556   6.680   1.412
24208SOL     OW72649   4.640   6.496   0.291
24208SOL    HW172650   4.703   6.534   0.223
24208SOL    HW272651   4.680   6.413   0.330
24209SOL     OW72652   5.228   7.193   0.044
24209SOL    HW172653   5.136   7.230   0.051
24209SOL    HW272654   5.266   7.213  -0.046
24210SOL     OW72655   4.096   6.874   1.490
24210SOL    HW172656   4.083   6.967   1.456
24210SOL    HW272657   4.012   6.822   1.477
24211SOL     OW72658   5.338   6.878   1.289
24211SOL    HW172659   5.398   6.881   1.369
24211SOL    HW272660   5.263   6.942   1.302
24212SOL     OW72661   4.763   6.684   0.696
24212SOL    HW172662   4.693   6.637   0.750
24212SOL    HW272663   4.822   6.616   0.653
24213SOL     OW72664   4.738   5.822   0.971
24213SOL    HW172665   4.730   5.786   0.878
24213SOL    HW272666   4.736   5.746   1.036
24214SOL     OW72667   4.314   7.073   0.491
24214SOL    HW172668   4.356   7.015   0.421
24214SOL    HW272669   4.270   7.152   0.447
24215SOL     OW72670   5.433   5.971   1.381
24215SOL    HW172671   5.506   6.040   1.385
24215SOL    HW272672   5.461   5.896   1.322
24216SOL     OW72673   3.979   6.934   0.290
24216SOL    HW172674   3.883   6.935   0.263
24216SOL    HW272675   3.991   6.987   0.374
24217SOL     OW72676   3.829   6.599   1.726
24217SOL    HW172677   3.752   6.566   1.780
24217SOL    HW272678   3.914   6.569   1.768
24218SOL     OW72679   4.396   5.789   1.489
24218SOL    HW172680   4.486   5.773   1.449
24218SOL    HW272681   4.404   5.794   1.588
24219SOL     OW72682   3.799   5.931   0.033
24219SOL    HW172683   3.707   5.903   0.004
24219SOL    HW272684   3.830   6.008  -0.023
24220SOL     OW72685   5.164   6.442   1.398
24220SOL    HW172686   5.107   6.494   1.335
24220SOL    HW272687   5.260   6.454   1.374
24221SOL     OW72688   3.796   5.752   0.318
24221SOL    HW172689   3.779   5.835   0.264
24221SOL    HW272690   3.886   5.715   0.296
24222SOL     OW72691   4.907   6.921   0.119
24222SOL    HW172692   4.808   6.910   0.121
24222SOL    HW272693   4.941   6.936   0.212
24223SOL     OW72694   4.337   6.428   1.431
24223SOL    HW172695   4.393   6.509   1.414
24223SOL    HW272696   4.396   6.348   1.434
24224SOL     OW72697   5.217   7.353   0.959
24224SOL    HW172698   5.250   7.417   0.890
24224SOL    HW272699   5.283   7.347   1.034
24225SOL     OW72700   4.440   6.151   1.708
24225SOL    HW172701   4.459   6.216   1.782
24225SOL    HW272702   4.500   6.071   1.717
24226SOL     OW72703   5.174   6.806   1.633
24226SOL    HW172704   5.165   6.796   1.732
24226SOL    HW272705   5.270   6.799   1.607
24227SOL     OW72706   4.114   7.327   1.560
24227SOL    HW172707   4.023   7.368   1.558
24227SOL    HW272708   4.107   7.233   1.592
24228SOL     OW72709   5.398   6.469   1.254
24228SOL    HW172710   5.371   6.380   1.217
24228SOL    HW272711   5.399   6.537   1.181
24229SOL     OW72712   4.949   5.911   0.449
24229SOL    HW172713   5.014   5.837   0.438
24229SOL    HW272714   4.969   5.961   0.533
24230SOL     OW72715   4.318   6.331   0.652
24230SOL    HW172716   4.368   6.416   0.633
24230SOL    HW272717   4.230   6.333   0.604
24231SOL     OW72718   5.501   5.928   1.642
24231SOL    HW172719   5.484   5.959   1.548
24231SOL    HW272720   5.417   5.891   1.680
24232SOL     OW72721   5.454   6.520   1.517
24232SOL    HW172722   5.492   6.611   1.532
24232SOL    HW272723   5.446   6.503   1.418
24233SOL     OW72724   4.583   6.960   0.016
24233SOL    HW172725   4.537   6.975   0.104
24233SOL    HW272726   4.627   7.045  -0.014
24234SOL     OW72727   4.385   7.376   0.953
24234SOL    HW172728   4.339   7.464   0.940
24234SOL    HW272729   4.484   7.388   0.946
24235SOL     OW72730   4.583   6.542   0.861
24235SOL    HW172731   4.637   6.473   0.909
24235SOL    HW272732   4.551   6.611   0.927
24236SOL     OW72733   4.807   6.570   0.087
24236SOL    HW172734   4.784   6.623   0.005
24236SOL    HW272735   4.888   6.514   0.068
24237SOL     OW72736   5.585   7.155   0.851
24237SOL    HW172737   5.514   7.143   0.781
24237SOL    HW272738   5.586   7.076   0.911
24238SOL     OW72739   3.945   6.900   1.844
24238SOL    HW172740   3.880   6.827   1.823
24238SOL    HW272741   3.949   6.914   1.942
24239SOL     OW72742   3.803   6.826   0.653
24239SOL    HW172743   3.802   6.779   0.741
24239SOL    HW272744   3.885   6.798   0.602
24240SOL     OW72745   4.396   6.977   1.624
24240SOL    HW172746   4.318   6.927   1.662
24240SOL    HW272747   4.393   7.072   1.655
24241SOL     OW72748   5.548   5.778   1.227
24241SOL    HW172749   5.544   5.688   1.271
24241SOL    HW272750   5.551   5.767   1.128
24242SOL     OW72751   4.152   6.010   0.520
24242SOL    HW172752   4.182   5.938   0.458
24242SOL    HW272753   4.113   5.970   0.603
24243SOL     OW72754   5.429   7.073   1.104
24243SOL    HW172755   5.336   7.048   1.077
24243SOL    HW272756   5.455   7.023   1.186
24244SOL     OW72757   4.041   6.133   1.280
24244SOL    HW172758   4.079   6.074   1.352
24244SOL    HW272759   4.081   6.107   1.192
24245SOL     OW72760   4.536   7.172   0.687
24245SOL    HW172761   4.568   7.182   0.593
24245SOL    HW272762   4.457   7.110   0.689
24246SOL     OW72763   5.148   5.800   1.112
24246SOL    HW172764   5.200   5.735   1.167
24246SOL    HW272765   5.099   5.863   1.173
24247SOL     OW72766   4.725   5.620   1.154
24247SOL    HW172767   4.662   5.548   1.123
24247SOL    HW272768   4.818   5.584   1.154
24248SOL     OW72769   4.494   6.916   0.301
24248SOL    HW172770   4.448   6.829   0.318
24248SOL    HW272771   4.585   6.913   0.342
24249SOL     OW72772   4.342   7.153   1.284
24249SOL    HW172773   4.337   7.235   1.341
24249SOL    HW272774   4.431   7.150   1.239
24250SOL     OW72775   5.076   5.638   0.168
24250SOL    HW172776   5.111   5.597   0.084
24250SOL    HW272777   4.986   5.600   0.188
24251SOL     OW72778   5.024   6.039   0.691
24251SOL    HW172779   4.965   6.119   0.695
24251SOL    HW272780   5.039   6.004   0.784
24252SOL     OW72781   5.317   5.807   0.882
24252SOL    HW172782   5.233   5.806   0.936
24252SOL    HW272783   5.319   5.890   0.826
24253SOL     OW72784   3.763   6.663   0.300
24253SOL    HW172785   3.862   6.652   0.291
24253SOL    HW272786   3.723   6.577   0.332
24254SOL     OW72787   4.599   7.232   0.337
24254SOL    HW172788   4.522   7.197   0.283
24254SOL    HW272789   4.567   7.303   0.399
24255SOL     OW72790   3.954   6.214   1.975
24255SOL    HW172791   3.861   6.212   2.012
24255SOL    HW272792   3.955   6.175   1.883
24256SOL     OW72793   3.949   5.861   2.858
24256SOL    HW172794   3.984   5.844   2.950
24256SOL    HW272795   3.861   5.816   2.846
24257SOL     OW72796   3.743   5.954   2.509
24257SOL    HW172797   3.661   5.997   2.548
24257SOL    HW272798   3.715   5.881   2.446
24258SOL     OW72799   4.293   6.861   3.027
24258SOL    HW172800   4.200   6.854   2.990
24258SOL    HW272801   4.304   6.950   3.071
24259SOL     OW72802   5.279   7.097   2.565
24259SOL    HW172803   5.222   7.081   2.646
24259SOL    HW272804   5.220   7.107   2.485
24260SOL     OW72805   4.859   6.289   2.579
24260SOL    HW172806   4.916   6.367   2.554
24260SOL    HW272807   4.799   6.315   2.655
24261SOL     OW72808   5.479   6.193   2.093
24261SOL    HW172809   5.467   6.180   1.994
24261SOL    HW272810   5.449   6.112   2.142
24262SOL     OW72811   4.492   6.730   2.885
24262SOL    HW172812   4.414   6.747   2.945
24262SOL    HW272813   4.526   6.817   2.849
24263SOL     OW72814   4.574   6.384   3.685
24263SOL    HW172815   4.570   6.460   3.750
24263SOL    HW272816   4.596   6.420   3.594
24264SOL     OW72817   4.409   6.598   2.527
24264SOL    HW172818   4.478   6.582   2.597
24264SOL    HW272819   4.336   6.655   2.565
24265SOL     OW72820   4.410   6.747   3.665
24265SOL    HW172821   4.470   6.826   3.679
24265SOL    HW272822   4.324   6.778   3.624
24266SOL     OW72823   4.059   7.021   2.923
24266SOL    HW172824   3.981   6.990   2.870
24266SOL    HW272825   4.117   7.079   2.866
24267SOL     OW72826   5.184   7.091   3.201
24267SOL    HW172827   5.208   7.185   3.227
24267SOL    HW272828   5.168   7.037   3.283
24268SOL     OW72829   4.162   5.978   3.361
24268SOL    HW172830   4.244   5.922   3.370
24268SOL    HW272831   4.081   5.920   3.365
24269SOL     OW72832   5.327   6.033   2.599
24269SOL    HW172833   5.253   6.079   2.549
24269SOL    HW272834   5.378   6.101   2.652
24270SOL     OW72835   3.955   7.299   2.345
24270SOL    HW172836   3.989   7.376   2.399
24270SOL    HW272837   3.999   7.299   2.255
24271SOL     OW72838   4.851   6.927   3.552
24271SOL    HW172839   4.898   6.927   3.640
24271SOL    HW272840   4.803   6.840   3.541
24272SOL     OW72841   3.954   7.020   2.400
24272SOL    HW172842   3.928   7.116   2.400
24272SOL    HW272843   3.883   6.966   2.445
24273SOL     OW72844   3.964   6.677   2.748
24273SOL    HW172845   3.978   6.593   2.800
24273SOL    HW272846   3.909   6.741   2.803
24274SOL     OW72847   4.344   7.372   3.301
24274SOL    HW172848   4.252   7.355   3.336
24274SOL    HW272849   4.372   7.464   3.327
24275SOL     OW72850   4.330   6.550   1.985
24275SOL    HW172851   4.337   6.634   1.931
24275SOL    HW272852   4.376   6.563   2.073
24276SOL     OW72853   5.318   5.700   3.342
24276SOL    HW172854   5.300   5.767   3.270
24276SOL    HW272855   5.315   5.746   3.431
24277SOL     OW72856   3.846   6.229   2.425
24277SOL    HW172857   3.801   6.141   2.442
24277SOL    HW272858   3.845   6.283   2.509
24278SOL     OW72859   5.566   7.353   2.221
24278SOL    HW172860   5.620   7.324   2.301
24278SOL    HW272861   5.596   7.443   2.192
24279SOL     OW72862   3.751   7.182   1.979
24279SOL    HW172863   3.732   7.086   2.000
24279SOL    HW272864   3.718   7.240   2.054
24280SOL     OW72865   5.413   6.508   2.474
24280SOL    HW172866   5.508   6.479   2.482
24280SOL    HW272867   5.405   6.573   2.399
24281SOL     OW72868   5.365   6.694   2.294
24281SOL    HW172869   5.451   6.696   2.242
24281SOL    HW272870   5.379   6.741   2.382
24282SOL     OW72871   3.837   6.323   3.459
24282SOL    HW172872   3.925   6.310   3.504
24282SOL    HW272873   3.824   6.420   3.437
24283SOL     OW72874   4.337   6.951   2.588
24283SOL    HW172875   4.288   6.864   2.597
24283SOL    HW272876   4.314   6.994   2.501
24284SOL     OW72877   5.017   6.814   3.285
24284SOL    HW172878   5.054   6.741   3.227
24284SOL    HW272879   5.069   6.819   3.370
24285SOL     OW72880   4.533   5.590   2.364
24285SOL    HW172881   4.573   5.681   2.355
24285SOL    HW272882   4.433   5.598   2.370
24286SOL     OW72883   3.921   6.562   3.126
24286SOL    HW172884   4.010   6.517   3.112
24286SOL    HW272885   3.848   6.497   3.107
24287SOL     OW72886   5.249   6.585   2.052
24287SOL    HW172887   5.186   6.509   2.065
24287SOL    HW272888   5.297   6.603   2.138
24288SOL     OW72889   4.911   7.378   3.478
24288SOL    HW172890   4.935   7.438   3.402
24288SOL    HW272891   4.918   7.283   3.448
24289SOL     OW72892   4.041   5.837   3.663
24289SOL    HW172893   4.112   5.908   3.669
24289SOL    HW272894   3.953   5.876   3.691
24290SOL     OW72895   5.190   7.003   2.815
24290SOL    HW172896   5.131   7.009   2.895
24290SOL    HW272897   5.175   6.915   2.769
24291SOL     OW72898   5.391   7.300   2.434
24291SOL    HW172899   5.350   7.277   2.346
24291SOL    HW272900   5.373   7.226   2.499
24292SOL     OW72901   4.322   6.315   2.132
24292SOL    HW172902   4.346   6.384   2.064
24292SOL    HW272903   4.244   6.348   2.186
24293SOL     OW72904   5.005   5.931   2.806
24293SOL    HW172905   4.919   5.881   2.793
24293SOL    HW272906   5.067   5.877   2.862
24294SOL     OW72907   5.300   7.248   2.169
24294SOL    HW172908   5.389   7.294   2.172
24294SOL    HW272909   5.279   7.224   2.074
24295SOL     OW72910   4.531   6.191   3.327
24295SOL    HW172911   4.484   6.188   3.416
24295SOL    HW272912   4.480   6.136   3.261
24296SOL     OW72913   5.118   6.055   3.536
24296SOL    HW172914   5.098   6.098   3.624
24296SOL    HW272915   5.196   5.993   3.545
24297SOL     OW72916   4.697   6.476   3.434
24297SOL    HW172917   4.743   6.392   3.405
24297SOL    HW272918   4.641   6.510   3.359
24298SOL     OW72919   4.715   5.996   3.104
24298SOL    HW172920   4.638   6.030   3.158
24298SOL    HW272921   4.681   5.945   3.025
24299SOL     OW72922   4.765   6.287   2.291
24299SOL    HW172923   4.791   6.283   2.387
24299SOL    HW272924   4.680   6.236   2.277
24300SOL     OW72925   3.800   6.397   2.651
24300SOL    HW172926   3.899   6.385   2.660
24300SOL    HW272927   3.776   6.492   2.672
24301SOL     OW72928   3.854   7.407   3.433
24301SOL    HW172929   3.844   7.392   3.532
24301SOL    HW272930   3.768   7.443   3.397
24302SOL     OW72931   4.589   5.934   2.057
24302SOL    HW172932   4.648   5.997   2.008
24302SOL    HW272933   4.608   5.840   2.028
24303SOL     OW72934   5.443   6.171   3.693
24303SOL    HW172935   5.417   6.260   3.657
24303SOL    HW272936   5.441   6.103   3.620
24304SOL     OW72937   5.086   6.730   2.407
24304SOL    HW172938   5.169   6.701   2.359
24304SOL    HW272939   5.037   6.797   2.351
24305SOL     OW72940   4.274   5.782   2.747
24305SOL    HW172941   4.269   5.777   2.847
24305SOL    HW272942   4.276   5.878   2.718
24306SOL     OW72943   4.732   7.042   2.339
24306SOL    HW172944   4.686   7.114   2.287
24306SOL    HW272945   4.728   7.062   2.437
24307SOL     OW72946   4.075   7.387   2.715
24307SOL    HW172947   4.125   7.301   2.721
24307SOL    HW272948   4.140   7.464   2.712
24308SOL     OW72949   5.519   6.652   2.735
24308SOL    HW172950   5.457   6.637   2.659
24308SOL    HW272951   5.467   6.663   2.820
24309SOL     OW72952   4.951   7.136   3.368
24309SOL    HW172953   4.957   7.059   3.432
24309SOL    HW272954   4.899   7.110   3.288
24310SOL     OW72955   4.045   6.529   2.104
24310SOL    HW172956   4.127   6.568   2.062
24310SOL    HW272957   4.018   6.447   2.055
24311SOL     OW72958   5.182   6.321   2.590
24311SOL    HW172959   5.177   6.256   2.665
24311SOL    HW272960   5.262   6.380   2.603
24312SOL     OW72961   4.185   6.852   3.589
24312SOL    HW172962   4.135   6.853   3.503
24312SOL    HW272963   4.122   6.834   3.665
24313SOL     OW72964   4.835   7.362   2.099
24313SOL    HW172965   4.775   7.300   2.149
24313SOL    HW272966   4.866   7.318   2.014
24314SOL     OW72967   3.926   5.871   3.360
24314SOL    HW172968   3.846   5.931   3.347
24314SOL    HW272969   3.916   5.822   3.446
24315SOL     OW72970   5.356   6.963   1.943
24315SOL    HW172971   5.324   7.057   1.933
24315SOL    HW272972   5.280   6.900   1.931
24316SOL     OW72973   4.188   7.329   2.185
24316SOL    HW172974   4.221   7.368   2.271
24316SOL    HW272975   4.264   7.322   2.120
24317SOL     OW72976   5.124   5.693   2.288
24317SOL    HW172977   5.100   5.656   2.198
24317SOL    HW272978   5.223   5.709   2.292
24318SOL     OW72979   3.973   7.371   3.103
24318SOL    HW172980   4.030   7.306   3.153
24318SOL    HW272981   3.957   7.338   3.010
24319SOL     OW72982   4.664   7.284   2.766
24319SOL    HW172983   4.744   7.227   2.787
24319SOL    HW272984   4.615   7.244   2.689
24320SOL     OW72985   4.106   6.286   2.342
24320SOL    HW172986   4.151   6.196   2.339
24320SOL    HW272987   4.012   6.275   2.375
24321SOL     OW72988   5.271   5.808   3.591
24321SOL    HW172989   5.266   5.845   3.683
24321SOL    HW272990   5.199   5.739   3.579
24322SOL     OW72991   4.338   5.708   1.979
24322SOL    HW172992   4.436   5.686   1.986
24322SOL    HW272993   4.307   5.691   1.886
24323SOL     OW72994   4.505   5.850   3.611
24323SOL    HW172995   4.572   5.789   3.654
24323SOL    HW272996   4.432   5.869   3.676
24324SOL     OW72997   4.612   7.100   3.057
24324SOL    HW172998   4.589   7.075   2.963
24324SOL    HW272999   4.673   7.031   3.096
24325SOL     OW73000   5.075   6.176   3.295
24325SOL    HW173001   5.103   6.133   3.380
24325SOL    HW273002   5.100   6.272   3.296
24326SOL     OW73003   4.527   6.988   2.786
24326SOL    HW173004   4.617   7.002   2.744
24326SOL    HW273005   4.456   6.990   2.715
24327SOL     OW73006   4.646   6.089   2.761
24327SOL    HW173007   4.621   6.080   2.665
24327SOL    HW273008   4.694   6.007   2.792
24328SOL     OW73009   4.263   5.650   2.374
24328SOL    HW173010   4.182   5.651   2.432
24328SOL    HW273011   4.266   5.733   2.319
24329SOL     OW73012   5.158   6.774   1.903
24329SOL    HW173013   5.190   6.698   1.960
24329SOL    HW273014   5.066   6.801   1.933
24330SOL     OW73015   4.021   5.621   2.033
24330SOL    HW173016   4.070   5.705   2.012
24330SOL    HW273017   4.083   5.556   2.078
24331SOL     OW73018   4.659   5.822   2.342
24331SOL    HW173019   4.611   5.863   2.264
24331SOL    HW273020   4.758   5.820   2.323
24332SOL     OW73021   4.800   6.269   3.326
24332SOL    HW173022   4.720   6.208   3.329
24332SOL    HW273023   4.881   6.216   3.302
24333SOL     OW73024   4.951   7.156   2.655
24333SOL    HW173025   4.972   7.230   2.590
24333SOL    HW273026   5.019   7.156   2.728
24334SOL     OW73027   4.183   6.738   2.603
24334SOL    HW173028   4.112   6.711   2.668
24334SOL    HW273029   4.157   6.710   2.510
24335SOL     OW73030   4.995   7.383   2.453
24335SOL    HW173031   5.039   7.447   2.389
24335SOL    HW273032   4.945   7.435   2.523
24336SOL     OW73033   4.756   6.135   1.878
24336SOL    HW173034   4.715   6.217   1.839
24336SOL    HW273035   4.820   6.161   1.951
24337SOL     OW73036   3.802   6.142   3.248
24337SOL    HW173037   3.894   6.141   3.207
24337SOL    HW273038   3.796   6.216   3.315
24338SOL     OW73039   4.285   5.808   3.009
24338SOL    HW173040   4.323   5.724   3.046
24338SOL    HW273041   4.197   5.827   3.053
24339SOL     OW73042   4.590   6.040   2.504
24339SOL    HW173043   4.558   6.112   2.442
24339SOL    HW273044   4.614   5.959   2.451
24340SOL     OW73045   4.741   5.625   2.615
24340SOL    HW173046   4.669   5.630   2.546
24340SOL    HW273047   4.717   5.556   2.684
24341SOL     OW73048   5.153   6.759   2.729
24341SOL    HW173049   5.098   6.675   2.722
24341SOL    HW273050   5.179   6.788   2.637
24342SOL     OW73051   5.190   6.176   2.854
24342SOL    HW173052   5.160   6.081   2.861
24342SOL    HW273053   5.263   6.192   2.920
24343SOL     OW73054   5.581   6.419   2.239
24343SOL    HW173055   5.623   6.355   2.303
24343SOL    HW273056   5.543   6.368   2.161
24344SOL     OW73057   4.212   6.971   2.036
24344SOL    HW173058   4.125   6.956   2.083
24344SOL    HW273059   4.195   6.997   1.941
24345SOL     OW73060   5.388   6.866   2.519
24345SOL    HW173061   5.487   6.874   2.533
24345SOL    HW273062   5.343   6.950   2.550
24346SOL     OW73063   5.114   6.161   1.940
24346SOL    HW173064   5.060   6.140   2.021
24346SOL    HW273065   5.205   6.120   1.949
24347SOL     OW73066   4.251   5.842   2.190
24347SOL    HW173067   4.278   5.783   2.115
24347SOL    HW273068   4.251   5.937   2.159
24348SOL     OW73069   5.478   6.809   3.450
24348SOL    HW173070   5.569   6.770   3.437
24348SOL    HW273071   5.486   6.905   3.474
24349SOL     OW73072   4.788   6.933   3.202
24349SOL    HW173073   4.708   6.910   3.257
24349SOL    HW273074   4.871   6.907   3.251
24350SOL     OW73075   5.316   7.215   3.487
24350SOL    HW173076   5.343   7.249   3.397
24350SOL    HW273077   5.395   7.177   3.533
24351SOL     OW73078   4.835   6.781   2.962
24351SOL    HW173079   4.795   6.825   3.043
24351SOL    HW273080   4.794   6.818   2.879
24352SOL     OW73081   5.362   6.685   2.941
24352SOL    HW173082   5.367   6.766   3.000
24352SOL    HW273083   5.276   6.687   2.890
24353SOL     OW73084   4.639   5.675   3.264
24353SOL    HW173085   4.664   5.655   3.169
24353SOL    HW273086   4.711   5.731   3.306
24354SOL     OW73087   4.704   6.702   3.581
24354SOL    HW173088   4.605   6.708   3.591
24354SOL    HW273089   4.727   6.622   3.525
24355SOL     OW73090   4.429   6.636   2.230
24355SOL    HW173091   4.415   6.643   2.329
24355SOL    HW273092   4.513   6.585   2.212
24356SOL     OW73093   4.134   6.399   3.113
24356SOL    HW173094   4.220   6.411   3.163
24356SOL    HW273095   4.092   6.312   3.140
24357SOL     OW73096   4.998   5.972   3.124
24357SOL    HW173097   5.019   6.046   3.188
24357SOL    HW273098   4.909   5.989   3.081
24358SOL     OW73099   3.788   7.150   3.193
24358SOL    HW173100   3.742   7.232   3.159
24358SOL    HW273101   3.886   7.169   3.202
24359SOL     OW73102   4.091   6.686   2.363
24359SOL    HW173103   4.084   6.769   2.307
24359SOL    HW273104   4.095   6.606   2.303
24360SOL     OW73105   4.290   6.123   2.727
24360SOL    HW173106   4.302   6.189   2.653
24360SOL    HW273107   4.336   6.157   2.810
24361SOL     OW73108   4.976   6.934   2.250
24361SOL    HW173109   5.026   7.011   2.290
24361SOL    HW273110   4.881   6.936   2.282
24362SOL     OW73111   4.996   7.031   3.004
24362SOL    HW173112   5.043   7.044   3.091
24362SOL    HW273113   4.930   6.957   3.013
24363SOL     OW73114   5.306   6.225   2.334
24363SOL    HW173115   5.275   6.286   2.407
24363SOL    HW273116   5.356   6.277   2.265
24364SOL     OW73117   4.078   7.096   3.191
24364SOL    HW173118   4.057   7.052   3.104
24364SOL    HW273119   4.175   7.122   3.194
24365SOL     OW73120   4.126   6.337   3.460
24365SOL    HW173121   4.194   6.392   3.413
24365SOL    HW273122   4.166   6.249   3.487
24366SOL     OW73123   5.311   6.365   3.532
24366SOL    HW173124   5.219   6.403   3.527
24366SOL    HW273125   5.371   6.412   3.467
24367SOL     OW73126   4.737   5.691   3.632
24367SOL    HW173127   4.743   5.776   3.580
24367SOL    HW273128   4.769   5.615   3.575
24368SOL     OW73129   4.228   5.636   3.602
24368SOL    HW173130   4.186   5.579   3.532
24368SOL    HW273131   4.162   5.705   3.634
24369SOL     OW73132   4.297   6.456   2.891
24369SOL    HW173133   4.341   6.545   2.882
24369SOL    HW273134   4.234   6.456   2.968
24370SOL     OW73135   5.084   6.448   2.907
24370SOL    HW173136   5.009   6.448   2.841
24370SOL    HW273137   5.121   6.356   2.916
24371SOL     OW73138   4.933   6.111   2.137
24371SOL    HW173139   4.946   6.027   2.191
24371SOL    HW273140   4.904   6.185   2.197
24372SOL     OW73141   4.031   5.799   3.093
24372SOL    HW173142   4.008   5.836   3.183
24372SOL    HW273143   4.001   5.704   3.087
24373SOL     OW73144   3.761   6.896   3.144
24373SOL    HW173145   3.814   6.847   3.212
24373SOL    HW273146   3.783   6.994   3.149
24374SOL     OW73147   4.456   6.220   2.926
24374SOL    HW173148   4.515   6.194   2.850
24374SOL    HW273149   4.428   6.316   2.915
24375SOL     OW73150   5.452   6.521   3.716
24375SOL    HW173151   5.406   6.514   3.627
24375SOL    HW273152   5.390   6.565   3.782
24376SOL     OW73153   4.031   5.649   2.480
24376SOL    HW173154   4.020   5.743   2.513
24376SOL    HW273155   4.026   5.586   2.557
24377SOL     OW73156   5.346   5.953   2.236
24377SOL    HW173157   5.348   5.877   2.300
24377SOL    HW273158   5.298   6.030   2.276
24378SOL     OW73159   4.747   6.352   2.828
24378SOL    HW173160   4.762   6.373   2.924
24378SOL    HW273161   4.717   6.257   2.819
24379SOL     OW73162   4.704   7.159   3.562
24379SOL    HW173163   4.684   7.203   3.474
24379SOL    HW273164   4.743   7.068   3.546
24380SOL     OW73165   5.583   7.104   3.467
24380SOL    HW173166   5.597   7.131   3.372
24380SOL    HW273167   5.666   7.126   3.520
24381SOL     OW73168   4.074   6.484   3.666
24381SOL    HW173169   4.150   6.528   3.714
24381SOL    HW273170   4.109   6.437   3.584
24382SOL     OW73171   5.264   5.860   1.987
24382SOL    HW173172   5.203   5.785   2.010
24382SOL    HW273173   5.286   5.912   2.070
24383SOL     OW73174   5.027   6.424   1.904
24383SOL    HW173175   5.061   6.331   1.919
24383SOL    HW273176   5.045   6.451   1.809
24384SOL     OW73177   4.792   6.919   2.711
24384SOL    HW173178   4.799   6.835   2.656
24384SOL    HW273179   4.854   6.988   2.675
24385SOL     OW73180   4.043   6.396   2.811
24385SOL    HW173181   4.136   6.432   2.816
24385SOL    HW273182   4.037   6.311   2.863
24386SOL     OW73183   4.063   6.095   2.868
24386SOL    HW173184   4.011   6.012   2.851
24386SOL    HW273185   4.140   6.100   2.804
24387SOL     OW73186   4.862   5.966   3.540
24387SOL    HW173187   4.817   6.029   3.604
24387SOL    HW273188   4.955   5.997   3.523
24388SOL     OW73189   4.884   5.793   3.339
24388SOL    HW173190   4.884   5.857   3.416
24388SOL    HW273191   4.912   5.841   3.256
24389SOL     OW73192   3.732   6.912   2.062
24389SOL    HW173193   3.639   6.933   2.031
24389SOL    HW273194   3.742   6.813   2.075
24390SOL     OW73195   3.812   7.387   2.789
24390SOL    HW173196   3.770   7.301   2.762
24390SOL    HW273197   3.906   7.390   2.755
24391SOL     OW73198   4.228   7.154   2.772
24391SOL    HW173199   4.294   7.228   2.781
24391SOL    HW273200   4.272   7.075   2.730
24392SOL     OW73201   4.726   6.382   3.100
24392SOL    HW173202   4.767   6.350   3.186
24392SOL    HW273203   4.630   6.355   3.097
24393SOL     OW73204   3.764   6.130   2.976
24393SOL    HW173205   3.849   6.097   2.935
24393SOL    HW273206   3.777   6.145   3.074
24394SOL     OW73207   3.913   6.106   3.584
24394SOL    HW173208   3.972   6.066   3.514
24394SOL    HW273209   3.855   6.177   3.543
24395SOL     OW73210   5.093   6.536   3.522
24395SOL    HW173211   5.132   6.625   3.542
24395SOL    HW273212   5.103   6.516   3.425
24396SOL     OW73213   4.539   6.158   2.187
24396SOL    HW173214   4.546   6.069   2.141
24396SOL    HW273215   4.445   6.192   2.179
24397SOL     OW73216   5.381   6.190   3.068
24397SOL    HW173217   5.343   6.121   3.130
24397SOL    HW273218   5.463   6.154   3.024
24398SOL     OW73219   3.976   7.150   3.606
24398SOL    HW173220   3.946   7.207   3.682
24398SOL    HW273221   3.969   7.053   3.632
24399SOL     OW73222   4.395   6.050   3.131
24399SOL    HW173223   4.361   5.961   3.101
24399SOL    HW273224   4.421   6.104   3.051
24400SOL     OW73225   4.654   7.264   3.327
24400SOL    HW173226   4.630   7.246   3.232
24400SOL    HW273227   4.684   7.358   3.337
24401SOL     OW73228   4.197   6.086   2.053
24401SOL    HW173229   4.258   6.166   2.057
24401SOL    HW273230   4.102   6.117   2.060
24402SOL     OW73231   3.883   6.723   3.328
24402SOL    HW173232   3.905   6.662   3.404
24402SOL    HW273233   3.893   6.674   3.242
24403SOL     OW73234   5.071   6.645   3.096
24403SOL    HW173235   5.095   6.582   3.022
24403SOL    HW273236   4.981   6.685   3.078
24404SOL     OW73237   5.026   6.441   2.171
24404SOL    HW173238   4.940   6.410   2.213
24404SOL    HW273239   5.022   6.427   2.072
24405SOL     OW73240   5.483   7.333   3.016
24405SOL    HW173241   5.544   7.363   2.943
24405SOL    HW273242   5.445   7.244   2.994
24406SOL     OW73243   4.976   7.317   2.990
24406SOL    HW173244   5.060   7.322   2.936
24406SOL    HW273245   4.953   7.221   3.008
24407SOL     OW73246   3.807   6.844   2.884
24407SOL    HW173247   3.802   6.843   2.984
24407SOL    HW273248   3.724   6.803   2.846
24408SOL     OW73249   4.412   7.248   3.578
24408SOL    HW173250   4.356   7.329   3.587
24408SOL    HW273251   4.464   7.252   3.492
24409SOL     OW73252   5.450   5.721   2.385
24409SOL    HW173253   5.523   5.704   2.318
24409SOL    HW273254   5.419   5.634   2.423
24410SOL     OW73255   5.112   7.159   2.339
24410SOL    HW173256   5.179   7.171   2.265
24410SOL    HW273257   5.072   7.248   2.362
24411SOL     OW73258   3.854   7.380   3.713
24411SOL    HW173259   3.813   7.306   3.766
24411SOL    HW273260   3.918   7.431   3.771
24412SOL     OW73261   5.004   6.513   2.534
24412SOL    HW173262   5.064   6.432   2.536
24412SOL    HW273263   5.044   6.582   2.474
24413SOL     OW73264   4.554   6.859   3.284
24413SOL    HW173265   4.549   6.892   3.379
24413SOL    HW273266   4.468   6.878   3.238
24414SOL     OW73267   4.396   7.202   2.016
24414SOL    HW173268   4.405   7.212   1.917
24414SOL    HW273269   4.356   7.113   2.037
24415SOL     OW73270   5.374   7.306   3.256
24415SOL    HW173271   5.427   7.316   3.172
24415SOL    HW273272   5.347   7.396   3.290
24416SOL     OW73273   5.565   5.761   2.825
24416SOL    HW173274   5.604   5.676   2.789
24416SOL    HW273275   5.467   5.763   2.806
24417SOL     OW73276   3.987   5.912   2.582
24417SOL    HW173277   3.908   5.963   2.548
24417SOL    HW273278   3.978   5.897   2.680
24418SOL     OW73279   4.918   7.198   1.893
24418SOL    HW173280   4.924   7.105   1.930
24418SOL    HW273281   4.859   7.198   1.813
24419SOL     OW73282   4.546   6.588   3.234
24419SOL    HW173283   4.586   6.587   3.142
24419SOL    HW273284   4.556   6.680   3.274
24420SOL     OW73285   4.640   6.496   2.153
24420SOL    HW173286   4.703   6.534   2.085
24420SOL    HW273287   4.680   6.413   2.192
24421SOL     OW73288   5.228   7.193   1.906
24421SOL    HW173289   5.136   7.230   1.913
24421SOL    HW273290   5.266   7.213   1.816
24422SOL     OW73291   4.096   6.874   3.352
24422SOL    HW173292   4.083   6.967   3.318
24422SOL    HW273293   4.012   6.822   3.339
24423SOL     OW73294   5.338   6.878   3.151
24423SOL    HW173295   5.398   6.881   3.231
24423SOL    HW273296   5.263   6.942   3.164
24424SOL     OW73297   4.763   6.684   2.558
24424SOL    HW173298   4.693   6.637   2.612
24424SOL    HW273299   4.822   6.616   2.515
24425SOL     OW73300   4.738   5.822   2.833
24425SOL    HW173301   4.730   5.786   2.740
24425SOL    HW273302   4.736   5.746   2.898
24426SOL     OW73303   4.314   7.073   2.353
24426SOL    HW173304   4.356   7.015   2.283
24426SOL    HW273305   4.270   7.152   2.309
24427SOL     OW73306   5.433   5.971   3.243
24427SOL    HW173307   5.506   6.040   3.247
24427SOL    HW273308   5.461   5.896   3.184
24428SOL     OW73309   3.979   6.934   2.152
24428SOL    HW173310   3.883   6.935   2.125
24428SOL    HW273311   3.991   6.987   2.236
24429SOL     OW73312   3.829   6.599   3.588
24429SOL    HW173313   3.752   6.566   3.642
24429SOL    HW273314   3.914   6.569   3.630
24430SOL     OW73315   4.396   5.789   3.351
24430SOL    HW173316   4.486   5.773   3.311
24430SOL    HW273317   4.404   5.794   3.450
24431SOL     OW73318   3.799   5.931   1.895
24431SOL    HW173319   3.707   5.903   1.866
24431SOL    HW273320   3.830   6.008   1.839
24432SOL     OW73321   5.164   6.442   3.260
24432SOL    HW173322   5.107   6.494   3.197
24432SOL    HW273323   5.260   6.454   3.236
24433SOL     OW73324   3.796   5.752   2.180
24433SOL    HW173325   3.779   5.835   2.126
24433SOL    HW273326   3.886   5.715   2.158
24434SOL     OW73327   4.907   6.921   1.981
24434SOL    HW173328   4.808   6.910   1.983
24434SOL    HW273329   4.941   6.936   2.074
24435SOL     OW73330   4.337   6.428   3.293
24435SOL    HW173331   4.393   6.509   3.276
24435SOL    HW273332   4.396   6.348   3.296
24436SOL     OW73333   5.217   7.353   2.821
24436SOL    HW173334   5.250   7.417   2.752
24436SOL    HW273335   5.283   7.347   2.896
24437SOL     OW73336   4.440   6.151   3.570
24437SOL    HW173337   4.459   6.216   3.644
24437SOL    HW273338   4.500   6.071   3.579
24438SOL     OW73339   5.174   6.806   3.495
24438SOL    HW173340   5.165   6.796   3.594
24438SOL    HW273341   5.270   6.799   3.469
24439SOL     OW73342   4.114   7.327   3.422
24439SOL    HW173343   4.023   7.368   3.420
24439SOL    HW273344   4.107   7.233   3.454
24440SOL     OW73345   5.398   6.469   3.116
24440SOL    HW173346   5.371   6.380   3.079
24440SOL    HW273347   5.399   6.537   3.043
24441SOL     OW73348   4.949   5.911   2.311
24441SOL    HW173349   5.014   5.837   2.300
24441SOL    HW273350   4.969   5.961   2.395
24442SOL     OW73351   4.318   6.331   2.514
24442SOL    HW173352   4.368   6.416   2.495
24442SOL    HW273353   4.230   6.333   2.466
24443SOL     OW73354   5.501   5.928   3.504
24443SOL    HW173355   5.484   5.959   3.410
24443SOL    HW273356   5.417   5.891   3.542
24444SOL     OW73357   5.454   6.520   3.379
24444SOL    HW173358   5.492   6.611   3.394
24444SOL    HW273359   5.446   6.503   3.280
24445SOL     OW73360   4.583   6.960   1.878
24445SOL    HW173361   4.537   6.975   1.966
24445SOL    HW273362   4.627   7.045   1.848
24446SOL     OW73363   4.385   7.376   2.815
24446SOL    HW173364   4.339   7.464   2.802
24446SOL    HW273365   4.484   7.388   2.808
24447SOL     OW73366   4.583   6.542   2.723
24447SOL    HW173367   4.637   6.473   2.771
24447SOL    HW273368   4.551   6.611   2.789
24448SOL     OW73369   4.807   6.570   1.949
24448SOL    HW173370   4.784   6.623   1.867
24448SOL    HW273371   4.888   6.514   1.930
24449SOL     OW73372   5.585   7.155   2.713
24449SOL    HW173373   5.514   7.143   2.643
24449SOL    HW273374   5.586   7.076   2.773
24450SOL     OW73375   3.945   6.900   3.706
24450SOL    HW173376   3.880   6.827   3.685
24450SOL    HW273377   3.949   6.914   3.804
24451SOL     OW73378   3.803   6.826   2.515
24451SOL    HW173379   3.802   6.779   2.603
24451SOL    HW273380   3.885   6.798   2.464
24452SOL     OW73381   4.396   6.977   3.486
24452SOL    HW173382   4.318   6.927   3.524
24452SOL    HW273383   4.393   7.072   3.517
24453SOL     OW73384   5.548   5.778   3.089
24453SOL    HW173385   5.544   5.688   3.133
24453SOL    HW273386   5.551   5.767   2.990
24454SOL     OW73387   4.152   6.010   2.382
24454SOL    HW173388   4.182   5.938   2.320
24454SOL    HW273389   4.113   5.970   2.465
24455SOL     OW73390   5.429   7.073   2.966
24455SOL    HW173391   5.336   7.048   2.939
24455SOL    HW273392   5.455   7.023   3.048
24456SOL     OW73393   4.041   6.133   3.142
24456SOL    HW173394   4.079   6.074   3.214
24456SOL    HW273395   4.081   6.107   3.054
24457SOL     OW73396   4.536   7.172   2.549
24457SOL    HW173397   4.568   7.182   2.455
24457SOL    HW273398   4.457   7.110   2.551
24458SOL     OW73399   5.148   5.800   2.974
24458SOL    HW173400   5.200   5.735   3.029
24458SOL    HW273401   5.099   5.863   3.035
24459SOL     OW73402   4.725   5.620   3.016
24459SOL    HW173403   4.662   5.548   2.985
24459SOL    HW273404   4.818   5.584   3.016
24460SOL     OW73405   4.494   6.916   2.163
24460SOL    HW173406   4.448   6.829   2.180
24460SOL    HW273407   4.585   6.913   2.204
24461SOL     OW73408   4.342   7.153   3.146
24461SOL    HW173409   4.337   7.235   3.203
24461SOL    HW273410   4.431   7.150   3.101
24462SOL     OW73411   5.076   5.638   2.030
24462SOL    HW173412   5.111   5.597   1.946
24462SOL    HW273413   4.986   5.600   2.050
24463SOL     OW73414   5.024   6.039   2.553
24463SOL    HW173415   4.965   6.119   2.557
24463SOL    HW273416   5.039   6.004   2.646
24464SOL     OW73417   5.317   5.807   2.744
24464SOL    HW173418   5.233   5.806   2.798
24464SOL    HW273419   5.319   5.890   2.688
24465SOL     OW73420   3.763   6.663   2.162
24465SOL    HW173421   3.862   6.652   2.153
24465SOL    HW273422   3.723   6.577   2.194
24466SOL     OW73423   4.599   7.232   2.199
24466SOL    HW173424   4.522   7.197   2.145
24466SOL    HW273425   4.567   7.303   2.261
24467SOL     OW73426   3.954   6.214   3.837
24467SOL    HW173427   3.861   6.212   3.874
24467SOL    HW273428   3.955   6.175   3.745
24468SOL     OW73429   3.949   5.861   4.720
24468SOL    HW173430   3.984   5.844   4.812
24468SOL    HW273431   3.861   5.816   4.708
24469SOL     OW73432   3.743   5.954   4.371
24469SOL    HW173433   3.661   5.997   4.410
24469SOL    HW273434   3.715   5.881   4.308
24470SOL     OW73435   4.293   6.861   4.889
24470SOL    HW173436   4.200   6.854   4.852
24470SOL    HW273437   4.304   6.950   4.933
24471SOL     OW73438   5.279   7.097   4.427
24471SOL    HW173439   5.222   7.081   4.508
24471SOL    HW273440   5.220   7.107   4.347
24472SOL     OW73441   4.859   6.289   4.441
24472SOL    HW173442   4.916   6.367   4.416
24472SOL    HW273443   4.799   6.315   4.517
24473SOL     OW73444   5.479   6.193   3.955
24473SOL    HW173445   5.467   6.180   3.856
24473SOL    HW273446   5.449   6.112   4.004
24474SOL     OW73447   4.492   6.730   4.747
24474SOL    HW173448   4.414   6.747   4.807
24474SOL    HW273449   4.526   6.817   4.711
24475SOL     OW73450   4.574   6.384   5.547
24475SOL    HW173451   4.570   6.460   5.612
24475SOL    HW273452   4.596   6.420   5.456
24476SOL     OW73453   4.409   6.598   4.389
24476SOL    HW173454   4.478   6.582   4.459
24476SOL    HW273455   4.336   6.655   4.427
24477SOL     OW73456   4.410   6.747   5.527
24477SOL    HW173457   4.470   6.826   5.541
24477SOL    HW273458   4.324   6.778   5.486
24478SOL     OW73459   4.059   7.021   4.785
24478SOL    HW173460   3.981   6.990   4.732
24478SOL    HW273461   4.117   7.079   4.728
24479SOL     OW73462   5.184   7.091   5.063
24479SOL    HW173463   5.208   7.185   5.089
24479SOL    HW273464   5.168   7.037   5.145
24480SOL     OW73465   4.162   5.978   5.223
24480SOL    HW173466   4.244   5.922   5.232
24480SOL    HW273467   4.081   5.920   5.227
24481SOL     OW73468   5.327   6.033   4.461
24481SOL    HW173469   5.253   6.079   4.411
24481SOL    HW273470   5.378   6.101   4.514
24482SOL     OW73471   3.955   7.299   4.207
24482SOL    HW173472   3.989   7.376   4.261
24482SOL    HW273473   3.999   7.299   4.117
24483SOL     OW73474   4.851   6.927   5.414
24483SOL    HW173475   4.898   6.927   5.502
24483SOL    HW273476   4.803   6.840   5.403
24484SOL     OW73477   3.954   7.020   4.262
24484SOL    HW173478   3.928   7.116   4.262
24484SOL    HW273479   3.883   6.966   4.307
24485SOL     OW73480   3.964   6.677   4.610
24485SOL    HW173481   3.978   6.593   4.662
24485SOL    HW273482   3.909   6.741   4.665
24486SOL     OW73483   4.344   7.372   5.163
24486SOL    HW173484   4.252   7.355   5.198
24486SOL    HW273485   4.372   7.464   5.189
24487SOL     OW73486   4.330   6.550   3.847
24487SOL    HW173487   4.337   6.634   3.793
24487SOL    HW273488   4.376   6.563   3.935
24488SOL     OW73489   5.318   5.700   5.204
24488SOL    HW173490   5.300   5.767   5.132
24488SOL    HW273491   5.315   5.746   5.293
24489SOL     OW73492   3.846   6.229   4.287
24489SOL    HW173493   3.801   6.141   4.304
24489SOL    HW273494   3.845   6.283   4.371
24490SOL     OW73495   5.566   7.353   4.083
24490SOL    HW173496   5.620   7.324   4.163
24490SOL    HW273497   5.596   7.443   4.054
24491SOL     OW73498   3.751   7.182   3.841
24491SOL    HW173499   3.732   7.086   3.862
24491SOL    HW273500   3.718   7.240   3.916
24492SOL     OW73501   5.413   6.508   4.336
24492SOL    HW173502   5.508   6.479   4.344
24492SOL    HW273503   5.405   6.573   4.261
24493SOL     OW73504   5.365   6.694   4.156
24493SOL    HW173505   5.451   6.696   4.104
24493SOL    HW273506   5.379   6.741   4.244
24494SOL     OW73507   3.837   6.323   5.321
24494SOL    HW173508   3.925   6.310   5.366
24494SOL    HW273509   3.824   6.420   5.299
24495SOL     OW73510   4.337   6.951   4.450
24495SOL    HW173511   4.288   6.864   4.459
24495SOL    HW273512   4.314   6.994   4.363
24496SOL     OW73513   5.017   6.814   5.147
24496SOL    HW173514   5.054   6.741   5.089
24496SOL    HW273515   5.069   6.819   5.232
24497SOL     OW73516   4.533   5.590   4.226
24497SOL    HW173517   4.573   5.681   4.217
24497SOL    HW273518   4.433   5.598   4.232
24498SOL     OW73519   3.921   6.562   4.988
24498SOL    HW173520   4.010   6.517   4.974
24498SOL    HW273521   3.848   6.497   4.969
24499SOL     OW73522   5.249   6.585   3.914
24499SOL    HW173523   5.186   6.509   3.927
24499SOL    HW273524   5.297   6.603   4.000
24500SOL     OW73525   4.911   7.378   5.340
24500SOL    HW173526   4.935   7.438   5.264
24500SOL    HW273527   4.918   7.283   5.310
24501SOL     OW73528   4.041   5.837   5.525
24501SOL    HW173529   4.112   5.908   5.531
24501SOL    HW273530   3.953   5.876   5.553
24502SOL     OW73531   5.190   7.003   4.677
24502SOL    HW173532   5.131   7.009   4.757
24502SOL    HW273533   5.175   6.915   4.631
24503SOL     OW73534   5.391   7.300   4.296
24503SOL    HW173535   5.350   7.277   4.208
24503SOL    HW273536   5.373   7.226   4.361
24504SOL     OW73537   4.322   6.315   3.994
24504SOL    HW173538   4.346   6.384   3.926
24504SOL    HW273539   4.244   6.348   4.048
24505SOL     OW73540   5.005   5.931   4.668
24505SOL    HW173541   4.919   5.881   4.655
24505SOL    HW273542   5.067   5.877   4.724
24506SOL     OW73543   5.300   7.248   4.031
24506SOL    HW173544   5.389   7.294   4.034
24506SOL    HW273545   5.279   7.224   3.936
24507SOL     OW73546   4.531   6.191   5.189
24507SOL    HW173547   4.484   6.188   5.278
24507SOL    HW273548   4.480   6.136   5.123
24508SOL     OW73549   5.118   6.055   5.398
24508SOL    HW173550   5.098   6.098   5.486
24508SOL    HW273551   5.196   5.993   5.407
24509SOL     OW73552   4.697   6.476   5.296
24509SOL    HW173553   4.743   6.392   5.267
24509SOL    HW273554   4.641   6.510   5.221
24510SOL     OW73555   4.715   5.996   4.966
24510SOL    HW173556   4.638   6.030   5.020
24510SOL    HW273557   4.681   5.945   4.887
24511SOL     OW73558   4.765   6.287   4.153
24511SOL    HW173559   4.791   6.283   4.249
24511SOL    HW273560   4.680   6.236   4.139
24512SOL     OW73561   3.800   6.397   4.513
24512SOL    HW173562   3.899   6.385   4.522
24512SOL    HW273563   3.776   6.492   4.534
24513SOL     OW73564   3.854   7.407   5.295
24513SOL    HW173565   3.844   7.392   5.394
24513SOL    HW273566   3.768   7.443   5.259
24514SOL     OW73567   4.589   5.934   3.919
24514SOL    HW173568   4.648   5.997   3.870
24514SOL    HW273569   4.608   5.840   3.890
24515SOL     OW73570   5.443   6.171   5.555
24515SOL    HW173571   5.417   6.260   5.519
24515SOL    HW273572   5.441   6.103   5.482
24516SOL     OW73573   5.086   6.730   4.269
24516SOL    HW173574   5.169   6.701   4.221
24516SOL    HW273575   5.037   6.797   4.213
24517SOL     OW73576   4.274   5.782   4.609
24517SOL    HW173577   4.269   5.777   4.709
24517SOL    HW273578   4.276   5.878   4.580
24518SOL     OW73579   4.732   7.042   4.201
24518SOL    HW173580   4.686   7.114   4.149
24518SOL    HW273581   4.728   7.062   4.299
24519SOL     OW73582   4.075   7.387   4.577
24519SOL    HW173583   4.125   7.301   4.583
24519SOL    HW273584   4.140   7.464   4.574
24520SOL     OW73585   5.519   6.652   4.597
24520SOL    HW173586   5.457   6.637   4.521
24520SOL    HW273587   5.467   6.663   4.682
24521SOL     OW73588   4.951   7.136   5.230
24521SOL    HW173589   4.957   7.059   5.294
24521SOL    HW273590   4.899   7.110   5.150
24522SOL     OW73591   4.045   6.529   3.966
24522SOL    HW173592   4.127   6.568   3.924
24522SOL    HW273593   4.018   6.447   3.917
24523SOL     OW73594   5.182   6.321   4.452
24523SOL    HW173595   5.177   6.256   4.527
24523SOL    HW273596   5.262   6.380   4.465
24524SOL     OW73597   4.185   6.852   5.451
24524SOL    HW173598   4.135   6.853   5.365
24524SOL    HW273599   4.122   6.834   5.527
24525SOL     OW73600   4.835   7.362   3.961
24525SOL    HW173601   4.775   7.300   4.011
24525SOL    HW273602   4.866   7.318   3.876
24526SOL     OW73603   3.926   5.871   5.222
24526SOL    HW173604   3.846   5.931   5.209
24526SOL    HW273605   3.916   5.822   5.308
24527SOL     OW73606   5.356   6.963   3.805
24527SOL    HW173607   5.324   7.057   3.795
24527SOL    HW273608   5.280   6.900   3.793
24528SOL     OW73609   4.188   7.329   4.047
24528SOL    HW173610   4.221   7.368   4.133
24528SOL    HW273611   4.264   7.322   3.982
24529SOL     OW73612   5.124   5.693   4.150
24529SOL    HW173613   5.100   5.656   4.060
24529SOL    HW273614   5.223   5.709   4.154
24530SOL     OW73615   3.973   7.371   4.965
24530SOL    HW173616   4.030   7.306   5.015
24530SOL    HW273617   3.957   7.338   4.872
24531SOL     OW73618   4.664   7.284   4.628
24531SOL    HW173619   4.744   7.227   4.649
24531SOL    HW273620   4.615   7.244   4.551
24532SOL     OW73621   4.106   6.286   4.204
24532SOL    HW173622   4.151   6.196   4.201
24532SOL    HW273623   4.012   6.275   4.237
24533SOL     OW73624   5.271   5.808   5.453
24533SOL    HW173625   5.266   5.845   5.545
24533SOL    HW273626   5.199   5.739   5.441
24534SOL     OW73627   4.338   5.708   3.841
24534SOL    HW173628   4.436   5.686   3.848
24534SOL    HW273629   4.307   5.691   3.748
24535SOL     OW73630   4.505   5.850   5.473
24535SOL    HW173631   4.572   5.789   5.516
24535SOL    HW273632   4.432   5.869   5.538
24536SOL     OW73633   4.612   7.100   4.919
24536SOL    HW173634   4.589   7.075   4.825
24536SOL    HW273635   4.673   7.031   4.958
24537SOL     OW73636   5.075   6.176   5.157
24537SOL    HW173637   5.103   6.133   5.242
24537SOL    HW273638   5.100   6.272   5.158
24538SOL     OW73639   4.527   6.988   4.648
24538SOL    HW173640   4.617   7.002   4.606
24538SOL    HW273641   4.456   6.990   4.577
24539SOL     OW73642   4.646   6.089   4.623
24539SOL    HW173643   4.621   6.080   4.527
24539SOL    HW273644   4.694   6.007   4.654
24540SOL     OW73645   4.263   5.650   4.236
24540SOL    HW173646   4.182   5.651   4.294
24540SOL    HW273647   4.266   5.733   4.181
24541SOL     OW73648   5.158   6.774   3.765
24541SOL    HW173649   5.190   6.698   3.822
24541SOL    HW273650   5.066   6.801   3.795
24542SOL     OW73651   4.021   5.621   3.895
24542SOL    HW173652   4.070   5.705   3.874
24542SOL    HW273653   4.083   5.556   3.940
24543SOL     OW73654   4.659   5.822   4.204
24543SOL    HW173655   4.611   5.863   4.126
24543SOL    HW273656   4.758   5.820   4.185
24544SOL     OW73657   4.800   6.269   5.188
24544SOL    HW173658   4.720   6.208   5.191
24544SOL    HW273659   4.881   6.216   5.164
24545SOL     OW73660   4.951   7.156   4.517
24545SOL    HW173661   4.972   7.230   4.452
24545SOL    HW273662   5.019   7.156   4.590
24546SOL     OW73663   4.183   6.738   4.465
24546SOL    HW173664   4.112   6.711   4.530
24546SOL    HW273665   4.157   6.710   4.372
24547SOL     OW73666   4.995   7.383   4.315
24547SOL    HW173667   5.039   7.447   4.251
24547SOL    HW273668   4.945   7.435   4.385
24548SOL     OW73669   4.756   6.135   3.740
24548SOL    HW173670   4.715   6.217   3.701
24548SOL    HW273671   4.820   6.161   3.813
24549SOL     OW73672   3.802   6.142   5.110
24549SOL    HW173673   3.894   6.141   5.069
24549SOL    HW273674   3.796   6.216   5.177
24550SOL     OW73675   4.285   5.808   4.871
24550SOL    HW173676   4.323   5.724   4.908
24550SOL    HW273677   4.197   5.827   4.915
24551SOL     OW73678   4.590   6.040   4.366
24551SOL    HW173679   4.558   6.112   4.304
24551SOL    HW273680   4.614   5.959   4.313
24552SOL     OW73681   4.741   5.625   4.477
24552SOL    HW173682   4.669   5.630   4.408
24552SOL    HW273683   4.717   5.556   4.546
24553SOL     OW73684   5.153   6.759   4.591
24553SOL    HW173685   5.098   6.675   4.584
24553SOL    HW273686   5.179   6.788   4.499
24554SOL     OW73687   5.190   6.176   4.716
24554SOL    HW173688   5.160   6.081   4.723
24554SOL    HW273689   5.263   6.192   4.782
24555SOL     OW73690   5.581   6.419   4.101
24555SOL    HW173691   5.623   6.355   4.165
24555SOL    HW273692   5.543   6.368   4.023
24556SOL     OW73693   4.212   6.971   3.898
24556SOL    HW173694   4.125   6.956   3.945
24556SOL    HW273695   4.195   6.997   3.803
24557SOL     OW73696   5.388   6.866   4.381
24557SOL    HW173697   5.487   6.874   4.395
24557SOL    HW273698   5.343   6.950   4.412
24558SOL     OW73699   5.114   6.161   3.802
24558SOL    HW173700   5.060   6.140   3.883
24558SOL    HW273701   5.205   6.120   3.811
24559SOL     OW73702   4.251   5.842   4.052
24559SOL    HW173703   4.278   5.783   3.977
24559SOL    HW273704   4.251   5.937   4.021
24560SOL     OW73705   5.478   6.809   5.312
24560SOL    HW173706   5.569   6.770   5.299
24560SOL    HW273707   5.486   6.905   5.336
24561SOL     OW73708   4.788   6.933   5.064
24561SOL    HW173709   4.708   6.910   5.119
24561SOL    HW273710   4.871   6.907   5.113
24562SOL     OW73711   5.316   7.215   5.349
24562SOL    HW173712   5.343   7.249   5.259
24562SOL    HW273713   5.395   7.177   5.395
24563SOL     OW73714   4.835   6.781   4.824
24563SOL    HW173715   4.795   6.825   4.905
24563SOL    HW273716   4.794   6.818   4.741
24564SOL     OW73717   5.362   6.685   4.803
24564SOL    HW173718   5.367   6.766   4.862
24564SOL    HW273719   5.276   6.687   4.752
24565SOL     OW73720   4.639   5.675   5.126
24565SOL    HW173721   4.664   5.655   5.031
24565SOL    HW273722   4.711   5.731   5.168
24566SOL     OW73723   4.704   6.702   5.443
24566SOL    HW173724   4.605   6.708   5.453
24566SOL    HW273725   4.727   6.622   5.387
24567SOL     OW73726   4.429   6.636   4.092
24567SOL    HW173727   4.415   6.643   4.191
24567SOL    HW273728   4.513   6.585   4.074
24568SOL     OW73729   4.134   6.399   4.975
24568SOL    HW173730   4.220   6.411   5.025
24568SOL    HW273731   4.092   6.312   5.002
24569SOL     OW73732   4.998   5.972   4.986
24569SOL    HW173733   5.019   6.046   5.050
24569SOL    HW273734   4.909   5.989   4.943
24570SOL     OW73735   3.788   7.150   5.055
24570SOL    HW173736   3.742   7.232   5.021
24570SOL    HW273737   3.886   7.169   5.064
24571SOL     OW73738   4.091   6.686   4.225
24571SOL    HW173739   4.084   6.769   4.169
24571SOL    HW273740   4.095   6.606   4.165
24572SOL     OW73741   4.290   6.123   4.589
24572SOL    HW173742   4.302   6.189   4.515
24572SOL    HW273743   4.336   6.157   4.672
24573SOL     OW73744   4.976   6.934   4.112
24573SOL    HW173745   5.026   7.011   4.152
24573SOL    HW273746   4.881   6.936   4.144
24574SOL     OW73747   4.996   7.031   4.866
24574SOL    HW173748   5.043   7.044   4.953
24574SOL    HW273749   4.930   6.957   4.875
24575SOL     OW73750   5.306   6.225   4.196
24575SOL    HW173751   5.275   6.286   4.269
24575SOL    HW273752   5.356   6.277   4.127
24576SOL     OW73753   4.078   7.096   5.053
24576SOL    HW173754   4.057   7.052   4.966
24576SOL    HW273755   4.175   7.122   5.056
24577SOL     OW73756   4.126   6.337   5.322
24577SOL    HW173757   4.194   6.392   5.275
24577SOL    HW273758   4.166   6.249   5.349
24578SOL     OW73759   5.311   6.365   5.394
24578SOL    HW173760   5.219   6.403   5.389
24578SOL    HW273761   5.371   6.412   5.329
24579SOL     OW73762   4.737   5.691   5.494
24579SOL    HW173763   4.743   5.776   5.442
24579SOL    HW273764   4.769   5.615   5.437
24580SOL     OW73765   4.228   5.636   5.464
24580SOL    HW173766   4.186   5.579   5.394
24580SOL    HW273767   4.162   5.705   5.496
24581SOL     OW73768   4.297   6.456   4.753
24581SOL    HW173769   4.341   6.545   4.744
24581SOL    HW273770   4.234   6.456   4.830
24582SOL     OW73771   5.084   6.448   4.769
24582SOL    HW173772   5.009   6.448   4.703
24582SOL    HW273773   5.121   6.356   4.778
24583SOL     OW73774   4.933   6.111   3.999
24583SOL    HW173775   4.946   6.027   4.053
24583SOL    HW273776   4.904   6.185   4.059
24584SOL     OW73777   4.031   5.799   4.955
24584SOL    HW173778   4.008   5.836   5.045
24584SOL    HW273779   4.001   5.704   4.949
24585SOL     OW73780   3.761   6.896   5.006
24585SOL    HW173781   3.814   6.847   5.074
24585SOL    HW273782   3.783   6.994   5.011
24586SOL     OW73783   4.456   6.220   4.788
24586SOL    HW173784   4.515   6.194   4.712
24586SOL    HW273785   4.428   6.316   4.777
24587SOL     OW73786   5.452   6.521   5.578
24587SOL    HW173787   5.406   6.514   5.489
24587SOL    HW273788   5.390   6.565   5.644
24588SOL     OW73789   4.031   5.649   4.342
24588SOL    HW173790   4.020   5.743   4.375
24588SOL    HW273791   4.026   5.586   4.419
24589SOL     OW73792   5.346   5.953   4.098
24589SOL    HW173793   5.348   5.877   4.162
24589SOL    HW273794   5.298   6.030   4.138
24590SOL     OW73795   4.747   6.352   4.690
24590SOL    HW173796   4.762   6.373   4.786
24590SOL    HW273797   4.717   6.257   4.681
24591SOL     OW73798   4.704   7.159   5.424
24591SOL    HW173799   4.684   7.203   5.336
24591SOL    HW273800   4.743   7.068   5.408
24592SOL     OW73801   5.583   7.104   5.329
24592SOL    HW173802   5.597   7.131   5.234
24592SOL    HW273803   5.666   7.126   5.382
24593SOL     OW73804   4.074   6.484   5.528
24593SOL    HW173805   4.150   6.528   5.576
24593SOL    HW273806   4.109   6.437   5.446
24594SOL     OW73807   5.264   5.860   3.849
24594SOL    HW173808   5.203   5.785   3.872
24594SOL    HW273809   5.286   5.912   3.932
24595SOL     OW73810   5.027   6.424   3.766
24595SOL    HW173811   5.061   6.331   3.781
24595SOL    HW273812   5.045   6.451   3.671
24596SOL     OW73813   4.792   6.919   4.573
24596SOL    HW173814   4.799   6.835   4.518
24596SOL    HW273815   4.854   6.988   4.537
24597SOL     OW73816   4.043   6.396   4.673
24597SOL    HW173817   4.136   6.432   4.678
24597SOL    HW273818   4.037   6.311   4.725
24598SOL     OW73819   4.063   6.095   4.730
24598SOL    HW173820   4.011   6.012   4.713
24598SOL    HW273821   4.140   6.100   4.666
24599SOL     OW73822   4.862   5.966   5.402
24599SOL    HW173823   4.817   6.029   5.466
24599SOL    HW273824   4.955   5.997   5.385
24600SOL     OW73825   4.884   5.793   5.201
24600SOL    HW173826   4.884   5.857   5.278
24600SOL    HW273827   4.912   5.841   5.118
24601SOL     OW73828   3.732   6.912   3.924
24601SOL    HW173829   3.639   6.933   3.893
24601SOL    HW273830   3.742   6.813   3.937
24602SOL     OW73831   3.812   7.387   4.651
24602SOL    HW173832   3.770   7.301   4.624
24602SOL    HW273833   3.906   7.390   4.617
24603SOL     OW73834   4.228   7.154   4.634
24603SOL    HW173835   4.294   7.228   4.643
24603SOL    HW273836   4.272   7.075   4.592
24604SOL     OW73837   4.726   6.382   4.962
24604SOL    HW173838   4.767   6.350   5.048
24604SOL    HW273839   4.630   6.355   4.959
24605SOL     OW73840   3.764   6.130   4.838
24605SOL    HW173841   3.849   6.097   4.797
24605SOL    HW273842   3.777   6.145   4.936
24606SOL     OW73843   3.913   6.106   5.446
24606SOL    HW173844   3.972   6.066   5.376
24606SOL    HW273845   3.855   6.177   5.405
24607SOL     OW73846   5.093   6.536   5.384
24607SOL    HW173847   5.132   6.625   5.404
24607SOL    HW273848   5.103   6.516   5.287
24608SOL     OW73849   4.539   6.158   4.049
24608SOL    HW173850   4.546   6.069   4.003
24608SOL    HW273851   4.445   6.192   4.041
24609SOL     OW73852   5.381   6.190   4.930
24609SOL    HW173853   5.343   6.121   4.992
24609SOL    HW273854   5.463   6.154   4.886
24610SOL     OW73855   3.976   7.150   5.468
24610SOL    HW173856   3.946   7.207   5.544
24610SOL    HW273857   3.969   7.053   5.494
24611SOL     OW73858   4.395   6.050   4.993
24611SOL    HW173859   4.361   5.961   4.963
24611SOL    HW273860   4.421   6.104   4.913
24612SOL     OW73861   4.654   7.264   5.189
24612SOL    HW173862   4.630   7.246   5.094
24612SOL    HW273863   4.684   7.358   5.199
24613SOL     OW73864   4.197   6.086   3.915
24613SOL    HW173865   4.258   6.166   3.919
24613SOL    HW273866   4.102   6.117   3.922
24614SOL     OW73867   3.883   6.723   5.190
24614SOL    HW173868   3.905   6.662   5.266
24614SOL    HW273869   3.893   6.674   5.104
24615SOL     OW73870   5.071   6.645   4.958
24615SOL    HW173871   5.095   6.582   4.884
24615SOL    HW273872   4.981   6.685   4.940
24616SOL     OW73873   5.026   6.441   4.033
24616SOL    HW173874   4.940   6.410   4.075
24616SOL    HW273875   5.022   6.427   3.934
24617SOL     OW73876   5.483   7.333   4.878
24617SOL    HW173877   5.544   7.363   4.805
24617SOL    HW273878   5.445   7.244   4.856
24618SOL     OW73879   4.976   7.317   4.852
24618SOL    HW173880   5.060   7.322   4.798
24618SOL    HW273881   4.953   7.221   4.870
24619SOL     OW73882   3.807   6.844   4.746
24619SOL    HW173883   3.802   6.843   4.846
24619SOL    HW273884   3.724   6.803   4.708
24620SOL     OW73885   4.412   7.248   5.440
24620SOL    HW173886   4.356   7.329   5.449
24620SOL    HW273887   4.464   7.252   5.354
24621SOL     OW73888   5.450   5.721   4.247
24621SOL    HW173889   5.523   5.704   4.180
24621SOL    HW273890   5.419   5.634   4.285
24622SOL     OW73891   5.112   7.159   4.201
24622SOL    HW173892   5.179   7.171   4.127
24622SOL    HW273893   5.072   7.248   4.224
24623SOL     OW73894   3.854   7.380   5.575
24623SOL    HW173895   3.813   7.306   5.628
24623SOL    HW273896   3.918   7.431   5.633
24624SOL     OW73897   5.004   6.513   4.396
24624SOL    HW173898   5.064   6.432   4.398
24624SOL    HW273899   5.044   6.582   4.336
24625SOL     OW73900   4.554   6.859   5.146
24625SOL    HW173901   4.549   6.892   5.241
24625SOL    HW273902   4.468   6.878   5.100
24626SOL     OW73903   4.396   7.202   3.878
24626SOL    HW173904   4.405   7.212   3.779
24626SOL    HW273905   4.356   7.113   3.899
24627SOL     OW73906   5.374   7.306   5.118
24627SOL    HW173907   5.427   7.316   5.034
24627SOL    HW273908   5.347   7.396   5.152
24628SOL     OW73909   5.565   5.761   4.687
24628SOL    HW173910   5.604   5.676   4.651
24628SOL    HW273911   5.467   5.763   4.668
24629SOL     OW73912   3.987   5.912   4.444
24629SOL    HW173913   3.908   5.963   4.410
24629SOL    HW273914   3.978   5.897   4.542
24630SOL     OW73915   4.918   7.198   3.755
24630SOL    HW173916   4.924   7.105   3.792
24630SOL    HW273917   4.859   7.198   3.675
24631SOL     OW73918   4.546   6.588   5.096
24631SOL    HW173919   4.586   6.587   5.004
24631SOL    HW273920   4.556   6.680   5.136
24632SOL     OW73921   4.640   6.496   4.015
24632SOL    HW173922   4.703   6.534   3.947
24632SOL    HW273923   4.680   6.413   4.054
24633SOL     OW73924   5.228   7.193   3.768
24633SOL    HW173925   5.136   7.230   3.775
24633SOL    HW273926   5.266   7.213   3.678
24634SOL     OW73927   4.096   6.874   5.214
24634SOL    HW173928   4.083   6.967   5.180
24634SOL    HW273929   4.012   6.822   5.201
24635SOL     OW73930   5.338   6.878   5.013
24635SOL    HW173931   5.398   6.881   5.093
24635SOL    HW273932   5.263   6.942   5.026
24636SOL     OW73933   4.763   6.684   4.420
24636SOL    HW173934   4.693   6.637   4.474
24636SOL    HW273935   4.822   6.616   4.377
24637SOL     OW73936   4.738   5.822   4.695
24637SOL    HW173937   4.730   5.786   4.602
24637SOL    HW273938   4.736   5.746   4.760
24638SOL     OW73939   4.314   7.073   4.215
24638SOL    HW173940   4.356   7.015   4.145
24638SOL    HW273941   4.270   7.152   4.171
24639SOL     OW73942   5.433   5.971   5.105
24639SOL    HW173943   5.506   6.040   5.109
24639SOL    HW273944   5.461   5.896   5.046
24640SOL     OW73945   3.979   6.934   4.014
24640SOL    HW173946   3.883   6.935   3.987
24640SOL    HW273947   3.991   6.987   4.098
24641SOL     OW73948   3.829   6.599   5.450
24641SOL    HW173949   3.752   6.566   5.504
24641SOL    HW273950   3.914   6.569   5.492
24642SOL     OW73951   4.396   5.789   5.213
24642SOL    HW173952   4.486   5.773   5.173
24642SOL    HW273953   4.404   5.794   5.312
24643SOL     OW73954   3.799   5.931   3.757
24643SOL    HW173955   3.707   5.903   3.728
24643SOL    HW273956   3.830   6.008   3.701
24644SOL     OW73957   5.164   6.442   5.122
24644SOL    HW173958   5.107   6.494   5.059
24644SOL    HW273959   5.260   6.454   5.098
24645SOL     OW73960   3.796   5.752   4.042
24645SOL    HW173961   3.779   5.835   3.988
24645SOL    HW273962   3.886   5.715   4.020
24646SOL     OW73963   4.907   6.921   3.843
24646SOL    HW173964   4.808   6.910   3.845
24646SOL    HW273965   4.941   6.936   3.936
24647SOL     OW73966   4.337   6.428   5.155
24647SOL    HW173967   4.393   6.509   5.138
24647SOL    HW273968   4.396   6.348   5.158
24648SOL     OW73969   5.217   7.353   4.683
24648SOL    HW173970   5.250   7.417   4.614
24648SOL    HW273971   5.283   7.347   4.758
24649SOL     OW73972   4.440   6.151   5.432
24649SOL    HW173973   4.459   6.216   5.506
24649SOL    HW273974   4.500   6.071   5.441
24650SOL     OW73975   5.174   6.806   5.357
24650SOL    HW173976   5.165   6.796   5.456
24650SOL    HW273977   5.270   6.799   5.331
24651SOL     OW73978   4.114   7.327   5.284
24651SOL    HW173979   4.023   7.368   5.282
24651SOL    HW273980   4.107   7.233   5.316
24652SOL     OW73981   5.398   6.469   4.978
24652SOL    HW173982   5.371   6.380   4.941
24652SOL    HW273983   5.399   6.537   4.905
24653SOL     OW73984   4.949   5.911   4.173
24653SOL    HW173985   5.014   5.837   4.162
24653SOL    HW273986   4.969   5.961   4.257
24654SOL     OW73987   4.318   6.331   4.376
24654SOL    HW173988   4.368   6.416   4.357
24654SOL    HW273989   4.230   6.333   4.328
24655SOL     OW73990   5.501   5.928   5.366
24655SOL    HW173991   5.484   5.959   5.272
24655SOL    HW273992   5.417   5.891   5.404
24656SOL     OW73993   5.454   6.520   5.241
24656SOL    HW173994   5.492   6.611   5.256
24656SOL    HW273995   5.446   6.503   5.142
24657SOL     OW73996   4.583   6.960   3.740
24657SOL    HW173997   4.537   6.975   3.828
24657SOL    HW273998   4.627   7.045   3.710
24658SOL     OW73999   4.385   7.376   4.677
24658SOL    HW174000   4.339   7.464   4.664
24658SOL    HW274001   4.484   7.388   4.670
24659SOL     OW74002   4.583   6.542   4.585
24659SOL    HW174003   4.637   6.473   4.633
24659SOL    HW274004   4.551   6.611   4.651
24660SOL     OW74005   4.807   6.570   3.811
24660SOL    HW174006   4.784   6.623   3.729
24660SOL    HW274007   4.888   6.514   3.792
24661SOL     OW74008   5.585   7.155   4.575
24661SOL    HW174009   5.514   7.143   4.505
24661SOL    HW274010   5.586   7.076   4.635
24662SOL     OW74011   3.945   6.900   5.568
24662SOL    HW174012   3.880   6.827   5.547
24662SOL    HW274013   3.949   6.914   5.666
24663SOL     OW74014   3.803   6.826   4.377
24663SOL    HW174015   3.802   6.779   4.465
24663SOL    HW274016   3.885   6.798   4.326
24664SOL     OW74017   4.396   6.977   5.348
24664SOL    HW174018   4.318   6.927   5.386
24664SOL    HW274019   4.393   7.072   5.379
24665SOL     OW74020   5.548   5.778   4.951
24665SOL    HW174021   5.544   5.688   4.995
24665SOL    HW274022   5.551   5.767   4.852
24666SOL     OW74023   4.152   6.010   4.244
24666SOL    HW174024   4.182   5.938   4.182
24666SOL    HW274025   4.113   5.970   4.327
24667SOL     OW74026   5.429   7.073   4.828
24667SOL    HW174027   5.336   7.048   4.801
24667SOL    HW274028   5.455   7.023   4.910
24668SOL     OW74029   4.041   6.133   5.004
24668SOL    HW174030   4.079   6.074   5.076
24668SOL    HW274031   4.081   6.107   4.916
24669SOL     OW74032   4.536   7.172   4.411
24669SOL    HW174033   4.568   7.182   4.317
24669SOL    HW274034   4.457   7.110   4.413
24670SOL     OW74035   5.148   5.800   4.836
24670SOL    HW174036   5.200   5.735   4.891
24670SOL    HW274037   5.099   5.863   4.897
24671SOL     OW74038   4.725   5.620   4.878
24671SOL    HW174039   4.662   5.548   4.847
24671SOL    HW274040   4.818   5.584   4.878
24672SOL     OW74041   4.494   6.916   4.025
24672SOL    HW174042   4.448   6.829   4.042
24672SOL    HW274043   4.585   6.913   4.066
24673SOL     OW74044   4.342   7.153   5.008
24673SOL    HW174045   4.337   7.235   5.065
24673SOL    HW274046   4.431   7.150   4.963
24674SOL     OW74047   5.076   5.638   3.892
24674SOL    HW174048   5.111   5.597   3.808
24674SOL    HW274049   4.986   5.600   3.912
24675SOL     OW74050   5.024   6.039   4.415
24675SOL    HW174051   4.965   6.119   4.419
24675SOL    HW274052   5.039   6.004   4.508
24676SOL     OW74053   5.317   5.807   4.606
24676SOL    HW174054   5.233   5.806   4.660
24676SOL    HW274055   5.319   5.890   4.550
24677SOL     OW74056   3.763   6.663   4.024
24677SOL    HW174057   3.862   6.652   4.015
24677SOL    HW274058   3.723   6.577   4.056
24678SOL     OW74059   4.599   7.232   4.061
24678SOL    HW174060   4.522   7.197   4.007
24678SOL    HW274061   4.567   7.303   4.123
24679SOL     OW74062   3.954   6.214   5.699
24679SOL    HW174063   3.861   6.212   5.736
24679SOL    HW274064   3.955   6.175   5.607
24680SOL     OW74065   3.949   5.861   6.582
24680SOL    HW174066   3.984   5.844   6.674
24680SOL    HW274067   3.861   5.816   6.570
24681SOL     OW74068   3.743   5.954   6.233
24681SOL    HW174069   3.661   5.997   6.272
24681SOL    HW274070   3.715   5.881   6.170
24682SOL     OW74071   4.293   6.861   6.751
24682SOL    HW174072   4.200   6.854   6.714
24682SOL    HW274073   4.304   6.950   6.795
24683SOL     OW74074   5.279   7.097   6.289
24683SOL    HW174075   5.222   7.081   6.370
24683SOL    HW274076   5.220   7.107   6.209
24684SOL     OW74077   4.859   6.289   6.303
24684SOL    HW174078   4.916   6.367   6.278
24684SOL    HW274079   4.799   6.315   6.379
24685SOL     OW74080   5.479   6.193   5.817
24685SOL    HW174081   5.467   6.180   5.718
24685SOL    HW274082   5.449   6.112   5.866
24686SOL     OW74083   4.492   6.730   6.609
24686SOL    HW174084   4.414   6.747   6.669
24686SOL    HW274085   4.526   6.817   6.573
24687SOL     OW74086   4.574   6.384   7.409
24687SOL    HW174087   4.570   6.460   7.474
24687SOL    HW274088   4.596   6.420   7.318
24688SOL     OW74089   4.409   6.598   6.251
24688SOL    HW174090   4.478   6.582   6.321
24688SOL    HW274091   4.336   6.655   6.289
24689SOL     OW74092   4.410   6.747   7.389
24689SOL    HW174093   4.470   6.826   7.403
24689SOL    HW274094   4.324   6.778   7.348
24690SOL     OW74095   4.059   7.021   6.647
24690SOL    HW174096   3.981   6.990   6.594
24690SOL    HW274097   4.117   7.079   6.590
24691SOL     OW74098   5.184   7.091   6.925
24691SOL    HW174099   5.208   7.185   6.951
24691SOL    HW274100   5.168   7.037   7.007
24692SOL     OW74101   4.162   5.978   7.085
24692SOL    HW174102   4.244   5.922   7.094
24692SOL    HW274103   4.081   5.920   7.089
24693SOL     OW74104   5.327   6.033   6.323
24693SOL    HW174105   5.253   6.079   6.273
24693SOL    HW274106   5.378   6.101   6.376
24694SOL     OW74107   3.955   7.299   6.069
24694SOL    HW174108   3.989   7.376   6.123
24694SOL    HW274109   3.999   7.299   5.979
24695SOL     OW74110   4.851   6.927   7.276
24695SOL    HW174111   4.898   6.927   7.364
24695SOL    HW274112   4.803   6.840   7.265
24696SOL     OW74113   3.954   7.020   6.124
24696SOL    HW174114   3.928   7.116   6.124
24696SOL    HW274115   3.883   6.966   6.169
24697SOL     OW74116   3.964   6.677   6.472
24697SOL    HW174117   3.978   6.593   6.524
24697SOL    HW274118   3.909   6.741   6.527
24698SOL     OW74119   4.344   7.372   7.025
24698SOL    HW174120   4.252   7.355   7.060
24698SOL    HW274121   4.372   7.464   7.051
24699SOL     OW74122   4.330   6.550   5.709
24699SOL    HW174123   4.337   6.634   5.655
24699SOL    HW274124   4.376   6.563   5.797
24700SOL     OW74125   5.318   5.700   7.066
24700SOL    HW174126   5.300   5.767   6.994
24700SOL    HW274127   5.315   5.746   7.155
24701SOL     OW74128   3.846   6.229   6.149
24701SOL    HW174129   3.801   6.141   6.166
24701SOL    HW274130   3.845   6.283   6.233
24702SOL     OW74131   5.566   7.353   5.945
24702SOL    HW174132   5.620   7.324   6.025
24702SOL    HW274133   5.596   7.443   5.916
24703SOL     OW74134   3.751   7.182   5.703
24703SOL    HW174135   3.732   7.086   5.724
24703SOL    HW274136   3.718   7.240   5.778
24704SOL     OW74137   5.413   6.508   6.198
24704SOL    HW174138   5.508   6.479   6.206
24704SOL    HW274139   5.405   6.573   6.123
24705SOL     OW74140   5.365   6.694   6.018
24705SOL    HW174141   5.451   6.696   5.966
24705SOL    HW274142   5.379   6.741   6.106
24706SOL     OW74143   3.837   6.323   7.183
24706SOL    HW174144   3.925   6.310   7.228
24706SOL    HW274145   3.824   6.420   7.161
24707SOL     OW74146   4.337   6.951   6.312
24707SOL    HW174147   4.288   6.864   6.321
24707SOL    HW274148   4.314   6.994   6.225
24708SOL     OW74149   5.017   6.814   7.009
24708SOL    HW174150   5.054   6.741   6.951
24708SOL    HW274151   5.069   6.819   7.094
24709SOL     OW74152   4.533   5.590   6.088
24709SOL    HW174153   4.573   5.681   6.079
24709SOL    HW274154   4.433   5.598   6.094
24710SOL     OW74155   3.921   6.562   6.850
24710SOL    HW174156   4.010   6.517   6.836
24710SOL    HW274157   3.848   6.497   6.831
24711SOL     OW74158   5.249   6.585   5.776
24711SOL    HW174159   5.186   6.509   5.789
24711SOL    HW274160   5.297   6.603   5.862
24712SOL     OW74161   4.911   7.378   7.202
24712SOL    HW174162   4.935   7.438   7.126
24712SOL    HW274163   4.918   7.283   7.172
24713SOL     OW74164   4.041   5.837   7.387
24713SOL    HW174165   4.112   5.908   7.393
24713SOL    HW274166   3.953   5.876   7.415
24714SOL     OW74167   5.190   7.003   6.539
24714SOL    HW174168   5.131   7.009   6.619
24714SOL    HW274169   5.175   6.915   6.493
24715SOL     OW74170   5.391   7.300   6.158
24715SOL    HW174171   5.350   7.277   6.070
24715SOL    HW274172   5.373   7.226   6.223
24716SOL     OW74173   4.322   6.315   5.856
24716SOL    HW174174   4.346   6.384   5.788
24716SOL    HW274175   4.244   6.348   5.910
24717SOL     OW74176   5.005   5.931   6.530
24717SOL    HW174177   4.919   5.881   6.517
24717SOL    HW274178   5.067   5.877   6.586
24718SOL     OW74179   5.300   7.248   5.893
24718SOL    HW174180   5.389   7.294   5.896
24718SOL    HW274181   5.279   7.224   5.798
24719SOL     OW74182   4.531   6.191   7.051
24719SOL    HW174183   4.484   6.188   7.140
24719SOL    HW274184   4.480   6.136   6.985
24720SOL     OW74185   5.118   6.055   7.260
24720SOL    HW174186   5.098   6.098   7.348
24720SOL    HW274187   5.196   5.993   7.269
24721SOL     OW74188   4.697   6.476   7.158
24721SOL    HW174189   4.743   6.392   7.129
24721SOL    HW274190   4.641   6.510   7.083
24722SOL     OW74191   4.715   5.996   6.828
24722SOL    HW174192   4.638   6.030   6.882
24722SOL    HW274193   4.681   5.945   6.749
24723SOL     OW74194   4.765   6.287   6.015
24723SOL    HW174195   4.791   6.283   6.111
24723SOL    HW274196   4.680   6.236   6.001
24724SOL     OW74197   3.800   6.397   6.375
24724SOL    HW174198   3.899   6.385   6.384
24724SOL    HW274199   3.776   6.492   6.396
24725SOL     OW74200   3.854   7.407   7.157
24725SOL    HW174201   3.844   7.392   7.256
24725SOL    HW274202   3.768   7.443   7.121
24726SOL     OW74203   4.589   5.934   5.781
24726SOL    HW174204   4.648   5.997   5.732
24726SOL    HW274205   4.608   5.840   5.752
24727SOL     OW74206   5.443   6.171   7.417
24727SOL    HW174207   5.417   6.260   7.381
24727SOL    HW274208   5.441   6.103   7.344
24728SOL     OW74209   5.086   6.730   6.131
24728SOL    HW174210   5.169   6.701   6.083
24728SOL    HW274211   5.037   6.797   6.075
24729SOL     OW74212   4.274   5.782   6.471
24729SOL    HW174213   4.269   5.777   6.571
24729SOL    HW274214   4.276   5.878   6.442
24730SOL     OW74215   4.732   7.042   6.063
24730SOL    HW174216   4.686   7.114   6.011
24730SOL    HW274217   4.728   7.062   6.161
24731SOL     OW74218   4.075   7.387   6.439
24731SOL    HW174219   4.125   7.301   6.445
24731SOL    HW274220   4.140   7.464   6.436
24732SOL     OW74221   5.519   6.652   6.459
24732SOL    HW174222   5.457   6.637   6.383
24732SOL    HW274223   5.467   6.663   6.544
24733SOL     OW74224   4.951   7.136   7.092
24733SOL    HW174225   4.957   7.059   7.156
24733SOL    HW274226   4.899   7.110   7.012
24734SOL     OW74227   4.045   6.529   5.828
24734SOL    HW174228   4.127   6.568   5.786
24734SOL    HW274229   4.018   6.447   5.779
24735SOL     OW74230   5.182   6.321   6.314
24735SOL    HW174231   5.177   6.256   6.389
24735SOL    HW274232   5.262   6.380   6.327
24736SOL     OW74233   4.185   6.852   7.313
24736SOL    HW174234   4.135   6.853   7.227
24736SOL    HW274235   4.122   6.834   7.389
24737SOL     OW74236   4.835   7.362   5.823
24737SOL    HW174237   4.775   7.300   5.873
24737SOL    HW274238   4.866   7.318   5.738
24738SOL     OW74239   3.926   5.871   7.084
24738SOL    HW174240   3.846   5.931   7.071
24738SOL    HW274241   3.916   5.822   7.170
24739SOL     OW74242   5.356   6.963   5.667
24739SOL    HW174243   5.324   7.057   5.657
24739SOL    HW274244   5.280   6.900   5.655
24740SOL     OW74245   4.188   7.329   5.909
24740SOL    HW174246   4.221   7.368   5.995
24740SOL    HW274247   4.264   7.322   5.844
24741SOL     OW74248   5.124   5.693   6.012
24741SOL    HW174249   5.100   5.656   5.922
24741SOL    HW274250   5.223   5.709   6.016
24742SOL     OW74251   3.973   7.371   6.827
24742SOL    HW174252   4.030   7.306   6.877
24742SOL    HW274253   3.957   7.338   6.734
24743SOL     OW74254   4.664   7.284   6.490
24743SOL    HW174255   4.744   7.227   6.511
24743SOL    HW274256   4.615   7.244   6.413
24744SOL     OW74257   4.106   6.286   6.066
24744SOL    HW174258   4.151   6.196   6.063
24744SOL    HW274259   4.012   6.275   6.099
24745SOL     OW74260   5.271   5.808   7.315
24745SOL    HW174261   5.266   5.845   7.407
24745SOL    HW274262   5.199   5.739   7.303
24746SOL     OW74263   4.338   5.708   5.703
24746SOL    HW174264   4.436   5.686   5.710
24746SOL    HW274265   4.307   5.691   5.610
24747SOL     OW74266   4.505   5.850   7.335
24747SOL    HW174267   4.572   5.789   7.378
24747SOL    HW274268   4.432   5.869   7.400
24748SOL     OW74269   4.612   7.100   6.781
24748SOL    HW174270   4.589   7.075   6.687
24748SOL    HW274271   4.673   7.031   6.820
24749SOL     OW74272   5.075   6.176   7.019
24749SOL    HW174273   5.103   6.133   7.104
24749SOL    HW274274   5.100   6.272   7.020
24750SOL     OW74275   4.527   6.988   6.510
24750SOL    HW174276   4.617   7.002   6.468
24750SOL    HW274277   4.456   6.990   6.439
24751SOL     OW74278   4.646   6.089   6.485
24751SOL    HW174279   4.621   6.080   6.389
24751SOL    HW274280   4.694   6.007   6.516
24752SOL     OW74281   4.263   5.650   6.098
24752SOL    HW174282   4.182   5.651   6.156
24752SOL    HW274283   4.266   5.733   6.043
24753SOL     OW74284   5.158   6.774   5.627
24753SOL    HW174285   5.190   6.698   5.684
24753SOL    HW274286   5.066   6.801   5.657
24754SOL     OW74287   4.021   5.621   5.757
24754SOL    HW174288   4.070   5.705   5.736
24754SOL    HW274289   4.083   5.556   5.802
24755SOL     OW74290   4.659   5.822   6.066
24755SOL    HW174291   4.611   5.863   5.988
24755SOL    HW274292   4.758   5.820   6.047
24756SOL     OW74293   4.800   6.269   7.050
24756SOL    HW174294   4.720   6.208   7.053
24756SOL    HW274295   4.881   6.216   7.026
24757SOL     OW74296   4.951   7.156   6.379
24757SOL    HW174297   4.972   7.230   6.314
24757SOL    HW274298   5.019   7.156   6.452
24758SOL     OW74299   4.995   7.383   6.177
24758SOL    HW174300   5.039   7.447   6.113
24758SOL    HW274301   4.945   7.435   6.247
24759SOL     OW74302   4.756   6.135   5.602
24759SOL    HW174303   4.715   6.217   5.563
24759SOL    HW274304   4.820   6.161   5.675
24760SOL     OW74305   3.802   6.142   6.972
24760SOL    HW174306   3.894   6.141   6.931
24760SOL    HW274307   3.796   6.216   7.039
24761SOL     OW74308   4.285   5.808   6.733
24761SOL    HW174309   4.323   5.724   6.770
24761SOL    HW274310   4.197   5.827   6.777
24762SOL     OW74311   4.590   6.040   6.228
24762SOL    HW174312   4.558   6.112   6.166
24762SOL    HW274313   4.614   5.959   6.175
24763SOL     OW74314   4.741   5.625   6.339
24763SOL    HW174315   4.669   5.630   6.270
24763SOL    HW274316   4.717   5.556   6.408
24764SOL     OW74317   5.153   6.759   6.453
24764SOL    HW174318   5.098   6.675   6.446
24764SOL    HW274319   5.179   6.788   6.361
24765SOL     OW74320   5.190   6.176   6.578
24765SOL    HW174321   5.160   6.081   6.585
24765SOL    HW274322   5.263   6.192   6.644
24766SOL     OW74323   5.581   6.419   5.963
24766SOL    HW174324   5.623   6.355   6.027
24766SOL    HW274325   5.543   6.368   5.885
24767SOL     OW74326   4.212   6.971   5.760
24767SOL    HW174327   4.125   6.956   5.807
24767SOL    HW274328   4.195   6.997   5.665
24768SOL     OW74329   5.388   6.866   6.243
24768SOL    HW174330   5.487   6.874   6.257
24768SOL    HW274331   5.343   6.950   6.274
24769SOL     OW74332   5.114   6.161   5.664
24769SOL    HW174333   5.060   6.140   5.745
24769SOL    HW274334   5.205   6.120   5.673
24770SOL     OW74335   4.251   5.842   5.914
24770SOL    HW174336   4.278   5.783   5.839
24770SOL    HW274337   4.251   5.937   5.883
24771SOL     OW74338   5.478   6.809   7.174
24771SOL    HW174339   5.569   6.770   7.161
24771SOL    HW274340   5.486   6.905   7.198
24772SOL     OW74341   4.788   6.933   6.926
24772SOL    HW174342   4.708   6.910   6.981
24772SOL    HW274343   4.871   6.907   6.975
24773SOL     OW74344   5.316   7.215   7.211
24773SOL    HW174345   5.343   7.249   7.121
24773SOL    HW274346   5.395   7.177   7.257
24774SOL     OW74347   4.835   6.781   6.686
24774SOL    HW174348   4.795   6.825   6.767
24774SOL    HW274349   4.794   6.818   6.603
24775SOL     OW74350   5.362   6.685   6.665
24775SOL    HW174351   5.367   6.766   6.724
24775SOL    HW274352   5.276   6.687   6.614
24776SOL     OW74353   4.639   5.675   6.988
24776SOL    HW174354   4.664   5.655   6.893
24776SOL    HW274355   4.711   5.731   7.030
24777SOL     OW74356   4.704   6.702   7.305
24777SOL    HW174357   4.605   6.708   7.315
24777SOL    HW274358   4.727   6.622   7.249
24778SOL     OW74359   4.429   6.636   5.954
24778SOL    HW174360   4.415   6.643   6.053
24778SOL    HW274361   4.513   6.585   5.936
24779SOL     OW74362   4.134   6.399   6.837
24779SOL    HW174363   4.220   6.411   6.887
24779SOL    HW274364   4.092   6.312   6.864
24780SOL     OW74365   4.998   5.972   6.848
24780SOL    HW174366   5.019   6.046   6.912
24780SOL    HW274367   4.909   5.989   6.805
24781SOL     OW74368   3.788   7.150   6.917
24781SOL    HW174369   3.742   7.232   6.883
24781SOL    HW274370   3.886   7.169   6.926
24782SOL     OW74371   4.091   6.686   6.087
24782SOL    HW174372   4.084   6.769   6.031
24782SOL    HW274373   4.095   6.606   6.027
24783SOL     OW74374   4.290   6.123   6.451
24783SOL    HW174375   4.302   6.189   6.377
24783SOL    HW274376   4.336   6.157   6.534
24784SOL     OW74377   4.976   6.934   5.974
24784SOL    HW174378   5.026   7.011   6.014
24784SOL    HW274379   4.881   6.936   6.006
24785SOL     OW74380   4.996   7.031   6.728
24785SOL    HW174381   5.043   7.044   6.815
24785SOL    HW274382   4.930   6.957   6.737
24786SOL     OW74383   5.306   6.225   6.058
24786SOL    HW174384   5.275   6.286   6.131
24786SOL    HW274385   5.356   6.277   5.989
24787SOL     OW74386   4.078   7.096   6.915
24787SOL    HW174387   4.057   7.052   6.828
24787SOL    HW274388   4.175   7.122   6.918
24788SOL     OW74389   4.126   6.337   7.184
24788SOL    HW174390   4.194   6.392   7.137
24788SOL    HW274391   4.166   6.249   7.211
24789SOL     OW74392   5.311   6.365   7.256
24789SOL    HW174393   5.219   6.403   7.251
24789SOL    HW274394   5.371   6.412   7.191
24790SOL     OW74395   4.737   5.691   7.356
24790SOL    HW174396   4.743   5.776   7.304
24790SOL    HW274397   4.769   5.615   7.299
24791SOL     OW74398   4.228   5.636   7.326
24791SOL    HW174399   4.186   5.579   7.256
24791SOL    HW274400   4.162   5.705   7.358
24792SOL     OW74401   4.297   6.456   6.615
24792SOL    HW174402   4.341   6.545   6.606
24792SOL    HW274403   4.234   6.456   6.692
24793SOL     OW74404   5.084   6.448   6.631
24793SOL    HW174405   5.009   6.448   6.565
24793SOL    HW274406   5.121   6.356   6.640
24794SOL     OW74407   4.933   6.111   5.861
24794SOL    HW174408   4.946   6.027   5.915
24794SOL    HW274409   4.904   6.185   5.921
24795SOL     OW74410   4.031   5.799   6.817
24795SOL    HW174411   4.008   5.836   6.907
24795SOL    HW274412   4.001   5.704   6.811
24796SOL     OW74413   3.761   6.896   6.868
24796SOL    HW174414   3.814   6.847   6.936
24796SOL    HW274415   3.783   6.994   6.873
24797SOL     OW74416   4.456   6.220   6.650
24797SOL    HW174417   4.515   6.194   6.574
24797SOL    HW274418   4.428   6.316   6.639
24798SOL     OW74419   5.452   6.521   7.440
24798SOL    HW174420   5.406   6.514   7.351
24798SOL    HW274421   5.390   6.565   7.506
24799SOL     OW74422   4.031   5.649   6.204
24799SOL    HW174423   4.020   5.743   6.237
24799SOL    HW274424   4.026   5.586   6.281
24800SOL     OW74425   5.346   5.953   5.960
24800SOL    HW174426   5.348   5.877   6.024
24800SOL    HW274427   5.298   6.030   6.000
24801SOL     OW74428   4.747   6.352   6.552
24801SOL    HW174429   4.762   6.373   6.648
24801SOL    HW274430   4.717   6.257   6.543
24802SOL     OW74431   4.704   7.159   7.286
24802SOL    HW174432   4.684   7.203   7.198
24802SOL    HW274433   4.743   7.068   7.270
24803SOL     OW74434   5.583   7.104   7.191
24803SOL    HW174435   5.597   7.131   7.096
24803SOL    HW274436   5.666   7.126   7.244
24804SOL     OW74437   4.074   6.484   7.390
24804SOL    HW174438   4.150   6.528   7.438
24804SOL    HW274439   4.109   6.437   7.308
24805SOL     OW74440   5.264   5.860   5.711
24805SOL    HW174441   5.203   5.785   5.734
24805SOL    HW274442   5.286   5.912   5.794
24806SOL     OW74443   5.027   6.424   5.628
24806SOL    HW174444   5.061   6.331   5.643
24806SOL    HW274445   5.045   6.451   5.533
24807SOL     OW74446   4.792   6.919   6.435
24807SOL    HW174447   4.799   6.835   6.380
24807SOL    HW274448   4.854   6.988   6.399
24808SOL     OW74449   4.043   6.396   6.535
24808SOL    HW174450   4.136   6.432   6.540
24808SOL    HW274451   4.037   6.311   6.587
24809SOL     OW74452   4.063   6.095   6.592
24809SOL    HW174453   4.011   6.012   6.575
24809SOL    HW274454   4.140   6.100   6.528
24810SOL     OW74455   4.862   5.966   7.264
24810SOL    HW174456   4.817   6.029   7.328
24810SOL    HW274457   4.955   5.997   7.247
24811SOL     OW74458   4.884   5.793   7.063
24811SOL    HW174459   4.884   5.857   7.140
24811SOL    HW274460   4.912   5.841   6.980
24812SOL     OW74461   3.732   6.912   5.786
24812SOL    HW174462   3.639   6.933   5.755
24812SOL    HW274463   3.742   6.813   5.799
24813SOL     OW74464   3.812   7.387   6.513
24813SOL    HW174465   3.770   7.301   6.486
24813SOL    HW274466   3.906   7.390   6.479
24814SOL     OW74467   4.228   7.154   6.496
24814SOL    HW174468   4.294   7.228   6.505
24814SOL    HW274469   4.272   7.075   6.454
24815SOL     OW74470   4.726   6.382   6.824
24815SOL    HW174471   4.767   6.350   6.910
24815SOL    HW274472   4.630   6.355   6.821
24816SOL     OW74473   3.764   6.130   6.700
24816SOL    HW174474   3.849   6.097   6.659
24816SOL    HW274475   3.777   6.145   6.798
24817SOL     OW74476   3.913   6.106   7.308
24817SOL    HW174477   3.972   6.066   7.238
24817SOL    HW274478   3.855   6.177   7.267
24818SOL     OW74479   5.093   6.536   7.246
24818SOL    HW174480   5.132   6.625   7.266
24818SOL    HW274481   5.103   6.516   7.149
24819SOL     OW74482   4.539   6.158   5.911
24819SOL    HW174483   4.546   6.069   5.865
24819SOL    HW274484   4.445   6.192   5.903
24820SOL     OW74485   5.381   6.190   6.792
24820SOL    HW174486   5.343   6.121   6.854
24820SOL    HW274487   5.463   6.154   6.748
24821SOL     OW74488   3.976   7.150   7.330
24821SOL    HW174489   3.946   7.207   7.406
24821SOL    HW274490   3.969   7.053   7.356
24822SOL     OW74491   4.395   6.050   6.855
24822SOL    HW174492   4.361   5.961   6.825
24822SOL    HW274493   4.421   6.104   6.775
24823SOL     OW74494   4.654   7.264   7.051
24823SOL    HW174495   4.630   7.246   6.956
24823SOL    HW274496   4.684   7.358   7.061
24824SOL     OW74497   4.197   6.086   5.777
24824SOL    HW174498   4.258   6.166   5.781
24824SOL    HW274499   4.102   6.117   5.784
24825SOL     OW74500   3.883   6.723   7.052
24825SOL    HW174501   3.905   6.662   7.128
24825SOL    HW274502   3.893   6.674   6.966
24826SOL     OW74503   5.071   6.645   6.820
24826SOL    HW174504   5.095   6.582   6.746
24826SOL    HW274505   4.981   6.685   6.802
24827SOL     OW74506   5.026   6.441   5.895
24827SOL    HW174507   4.940   6.410   5.937
24827SOL    HW274508   5.022   6.427   5.796
24828SOL     OW74509   5.483   7.333   6.740
24828SOL    HW174510   5.544   7.363   6.667
24828SOL    HW274511   5.445   7.244   6.718
24829SOL     OW74512   4.976   7.317   6.714
24829SOL    HW174513   5.060   7.322   6.660
24829SOL    HW274514   4.953   7.221   6.732
24830SOL     OW74515   3.807   6.844   6.608
24830SOL    HW174516   3.802   6.843   6.708
24830SOL    HW274517   3.724   6.803   6.570
24831SOL     OW74518   4.412   7.248   7.302
24831SOL    HW174519   4.356   7.329   7.311
24831SOL    HW274520   4.464   7.252   7.216
24832SOL     OW74521   5.450   5.721   6.109
24832SOL    HW174522   5.523   5.704   6.042
24832SOL    HW274523   5.419   5.634   6.147
24833SOL     OW74524   5.112   7.159   6.063
24833SOL    HW174525   5.179   7.171   5.989
24833SOL    HW274526   5.072   7.248   6.086
24834SOL     OW74527   3.854   7.380   7.437
24834SOL    HW174528   3.813   7.306   7.490
24834SOL    HW274529   3.918   7.431   7.495
24835SOL     OW74530   5.004   6.513   6.258
24835SOL    HW174531   5.064   6.432   6.260
24835SOL    HW274532   5.044   6.582   6.198
24836SOL     OW74533   4.554   6.859   7.008
24836SOL    HW174534   4.549   6.892   7.103
24836SOL    HW274535   4.468   6.878   6.962
24837SOL     OW74536   4.396   7.202   5.740
24837SOL    HW174537   4.405   7.212   5.641
24837SOL    HW274538   4.356   7.113   5.761
24838SOL     OW74539   5.374   7.306   6.980
24838SOL    HW174540   5.427   7.316   6.896
24838SOL    HW274541   5.347   7.396   7.014
24839SOL     OW74542   5.565   5.761   6.549
24839SOL    HW174543   5.604   5.676   6.513
24839SOL    HW274544   5.467   5.763   6.530
24840SOL     OW74545   3.987   5.912   6.306
24840SOL    HW174546   3.908   5.963   6.272
24840SOL    HW274547   3.978   5.897   6.404
24841SOL     OW74548   4.546   6.588   6.958
24841SOL    HW174549   4.586   6.587   6.866
24841SOL    HW274550   4.556   6.680   6.998
24842SOL     OW74551   4.640   6.496   5.877
24842SOL    HW174552   4.703   6.534   5.809
24842SOL    HW274553   4.680   6.413   5.916
24843SOL     OW74554   5.228   7.193   5.630
24843SOL    HW174555   5.136   7.230   5.637
24843SOL    HW274556   5.266   7.213   5.540
24844SOL     OW74557   4.096   6.874   7.076
24844SOL    HW174558   4.083   6.967   7.042
24844SOL    HW274559   4.012   6.822   7.063
24845SOL     OW74560   5.338   6.878   6.875
24845SOL    HW174561   5.398   6.881   6.955
24845SOL    HW274562   5.263   6.942   6.888
24846SOL     OW74563   4.763   6.684   6.282
24846SOL    HW174564   4.693   6.637   6.336
24846SOL    HW274565   4.822   6.616   6.239
24847SOL     OW74566   4.738   5.822   6.557
24847SOL    HW174567   4.730   5.786   6.464
24847SOL    HW274568   4.736   5.746   6.622
24848SOL     OW74569   4.314   7.073   6.077
24848SOL    HW174570   4.356   7.015   6.007
24848SOL    HW274571   4.270   7.152   6.033
24849SOL     OW74572   5.433   5.971   6.967
24849SOL    HW174573   5.506   6.040   6.971
24849SOL    HW274574   5.461   5.896   6.908
24850SOL     OW74575   3.979   6.934   5.876
24850SOL    HW174576   3.883   6.935   5.849
24850SOL    HW274577   3.991   6.987   5.960
24851SOL     OW74578   3.829   6.599   7.312
24851SOL    HW174579   3.752   6.566   7.366
24851SOL    HW274580   3.914   6.569   7.354
24852SOL     OW74581   4.396   5.789   7.075
24852SOL    HW174582   4.486   5.773   7.035
24852SOL    HW274583   4.404   5.794   7.174
24853SOL     OW74584   3.799   5.931   5.619
24853SOL    HW174585   3.707   5.903   5.590
24853SOL    HW274586   3.830   6.008   5.563
24854SOL     OW74587   5.164   6.442   6.984
24854SOL    HW174588   5.107   6.494   6.921
24854SOL    HW274589   5.260   6.454   6.960
24855SOL     OW74590   3.796   5.752   5.904
24855SOL    HW174591   3.779   5.835   5.850
24855SOL    HW274592   3.886   5.715   5.882
24856SOL     OW74593   4.907   6.921   5.705
24856SOL    HW174594   4.808   6.910   5.707
24856SOL    HW274595   4.941   6.936   5.798
24857SOL     OW74596   4.337   6.428   7.017
24857SOL    HW174597   4.393   6.509   7.000
24857SOL    HW274598   4.396   6.348   7.020
24858SOL     OW74599   5.217   7.353   6.545
24858SOL    HW174600   5.250   7.417   6.476
24858SOL    HW274601   5.283   7.347   6.620
24859SOL     OW74602   4.440   6.151   7.294
24859SOL    HW174603   4.459   6.216   7.368
24859SOL    HW274604   4.500   6.071   7.303
24860SOL     OW74605   5.174   6.806   7.219
24860SOL    HW174606   5.165   6.796   7.318
24860SOL    HW274607   5.270   6.799   7.193
24861SOL     OW74608   4.114   7.327   7.146
24861SOL    HW174609   4.023   7.368   7.144
24861SOL    HW274610   4.107   7.233   7.178
24862SOL     OW74611   5.398   6.469   6.840
24862SOL    HW174612   5.371   6.380   6.803
24862SOL    HW274613   5.399   6.537   6.767
24863SOL     OW74614   4.949   5.911   6.035
24863SOL    HW174615   5.014   5.837   6.024
24863SOL    HW274616   4.969   5.961   6.119
24864SOL     OW74617   4.318   6.331   6.238
24864SOL    HW174618   4.368   6.416   6.219
24864SOL    HW274619   4.230   6.333   6.190
24865SOL     OW74620   5.501   5.928   7.228
24865SOL    HW174621   5.484   5.959   7.134
24865SOL    HW274622   5.417   5.891   7.266
24866SOL     OW74623   5.454   6.520   7.103
24866SOL    HW174624   5.492   6.611   7.118
24866SOL    HW274625   5.446   6.503   7.004
24867SOL     OW74626   4.583   6.960   5.602
24867SOL    HW174627   4.537   6.975   5.690
24867SOL    HW274628   4.627   7.045   5.572
24868SOL     OW74629   4.385   7.376   6.539
24868SOL    HW174630   4.339   7.464   6.526
24868SOL    HW274631   4.484   7.388   6.532
24869SOL     OW74632   4.583   6.542   6.447
24869SOL    HW174633   4.637   6.473   6.495
24869SOL    HW274634   4.551   6.611   6.513
24870SOL     OW74635   4.807   6.570   5.673
24870SOL    HW174636   4.784   6.623   5.591
24870SOL    HW274637   4.888   6.514   5.654
24871SOL     OW74638   5.585   7.155   6.437
24871SOL    HW174639   5.514   7.143   6.367
24871SOL    HW274640   5.586   7.076   6.497
24872SOL     OW74641   3.945   6.900   7.430
24872SOL    HW174642   3.880   6.827   7.409
24872SOL    HW274643   3.949   6.914   7.528
24873SOL     OW74644   3.803   6.826   6.239
24873SOL    HW174645   3.802   6.779   6.327
24873SOL    HW274646   3.885   6.798   6.188
24874SOL     OW74647   4.396   6.977   7.210
24874SOL    HW174648   4.318   6.927   7.248
24874SOL    HW274649   4.393   7.072   7.241
24875SOL     OW74650   5.548   5.778   6.813
24875SOL    HW174651   5.544   5.688   6.857
24875SOL    HW274652   5.551   5.767   6.714
24876SOL     OW74653   4.152   6.010   6.106
24876SOL    HW174654   4.182   5.938   6.044
24876SOL    HW274655   4.113   5.970   6.189
24877SOL     OW74656   5.429   7.073   6.690
24877SOL    HW174657   5.336   7.048   6.663
24877SOL    HW274658   5.455   7.023   6.772
24878SOL     OW74659   4.041   6.133   6.866
24878SOL    HW174660   4.079   6.074   6.938
24878SOL    HW274661   4.081   6.107   6.778
24879SOL     OW74662   4.536   7.172   6.273
24879SOL    HW174663   4.568   7.182   6.179
24879SOL    HW274664   4.457   7.110   6.275
24880SOL     OW74665   5.148   5.800   6.698
24880SOL    HW174666   5.200   5.735   6.753
24880SOL    HW274667   5.099   5.863   6.759
24881SOL     OW74668   4.725   5.620   6.740
24881SOL    HW174669   4.662   5.548   6.709
24881SOL    HW274670   4.818   5.584   6.740
24882SOL     OW74671   4.494   6.916   5.887
24882SOL    HW174672   4.448   6.829   5.904
24882SOL    HW274673   4.585   6.913   5.928
24883SOL     OW74674   4.342   7.153   6.870
24883SOL    HW174675   4.337   7.235   6.927
24883SOL    HW274676   4.431   7.150   6.825
24884SOL     OW74677   5.076   5.638   5.754
24884SOL    HW174678   5.111   5.597   5.670
24884SOL    HW274679   4.986   5.600   5.774
24885SOL     OW74680   5.024   6.039   6.277
24885SOL    HW174681   4.965   6.119   6.281
24885SOL    HW274682   5.039   6.004   6.370
24886SOL     OW74683   5.317   5.807   6.468
24886SOL    HW174684   5.233   5.806   6.522
24886SOL    HW274685   5.319   5.890   6.412
24887SOL     OW74686   3.763   6.663   5.886
24887SOL    HW174687   3.862   6.652   5.877
24887SOL    HW274688   3.723   6.577   5.918
24888SOL     OW74689   4.599   7.232   5.923
24888SOL    HW174690   4.522   7.197   5.869
24888SOL    HW274691   4.567   7.303   5.985
24889SOL     OW74692   3.954   6.214   7.561
24889SOL    HW174693   3.861   6.212   7.598
24889SOL    HW274694   3.955   6.175   7.469
24890SOL     OW74695   3.949   5.861   8.444
24890SOL    HW174696   3.984   5.844   8.536
24890SOL    HW274697   3.861   5.816   8.432
24891SOL     OW74698   3.743   5.954   8.095
24891SOL    HW174699   3.661   5.997   8.134
24891SOL    HW274700   3.715   5.881   8.032
24892SOL     OW74701   4.293   6.861   8.613
24892SOL    HW174702   4.200   6.854   8.576
24892SOL    HW274703   4.304   6.950   8.657
24893SOL     OW74704   5.279   7.097   8.151
24893SOL    HW174705   5.222   7.081   8.232
24893SOL    HW274706   5.220   7.107   8.071
24894SOL     OW74707   4.859   6.289   8.165
24894SOL    HW174708   4.916   6.367   8.140
24894SOL    HW274709   4.799   6.315   8.241
24895SOL     OW74710   5.479   6.193   7.679
24895SOL    HW174711   5.467   6.180   7.580
24895SOL    HW274712   5.449   6.112   7.728
24896SOL     OW74713   4.492   6.730   8.471
24896SOL    HW174714   4.414   6.747   8.531
24896SOL    HW274715   4.526   6.817   8.435
24897SOL     OW74716   4.574   6.384   9.271
24897SOL    HW174717   4.570   6.460   9.336
24897SOL    HW274718   4.596   6.420   9.180
24898SOL     OW74719   4.409   6.598   8.113
24898SOL    HW174720   4.478   6.582   8.183
24898SOL    HW274721   4.336   6.655   8.151
24899SOL     OW74722   4.410   6.747   9.251
24899SOL    HW174723   4.470   6.826   9.265
24899SOL    HW274724   4.324   6.778   9.210
24900SOL     OW74725   4.059   7.021   8.509
24900SOL    HW174726   3.981   6.990   8.456
24900SOL    HW274727   4.117   7.079   8.452
24901SOL     OW74728   5.184   7.091   8.787
24901SOL    HW174729   5.208   7.185   8.813
24901SOL    HW274730   5.168   7.037   8.869
24902SOL     OW74731   4.162   5.978   8.947
24902SOL    HW174732   4.244   5.922   8.956
24902SOL    HW274733   4.081   5.920   8.951
24903SOL     OW74734   5.327   6.033   8.185
24903SOL    HW174735   5.253   6.079   8.135
24903SOL    HW274736   5.378   6.101   8.238
24904SOL     OW74737   3.955   7.299   7.931
24904SOL    HW174738   3.989   7.376   7.985
24904SOL    HW274739   3.999   7.299   7.841
24905SOL     OW74740   4.851   6.927   9.138
24905SOL    HW174741   4.898   6.927   9.226
24905SOL    HW274742   4.803   6.840   9.127
24906SOL     OW74743   3.954   7.020   7.986
24906SOL    HW174744   3.928   7.116   7.986
24906SOL    HW274745   3.883   6.966   8.031
24907SOL     OW74746   3.964   6.677   8.334
24907SOL    HW174747   3.978   6.593   8.386
24907SOL    HW274748   3.909   6.741   8.389
24908SOL     OW74749   4.344   7.372   8.887
24908SOL    HW174750   4.252   7.355   8.922
24908SOL    HW274751   4.372   7.464   8.913
24909SOL     OW74752   4.330   6.550   7.571
24909SOL    HW174753   4.337   6.634   7.517
24909SOL    HW274754   4.376   6.563   7.659
24910SOL     OW74755   5.318   5.700   8.928
24910SOL    HW174756   5.300   5.767   8.856
24910SOL    HW274757   5.315   5.746   9.017
24911SOL     OW74758   3.846   6.229   8.011
24911SOL    HW174759   3.801   6.141   8.028
24911SOL    HW274760   3.845   6.283   8.095
24912SOL     OW74761   5.566   7.353   7.807
24912SOL    HW174762   5.620   7.324   7.887
24912SOL    HW274763   5.596   7.443   7.778
24913SOL     OW74764   3.751   7.182   7.565
24913SOL    HW174765   3.732   7.086   7.586
24913SOL    HW274766   3.718   7.240   7.640
24914SOL     OW74767   5.413   6.508   8.060
24914SOL    HW174768   5.508   6.479   8.068
24914SOL    HW274769   5.405   6.573   7.985
24915SOL     OW74770   5.365   6.694   7.880
24915SOL    HW174771   5.451   6.696   7.828
24915SOL    HW274772   5.379   6.741   7.968
24916SOL     OW74773   3.837   6.323   9.045
24916SOL    HW174774   3.925   6.310   9.090
24916SOL    HW274775   3.824   6.420   9.023
24917SOL     OW74776   4.337   6.951   8.174
24917SOL    HW174777   4.288   6.864   8.183
24917SOL    HW274778   4.314   6.994   8.087
24918SOL     OW74779   5.017   6.814   8.871
24918SOL    HW174780   5.054   6.741   8.813
24918SOL    HW274781   5.069   6.819   8.956
24919SOL     OW74782   4.533   5.590   7.950
24919SOL    HW174783   4.573   5.681   7.941
24919SOL    HW274784   4.433   5.598   7.956
24920SOL     OW74785   3.921   6.562   8.712
24920SOL    HW174786   4.010   6.517   8.698
24920SOL    HW274787   3.848   6.497   8.693
24921SOL     OW74788   5.249   6.585   7.638
24921SOL    HW174789   5.186   6.509   7.651
24921SOL    HW274790   5.297   6.603   7.724
24922SOL     OW74791   4.911   7.378   9.064
24922SOL    HW174792   4.935   7.438   8.988
24922SOL    HW274793   4.918   7.283   9.034
24923SOL     OW74794   4.041   5.837   9.249
24923SOL    HW174795   4.112   5.908   9.255
24923SOL    HW274796   3.953   5.876   9.277
24924SOL     OW74797   5.190   7.003   8.401
24924SOL    HW174798   5.131   7.009   8.481
24924SOL    HW274799   5.175   6.915   8.355
24925SOL     OW74800   5.391   7.300   8.020
24925SOL    HW174801   5.350   7.277   7.932
24925SOL    HW274802   5.373   7.226   8.085
24926SOL     OW74803   4.322   6.315   7.718
24926SOL    HW174804   4.346   6.384   7.650
24926SOL    HW274805   4.244   6.348   7.772
24927SOL     OW74806   5.005   5.931   8.392
24927SOL    HW174807   4.919   5.881   8.379
24927SOL    HW274808   5.067   5.877   8.448
24928SOL     OW74809   5.300   7.248   7.755
24928SOL    HW174810   5.389   7.294   7.758
24928SOL    HW274811   5.279   7.224   7.660
24929SOL     OW74812   4.531   6.191   8.913
24929SOL    HW174813   4.484   6.188   9.002
24929SOL    HW274814   4.480   6.136   8.847
24930SOL     OW74815   5.118   6.055   9.122
24930SOL    HW174816   5.098   6.098   9.210
24930SOL    HW274817   5.196   5.993   9.131
24931SOL     OW74818   4.697   6.476   9.020
24931SOL    HW174819   4.743   6.392   8.991
24931SOL    HW274820   4.641   6.510   8.945
24932SOL     OW74821   4.715   5.996   8.690
24932SOL    HW174822   4.638   6.030   8.744
24932SOL    HW274823   4.681   5.945   8.611
24933SOL     OW74824   4.765   6.287   7.877
24933SOL    HW174825   4.791   6.283   7.973
24933SOL    HW274826   4.680   6.236   7.863
24934SOL     OW74827   3.800   6.397   8.237
24934SOL    HW174828   3.899   6.385   8.246
24934SOL    HW274829   3.776   6.492   8.258
24935SOL     OW74830   3.854   7.407   9.019
24935SOL    HW174831   3.844   7.392   9.118
24935SOL    HW274832   3.768   7.443   8.983
24936SOL     OW74833   4.589   5.934   7.643
24936SOL    HW174834   4.648   5.997   7.594
24936SOL    HW274835   4.608   5.840   7.614
24937SOL     OW74836   5.443   6.171   9.279
24937SOL    HW174837   5.417   6.260   9.243
24937SOL    HW274838   5.441   6.103   9.206
24938SOL     OW74839   5.086   6.730   7.993
24938SOL    HW174840   5.169   6.701   7.945
24938SOL    HW274841   5.037   6.797   7.937
24939SOL     OW74842   4.274   5.782   8.333
24939SOL    HW174843   4.269   5.777   8.433
24939SOL    HW274844   4.276   5.878   8.304
24940SOL     OW74845   4.732   7.042   7.925
24940SOL    HW174846   4.686   7.114   7.873
24940SOL    HW274847   4.728   7.062   8.023
24941SOL     OW74848   4.075   7.387   8.301
24941SOL    HW174849   4.125   7.301   8.307
24941SOL    HW274850   4.140   7.464   8.298
24942SOL     OW74851   5.519   6.652   8.321
24942SOL    HW174852   5.457   6.637   8.245
24942SOL    HW274853   5.467   6.663   8.406
24943SOL     OW74854   4.951   7.136   8.954
24943SOL    HW174855   4.957   7.059   9.018
24943SOL    HW274856   4.899   7.110   8.874
24944SOL     OW74857   4.045   6.529   7.690
24944SOL    HW174858   4.127   6.568   7.648
24944SOL    HW274859   4.018   6.447   7.641
24945SOL     OW74860   5.182   6.321   8.176
24945SOL    HW174861   5.177   6.256   8.251
24945SOL    HW274862   5.262   6.380   8.189
24946SOL     OW74863   4.185   6.852   9.175
24946SOL    HW174864   4.135   6.853   9.089
24946SOL    HW274865   4.122   6.834   9.251
24947SOL     OW74866   4.835   7.362   7.685
24947SOL    HW174867   4.775   7.300   7.735
24947SOL    HW274868   4.866   7.318   7.600
24948SOL     OW74869   3.926   5.871   8.946
24948SOL    HW174870   3.846   5.931   8.933
24948SOL    HW274871   3.916   5.822   9.032
24949SOL     OW74872   5.356   6.963   7.529
24949SOL    HW174873   5.324   7.057   7.519
24949SOL    HW274874   5.280   6.900   7.517
24950SOL     OW74875   4.188   7.329   7.771
24950SOL    HW174876   4.221   7.368   7.857
24950SOL    HW274877   4.264   7.322   7.706
24951SOL     OW74878   5.124   5.693   7.874
24951SOL    HW174879   5.100   5.656   7.784
24951SOL    HW274880   5.223   5.709   7.878
24952SOL     OW74881   3.973   7.371   8.689
24952SOL    HW174882   4.030   7.306   8.739
24952SOL    HW274883   3.957   7.338   8.596
24953SOL     OW74884   4.664   7.284   8.352
24953SOL    HW174885   4.744   7.227   8.373
24953SOL    HW274886   4.615   7.244   8.275
24954SOL     OW74887   4.106   6.286   7.928
24954SOL    HW174888   4.151   6.196   7.925
24954SOL    HW274889   4.012   6.275   7.961
24955SOL     OW74890   5.271   5.808   9.177
24955SOL    HW174891   5.266   5.845   9.269
24955SOL    HW274892   5.199   5.739   9.165
24956SOL     OW74893   4.338   5.708   7.565
24956SOL    HW174894   4.436   5.686   7.572
24956SOL    HW274895   4.307   5.691   7.472
24957SOL     OW74896   4.505   5.850   9.197
24957SOL    HW174897   4.572   5.789   9.240
24957SOL    HW274898   4.432   5.869   9.262
24958SOL     OW74899   4.612   7.100   8.643
24958SOL    HW174900   4.589   7.075   8.549
24958SOL    HW274901   4.673   7.031   8.682
24959SOL     OW74902   5.075   6.176   8.881
24959SOL    HW174903   5.103   6.133   8.966
24959SOL    HW274904   5.100   6.272   8.882
24960SOL     OW74905   4.527   6.988   8.372
24960SOL    HW174906   4.617   7.002   8.330
24960SOL    HW274907   4.456   6.990   8.301
24961SOL     OW74908   4.646   6.089   8.347
24961SOL    HW174909   4.621   6.080   8.251
24961SOL    HW274910   4.694   6.007   8.378
24962SOL     OW74911   4.263   5.650   7.960
24962SOL    HW174912   4.182   5.651   8.018
24962SOL    HW274913   4.266   5.733   7.905
24963SOL     OW74914   4.021   5.621   7.619
24963SOL    HW174915   4.070   5.705   7.598
24963SOL    HW274916   4.083   5.556   7.664
24964SOL     OW74917   4.659   5.822   7.928
24964SOL    HW174918   4.611   5.863   7.850
24964SOL    HW274919   4.758   5.820   7.909
24965SOL     OW74920   4.800   6.269   8.912
24965SOL    HW174921   4.720   6.208   8.915
24965SOL    HW274922   4.881   6.216   8.888
24966SOL     OW74923   4.951   7.156   8.241
24966SOL    HW174924   4.972   7.230   8.176
24966SOL    HW274925   5.019   7.156   8.314
24967SOL     OW74926   4.183   6.738   8.189
24967SOL    HW174927   4.112   6.711   8.254
24967SOL    HW274928   4.157   6.710   8.096
24968SOL     OW74929   4.995   7.383   8.039
24968SOL    HW174930   5.039   7.447   7.975
24968SOL    HW274931   4.945   7.435   8.109
24969SOL     OW74932   4.756   6.135   7.464
24969SOL    HW174933   4.715   6.217   7.425
24969SOL    HW274934   4.820   6.161   7.537
24970SOL     OW74935   3.802   6.142   8.834
24970SOL    HW174936   3.894   6.141   8.793
24970SOL    HW274937   3.796   6.216   8.901
24971SOL     OW74938   4.285   5.808   8.595
24971SOL    HW174939   4.323   5.724   8.632
24971SOL    HW274940   4.197   5.827   8.639
24972SOL     OW74941   4.590   6.040   8.090
24972SOL    HW174942   4.558   6.112   8.028
24972SOL    HW274943   4.614   5.959   8.037
24973SOL     OW74944   4.741   5.625   8.201
24973SOL    HW174945   4.669   5.630   8.132
24973SOL    HW274946   4.717   5.556   8.270
24974SOL     OW74947   5.153   6.759   8.315
24974SOL    HW174948   5.098   6.675   8.308
24974SOL    HW274949   5.179   6.788   8.223
24975SOL     OW74950   5.190   6.176   8.440
24975SOL    HW174951   5.160   6.081   8.447
24975SOL    HW274952   5.263   6.192   8.506
24976SOL     OW74953   5.581   6.419   7.825
24976SOL    HW174954   5.623   6.355   7.889
24976SOL    HW274955   5.543   6.368   7.747
24977SOL     OW74956   4.212   6.971   7.622
24977SOL    HW174957   4.125   6.956   7.669
24977SOL    HW274958   4.195   6.997   7.527
24978SOL     OW74959   5.388   6.866   8.105
24978SOL    HW174960   5.487   6.874   8.119
24978SOL    HW274961   5.343   6.950   8.136
24979SOL     OW74962   5.114   6.161   7.526
24979SOL    HW174963   5.060   6.140   7.607
24979SOL    HW274964   5.205   6.120   7.535
24980SOL     OW74965   4.251   5.842   7.776
24980SOL    HW174966   4.278   5.783   7.701
24980SOL    HW274967   4.251   5.937   7.745
24981SOL     OW74968   5.478   6.809   9.036
24981SOL    HW174969   5.569   6.770   9.023
24981SOL    HW274970   5.486   6.905   9.060
24982SOL     OW74971   4.788   6.933   8.788
24982SOL    HW174972   4.708   6.910   8.843
24982SOL    HW274973   4.871   6.907   8.837
24983SOL     OW74974   5.316   7.215   9.073
24983SOL    HW174975   5.343   7.249   8.983
24983SOL    HW274976   5.395   7.177   9.119
24984SOL     OW74977   4.835   6.781   8.548
24984SOL    HW174978   4.795   6.825   8.629
24984SOL    HW274979   4.794   6.818   8.465
24985SOL     OW74980   5.362   6.685   8.527
24985SOL    HW174981   5.367   6.766   8.586
24985SOL    HW274982   5.276   6.687   8.476
24986SOL     OW74983   4.639   5.675   8.850
24986SOL    HW174984   4.664   5.655   8.755
24986SOL    HW274985   4.711   5.731   8.892
24987SOL     OW74986   4.704   6.702   9.167
24987SOL    HW174987   4.605   6.708   9.177
24987SOL    HW274988   4.727   6.622   9.111
24988SOL     OW74989   4.429   6.636   7.816
24988SOL    HW174990   4.415   6.643   7.915
24988SOL    HW274991   4.513   6.585   7.798
24989SOL     OW74992   4.134   6.399   8.699
24989SOL    HW174993   4.220   6.411   8.749
24989SOL    HW274994   4.092   6.312   8.726
24990SOL     OW74995   4.998   5.972   8.710
24990SOL    HW174996   5.019   6.046   8.774
24990SOL    HW274997   4.909   5.989   8.667
24991SOL     OW74998   3.788   7.150   8.779
24991SOL    HW174999   3.742   7.232   8.745
24991SOL    HW275000   3.886   7.169   8.788
24992SOL     OW75001   4.091   6.686   7.949
24992SOL    HW175002   4.084   6.769   7.893
24992SOL    HW275003   4.095   6.606   7.889
24993SOL     OW75004   4.290   6.123   8.313
24993SOL    HW175005   4.302   6.189   8.239
24993SOL    HW275006   4.336   6.157   8.396
24994SOL     OW75007   4.976   6.934   7.836
24994SOL    HW175008   5.026   7.011   7.876
24994SOL    HW275009   4.881   6.936   7.868
24995SOL     OW75010   4.996   7.031   8.590
24995SOL    HW175011   5.043   7.044   8.677
24995SOL    HW275012   4.930   6.957   8.599
24996SOL     OW75013   5.306   6.225   7.920
24996SOL    HW175014   5.275   6.286   7.993
24996SOL    HW275015   5.356   6.277   7.851
24997SOL     OW75016   4.078   7.096   8.777
24997SOL    HW175017   4.057   7.052   8.690
24997SOL    HW275018   4.175   7.122   8.780
24998SOL     OW75019   4.126   6.337   9.046
24998SOL    HW175020   4.194   6.392   8.999
24998SOL    HW275021   4.166   6.249   9.073
24999SOL     OW75022   5.311   6.365   9.118
24999SOL    HW175023   5.219   6.403   9.113
24999SOL    HW275024   5.371   6.412   9.053
25000SOL     OW75025   4.737   5.691   9.218
25000SOL    HW175026   4.743   5.776   9.166
25000SOL    HW275027   4.769   5.615   9.161
25001SOL     OW75028   4.228   5.636   9.188
25001SOL    HW175029   4.186   5.579   9.118
25001SOL    HW275030   4.162   5.705   9.220
25002SOL     OW75031   4.297   6.456   8.477
25002SOL    HW175032   4.341   6.545   8.468
25002SOL    HW275033   4.234   6.456   8.554
25003SOL     OW75034   5.084   6.448   8.493
25003SOL    HW175035   5.009   6.448   8.427
25003SOL    HW275036   5.121   6.356   8.502
25004SOL     OW75037   4.933   6.111   7.723
25004SOL    HW175038   4.946   6.027   7.777
25004SOL    HW275039   4.904   6.185   7.783
25005SOL     OW75040   4.031   5.799   8.679
25005SOL    HW175041   4.008   5.836   8.769
25005SOL    HW275042   4.001   5.704   8.673
25006SOL     OW75043   3.761   6.896   8.730
25006SOL    HW175044   3.814   6.847   8.798
25006SOL    HW275045   3.783   6.994   8.735
25007SOL     OW75046   4.456   6.220   8.512
25007SOL    HW175047   4.515   6.194   8.436
25007SOL    HW275048   4.428   6.316   8.501
25008SOL     OW75049   5.452   6.521   9.302
25008SOL    HW175050   5.406   6.514   9.213
25008SOL    HW275051   5.390   6.565   9.368
25009SOL     OW75052   4.031   5.649   8.066
25009SOL    HW175053   4.020   5.743   8.099
25009SOL    HW275054   4.026   5.586   8.143
25010SOL     OW75055   5.346   5.953   7.822
25010SOL    HW175056   5.348   5.877   7.886
25010SOL    HW275057   5.298   6.030   7.862
25011SOL     OW75058   4.747   6.352   8.414
25011SOL    HW175059   4.762   6.373   8.510
25011SOL    HW275060   4.717   6.257   8.405
25012SOL     OW75061   4.704   7.159   9.148
25012SOL    HW175062   4.684   7.203   9.060
25012SOL    HW275063   4.743   7.068   9.132
25013SOL     OW75064   5.583   7.104   9.053
25013SOL    HW175065   5.597   7.131   8.958
25013SOL    HW275066   5.666   7.126   9.106
25014SOL     OW75067   4.074   6.484   9.252
25014SOL    HW175068   4.150   6.528   9.300
25014SOL    HW275069   4.109   6.437   9.170
25015SOL     OW75070   5.264   5.860   7.573
25015SOL    HW175071   5.203   5.785   7.596
25015SOL    HW275072   5.286   5.912   7.656
25016SOL     OW75073   5.027   6.424   7.490
25016SOL    HW175074   5.061   6.331   7.505
25016SOL    HW275075   5.045   6.451   7.395
25017SOL     OW75076   4.792   6.919   8.297
25017SOL    HW175077   4.799   6.835   8.242
25017SOL    HW275078   4.854   6.988   8.261
25018SOL     OW75079   4.043   6.396   8.397
25018SOL    HW175080   4.136   6.432   8.402
25018SOL    HW275081   4.037   6.311   8.449
25019SOL     OW75082   4.063   6.095   8.454
25019SOL    HW175083   4.011   6.012   8.437
25019SOL    HW275084   4.140   6.100   8.390
25020SOL     OW75085   4.862   5.966   9.126
25020SOL    HW175086   4.817   6.029   9.190
25020SOL    HW275087   4.955   5.997   9.109
25021SOL     OW75088   4.884   5.793   8.925
25021SOL    HW175089   4.884   5.857   9.002
25021SOL    HW275090   4.912   5.841   8.842
25022SOL     OW75091   3.732   6.912   7.648
25022SOL    HW175092   3.639   6.933   7.617
25022SOL    HW275093   3.742   6.813   7.661
25023SOL     OW75094   3.812   7.387   8.375
25023SOL    HW175095   3.770   7.301   8.348
25023SOL    HW275096   3.906   7.390   8.341
25024SOL     OW75097   4.228   7.154   8.358
25024SOL    HW175098   4.294   7.228   8.367
25024SOL    HW275099   4.272   7.075   8.316
25025SOL     OW75100   4.726   6.382   8.686
25025SOL    HW175101   4.767   6.350   8.772
25025SOL    HW275102   4.630   6.355   8.683
25026SOL     OW75103   3.764   6.130   8.562
25026SOL    HW175104   3.849   6.097   8.521
25026SOL    HW275105   3.777   6.145   8.660
25027SOL     OW75106   3.913   6.106   9.170
25027SOL    HW175107   3.972   6.066   9.100
25027SOL    HW275108   3.855   6.177   9.129
25028SOL     OW75109   5.093   6.536   9.108
25028SOL    HW175110   5.132   6.625   9.128
25028SOL    HW275111   5.103   6.516   9.011
25029SOL     OW75112   4.539   6.158   7.773
25029SOL    HW175113   4.546   6.069   7.727
25029SOL    HW275114   4.445   6.192   7.765
25030SOL     OW75115   5.381   6.190   8.654
25030SOL    HW175116   5.343   6.121   8.716
25030SOL    HW275117   5.463   6.154   8.610
25031SOL     OW75118   3.976   7.150   9.192
25031SOL    HW175119   3.946   7.207   9.268
25031SOL    HW275120   3.969   7.053   9.218
25032SOL     OW75121   4.395   6.050   8.717
25032SOL    HW175122   4.361   5.961   8.687
25032SOL    HW275123   4.421   6.104   8.637
25033SOL     OW75124   4.654   7.264   8.913
25033SOL    HW175125   4.630   7.246   8.818
25033SOL    HW275126   4.684   7.358   8.923
25034SOL     OW75127   4.197   6.086   7.639
25034SOL    HW175128   4.258   6.166   7.643
25034SOL    HW275129   4.102   6.117   7.646
25035SOL     OW75130   3.883   6.723   8.914
25035SOL    HW175131   3.905   6.662   8.990
25035SOL    HW275132   3.893   6.674   8.828
25036SOL     OW75133   5.071   6.645   8.682
25036SOL    HW175134   5.095   6.582   8.608
25036SOL    HW275135   4.981   6.685   8.664
25037SOL     OW75136   5.026   6.441   7.757
25037SOL    HW175137   4.940   6.410   7.799
25037SOL    HW275138   5.022   6.427   7.658
25038SOL     OW75139   5.483   7.333   8.602
25038SOL    HW175140   5.544   7.363   8.529
25038SOL    HW275141   5.445   7.244   8.580
25039SOL     OW75142   4.976   7.317   8.576
25039SOL    HW175143   5.060   7.322   8.522
25039SOL    HW275144   4.953   7.221   8.594
25040SOL     OW75145   3.807   6.844   8.470
25040SOL    HW175146   3.802   6.843   8.570
25040SOL    HW275147   3.724   6.803   8.432
25041SOL     OW75148   4.412   7.248   9.164
25041SOL    HW175149   4.356   7.329   9.173
25041SOL    HW275150   4.464   7.252   9.078
25042SOL     OW75151   5.450   5.721   7.971
25042SOL    HW175152   5.523   5.704   7.904
25042SOL    HW275153   5.419   5.634   8.009
25043SOL     OW75154   5.112   7.159   7.925
25043SOL    HW175155   5.179   7.171   7.851
25043SOL    HW275156   5.072   7.248   7.948
25044SOL     OW75157   3.854   7.380   9.299
25044SOL    HW175158   3.813   7.306   9.352
25044SOL    HW275159   3.918   7.431   9.357
25045SOL     OW75160   5.004   6.513   8.120
25045SOL    HW175161   5.064   6.432   8.122
25045SOL    HW275162   5.044   6.582   8.060
25046SOL     OW75163   4.554   6.859   8.870
25046SOL    HW175164   4.549   6.892   8.965
25046SOL    HW275165   4.468   6.878   8.824
25047SOL     OW75166   4.396   7.202   7.602
25047SOL    HW175167   4.405   7.212   7.503
25047SOL    HW275168   4.356   7.113   7.623
25048SOL     OW75169   5.374   7.306   8.842
25048SOL    HW175170   5.427   7.316   8.758
25048SOL    HW275171   5.347   7.396   8.876
25049SOL     OW75172   5.565   5.761   8.411
25049SOL    HW175173   5.604   5.676   8.375
25049SOL    HW275174   5.467   5.763   8.392
25050SOL     OW75175   3.987   5.912   8.168
25050SOL    HW175176   3.908   5.963   8.134
25050SOL    HW275177   3.978   5.897   8.266
25051SOL     OW75178   4.918   7.198   7.479
25051SOL    HW175179   4.924   7.105   7.516
25051SOL    HW275180   4.859   7.198   7.399
25052SOL     OW75181   4.546   6.588   8.820
25052SOL    HW175182   4.586   6.587   8.728
25052SOL    HW275183   4.556   6.680   8.860
25053SOL     OW75184   4.640   6.496   7.739
25053SOL    HW175185   4.703   6.534   7.671
25053SOL    HW275186   4.680   6.413   7.778
25054SOL     OW75187   5.228   7.193   7.492
25054SOL    HW175188   5.136   7.230   7.499
25054SOL    HW275189   5.266   7.213   7.402
25055SOL     OW75190   4.096   6.874   8.938
25055SOL    HW175191   4.083   6.967   8.904
25055SOL    HW275192   4.012   6.822   8.925
25056SOL     OW75193   5.338   6.878   8.737
25056SOL    HW175194   5.398   6.881   8.817
25056SOL    HW275195   5.263   6.942   8.750
25057SOL     OW75196   4.763   6.684   8.144
25057SOL    HW175197   4.693   6.637   8.198
25057SOL    HW275198   4.822   6.616   8.101
25058SOL     OW75199   4.738   5.822   8.419
25058SOL    HW175200   4.730   5.786   8.326
25058SOL    HW275201   4.736   5.746   8.484
25059SOL     OW75202   4.314   7.073   7.939
25059SOL    HW175203   4.356   7.015   7.869
25059SOL    HW275204   4.270   7.152   7.895
25060SOL     OW75205   5.433   5.971   8.829
25060SOL    HW175206   5.506   6.040   8.833
25060SOL    HW275207   5.461   5.896   8.770
25061SOL     OW75208   3.979   6.934   7.738
25061SOL    HW175209   3.883   6.935   7.711
25061SOL    HW275210   3.991   6.987   7.822
25062SOL     OW75211   3.829   6.599   9.174
25062SOL    HW175212   3.752   6.566   9.228
25062SOL    HW275213   3.914   6.569   9.216
25063SOL     OW75214   4.396   5.789   8.937
25063SOL    HW175215   4.486   5.773   8.897
25063SOL    HW275216   4.404   5.794   9.036
25064SOL     OW75217   3.799   5.931   7.481
25064SOL    HW175218   3.707   5.903   7.452
25064SOL    HW275219   3.830   6.008   7.425
25065SOL     OW75220   5.164   6.442   8.846
25065SOL    HW175221   5.107   6.494   8.783
25065SOL    HW275222   5.260   6.454   8.822
25066SOL     OW75223   3.796   5.752   7.766
25066SOL    HW175224   3.779   5.835   7.712
25066SOL    HW275225   3.886   5.715   7.744
25067SOL     OW75226   4.907   6.921   7.567
25067SOL    HW175227   4.808   6.910   7.569
25067SOL    HW275228   4.941   6.936   7.660
25068SOL     OW75229   4.337   6.428   8.879
25068SOL    HW175230   4.393   6.509   8.862
25068SOL    HW275231   4.396   6.348   8.882
25069SOL     OW75232   5.217   7.353   8.407
25069SOL    HW175233   5.250   7.417   8.338
25069SOL    HW275234   5.283   7.347   8.482
25070SOL     OW75235   4.440   6.151   9.156
25070SOL    HW175236   4.459   6.216   9.230
25070SOL    HW275237   4.500   6.071   9.165
25071SOL     OW75238   5.174   6.806   9.081
25071SOL    HW175239   5.165   6.796   9.180
25071SOL    HW275240   5.270   6.799   9.055
25072SOL     OW75241   4.114   7.327   9.008
25072SOL    HW175242   4.023   7.368   9.006
25072SOL    HW275243   4.107   7.233   9.040
25073SOL     OW75244   5.398   6.469   8.702
25073SOL    HW175245   5.371   6.380   8.665
25073SOL    HW275246   5.399   6.537   8.629
25074SOL     OW75247   4.949   5.911   7.897
25074SOL    HW175248   5.014   5.837   7.886
25074SOL    HW275249   4.969   5.961   7.981
25075SOL     OW75250   4.318   6.331   8.100
25075SOL    HW175251   4.368   6.416   8.081
25075SOL    HW275252   4.230   6.333   8.052
25076SOL     OW75253   5.501   5.928   9.090
25076SOL    HW175254   5.484   5.959   8.996
25076SOL    HW275255   5.417   5.891   9.128
25077SOL     OW75256   5.454   6.520   8.965
25077SOL    HW175257   5.492   6.611   8.980
25077SOL    HW275258   5.446   6.503   8.866
25078SOL     OW75259   4.583   6.960   7.464
25078SOL    HW175260   4.537   6.975   7.552
25078SOL    HW275261   4.627   7.045   7.434
25079SOL     OW75262   4.385   7.376   8.401
25079SOL    HW175263   4.339   7.464   8.388
25079SOL    HW275264   4.484   7.388   8.394
25080SOL     OW75265   4.583   6.542   8.309
25080SOL    HW175266   4.637   6.473   8.357
25080SOL    HW275267   4.551   6.611   8.375
25081SOL     OW75268   4.807   6.570   7.535
25081SOL    HW175269   4.784   6.623   7.453
25081SOL    HW275270   4.888   6.514   7.516
25082SOL     OW75271   5.585   7.155   8.299
25082SOL    HW175272   5.514   7.143   8.229
25082SOL    HW275273   5.586   7.076   8.359
25083SOL     OW75274   3.945   6.900   9.292
25083SOL    HW175275   3.880   6.827   9.271
25083SOL    HW275276   3.949   6.914   9.390
25084SOL     OW75277   3.803   6.826   8.101
25084SOL    HW175278   3.802   6.779   8.189
25084SOL    HW275279   3.885   6.798   8.050
25085SOL     OW75280   4.396   6.977   9.072
25085SOL    HW175281   4.318   6.927   9.110
25085SOL    HW275282   4.393   7.072   9.103
25086SOL     OW75283   5.548   5.778   8.675
25086SOL    HW175284   5.544   5.688   8.719
25086SOL    HW275285   5.551   5.767   8.576
25087SOL     OW75286   4.152   6.010   7.968
25087SOL    HW175287   4.182   5.938   7.906
25087SOL    HW275288   4.113   5.970   8.051
25088SOL     OW75289   5.429   7.073   8.552
25088SOL    HW175290   5.336   7.048   8.525
25088SOL    HW275291   5.455   7.023   8.634
25089SOL     OW75292   4.041   6.133   8.728
25089SOL    HW175293   4.079   6.074   8.800
25089SOL    HW275294   4.081   6.107   8.640
25090SOL     OW75295   4.536   7.172   8.135
25090SOL    HW175296   4.568   7.182   8.041
25090SOL    HW275297   4.457   7.110   8.137
25091SOL     OW75298   5.148   5.800   8.560
25091SOL    HW175299   5.200   5.735   8.615
25091SOL    HW275300   5.099   5.863   8.621
25092SOL     OW75301   4.725   5.620   8.602
25092SOL    HW175302   4.662   5.548   8.571
25092SOL    HW275303   4.818   5.584   8.602
25093SOL     OW75304   4.494   6.916   7.749
25093SOL    HW175305   4.448   6.829   7.766
25093SOL    HW275306   4.585   6.913   7.790
25094SOL     OW75307   4.342   7.153   8.732
25094SOL    HW175308   4.337   7.235   8.789
25094SOL    HW275309   4.431   7.150   8.687
25095SOL     OW75310   5.076   5.638   7.616
25095SOL    HW175311   5.111   5.597   7.532
25095SOL    HW275312   4.986   5.600   7.636
25096SOL     OW75313   5.024   6.039   8.139
25096SOL    HW175314   4.965   6.119   8.143
25096SOL    HW275315   5.039   6.004   8.232
25097SOL     OW75316   5.317   5.807   8.330
25097SOL    HW175317   5.233   5.806   8.384
25097SOL    HW275318   5.319   5.890   8.274
25098SOL     OW75319   3.763   6.663   7.748
25098SOL    HW175320   3.862   6.652   7.739
25098SOL    HW275321   3.723   6.577   7.780
25099SOL     OW75322   4.599   7.232   7.785
25099SOL    HW175323   4.522   7.197   7.731
25099SOL    HW275324   4.567   7.303   7.847
25100SOL     OW75325   3.954   6.214   9.423
25100SOL    HW175326   3.861   6.212   9.460
25100SOL    HW275327   3.955   6.175   9.331
25101SOL     OW75328   3.949   5.861  10.306
25101SOL    HW175329   3.984   5.844  10.398
25101SOL    HW275330   3.861   5.816  10.294
25102SOL     OW75331   3.743   5.954   9.957
25102SOL    HW175332   3.661   5.997   9.996
25102SOL    HW275333   3.715   5.881   9.894
25103SOL     OW75334   4.293   6.861  10.475
25103SOL    HW175335   4.200   6.854  10.438
25103SOL    HW275336   4.304   6.950  10.519
25104SOL     OW75337   5.279   7.097  10.013
25104SOL    HW175338   5.222   7.081  10.094
25104SOL    HW275339   5.220   7.107   9.933
25105SOL     OW75340   4.859   6.289  10.027
25105SOL    HW175341   4.916   6.367  10.002
25105SOL    HW275342   4.799   6.315  10.103
25106SOL     OW75343   5.479   6.193   9.541
25106SOL    HW175344   5.467   6.180   9.442
25106SOL    HW275345   5.449   6.112   9.590
25107SOL     OW75346   4.492   6.730  10.333
25107SOL    HW175347   4.414   6.747  10.393
25107SOL    HW275348   4.526   6.817  10.297
25108SOL     OW75349   4.574   6.384  11.133
25108SOL    HW175350   4.570   6.460  11.198
25108SOL    HW275351   4.596   6.420  11.042
25109SOL     OW75352   4.409   6.598   9.975
25109SOL    HW175353   4.478   6.582  10.045
25109SOL    HW275354   4.336   6.655  10.013
25110SOL     OW75355   4.410   6.747  11.113
25110SOL    HW175356   4.470   6.826  11.127
25110SOL    HW275357   4.324   6.778  11.072
25111SOL     OW75358   4.059   7.021  10.371
25111SOL    HW175359   3.981   6.990  10.318
25111SOL    HW275360   4.117   7.079  10.314
25112SOL     OW75361   5.184   7.091  10.649
25112SOL    HW175362   5.208   7.185  10.675
25112SOL    HW275363   5.168   7.037  10.731
25113SOL     OW75364   4.162   5.978  10.809
25113SOL    HW175365   4.244   5.922  10.818
25113SOL    HW275366   4.081   5.920  10.813
25114SOL     OW75367   5.327   6.033  10.047
25114SOL    HW175368   5.253   6.079   9.997
25114SOL    HW275369   5.378   6.101  10.100
25115SOL     OW75370   3.955   7.299   9.793
25115SOL    HW175371   3.989   7.376   9.847
25115SOL    HW275372   3.999   7.299   9.703
25116SOL     OW75373   4.851   6.927  11.000
25116SOL    HW175374   4.898   6.927  11.088
25116SOL    HW275375   4.803   6.840  10.989
25117SOL     OW75376   3.954   7.020   9.848
25117SOL    HW175377   3.928   7.116   9.848
25117SOL    HW275378   3.883   6.966   9.893
25118SOL     OW75379   3.964   6.677  10.196
25118SOL    HW175380   3.978   6.593  10.248
25118SOL    HW275381   3.909   6.741  10.251
25119SOL     OW75382   4.344   7.372  10.749
25119SOL    HW175383   4.252   7.355  10.784
25119SOL    HW275384   4.372   7.464  10.775
25120SOL     OW75385   4.330   6.550   9.433
25120SOL    HW175386   4.337   6.634   9.379
25120SOL    HW275387   4.376   6.563   9.521
25121SOL     OW75388   5.318   5.700  10.790
25121SOL    HW175389   5.300   5.767  10.718
25121SOL    HW275390   5.315   5.746  10.879
25122SOL     OW75391   3.846   6.229   9.873
25122SOL    HW175392   3.801   6.141   9.890
25122SOL    HW275393   3.845   6.283   9.957
25123SOL     OW75394   5.566   7.353   9.669
25123SOL    HW175395   5.620   7.324   9.749
25123SOL    HW275396   5.596   7.443   9.640
25124SOL     OW75397   3.751   7.182   9.427
25124SOL    HW175398   3.732   7.086   9.448
25124SOL    HW275399   3.718   7.240   9.502
25125SOL     OW75400   5.413   6.508   9.922
25125SOL    HW175401   5.508   6.479   9.930
25125SOL    HW275402   5.405   6.573   9.847
25126SOL     OW75403   5.365   6.694   9.742
25126SOL    HW175404   5.451   6.696   9.690
25126SOL    HW275405   5.379   6.741   9.830
25127SOL     OW75406   3.837   6.323  10.907
25127SOL    HW175407   3.925   6.310  10.952
25127SOL    HW275408   3.824   6.420  10.885
25128SOL     OW75409   4.337   6.951  10.036
25128SOL    HW175410   4.288   6.864  10.045
25128SOL    HW275411   4.314   6.994   9.949
25129SOL     OW75412   5.017   6.814  10.733
25129SOL    HW175413   5.054   6.741  10.675
25129SOL    HW275414   5.069   6.819  10.818
25130SOL     OW75415   4.533   5.590   9.812
25130SOL    HW175416   4.573   5.681   9.803
25130SOL    HW275417   4.433   5.598   9.818
25131SOL     OW75418   3.921   6.562  10.574
25131SOL    HW175419   4.010   6.517  10.560
25131SOL    HW275420   3.848   6.497  10.555
25132SOL     OW75421   5.249   6.585   9.500
25132SOL    HW175422   5.186   6.509   9.513
25132SOL    HW275423   5.297   6.603   9.586
25133SOL     OW75424   4.911   7.378  10.926
25133SOL    HW175425   4.935   7.438  10.850
25133SOL    HW275426   4.918   7.283  10.896
25134SOL     OW75427   4.041   5.837  11.111
25134SOL    HW175428   4.112   5.908  11.117
25134SOL    HW275429   3.953   5.876  11.139
25135SOL     OW75430   5.190   7.003  10.263
25135SOL    HW175431   5.131   7.009  10.343
25135SOL    HW275432   5.175   6.915  10.217
25136SOL     OW75433   5.391   7.300   9.882
25136SOL    HW175434   5.350   7.277   9.794
25136SOL    HW275435   5.373   7.226   9.947
25137SOL     OW75436   4.322   6.315   9.580
25137SOL    HW175437   4.346   6.384   9.512
25137SOL    HW275438   4.244   6.348   9.634
25138SOL     OW75439   5.005   5.931  10.254
25138SOL    HW175440   4.919   5.881  10.241
25138SOL    HW275441   5.067   5.877  10.310
25139SOL     OW75442   5.300   7.248   9.617
25139SOL    HW175443   5.389   7.294   9.620
25139SOL    HW275444   5.279   7.224   9.522
25140SOL     OW75445   4.531   6.191  10.775
25140SOL    HW175446   4.484   6.188  10.864
25140SOL    HW275447   4.480   6.136  10.709
25141SOL     OW75448   5.118   6.055  10.984
25141SOL    HW175449   5.098   6.098  11.072
25141SOL    HW275450   5.196   5.993  10.993
25142SOL     OW75451   4.697   6.476  10.882
25142SOL    HW175452   4.743   6.392  10.853
25142SOL    HW275453   4.641   6.510  10.807
25143SOL     OW75454   4.715   5.996  10.552
25143SOL    HW175455   4.638   6.030  10.606
25143SOL    HW275456   4.681   5.945  10.473
25144SOL     OW75457   4.765   6.287   9.739
25144SOL    HW175458   4.791   6.283   9.835
25144SOL    HW275459   4.680   6.236   9.725
25145SOL     OW75460   3.800   6.397  10.099
25145SOL    HW175461   3.899   6.385  10.108
25145SOL    HW275462   3.776   6.492  10.120
25146SOL     OW75463   3.854   7.407  10.881
25146SOL    HW175464   3.844   7.392  10.980
25146SOL    HW275465   3.768   7.443  10.845
25147SOL     OW75466   4.589   5.934   9.505
25147SOL    HW175467   4.648   5.997   9.456
25147SOL    HW275468   4.608   5.840   9.476
25148SOL     OW75469   5.443   6.171  11.141
25148SOL    HW175470   5.417   6.260  11.105
25148SOL    HW275471   5.441   6.103  11.068
25149SOL     OW75472   5.086   6.730   9.855
25149SOL    HW175473   5.169   6.701   9.807
25149SOL    HW275474   5.037   6.797   9.799
25150SOL     OW75475   4.274   5.782  10.195
25150SOL    HW175476   4.269   5.777  10.295
25150SOL    HW275477   4.276   5.878  10.166
25151SOL     OW75478   4.732   7.042   9.787
25151SOL    HW175479   4.686   7.114   9.735
25151SOL    HW275480   4.728   7.062   9.885
25152SOL     OW75481   4.075   7.387  10.163
25152SOL    HW175482   4.125   7.301  10.169
25152SOL    HW275483   4.140   7.464  10.160
25153SOL     OW75484   5.519   6.652  10.183
25153SOL    HW175485   5.457   6.637  10.107
25153SOL    HW275486   5.467   6.663  10.268
25154SOL     OW75487   4.951   7.136  10.816
25154SOL    HW175488   4.957   7.059  10.880
25154SOL    HW275489   4.899   7.110  10.736
25155SOL     OW75490   4.045   6.529   9.552
25155SOL    HW175491   4.127   6.568   9.510
25155SOL    HW275492   4.018   6.447   9.503
25156SOL     OW75493   5.182   6.321  10.038
25156SOL    HW175494   5.177   6.256  10.113
25156SOL    HW275495   5.262   6.380  10.051
25157SOL     OW75496   4.185   6.852  11.037
25157SOL    HW175497   4.135   6.853  10.951
25157SOL    HW275498   4.122   6.834  11.113
25158SOL     OW75499   4.835   7.362   9.547
25158SOL    HW175500   4.775   7.300   9.597
25158SOL    HW275501   4.866   7.318   9.462
25159SOL     OW75502   3.926   5.871  10.808
25159SOL    HW175503   3.846   5.931  10.795
25159SOL    HW275504   3.916   5.822  10.894
25160SOL     OW75505   5.356   6.963   9.391
25160SOL    HW175506   5.324   7.057   9.381
25160SOL    HW275507   5.280   6.900   9.379
25161SOL     OW75508   4.188   7.329   9.633
25161SOL    HW175509   4.221   7.368   9.719
25161SOL    HW275510   4.264   7.322   9.568
25162SOL     OW75511   5.124   5.693   9.736
25162SOL    HW175512   5.100   5.656   9.646
25162SOL    HW275513   5.223   5.709   9.740
25163SOL     OW75514   3.973   7.371  10.551
25163SOL    HW175515   4.030   7.306  10.601
25163SOL    HW275516   3.957   7.338  10.458
25164SOL     OW75517   4.664   7.284  10.214
25164SOL    HW175518   4.744   7.227  10.235
25164SOL    HW275519   4.615   7.244  10.137
25165SOL     OW75520   4.106   6.286   9.790
25165SOL    HW175521   4.151   6.196   9.787
25165SOL    HW275522   4.012   6.275   9.823
25166SOL     OW75523   5.271   5.808  11.039
25166SOL    HW175524   5.266   5.845  11.131
25166SOL    HW275525   5.199   5.739  11.027
25167SOL     OW75526   4.338   5.708   9.427
25167SOL    HW175527   4.436   5.686   9.434
25167SOL    HW275528   4.307   5.691   9.334
25168SOL     OW75529   4.505   5.850  11.059
25168SOL    HW175530   4.572   5.789  11.102
25168SOL    HW275531   4.432   5.869  11.124
25169SOL     OW75532   4.612   7.100  10.505
25169SOL    HW175533   4.589   7.075  10.411
25169SOL    HW275534   4.673   7.031  10.544
25170SOL     OW75535   5.075   6.176  10.743
25170SOL    HW175536   5.103   6.133  10.828
25170SOL    HW275537   5.100   6.272  10.744
25171SOL     OW75538   4.527   6.988  10.234
25171SOL    HW175539   4.617   7.002  10.192
25171SOL    HW275540   4.456   6.990  10.163
25172SOL     OW75541   4.646   6.089  10.209
25172SOL    HW175542   4.621   6.080  10.113
25172SOL    HW275543   4.694   6.007  10.240
25173SOL     OW75544   4.263   5.650   9.822
25173SOL    HW175545   4.182   5.651   9.880
25173SOL    HW275546   4.266   5.733   9.767
25174SOL     OW75547   5.158   6.774   9.351
25174SOL    HW175548   5.190   6.698   9.408
25174SOL    HW275549   5.066   6.801   9.381
25175SOL     OW75550   4.021   5.621   9.481
25175SOL    HW175551   4.070   5.705   9.460
25175SOL    HW275552   4.083   5.556   9.526
25176SOL     OW75553   4.659   5.822   9.790
25176SOL    HW175554   4.611   5.863   9.712
25176SOL    HW275555   4.758   5.820   9.771
25177SOL     OW75556   4.800   6.269  10.774
25177SOL    HW175557   4.720   6.208  10.777
25177SOL    HW275558   4.881   6.216  10.750
25178SOL     OW75559   4.951   7.156  10.103
25178SOL    HW175560   4.972   7.230  10.038
25178SOL    HW275561   5.019   7.156  10.176
25179SOL     OW75562   4.183   6.738  10.051
25179SOL    HW175563   4.112   6.711  10.116
25179SOL    HW275564   4.157   6.710   9.958
25180SOL     OW75565   4.995   7.383   9.901
25180SOL    HW175566   5.039   7.447   9.837
25180SOL    HW275567   4.945   7.435   9.971
25181SOL     OW75568   4.756   6.135   9.326
25181SOL    HW175569   4.715   6.217   9.287
25181SOL    HW275570   4.820   6.161   9.399
25182SOL     OW75571   3.802   6.142  10.696
25182SOL    HW175572   3.894   6.141  10.655
25182SOL    HW275573   3.796   6.216  10.763
25183SOL     OW75574   4.285   5.808  10.457
25183SOL    HW175575   4.323   5.724  10.494
25183SOL    HW275576   4.197   5.827  10.501
25184SOL     OW75577   4.590   6.040   9.952
25184SOL    HW175578   4.558   6.112   9.890
25184SOL    HW275579   4.614   5.959   9.899
25185SOL     OW75580   4.741   5.625  10.063
25185SOL    HW175581   4.669   5.630   9.994
25185SOL    HW275582   4.717   5.556  10.132
25186SOL     OW75583   5.153   6.759  10.177
25186SOL    HW175584   5.098   6.675  10.170
25186SOL    HW275585   5.179   6.788  10.085
25187SOL     OW75586   5.190   6.176  10.302
25187SOL    HW175587   5.160   6.081  10.309
25187SOL    HW275588   5.263   6.192  10.368
25188SOL     OW75589   5.581   6.419   9.687
25188SOL    HW175590   5.623   6.355   9.751
25188SOL    HW275591   5.543   6.368   9.609
25189SOL     OW75592   4.212   6.971   9.484
25189SOL    HW175593   4.125   6.956   9.531
25189SOL    HW275594   4.195   6.997   9.389
25190SOL     OW75595   5.388   6.866   9.967
25190SOL    HW175596   5.487   6.874   9.981
25190SOL    HW275597   5.343   6.950   9.998
25191SOL     OW75598   5.114   6.161   9.388
25191SOL    HW175599   5.060   6.140   9.469
25191SOL    HW275600   5.205   6.120   9.397
25192SOL     OW75601   4.251   5.842   9.638
25192SOL    HW175602   4.278   5.783   9.563
25192SOL    HW275603   4.251   5.937   9.607
25193SOL     OW75604   5.478   6.809  10.898
25193SOL    HW175605   5.569   6.770  10.885
25193SOL    HW275606   5.486   6.905  10.922
25194SOL     OW75607   4.788   6.933  10.650
25194SOL    HW175608   4.708   6.910  10.705
25194SOL    HW275609   4.871   6.907  10.699
25195SOL     OW75610   5.316   7.215  10.935
25195SOL    HW175611   5.343   7.249  10.845
25195SOL    HW275612   5.395   7.177  10.981
25196SOL     OW75613   4.835   6.781  10.410
25196SOL    HW175614   4.795   6.825  10.491
25196SOL    HW275615   4.794   6.818  10.327
25197SOL     OW75616   5.362   6.685  10.389
25197SOL    HW175617   5.367   6.766  10.448
25197SOL    HW275618   5.276   6.687  10.338
25198SOL     OW75619   4.639   5.675  10.712
25198SOL    HW175620   4.664   5.655  10.617
25198SOL    HW275621   4.711   5.731  10.754
25199SOL     OW75622   4.704   6.702  11.029
25199SOL    HW175623   4.605   6.708  11.039
25199SOL    HW275624   4.727   6.622  10.973
25200SOL     OW75625   4.429   6.636   9.678
25200SOL    HW175626   4.415   6.643   9.777
25200SOL    HW275627   4.513   6.585   9.660
25201SOL     OW75628   4.134   6.399  10.561
25201SOL    HW175629   4.220   6.411  10.611
25201SOL    HW275630   4.092   6.312  10.588
25202SOL     OW75631   4.998   5.972  10.572
25202SOL    HW175632   5.019   6.046  10.636
25202SOL    HW275633   4.909   5.989  10.529
25203SOL     OW75634   3.788   7.150  10.641
25203SOL    HW175635   3.742   7.232  10.607
25203SOL    HW275636   3.886   7.169  10.650
25204SOL     OW75637   4.091   6.686   9.811
25204SOL    HW175638   4.084   6.769   9.755
25204SOL    HW275639   4.095   6.606   9.751
25205SOL     OW75640   4.290   6.123  10.175
25205SOL    HW175641   4.302   6.189  10.101
25205SOL    HW275642   4.336   6.157  10.258
25206SOL     OW75643   4.976   6.934   9.698
25206SOL    HW175644   5.026   7.011   9.738
25206SOL    HW275645   4.881   6.936   9.730
25207SOL     OW75646   4.996   7.031  10.452
25207SOL    HW175647   5.043   7.044  10.539
25207SOL    HW275648   4.930   6.957  10.461
25208SOL     OW75649   5.306   6.225   9.782
25208SOL    HW175650   5.275   6.286   9.855
25208SOL    HW275651   5.356   6.277   9.713
25209SOL     OW75652   4.078   7.096  10.639
25209SOL    HW175653   4.057   7.052  10.552
25209SOL    HW275654   4.175   7.122  10.642
25210SOL     OW75655   4.126   6.337  10.908
25210SOL    HW175656   4.194   6.392  10.861
25210SOL    HW275657   4.166   6.249  10.935
25211SOL     OW75658   5.311   6.365  10.980
25211SOL    HW175659   5.219   6.403  10.975
25211SOL    HW275660   5.371   6.412  10.915
25212SOL     OW75661   4.737   5.691  11.080
25212SOL    HW175662   4.743   5.776  11.028
25212SOL    HW275663   4.769   5.615  11.023
25213SOL     OW75664   4.228   5.636  11.050
25213SOL    HW175665   4.186   5.579  10.980
25213SOL    HW275666   4.162   5.705  11.082
25214SOL     OW75667   4.297   6.456  10.339
25214SOL    HW175668   4.341   6.545  10.330
25214SOL    HW275669   4.234   6.456  10.416
25215SOL     OW75670   5.084   6.448  10.355
25215SOL    HW175671   5.009   6.448  10.289
25215SOL    HW275672   5.121   6.356  10.364
25216SOL     OW75673   4.933   6.111   9.585
25216SOL    HW175674   4.946   6.027   9.639
25216SOL    HW275675   4.904   6.185   9.645
25217SOL     OW75676   4.031   5.799  10.541
25217SOL    HW175677   4.008   5.836  10.631
25217SOL    HW275678   4.001   5.704  10.535
25218SOL     OW75679   3.761   6.896  10.592
25218SOL    HW175680   3.814   6.847  10.660
25218SOL    HW275681   3.783   6.994  10.597
25219SOL     OW75682   4.456   6.220  10.374
25219SOL    HW175683   4.515   6.194  10.298
25219SOL    HW275684   4.428   6.316  10.363
25220SOL     OW75685   5.452   6.521  11.164
25220SOL    HW175686   5.406   6.514  11.075
25220SOL    HW275687   5.390   6.565  11.230
25221SOL     OW75688   4.031   5.649   9.928
25221SOL    HW175689   4.020   5.743   9.961
25221SOL    HW275690   4.026   5.586  10.005
25222SOL     OW75691   5.346   5.953   9.684
25222SOL    HW175692   5.348   5.877   9.748
25222SOL    HW275693   5.298   6.030   9.724
25223SOL     OW75694   4.747   6.352  10.276
25223SOL    HW175695   4.762   6.373  10.372
25223SOL    HW275696   4.717   6.257  10.267
25224SOL     OW75697   4.704   7.159  11.010
25224SOL    HW175698   4.684   7.203  10.922
25224SOL    HW275699   4.743   7.068  10.994
25225SOL     OW75700   5.583   7.104  10.915
25225SOL    HW175701   5.597   7.131  10.820
25225SOL    HW275702   5.666   7.126  10.968
25226SOL     OW75703   4.074   6.484  11.114
25226SOL    HW175704   4.150   6.528  11.162
25226SOL    HW275705   4.109   6.437  11.032
25227SOL     OW75706   5.264   5.860   9.435
25227SOL    HW175707   5.203   5.785   9.458
25227SOL    HW275708   5.286   5.912   9.518
25228SOL     OW75709   5.027   6.424   9.352
25228SOL    HW175710   5.061   6.331   9.367
25228SOL    HW275711   5.045   6.451   9.257
25229SOL     OW75712   4.792   6.919  10.159
25229SOL    HW175713   4.799   6.835  10.104
25229SOL    HW275714   4.854   6.988  10.123
25230SOL     OW75715   4.043   6.396  10.259
25230SOL    HW175716   4.136   6.432  10.264
25230SOL    HW275717   4.037   6.311  10.311
25231SOL     OW75718   4.063   6.095  10.316
25231SOL    HW175719   4.011   6.012  10.299
25231SOL    HW275720   4.140   6.100  10.252
25232SOL     OW75721   4.862   5.966  10.988
25232SOL    HW175722   4.817   6.029  11.052
25232SOL    HW275723   4.955   5.997  10.971
25233SOL     OW75724   4.884   5.793  10.787
25233SOL    HW175725   4.884   5.857  10.864
25233SOL    HW275726   4.912   5.841  10.704
25234SOL     OW75727   3.732   6.912   9.510
25234SOL    HW175728   3.639   6.933   9.479
25234SOL    HW275729   3.742   6.813   9.523
25235SOL     OW75730   3.812   7.387  10.237
25235SOL    HW175731   3.770   7.301  10.210
25235SOL    HW275732   3.906   7.390  10.203
25236SOL     OW75733   4.228   7.154  10.220
25236SOL    HW175734   4.294   7.228  10.229
25236SOL    HW275735   4.272   7.075  10.178
25237SOL     OW75736   4.726   6.382  10.548
25237SOL    HW175737   4.767   6.350  10.634
25237SOL    HW275738   4.630   6.355  10.545
25238SOL     OW75739   3.764   6.130  10.424
25238SOL    HW175740   3.849   6.097  10.383
25238SOL    HW275741   3.777   6.145  10.522
25239SOL     OW75742   3.913   6.106  11.032
25239SOL    HW175743   3.972   6.066  10.962
25239SOL    HW275744   3.855   6.177  10.991
25240SOL     OW75745   5.093   6.536  10.970
25240SOL    HW175746   5.132   6.625  10.990
25240SOL    HW275747   5.103   6.516  10.873
25241SOL     OW75748   4.539   6.158   9.635
25241SOL    HW175749   4.546   6.069   9.589
25241SOL    HW275750   4.445   6.192   9.627
25242SOL     OW75751   5.381   6.190  10.516
25242SOL    HW175752   5.343   6.121  10.578
25242SOL    HW275753   5.463   6.154  10.472
25243SOL     OW75754   3.976   7.150  11.054
25243SOL    HW175755   3.946   7.207  11.130
25243SOL    HW275756   3.969   7.053  11.080
25244SOL     OW75757   4.395   6.050  10.579
25244SOL    HW175758   4.361   5.961  10.549
25244SOL    HW275759   4.421   6.104  10.499
25245SOL     OW75760   4.654   7.264  10.775
25245SOL    HW175761   4.630   7.246  10.680
25245SOL    HW275762   4.684   7.358  10.785
25246SOL     OW75763   4.197   6.086   9.501
25246SOL    HW175764   4.258   6.166   9.505
25246SOL    HW275765   4.102   6.117   9.508
25247SOL     OW75766   3.883   6.723  10.776
25247SOL    HW175767   3.905   6.662  10.852
25247SOL    HW275768   3.893   6.674  10.690
25248SOL     OW75769   5.071   6.645  10.544
25248SOL    HW175770   5.095   6.582  10.470
25248SOL    HW275771   4.981   6.685  10.526
25249SOL     OW75772   5.026   6.441   9.619
25249SOL    HW175773   4.940   6.410   9.661
25249SOL    HW275774   5.022   6.427   9.520
25250SOL     OW75775   5.483   7.333  10.464
25250SOL    HW175776   5.544   7.363  10.391
25250SOL    HW275777   5.445   7.244  10.442
25251SOL     OW75778   4.976   7.317  10.438
25251SOL    HW175779   5.060   7.322  10.384
25251SOL    HW275780   4.953   7.221  10.456
25252SOL     OW75781   3.807   6.844  10.332
25252SOL    HW175782   3.802   6.843  10.432
25252SOL    HW275783   3.724   6.803  10.294
25253SOL     OW75784   4.412   7.248  11.026
25253SOL    HW175785   4.356   7.329  11.035
25253SOL    HW275786   4.464   7.252  10.940
25254SOL     OW75787   5.450   5.721   9.833
25254SOL    HW175788   5.523   5.704   9.766
25254SOL    HW275789   5.419   5.634   9.871
25255SOL     OW75790   3.854   7.380  11.161
25255SOL    HW175791   3.813   7.306  11.214
25255SOL    HW275792   3.918   7.431  11.219
25256SOL     OW75793   5.004   6.513   9.982
25256SOL    HW175794   5.064   6.432   9.984
25256SOL    HW275795   5.044   6.582   9.922
25257SOL     OW75796   4.554   6.859  10.732
25257SOL    HW175797   4.549   6.892  10.827
25257SOL    HW275798   4.468   6.878  10.686
25258SOL     OW75799   4.396   7.202   9.464
25258SOL    HW175800   4.405   7.212   9.365
25258SOL    HW275801   4.356   7.113   9.485
25259SOL     OW75802   5.374   7.306  10.704
25259SOL    HW175803   5.427   7.316  10.620
25259SOL    HW275804   5.347   7.396  10.738
25260SOL     OW75805   5.565   5.761  10.273
25260SOL    HW175806   5.604   5.676  10.237
25260SOL    HW275807   5.467   5.763  10.254
25261SOL     OW75808   3.987   5.912  10.030
25261SOL    HW175809   3.908   5.963   9.996
25261SOL    HW275810   3.978   5.897  10.128
25262SOL     OW75811   4.918   7.198   9.341
25262SOL    HW175812   4.924   7.105   9.378
25262SOL    HW275813   4.859   7.198   9.261
25263SOL     OW75814   4.546   6.588  10.682
25263SOL    HW175815   4.586   6.587  10.590
25263SOL    HW275816   4.556   6.680  10.722
25264SOL     OW75817   4.640   6.496   9.601
25264SOL    HW175818   4.703   6.534   9.533
25264SOL    HW275819   4.680   6.413   9.640
25265SOL     OW75820   5.228   7.193   9.354
25265SOL    HW175821   5.136   7.230   9.361
25265SOL    HW275822   5.266   7.213   9.264
25266SOL     OW75823   4.096   6.874  10.800
25266SOL    HW175824   4.083   6.967  10.766
25266SOL    HW275825   4.012   6.822  10.787
25267SOL     OW75826   5.338   6.878  10.599
25267SOL    HW175827   5.398   6.881  10.679
25267SOL    HW275828   5.263   6.942  10.612
25268SOL     OW75829   4.763   6.684  10.006
25268SOL    HW175830   4.693   6.637  10.060
25268SOL    HW275831   4.822   6.616   9.963
25269SOL     OW75832   4.738   5.822  10.281
25269SOL    HW175833   4.730   5.786  10.188
25269SOL    HW275834   4.736   5.746  10.346
25270SOL     OW75835   4.314   7.073   9.801
25270SOL    HW175836   4.356   7.015   9.731
25270SOL    HW275837   4.270   7.152   9.757
25271SOL     OW75838   5.433   5.971  10.691
25271SOL    HW175839   5.506   6.040  10.695
25271SOL    HW275840   5.461   5.896  10.632
25272SOL     OW75841   3.979   6.934   9.600
25272SOL    HW175842   3.883   6.935   9.573
25272SOL    HW275843   3.991   6.987   9.684
25273SOL     OW75844   3.829   6.599  11.036
25273SOL    HW175845   3.752   6.566  11.090
25273SOL    HW275846   3.914   6.569  11.078
25274SOL     OW75847   4.396   5.789  10.799
25274SOL    HW175848   4.486   5.773  10.759
25274SOL    HW275849   4.404   5.794  10.898
25275SOL     OW75850   3.799   5.931   9.343
25275SOL    HW175851   3.707   5.903   9.314
25275SOL    HW275852   3.830   6.008   9.287
25276SOL     OW75853   5.164   6.442  10.708
25276SOL    HW175854   5.107   6.494  10.645
25276SOL    HW275855   5.260   6.454  10.684
25277SOL     OW75856   3.796   5.752   9.628
25277SOL    HW175857   3.779   5.835   9.574
25277SOL    HW275858   3.886   5.715   9.606
25278SOL     OW75859   4.907   6.921   9.429
25278SOL    HW175860   4.808   6.910   9.431
25278SOL    HW275861   4.941   6.936   9.522
25279SOL     OW75862   4.337   6.428  10.741
25279SOL    HW175863   4.393   6.509  10.724
25279SOL    HW275864   4.396   6.348  10.744
25280SOL     OW75865   5.217   7.353  10.269
25280SOL    HW175866   5.250   7.417  10.200
25280SOL    HW275867   5.283   7.347  10.344
25281SOL     OW75868   4.440   6.151  11.018
25281SOL    HW175869   4.459   6.216  11.092
25281SOL    HW275870   4.500   6.071  11.027
25282SOL     OW75871   5.174   6.806  10.943
25282SOL    HW175872   5.165   6.796  11.042
25282SOL    HW275873   5.270   6.799  10.917
25283SOL     OW75874   4.114   7.327  10.870
25283SOL    HW175875   4.023   7.368  10.868
25283SOL    HW275876   4.107   7.233  10.902
25284SOL     OW75877   5.398   6.469  10.564
25284SOL    HW175878   5.371   6.380  10.527
25284SOL    HW275879   5.399   6.537  10.491
25285SOL     OW75880   4.949   5.911   9.759
25285SOL    HW175881   5.014   5.837   9.748
25285SOL    HW275882   4.969   5.961   9.843
25286SOL     OW75883   4.318   6.331   9.962
25286SOL    HW175884   4.368   6.416   9.943
25286SOL    HW275885   4.230   6.333   9.914
25287SOL     OW75886   5.501   5.928  10.952
25287SOL    HW175887   5.484   5.959  10.858
25287SOL    HW275888   5.417   5.891  10.990
25288SOL     OW75889   5.454   6.520  10.827
25288SOL    HW175890   5.492   6.611  10.842
25288SOL    HW275891   5.446   6.503  10.728
25289SOL     OW75892   4.583   6.960   9.326
25289SOL    HW175893   4.537   6.975   9.414
25289SOL    HW275894   4.627   7.045   9.296
25290SOL     OW75895   4.385   7.376  10.263
25290SOL    HW175896   4.339   7.464  10.250
25290SOL    HW275897   4.484   7.388  10.256
25291SOL     OW75898   4.583   6.542  10.171
25291SOL    HW175899   4.637   6.473  10.219
25291SOL    HW275900   4.551   6.611  10.237
25292SOL     OW75901   4.807   6.570   9.397
25292SOL    HW175902   4.784   6.623   9.315
25292SOL    HW275903   4.888   6.514   9.378
25293SOL     OW75904   5.585   7.155  10.161
25293SOL    HW175905   5.514   7.143  10.091
25293SOL    HW275906   5.586   7.076  10.221
25294SOL     OW75907   3.945   6.900  11.154
25294SOL    HW175908   3.880   6.827  11.133
25294SOL    HW275909   3.949   6.914  11.252
25295SOL     OW75910   3.803   6.826   9.963
25295SOL    HW175911   3.802   6.779  10.051
25295SOL    HW275912   3.885   6.798   9.912
25296SOL     OW75913   4.396   6.977  10.934
25296SOL    HW175914   4.318   6.927  10.972
25296SOL    HW275915   4.393   7.072  10.965
25297SOL     OW75916   5.548   5.778  10.537
25297SOL    HW175917   5.544   5.688  10.581
25297SOL    HW275918   5.551   5.767  10.438
25298SOL     OW75919   4.152   6.010   9.830
25298SOL    HW175920   4.182   5.938   9.768
25298SOL    HW275921   4.113   5.970   9.913
25299SOL     OW75922   5.429   7.073  10.414
25299SOL    HW175923   5.336   7.048  10.387
25299SOL    HW275924   5.455   7.023  10.496
25300SOL     OW75925   4.041   6.133  10.590
25300SOL    HW175926   4.079   6.074  10.662
25300SOL    HW275927   4.081   6.107  10.502
25301SOL     OW75928   4.536   7.172   9.997
25301SOL    HW175929   4.568   7.182   9.903
25301SOL    HW275930   4.457   7.110   9.999
25302SOL     OW75931   5.148   5.800  10.422
25302SOL    HW175932   5.200   5.735  10.477
25302SOL    HW275933   5.099   5.863  10.483
25303SOL     OW75934   4.725   5.620  10.464
25303SOL    HW175935   4.662   5.548  10.433
25303SOL    HW275936   4.818   5.584  10.464
25304SOL     OW75937   4.494   6.916   9.611
25304SOL    HW175938   4.448   6.829   9.628
25304SOL    HW275939   4.585   6.913   9.652
25305SOL     OW75940   4.342   7.153  10.594
25305SOL    HW175941   4.337   7.235  10.651
25305SOL    HW275942   4.431   7.150  10.549
25306SOL     OW75943   5.076   5.638   9.478
25306SOL    HW175944   5.111   5.597   9.394
25306SOL    HW275945   4.986   5.600   9.498
25307SOL     OW75946   5.024   6.039  10.001
25307SOL    HW175947   4.965   6.119  10.005
25307SOL    HW275948   5.039   6.004  10.094
25308SOL     OW75949   5.317   5.807  10.192
25308SOL    HW175950   5.233   5.806  10.246
25308SOL    HW275951   5.319   5.890  10.136
25309SOL     OW75952   3.763   6.663   9.610
25309SOL    HW175953   3.862   6.652   9.601
25309SOL    HW275954   3.723   6.577   9.642
25310SOL     OW75955   4.599   7.232   9.647
25310SOL    HW175956   4.522   7.197   9.593
25310SOL    HW275957   4.567   7.303   9.709
25311SOL     OW75958   3.954   6.214  11.285
25311SOL    HW175959   3.861   6.212  11.322
25311SOL    HW275960   3.955   6.175  11.193
25312SOL     OW75961   3.949   5.861  12.168
25312SOL    HW175962   3.984   5.844  12.260
25312SOL    HW275963   3.861   5.816  12.156
25313SOL     OW75964   3.743   5.954  11.819
25313SOL    HW175965   3.661   5.997  11.858
25313SOL    HW275966   3.715   5.881  11.756
25314SOL     OW75967   4.293   6.861  12.337
25314SOL    HW175968   4.200   6.854  12.300
25314SOL    HW275969   4.304   6.950  12.381
25315SOL     OW75970   5.279   7.097  11.875
25315SOL    HW175971   5.222   7.081  11.956
25315SOL    HW275972   5.220   7.107  11.795
25316SOL     OW75973   4.859   6.289  11.889
25316SOL    HW175974   4.916   6.367  11.864
25316SOL    HW275975   4.799   6.315  11.965
25317SOL     OW75976   5.479   6.193  11.403
25317SOL    HW175977   5.467   6.180  11.304
25317SOL    HW275978   5.449   6.112  11.452
25318SOL     OW75979   4.492   6.730  12.195
25318SOL    HW175980   4.414   6.747  12.255
25318SOL    HW275981   4.526   6.817  12.159
25319SOL     OW75982   4.409   6.598  11.837
25319SOL    HW175983   4.478   6.582  11.907
25319SOL    HW275984   4.336   6.655  11.875
25320SOL     OW75985   4.059   7.021  12.233
25320SOL    HW175986   3.981   6.990  12.180
25320SOL    HW275987   4.117   7.079  12.176
25321SOL     OW75988   5.184   7.091  12.511
25321SOL    HW175989   5.208   7.185  12.537
25321SOL    HW275990   5.168   7.037  12.593
25322SOL     OW75991   4.162   5.978  12.671
25322SOL    HW175992   4.244   5.922  12.680
25322SOL    HW275993   4.081   5.920  12.675
25323SOL     OW75994   5.327   6.033  11.909
25323SOL    HW175995   5.253   6.079  11.859
25323SOL    HW275996   5.378   6.101  11.962
25324SOL     OW75997   3.955   7.299  11.655
25324SOL    HW175998   3.989   7.376  11.709
25324SOL    HW275999   3.999   7.299  11.565
25325SOL     OW76000   3.954   7.020  11.710
25325SOL    HW176001   3.928   7.116  11.710
25325SOL    HW276002   3.883   6.966  11.755
25326SOL     OW76003   3.964   6.677  12.058
25326SOL    HW176004   3.978   6.593  12.110
25326SOL    HW276005   3.909   6.741  12.113
25327SOL     OW76006   4.344   7.372  12.611
25327SOL    HW176007   4.252   7.355  12.646
25327SOL    HW276008   4.372   7.464  12.637
25328SOL     OW76009   4.330   6.550  11.295
25328SOL    HW176010   4.337   6.634  11.241
25328SOL    HW276011   4.376   6.563  11.383
25329SOL     OW76012   5.318   5.700  12.652
25329SOL    HW176013   5.300   5.767  12.580
25329SOL    HW276014   5.315   5.746  12.741
25330SOL     OW76015   3.846   6.229  11.735
25330SOL    HW176016   3.801   6.141  11.752
25330SOL    HW276017   3.845   6.283  11.819
25331SOL     OW76018   5.566   7.353  11.531
25331SOL    HW176019   5.620   7.324  11.611
25331SOL    HW276020   5.596   7.443  11.502
25332SOL     OW76021   3.751   7.182  11.289
25332SOL    HW176022   3.732   7.086  11.310
25332SOL    HW276023   3.718   7.240  11.364
25333SOL     OW76024   5.413   6.508  11.784
25333SOL    HW176025   5.508   6.479  11.792
25333SOL    HW276026   5.405   6.573  11.709
25334SOL     OW76027   5.365   6.694  11.604
25334SOL    HW176028   5.451   6.696  11.552
25334SOL    HW276029   5.379   6.741  11.692
25335SOL     OW76030   4.337   6.951  11.898
25335SOL    HW176031   4.288   6.864  11.907
25335SOL    HW276032   4.314   6.994  11.811
25336SOL     OW76033   4.533   5.590  11.674
25336SOL    HW176034   4.573   5.681  11.665
25336SOL    HW276035   4.433   5.598  11.680
25337SOL     OW76036   3.921   6.562  12.436
25337SOL    HW176037   4.010   6.517  12.422
25337SOL    HW276038   3.848   6.497  12.417
25338SOL     OW76039   5.249   6.585  11.362
25338SOL    HW176040   5.186   6.509  11.375
25338SOL    HW276041   5.297   6.603  11.448
25339SOL     OW76042   4.041   5.837  12.973
25339SOL    HW176043   4.112   5.908  12.979
25339SOL    HW276044   3.953   5.876  13.001
25340SOL     OW76045   5.190   7.003  12.125
25340SOL    HW176046   5.131   7.009  12.205
25340SOL    HW276047   5.175   6.915  12.079
25341SOL     OW76048   5.391   7.300  11.744
25341SOL    HW176049   5.350   7.277  11.656
25341SOL    HW276050   5.373   7.226  11.809
25342SOL     OW76051   4.322   6.315  11.442
25342SOL    HW176052   4.346   6.384  11.374
25342SOL    HW276053   4.244   6.348  11.496
25343SOL     OW76054   5.005   5.931  12.116
25343SOL    HW176055   4.919   5.881  12.103
25343SOL    HW276056   5.067   5.877  12.172
25344SOL     OW76057   5.300   7.248  11.479
25344SOL    HW176058   5.389   7.294  11.482
25344SOL    HW276059   5.279   7.224  11.384
25345SOL     OW76060   4.531   6.191  12.637
25345SOL    HW176061   4.484   6.188  12.726
25345SOL    HW276062   4.480   6.136  12.571
25346SOL     OW76063   4.715   5.996  12.414
25346SOL    HW176064   4.638   6.030  12.468
25346SOL    HW276065   4.681   5.945  12.335
25347SOL     OW76066   4.765   6.287  11.601
25347SOL    HW176067   4.791   6.283  11.697
25347SOL    HW276068   4.680   6.236  11.587
25348SOL     OW76069   3.800   6.397  11.961
25348SOL    HW176070   3.899   6.385  11.970
25348SOL    HW276071   3.776   6.492  11.982
25349SOL     OW76072   3.854   7.407  12.743
25349SOL    HW176073   3.844   7.392  12.842
25349SOL    HW276074   3.768   7.443  12.707
25350SOL     OW76075   4.589   5.934  11.367
25350SOL    HW176076   4.648   5.997  11.318
25350SOL    HW276077   4.608   5.840  11.338
25351SOL     OW76078   5.086   6.730  11.717
25351SOL    HW176079   5.169   6.701  11.669
25351SOL    HW276080   5.037   6.797  11.661
25352SOL     OW76081   4.274   5.782  12.057
25352SOL    HW176082   4.269   5.777  12.157
25352SOL    HW276083   4.276   5.878  12.028
25353SOL     OW76084   4.732   7.042  11.649
25353SOL    HW176085   4.686   7.114  11.597
25353SOL    HW276086   4.728   7.062  11.747
25354SOL     OW76087   4.075   7.387  12.025
25354SOL    HW176088   4.125   7.301  12.031
25354SOL    HW276089   4.140   7.464  12.022
25355SOL     OW76090   5.519   6.652  12.045
25355SOL    HW176091   5.457   6.637  11.969
25355SOL    HW276092   5.467   6.663  12.130
25356SOL     OW76093   4.045   6.529  11.414
25356SOL    HW176094   4.127   6.568  11.372
25356SOL    HW276095   4.018   6.447  11.365
25357SOL     OW76096   5.182   6.321  11.900
25357SOL    HW176097   5.177   6.256  11.975
25357SOL    HW276098   5.262   6.380  11.913
25358SOL     OW76099   4.835   7.362  11.409
25358SOL    HW176100   4.775   7.300  11.459
25358SOL    HW276101   4.866   7.318  11.324
25359SOL     OW76102   5.356   6.963  11.253
25359SOL    HW176103   5.324   7.057  11.243
25359SOL    HW276104   5.280   6.900  11.241
25360SOL     OW76105   4.188   7.329  11.495
25360SOL    HW176106   4.221   7.368  11.581
25360SOL    HW276107   4.264   7.322  11.430
25361SOL     OW76108   5.124   5.693  11.598
25361SOL    HW176109   5.100   5.656  11.508
25361SOL    HW276110   5.223   5.709  11.602
25362SOL     OW76111   3.973   7.371  12.413
25362SOL    HW176112   4.030   7.306  12.463
25362SOL    HW276113   3.957   7.338  12.320
25363SOL     OW76114   4.664   7.284  12.076
25363SOL    HW176115   4.744   7.227  12.097
25363SOL    HW276116   4.615   7.244  11.999
25364SOL     OW76117   4.106   6.286  11.652
25364SOL    HW176118   4.151   6.196  11.649
25364SOL    HW276119   4.012   6.275  11.685
25365SOL     OW76120   4.338   5.708  11.289
25365SOL    HW176121   4.436   5.686  11.296
25365SOL    HW276122   4.307   5.691  11.196
25366SOL     OW76123   4.612   7.100  12.367
25366SOL    HW176124   4.589   7.075  12.273
25366SOL    HW276125   4.673   7.031  12.406
25367SOL     OW76126   4.527   6.988  12.096
25367SOL    HW176127   4.617   7.002  12.054
25367SOL    HW276128   4.456   6.990  12.025
25368SOL     OW76129   4.646   6.089  12.071
25368SOL    HW176130   4.621   6.080  11.975
25368SOL    HW276131   4.694   6.007  12.102
25369SOL     OW76132   4.263   5.650  11.684
25369SOL    HW176133   4.182   5.651  11.742
25369SOL    HW276134   4.266   5.733  11.629
25370SOL     OW76135   5.158   6.774  11.213
25370SOL    HW176136   5.190   6.698  11.270
25370SOL    HW276137   5.066   6.801  11.243
25371SOL     OW76138   4.021   5.621  11.343
25371SOL    HW176139   4.070   5.705  11.322
25371SOL    HW276140   4.083   5.556  11.388
25372SOL     OW76141   4.659   5.822  11.652
25372SOL    HW176142   4.611   5.863  11.574
25372SOL    HW276143   4.758   5.820  11.633
25373SOL     OW76144   4.951   7.156  11.965
25373SOL    HW176145   4.972   7.230  11.900
25373SOL    HW276146   5.019   7.156  12.038
25374SOL     OW76147   4.183   6.738  11.913
25374SOL    HW176148   4.112   6.711  11.978
25374SOL    HW276149   4.157   6.710  11.820
25375SOL     OW76150   4.995   7.383  11.763
25375SOL    HW176151   5.039   7.447  11.699
25375SOL    HW276152   4.945   7.435  11.833
25376SOL     OW76153   4.756   6.135  11.188
25376SOL    HW176154   4.715   6.217  11.149
25376SOL    HW276155   4.820   6.161  11.261
25377SOL     OW76156   3.802   6.142  12.558
25377SOL    HW176157   3.894   6.141  12.517
25377SOL    HW276158   3.796   6.216  12.625
25378SOL     OW76159   4.285   5.808  12.319
25378SOL    HW176160   4.323   5.724  12.356
25378SOL    HW276161   4.197   5.827  12.363
25379SOL     OW76162   4.590   6.040  11.814
25379SOL    HW176163   4.558   6.112  11.752
25379SOL    HW276164   4.614   5.959  11.761
25380SOL     OW76165   4.741   5.625  11.925
25380SOL    HW176166   4.669   5.630  11.856
25380SOL    HW276167   4.717   5.556  11.994
25381SOL     OW76168   5.153   6.759  12.039
25381SOL    HW176169   5.098   6.675  12.032
25381SOL    HW276170   5.179   6.788  11.947
25382SOL     OW76171   5.190   6.176  12.164
25382SOL    HW176172   5.160   6.081  12.171
25382SOL    HW276173   5.263   6.192  12.230
25383SOL     OW76174   5.581   6.419  11.549
25383SOL    HW176175   5.623   6.355  11.613
25383SOL    HW276176   5.543   6.368  11.471
25384SOL     OW76177   4.212   6.971  11.346
25384SOL    HW176178   4.125   6.956  11.393
25384SOL    HW276179   4.195   6.997  11.251
25385SOL     OW76180   5.388   6.866  11.829
25385SOL    HW176181   5.487   6.874  11.843
25385SOL    HW276182   5.343   6.950  11.860
25386SOL     OW76183   5.114   6.161  11.250
25386SOL    HW176184   5.060   6.140  11.331
25386SOL    HW276185   5.205   6.120  11.259
25387SOL     OW76186   4.251   5.842  11.500
25387SOL    HW176187   4.278   5.783  11.425
25387SOL    HW276188   4.251   5.937  11.469
25388SOL     OW76189   4.788   6.933  12.512
25388SOL    HW176190   4.708   6.910  12.567
25388SOL    HW276191   4.871   6.907  12.561
25389SOL     OW76192   4.835   6.781  12.272
25389SOL    HW176193   4.795   6.825  12.353
25389SOL    HW276194   4.794   6.818  12.189
25390SOL     OW76195   5.362   6.685  12.251
25390SOL    HW176196   5.367   6.766  12.310
25390SOL    HW276197   5.276   6.687  12.200
25391SOL     OW76198   4.639   5.675  12.574
25391SOL    HW176199   4.664   5.655  12.479
25391SOL    HW276200   4.711   5.731  12.616
25392SOL     OW76201   4.429   6.636  11.540
25392SOL    HW176202   4.415   6.643  11.639
25392SOL    HW276203   4.513   6.585  11.522
25393SOL     OW76204   4.134   6.399  12.423
25393SOL    HW176205   4.220   6.411  12.473
25393SOL    HW276206   4.092   6.312  12.450
25394SOL     OW76207   4.998   5.972  12.434
25394SOL    HW176208   5.019   6.046  12.498
25394SOL    HW276209   4.909   5.989  12.391
25395SOL     OW76210   3.788   7.150  12.503
25395SOL    HW176211   3.742   7.232  12.469
25395SOL    HW276212   3.886   7.169  12.512
25396SOL     OW76213   4.091   6.686  11.673
25396SOL    HW176214   4.084   6.769  11.617
25396SOL    HW276215   4.095   6.606  11.613
25397SOL     OW76216   4.290   6.123  12.037
25397SOL    HW176217   4.302   6.189  11.963
25397SOL    HW276218   4.336   6.157  12.120
25398SOL     OW76219   4.976   6.934  11.560
25398SOL    HW176220   5.026   7.011  11.600
25398SOL    HW276221   4.881   6.936  11.592
25399SOL     OW76222   4.996   7.031  12.314
25399SOL    HW176223   5.043   7.044  12.401
25399SOL    HW276224   4.930   6.957  12.323
25400SOL     OW76225   5.306   6.225  11.644
25400SOL    HW176226   5.275   6.286  11.717
25400SOL    HW276227   5.356   6.277  11.575
25401SOL     OW76228   4.078   7.096  12.501
25401SOL    HW176229   4.057   7.052  12.414
25401SOL    HW276230   4.175   7.122  12.504
25402SOL     OW76231   4.126   6.337  12.770
25402SOL    HW176232   4.194   6.392  12.723
25402SOL    HW276233   4.166   6.249  12.797
25403SOL     OW76234   5.311   6.365  12.842
25403SOL    HW176235   5.219   6.403  12.837
25403SOL    HW276236   5.371   6.412  12.777
25404SOL     OW76237   4.297   6.456  12.201
25404SOL    HW176238   4.341   6.545  12.192
25404SOL    HW276239   4.234   6.456  12.278
25405SOL     OW76240   5.084   6.448  12.217
25405SOL    HW176241   5.009   6.448  12.151
25405SOL    HW276242   5.121   6.356  12.226
25406SOL     OW76243   4.933   6.111  11.447
25406SOL    HW176244   4.946   6.027  11.501
25406SOL    HW276245   4.904   6.185  11.507
25407SOL     OW76246   4.031   5.799  12.403
25407SOL    HW176247   4.008   5.836  12.493
25407SOL    HW276248   4.001   5.704  12.397
25408SOL     OW76249   3.761   6.896  12.454
25408SOL    HW176250   3.814   6.847  12.522
25408SOL    HW276251   3.783   6.994  12.459
25409SOL     OW76252   4.456   6.220  12.236
25409SOL    HW176253   4.515   6.194  12.160
25409SOL    HW276254   4.428   6.316  12.225
25410SOL     OW76255   4.031   5.649  11.790
25410SOL    HW176256   4.020   5.743  11.823
25410SOL    HW276257   4.026   5.586  11.867
25411SOL     OW76258   5.346   5.953  11.546
25411SOL    HW176259   5.348   5.877  11.610
25411SOL    HW276260   5.298   6.030  11.586
25412SOL     OW76261   4.747   6.352  12.138
25412SOL    HW176262   4.762   6.373  12.234
25412SOL    HW276263   4.717   6.257  12.129
25413SOL     OW76264   4.704   7.159  12.872
25413SOL    HW176265   4.684   7.203  12.784
25413SOL    HW276266   4.743   7.068  12.856
25414SOL     OW76267   5.264   5.860  11.297
25414SOL    HW176268   5.203   5.785  11.320
25414SOL    HW276269   5.286   5.912  11.380
25415SOL     OW76270   5.027   6.424  11.214
25415SOL    HW176271   5.061   6.331  11.229
25415SOL    HW276272   5.045   6.451  11.119
25416SOL     OW76273   4.792   6.919  12.021
25416SOL    HW176274   4.799   6.835  11.966
25416SOL    HW276275   4.854   6.988  11.985
25417SOL     OW76276   4.043   6.396  12.121
25417SOL    HW176277   4.136   6.432  12.126
25417SOL    HW276278   4.037   6.311  12.173
25418SOL     OW76279   4.063   6.095  12.178
25418SOL    HW176280   4.011   6.012  12.161
25418SOL    HW276281   4.140   6.100  12.114
25419SOL     OW76282   4.862   5.966  12.850
25419SOL    HW176283   4.817   6.029  12.914
25419SOL    HW276284   4.955   5.997  12.833
25420SOL     OW76285   4.884   5.793  12.649
25420SOL    HW176286   4.884   5.857  12.726
25420SOL    HW276287   4.912   5.841  12.566
25421SOL     OW76288   3.732   6.912  11.372
25421SOL    HW176289   3.639   6.933  11.341
25421SOL    HW276290   3.742   6.813  11.385
25422SOL     OW76291   3.812   7.387  12.099
25422SOL    HW176292   3.770   7.301  12.072
25422SOL    HW276293   3.906   7.390  12.065
25423SOL     OW76294   4.228   7.154  12.082
25423SOL    HW176295   4.294   7.228  12.091
25423SOL    HW276296   4.272   7.075  12.040
25424SOL     OW76297   4.726   6.382  12.410
25424SOL    HW176298   4.767   6.350  12.496
25424SOL    HW276299   4.630   6.355  12.407
25425SOL     OW76300   3.764   6.130  12.286
25425SOL    HW176301   3.849   6.097  12.245
25425SOL    HW276302   3.777   6.145  12.384
25426SOL     OW76303   4.539   6.158  11.497
25426SOL    HW176304   4.546   6.069  11.451
25426SOL    HW276305   4.445   6.192  11.489
25427SOL     OW76306   5.381   6.190  12.378
25427SOL    HW176307   5.343   6.121  12.440
25427SOL    HW276308   5.463   6.154  12.334
25428SOL     OW76309   4.395   6.050  12.441
25428SOL    HW176310   4.361   5.961  12.411
25428SOL    HW276311   4.421   6.104  12.361
25429SOL     OW76312   4.654   7.264  12.637
25429SOL    HW176313   4.630   7.246  12.542
25429SOL    HW276314   4.684   7.358  12.647
25430SOL     OW76315   3.883   6.723  12.638
25430SOL    HW176316   3.905   6.662  12.714
25430SOL    HW276317   3.893   6.674  12.552
25431SOL     OW76318   5.071   6.645  12.406
25431SOL    HW176319   5.095   6.582  12.332
25431SOL    HW276320   4.981   6.685  12.388
25432SOL     OW76321   5.026   6.441  11.481
25432SOL    HW176322   4.940   6.410  11.523
25432SOL    HW276323   5.022   6.427  11.382
25433SOL     OW76324   5.483   7.333  12.326
25433SOL    HW176325   5.544   7.363  12.253
25433SOL    HW276326   5.445   7.244  12.304
25434SOL     OW76327   4.976   7.317  12.300
25434SOL    HW176328   5.060   7.322  12.246
25434SOL    HW276329   4.953   7.221  12.318
25435SOL     OW76330   3.807   6.844  12.194
25435SOL    HW176331   3.802   6.843  12.294
25435SOL    HW276332   3.724   6.803  12.156
25436SOL     OW76333   5.450   5.721  11.695
25436SOL    HW176334   5.523   5.704  11.628
25436SOL    HW276335   5.419   5.634  11.733
25437SOL     OW76336   5.112   7.159  11.649
25437SOL    HW176337   5.179   7.171  11.575
25437SOL    HW276338   5.072   7.248  11.672
25438SOL     OW76339   5.004   6.513  11.844
25438SOL    HW176340   5.064   6.432  11.846
25438SOL    HW276341   5.044   6.582  11.784
25439SOL     OW76342   4.396   7.202  11.326
25439SOL    HW176343   4.405   7.212  11.227
25439SOL    HW276344   4.356   7.113  11.347
25440SOL     OW76345   5.374   7.306  12.566
25440SOL    HW176346   5.427   7.316  12.482
25440SOL    HW276347   5.347   7.396  12.600
25441SOL     OW76348   5.565   5.761  12.135
25441SOL    HW176349   5.604   5.676  12.099
25441SOL    HW276350   5.467   5.763  12.116
25442SOL     OW76351   3.987   5.912  11.892
25442SOL    HW176352   3.908   5.963  11.858
25442SOL    HW276353   3.978   5.897  11.990
25443SOL     OW76354   4.918   7.198  11.203
25443SOL    HW176355   4.924   7.105  11.240
25443SOL    HW276356   4.859   7.198  11.123
25444SOL     OW76357   4.546   6.588  12.544
25444SOL    HW176358   4.586   6.587  12.452
25444SOL    HW276359   4.556   6.680  12.584
25445SOL     OW76360   4.640   6.496  11.463
25445SOL    HW176361   4.703   6.534  11.395
25445SOL    HW276362   4.680   6.413  11.502
25446SOL     OW76363   5.228   7.193  11.216
25446SOL    HW176364   5.136   7.230  11.223
25446SOL    HW276365   5.266   7.213  11.126
25447SOL     OW76366   4.096   6.874  12.662
25447SOL    HW176367   4.083   6.967  12.628
25447SOL    HW276368   4.012   6.822  12.649
25448SOL     OW76369   5.338   6.878  12.461
25448SOL    HW176370   5.398   6.881  12.541
25448SOL    HW276371   5.263   6.942  12.474
25449SOL     OW76372   4.763   6.684  11.868
25449SOL    HW176373   4.693   6.637  11.922
25449SOL    HW276374   4.822   6.616  11.825
25450SOL     OW76375   4.738   5.822  12.143
25450SOL    HW176376   4.730   5.786  12.050
25450SOL    HW276377   4.736   5.746  12.208
25451SOL     OW76378   4.314   7.073  11.663
25451SOL    HW176379   4.356   7.015  11.593
25451SOL    HW276380   4.270   7.152  11.619
25452SOL     OW76381   5.433   5.971  12.553
25452SOL    HW176382   5.506   6.040  12.557
25452SOL    HW276383   5.461   5.896  12.494
25453SOL     OW76384   3.979   6.934  11.462
25453SOL    HW176385   3.883   6.935  11.435
25453SOL    HW276386   3.991   6.987  11.546
25454SOL     OW76387   3.799   5.931  11.205
25454SOL    HW176388   3.707   5.903  11.176
25454SOL    HW276389   3.830   6.008  11.149
25455SOL     OW76390   5.164   6.442  12.570
25455SOL    HW176391   5.107   6.494  12.507
25455SOL    HW276392   5.260   6.454  12.546
25456SOL     OW76393   3.796   5.752  11.490
25456SOL    HW176394   3.779   5.835  11.436
25456SOL    HW276395   3.886   5.715  11.468
25457SOL     OW76396   4.907   6.921  11.291
25457SOL    HW176397   4.808   6.910  11.293
25457SOL    HW276398   4.941   6.936  11.384
25458SOL     OW76399   4.337   6.428  12.603
25458SOL    HW176400   4.393   6.509  12.586
25458SOL    HW276401   4.396   6.348  12.606
25459SOL     OW76402   5.217   7.353  12.131
25459SOL    HW176403   5.250   7.417  12.062
25459SOL    HW276404   5.283   7.347  12.206
25460SOL     OW76405   4.114   7.327  12.732
25460SOL    HW176406   4.023   7.368  12.730
25460SOL    HW276407   4.107   7.233  12.764
25461SOL     OW76408   5.398   6.469  12.426
25461SOL    HW176409   5.371   6.380  12.389
25461SOL    HW276410   5.399   6.537  12.353
25462SOL     OW76411   4.949   5.911  11.621
25462SOL    HW176412   5.014   5.837  11.610
25462SOL    HW276413   4.969   5.961  11.705
25463SOL     OW76414   4.318   6.331  11.824
25463SOL    HW176415   4.368   6.416  11.805
25463SOL    HW276416   4.230   6.333  11.776
25464SOL     OW76417   5.454   6.520  12.689
25464SOL    HW176418   5.492   6.611  12.704
25464SOL    HW276419   5.446   6.503  12.590
25465SOL     OW76420   4.583   6.960  11.188
25465SOL    HW176421   4.537   6.975  11.276
25465SOL    HW276422   4.627   7.045  11.158
25466SOL     OW76423   4.385   7.376  12.125
25466SOL    HW176424   4.339   7.464  12.112
25466SOL    HW276425   4.484   7.388  12.118
25467SOL     OW76426   4.583   6.542  12.033
25467SOL    HW176427   4.637   6.473  12.081
25467SOL    HW276428   4.551   6.611  12.099
25468SOL     OW76429   4.807   6.570  11.259
25468SOL    HW176430   4.784   6.623  11.177
25468SOL    HW276431   4.888   6.514  11.240
25469SOL     OW76432   5.585   7.155  12.023
25469SOL    HW176433   5.514   7.143  11.953
25469SOL    HW276434   5.586   7.076  12.083
25470SOL     OW76435   3.803   6.826  11.825
25470SOL    HW176436   3.802   6.779  11.913
25470SOL    HW276437   3.885   6.798  11.774
25471SOL     OW76438   5.548   5.778  12.399
25471SOL    HW176439   5.544   5.688  12.443
25471SOL    HW276440   5.551   5.767  12.300
25472SOL     OW76441   4.152   6.010  11.692
25472SOL    HW176442   4.182   5.938  11.630
25472SOL    HW276443   4.113   5.970  11.775
25473SOL     OW76444   5.429   7.073  12.276
25473SOL    HW176445   5.336   7.048  12.249
25473SOL    HW276446   5.455   7.023  12.358
25474SOL     OW76447   4.041   6.133  12.452
25474SOL    HW176448   4.079   6.074  12.524
25474SOL    HW276449   4.081   6.107  12.364
25475SOL     OW76450   4.536   7.172  11.859
25475SOL    HW176451   4.568   7.182  11.765
25475SOL    HW276452   4.457   7.110  11.861
25476SOL     OW76453   5.148   5.800  12.284
25476SOL    HW176454   5.200   5.735  12.339
25476SOL    HW276455   5.099   5.863  12.345
25477SOL     OW76456   4.725   5.620  12.326
25477SOL    HW176457   4.662   5.548  12.295
25477SOL    HW276458   4.818   5.584  12.326
25478SOL     OW76459   4.494   6.916  11.473
25478SOL    HW176460   4.448   6.829  11.490
25478SOL    HW276461   4.585   6.913  11.514
25479SOL     OW76462   4.342   7.153  12.456
25479SOL    HW176463   4.337   7.235  12.513
25479SOL    HW276464   4.431   7.150  12.411
25480SOL     OW76465   5.076   5.638  11.340
25480SOL    HW176466   5.111   5.597  11.256
25480SOL    HW276467   4.986   5.600  11.360
25481SOL     OW76468   5.024   6.039  11.863
25481SOL    HW176469   4.965   6.119  11.867
25481SOL    HW276470   5.039   6.004  11.956
25482SOL     OW76471   5.317   5.807  12.054
25482SOL    HW176472   5.233   5.806  12.108
25482SOL    HW276473   5.319   5.890  11.998
25483SOL     OW76474   3.763   6.663  11.472
25483SOL    HW176475   3.862   6.652  11.463
25483SOL    HW276476   3.723   6.577  11.504
25484SOL     OW76477   4.599   7.232  11.509
25484SOL    HW176478   4.522   7.197  11.455
25484SOL    HW276479   4.567   7.303  11.571
25485SOL     OW76480   3.954   8.076   0.113
25485SOL    HW176481   3.861   8.074   0.150
25485SOL    HW276482   3.955   8.037   0.021
25486SOL     OW76483   3.949   7.723   0.996
25486SOL    HW176484   3.984   7.706   1.088
25486SOL    HW276485   3.861   7.678   0.984
25487SOL     OW76486   3.743   7.816   0.647
25487SOL    HW176487   3.661   7.859   0.686
25487SOL    HW276488   3.715   7.743   0.584
25488SOL     OW76489   4.293   8.723   1.165
25488SOL    HW176490   4.200   8.716   1.128
25488SOL    HW276491   4.304   8.812   1.209
25489SOL     OW76492   5.279   8.959   0.703
25489SOL    HW176493   5.222   8.943   0.784
25489SOL    HW276494   5.220   8.969   0.623
25490SOL     OW76495   4.859   8.151   0.717
25490SOL    HW176496   4.916   8.229   0.692
25490SOL    HW276497   4.799   8.177   0.793
25491SOL     OW76498   5.479   8.055   0.231
25491SOL    HW176499   5.467   8.042   0.132
25491SOL    HW276500   5.449   7.974   0.280
25492SOL     OW76501   4.492   8.592   1.023
25492SOL    HW176502   4.414   8.609   1.083
25492SOL    HW276503   4.526   8.679   0.987
25493SOL     OW76504   4.574   8.246   1.823
25493SOL    HW176505   4.570   8.322   1.888
25493SOL    HW276506   4.596   8.282   1.732
25494SOL     OW76507   4.409   8.460   0.665
25494SOL    HW176508   4.478   8.444   0.735
25494SOL    HW276509   4.336   8.517   0.703
25495SOL     OW76510   4.410   8.609   1.803
25495SOL    HW176511   4.470   8.688   1.817
25495SOL    HW276512   4.324   8.640   1.762
25496SOL     OW76513   4.059   8.883   1.061
25496SOL    HW176514   3.981   8.852   1.008
25496SOL    HW276515   4.117   8.941   1.004
25497SOL     OW76516   5.184   8.953   1.339
25497SOL    HW176517   5.208   9.047   1.365
25497SOL    HW276518   5.168   8.899   1.421
25498SOL     OW76519   4.162   7.840   1.499
25498SOL    HW176520   4.244   7.784   1.508
25498SOL    HW276521   4.081   7.782   1.503
25499SOL     OW76522   5.327   7.895   0.737
25499SOL    HW176523   5.253   7.941   0.687
25499SOL    HW276524   5.378   7.963   0.790
25500SOL     OW76525   3.955   9.161   0.483
25500SOL    HW176526   3.989   9.238   0.537
25500SOL    HW276527   3.999   9.161   0.393
25501SOL     OW76528   4.851   8.789   1.690
25501SOL    HW176529   4.898   8.789   1.778
25501SOL    HW276530   4.803   8.702   1.679
25502SOL     OW76531   3.954   8.882   0.538
25502SOL    HW176532   3.928   8.978   0.538
25502SOL    HW276533   3.883   8.828   0.583
25503SOL     OW76534   3.964   8.539   0.886
25503SOL    HW176535   3.978   8.455   0.938
25503SOL    HW276536   3.909   8.603   0.941
25504SOL     OW76537   4.344   9.234   1.439
25504SOL    HW176538   4.252   9.217   1.474
25504SOL    HW276539   4.372   9.326   1.465
25505SOL     OW76540   4.330   8.412   0.123
25505SOL    HW176541   4.337   8.496   0.069
25505SOL    HW276542   4.376   8.425   0.211
25506SOL     OW76543   5.318   7.562   1.480
25506SOL    HW176544   5.300   7.629   1.408
25506SOL    HW276545   5.315   7.608   1.569
25507SOL     OW76546   3.846   8.091   0.563
25507SOL    HW176547   3.801   8.003   0.580
25507SOL    HW276548   3.845   8.145   0.647
25508SOL     OW76549   5.566   9.215   0.359
25508SOL    HW176550   5.620   9.186   0.439
25508SOL    HW276551   5.596   9.305   0.330
25509SOL     OW76552   3.751   9.044   0.117
25509SOL    HW176553   3.732   8.948   0.138
25509SOL    HW276554   3.718   9.102   0.192
25510SOL     OW76555   5.413   8.370   0.612
25510SOL    HW176556   5.508   8.341   0.620
25510SOL    HW276557   5.405   8.435   0.537
25511SOL     OW76558   5.365   8.556   0.432
25511SOL    HW176559   5.451   8.558   0.380
25511SOL    HW276560   5.379   8.603   0.520
25512SOL     OW76561   3.837   8.185   1.597
25512SOL    HW176562   3.925   8.172   1.642
25512SOL    HW276563   3.824   8.282   1.575
25513SOL     OW76564   4.337   8.813   0.726
25513SOL    HW176565   4.288   8.726   0.735
25513SOL    HW276566   4.314   8.856   0.639
25514SOL     OW76567   5.017   8.676   1.423
25514SOL    HW176568   5.054   8.603   1.365
25514SOL    HW276569   5.069   8.681   1.508
25515SOL     OW76570   4.533   7.452   0.502
25515SOL    HW176571   4.573   7.543   0.493
25515SOL    HW276572   4.433   7.460   0.508
25516SOL     OW76573   3.921   8.424   1.264
25516SOL    HW176574   4.010   8.379   1.250
25516SOL    HW276575   3.848   8.359   1.245
25517SOL     OW76576   5.249   8.447   0.190
25517SOL    HW176577   5.186   8.371   0.203
25517SOL    HW276578   5.297   8.465   0.276
25518SOL     OW76579   4.911   9.240   1.616
25518SOL    HW176580   4.935   9.300   1.540
25518SOL    HW276581   4.918   9.145   1.586
25519SOL     OW76582   4.041   7.699   1.801
25519SOL    HW176583   4.112   7.770   1.807
25519SOL    HW276584   3.953   7.738   1.829
25520SOL     OW76585   5.190   8.865   0.953
25520SOL    HW176586   5.131   8.871   1.033
25520SOL    HW276587   5.175   8.777   0.907
25521SOL     OW76588   5.391   9.162   0.572
25521SOL    HW176589   5.350   9.139   0.484
25521SOL    HW276590   5.373   9.088   0.637
25522SOL     OW76591   4.322   8.177   0.270
25522SOL    HW176592   4.346   8.246   0.202
25522SOL    HW276593   4.244   8.210   0.324
25523SOL     OW76594   5.005   7.793   0.944
25523SOL    HW176595   4.919   7.743   0.931
25523SOL    HW276596   5.067   7.739   1.000
25524SOL     OW76597   5.300   9.110   0.307
25524SOL    HW176598   5.389   9.156   0.310
25524SOL    HW276599   5.279   9.086   0.212
25525SOL     OW76600   4.531   8.053   1.465
25525SOL    HW176601   4.484   8.050   1.554
25525SOL    HW276602   4.480   7.998   1.399
25526SOL     OW76603   5.118   7.917   1.674
25526SOL    HW176604   5.098   7.960   1.762
25526SOL    HW276605   5.196   7.855   1.683
25527SOL     OW76606   4.697   8.338   1.572
25527SOL    HW176607   4.743   8.254   1.543
25527SOL    HW276608   4.641   8.372   1.497
25528SOL     OW76609   4.715   7.858   1.242
25528SOL    HW176610   4.638   7.892   1.296
25528SOL    HW276611   4.681   7.807   1.163
25529SOL     OW76612   4.765   8.149   0.429
25529SOL    HW176613   4.791   8.145   0.525
25529SOL    HW276614   4.680   8.098   0.415
25530SOL     OW76615   3.800   8.259   0.789
25530SOL    HW176616   3.899   8.247   0.798
25530SOL    HW276617   3.776   8.354   0.810
25531SOL     OW76618   3.854   9.269   1.571
25531SOL    HW176619   3.844   9.254   1.670
25531SOL    HW276620   3.768   9.305   1.535
25532SOL     OW76621   4.589   7.796   0.195
25532SOL    HW176622   4.648   7.859   0.146
25532SOL    HW276623   4.608   7.702   0.166
25533SOL     OW76624   5.443   8.033   1.831
25533SOL    HW176625   5.417   8.122   1.795
25533SOL    HW276626   5.441   7.965   1.758
25534SOL     OW76627   5.086   8.592   0.545
25534SOL    HW176628   5.169   8.563   0.497
25534SOL    HW276629   5.037   8.659   0.489
25535SOL     OW76630   4.274   7.644   0.885
25535SOL    HW176631   4.269   7.639   0.985
25535SOL    HW276632   4.276   7.740   0.856
25536SOL     OW76633   4.732   8.904   0.477
25536SOL    HW176634   4.686   8.976   0.425
25536SOL    HW276635   4.728   8.924   0.575
25537SOL     OW76636   4.075   9.249   0.853
25537SOL    HW176637   4.125   9.163   0.859
25537SOL    HW276638   4.140   9.326   0.850
25538SOL     OW76639   5.519   8.514   0.873
25538SOL    HW176640   5.457   8.499   0.797
25538SOL    HW276641   5.467   8.525   0.958
25539SOL     OW76642   4.951   8.998   1.506
25539SOL    HW176643   4.957   8.921   1.570
25539SOL    HW276644   4.899   8.972   1.426
25540SOL     OW76645   4.045   8.391   0.242
25540SOL    HW176646   4.127   8.430   0.200
25540SOL    HW276647   4.018   8.309   0.193
25541SOL     OW76648   5.182   8.183   0.728
25541SOL    HW176649   5.177   8.118   0.803
25541SOL    HW276650   5.262   8.242   0.741
25542SOL     OW76651   4.185   8.714   1.727
25542SOL    HW176652   4.135   8.715   1.641
25542SOL    HW276653   4.122   8.696   1.803
25543SOL     OW76654   4.835   9.224   0.237
25543SOL    HW176655   4.775   9.162   0.287
25543SOL    HW276656   4.866   9.180   0.152
25544SOL     OW76657   3.926   7.733   1.498
25544SOL    HW176658   3.846   7.793   1.485
25544SOL    HW276659   3.916   7.684   1.584
25545SOL     OW76660   5.356   8.825   0.081
25545SOL    HW176661   5.324   8.919   0.071
25545SOL    HW276662   5.280   8.762   0.069
25546SOL     OW76663   4.188   9.191   0.323
25546SOL    HW176664   4.221   9.230   0.409
25546SOL    HW276665   4.264   9.184   0.258
25547SOL     OW76666   5.124   7.555   0.426
25547SOL    HW176667   5.100   7.518   0.336
25547SOL    HW276668   5.223   7.571   0.430
25548SOL     OW76669   3.973   9.233   1.241
25548SOL    HW176670   4.030   9.168   1.291
25548SOL    HW276671   3.957   9.200   1.148
25549SOL     OW76672   4.664   9.146   0.904
25549SOL    HW176673   4.744   9.089   0.925
25549SOL    HW276674   4.615   9.106   0.827
25550SOL     OW76675   4.106   8.148   0.480
25550SOL    HW176676   4.151   8.058   0.477
25550SOL    HW276677   4.012   8.137   0.513
25551SOL     OW76678   5.271   7.670   1.729
25551SOL    HW176679   5.266   7.707   1.821
25551SOL    HW276680   5.199   7.601   1.717
25552SOL     OW76681   4.338   7.570   0.117
25552SOL    HW176682   4.436   7.548   0.124
25552SOL    HW276683   4.307   7.553   0.024
25553SOL     OW76684   4.505   7.712   1.749
25553SOL    HW176685   4.572   7.651   1.792
25553SOL    HW276686   4.432   7.731   1.814
25554SOL     OW76687   4.612   8.962   1.195
25554SOL    HW176688   4.589   8.937   1.101
25554SOL    HW276689   4.673   8.893   1.234
25555SOL     OW76690   5.075   8.038   1.433
25555SOL    HW176691   5.103   7.995   1.518
25555SOL    HW276692   5.100   8.134   1.434
25556SOL     OW76693   4.527   8.850   0.924
25556SOL    HW176694   4.617   8.864   0.882
25556SOL    HW276695   4.456   8.852   0.853
25557SOL     OW76696   4.646   7.951   0.899
25557SOL    HW176697   4.621   7.942   0.803
25557SOL    HW276698   4.694   7.869   0.930
25558SOL     OW76699   4.263   7.512   0.512
25558SOL    HW176700   4.182   7.513   0.570
25558SOL    HW276701   4.266   7.595   0.457
25559SOL     OW76702   5.158   8.636   0.041
25559SOL    HW176703   5.190   8.560   0.098
25559SOL    HW276704   5.066   8.663   0.071
25560SOL     OW76705   4.021   7.483   0.171
25560SOL    HW176706   4.070   7.567   0.150
25560SOL    HW276707   4.083   7.418   0.216
25561SOL     OW76708   4.659   7.684   0.480
25561SOL    HW176709   4.611   7.725   0.402
25561SOL    HW276710   4.758   7.682   0.461
25562SOL     OW76711   4.800   8.131   1.464
25562SOL    HW176712   4.720   8.070   1.467
25562SOL    HW276713   4.881   8.078   1.440
25563SOL     OW76714   4.951   9.018   0.793
25563SOL    HW176715   4.972   9.092   0.728
25563SOL    HW276716   5.019   9.018   0.866
25564SOL     OW76717   4.183   8.600   0.741
25564SOL    HW176718   4.112   8.573   0.806
25564SOL    HW276719   4.157   8.572   0.648
25565SOL     OW76720   4.995   9.245   0.591
25565SOL    HW176721   5.039   9.309   0.527
25565SOL    HW276722   4.945   9.297   0.661
25566SOL     OW76723   4.756   7.997   0.016
25566SOL    HW176724   4.715   8.079  -0.023
25566SOL    HW276725   4.820   8.023   0.089
25567SOL     OW76726   3.802   8.004   1.386
25567SOL    HW176727   3.894   8.003   1.345
25567SOL    HW276728   3.796   8.078   1.453
25568SOL     OW76729   4.285   7.670   1.147
25568SOL    HW176730   4.323   7.586   1.184
25568SOL    HW276731   4.197   7.689   1.191
25569SOL     OW76732   4.590   7.902   0.642
25569SOL    HW176733   4.558   7.974   0.580
25569SOL    HW276734   4.614   7.821   0.589
25570SOL     OW76735   4.741   7.487   0.753
25570SOL    HW176736   4.669   7.492   0.684
25570SOL    HW276737   4.717   7.418   0.822
25571SOL     OW76738   5.153   8.621   0.867
25571SOL    HW176739   5.098   8.537   0.860
25571SOL    HW276740   5.179   8.650   0.775
25572SOL     OW76741   5.190   8.038   0.992
25572SOL    HW176742   5.160   7.943   0.999
25572SOL    HW276743   5.263   8.054   1.058
25573SOL     OW76744   5.581   8.281   0.377
25573SOL    HW176745   5.623   8.217   0.441
25573SOL    HW276746   5.543   8.230   0.299
25574SOL     OW76747   4.212   8.833   0.174
25574SOL    HW176748   4.125   8.818   0.221
25574SOL    HW276749   4.195   8.859   0.079
25575SOL     OW76750   5.388   8.728   0.657
25575SOL    HW176751   5.487   8.736   0.671
25575SOL    HW276752   5.343   8.812   0.688
25576SOL     OW76753   5.114   8.023   0.078
25576SOL    HW176754   5.060   8.002   0.159
25576SOL    HW276755   5.205   7.982   0.087
25577SOL     OW76756   4.251   7.704   0.328
25577SOL    HW176757   4.278   7.645   0.253
25577SOL    HW276758   4.251   7.799   0.297
25578SOL     OW76759   5.478   8.671   1.588
25578SOL    HW176760   5.569   8.632   1.575
25578SOL    HW276761   5.486   8.767   1.612
25579SOL     OW76762   4.788   8.795   1.340
25579SOL    HW176763   4.708   8.772   1.395
25579SOL    HW276764   4.871   8.769   1.389
25580SOL     OW76765   5.316   9.077   1.625
25580SOL    HW176766   5.343   9.111   1.535
25580SOL    HW276767   5.395   9.039   1.671
25581SOL     OW76768   4.835   8.643   1.100
25581SOL    HW176769   4.795   8.687   1.181
25581SOL    HW276770   4.794   8.680   1.017
25582SOL     OW76771   5.362   8.547   1.079
25582SOL    HW176772   5.367   8.628   1.138
25582SOL    HW276773   5.276   8.549   1.028
25583SOL     OW76774   4.639   7.537   1.402
25583SOL    HW176775   4.664   7.517   1.307
25583SOL    HW276776   4.711   7.593   1.444
25584SOL     OW76777   4.704   8.564   1.719
25584SOL    HW176778   4.605   8.570   1.729
25584SOL    HW276779   4.727   8.484   1.663
25585SOL     OW76780   4.429   8.498   0.368
25585SOL    HW176781   4.415   8.505   0.467
25585SOL    HW276782   4.513   8.447   0.350
25586SOL     OW76783   4.134   8.261   1.251
25586SOL    HW176784   4.220   8.273   1.301
25586SOL    HW276785   4.092   8.174   1.278
25587SOL     OW76786   4.998   7.834   1.262
25587SOL    HW176787   5.019   7.908   1.326
25587SOL    HW276788   4.909   7.851   1.219
25588SOL     OW76789   3.788   9.012   1.331
25588SOL    HW176790   3.742   9.094   1.297
25588SOL    HW276791   3.886   9.031   1.340
25589SOL     OW76792   4.091   8.548   0.501
25589SOL    HW176793   4.084   8.631   0.445
25589SOL    HW276794   4.095   8.468   0.441
25590SOL     OW76795   4.290   7.985   0.865
25590SOL    HW176796   4.302   8.051   0.791
25590SOL    HW276797   4.336   8.019   0.948
25591SOL     OW76798   4.976   8.796   0.388
25591SOL    HW176799   5.026   8.873   0.428
25591SOL    HW276800   4.881   8.798   0.420
25592SOL     OW76801   4.996   8.893   1.142
25592SOL    HW176802   5.043   8.906   1.229
25592SOL    HW276803   4.930   8.819   1.151
25593SOL     OW76804   5.306   8.087   0.472
25593SOL    HW176805   5.275   8.148   0.545
25593SOL    HW276806   5.356   8.139   0.403
25594SOL     OW76807   4.078   8.958   1.329
25594SOL    HW176808   4.057   8.914   1.242
25594SOL    HW276809   4.175   8.984   1.332
25595SOL     OW76810   4.126   8.199   1.598
25595SOL    HW176811   4.194   8.254   1.551
25595SOL    HW276812   4.166   8.111   1.625
25596SOL     OW76813   5.311   8.227   1.670
25596SOL    HW176814   5.219   8.265   1.665
25596SOL    HW276815   5.371   8.274   1.605
25597SOL     OW76816   4.737   7.553   1.770
25597SOL    HW176817   4.743   7.638   1.718
25597SOL    HW276818   4.769   7.477   1.713
25598SOL     OW76819   4.228   7.498   1.740
25598SOL    HW176820   4.186   7.441   1.670
25598SOL    HW276821   4.162   7.567   1.772
25599SOL     OW76822   4.297   8.318   1.029
25599SOL    HW176823   4.341   8.407   1.020
25599SOL    HW276824   4.234   8.318   1.106
25600SOL     OW76825   5.084   8.310   1.045
25600SOL    HW176826   5.009   8.310   0.979
25600SOL    HW276827   5.121   8.218   1.054
25601SOL     OW76828   4.933   7.973   0.275
25601SOL    HW176829   4.946   7.889   0.329
25601SOL    HW276830   4.904   8.047   0.335
25602SOL     OW76831   4.031   7.661   1.231
25602SOL    HW176832   4.008   7.698   1.321
25602SOL    HW276833   4.001   7.566   1.225
25603SOL     OW76834   3.761   8.758   1.282
25603SOL    HW176835   3.814   8.709   1.350
25603SOL    HW276836   3.783   8.856   1.287
25604SOL     OW76837   4.456   8.082   1.064
25604SOL    HW176838   4.515   8.056   0.988
25604SOL    HW276839   4.428   8.178   1.053
25605SOL     OW76840   5.452   8.383   1.854
25605SOL    HW176841   5.406   8.376   1.765
25605SOL    HW276842   5.390   8.427   1.920
25606SOL     OW76843   4.031   7.511   0.618
25606SOL    HW176844   4.020   7.605   0.651
25606SOL    HW276845   4.026   7.448   0.695
25607SOL     OW76846   5.346   7.815   0.374
25607SOL    HW176847   5.348   7.739   0.438
25607SOL    HW276848   5.298   7.892   0.414
25608SOL     OW76849   4.747   8.214   0.966
25608SOL    HW176850   4.762   8.235   1.062
25608SOL    HW276851   4.717   8.119   0.957
25609SOL     OW76852   4.704   9.021   1.700
25609SOL    HW176853   4.684   9.065   1.612
25609SOL    HW276854   4.743   8.930   1.684
25610SOL     OW76855   5.583   8.966   1.605
25610SOL    HW176856   5.597   8.993   1.510
25610SOL    HW276857   5.666   8.988   1.658
25611SOL     OW76858   4.074   8.346   1.804
25611SOL    HW176859   4.150   8.390   1.852
25611SOL    HW276860   4.109   8.299   1.722
25612SOL     OW76861   5.264   7.722   0.125
25612SOL    HW176862   5.203   7.647   0.148
25612SOL    HW276863   5.286   7.774   0.208
25613SOL     OW76864   5.027   8.286   0.042
25613SOL    HW176865   5.061   8.193   0.057
25613SOL    HW276866   5.045   8.313  -0.053
25614SOL     OW76867   4.792   8.781   0.849
25614SOL    HW176868   4.799   8.697   0.794
25614SOL    HW276869   4.854   8.850   0.813
25615SOL     OW76870   4.043   8.258   0.949
25615SOL    HW176871   4.136   8.294   0.954
25615SOL    HW276872   4.037   8.173   1.001
25616SOL     OW76873   4.063   7.957   1.006
25616SOL    HW176874   4.011   7.874   0.989
25616SOL    HW276875   4.140   7.962   0.942
25617SOL     OW76876   4.862   7.828   1.678
25617SOL    HW176877   4.817   7.891   1.742
25617SOL    HW276878   4.955   7.859   1.661
25618SOL     OW76879   4.884   7.655   1.477
25618SOL    HW176880   4.884   7.719   1.554
25618SOL    HW276881   4.912   7.703   1.394
25619SOL     OW76882   3.732   8.774   0.200
25619SOL    HW176883   3.639   8.795   0.169
25619SOL    HW276884   3.742   8.675   0.213
25620SOL     OW76885   3.812   9.249   0.927
25620SOL    HW176886   3.770   9.163   0.900
25620SOL    HW276887   3.906   9.252   0.893
25621SOL     OW76888   4.228   9.016   0.910
25621SOL    HW176889   4.294   9.090   0.919
25621SOL    HW276890   4.272   8.937   0.868
25622SOL     OW76891   4.726   8.244   1.238
25622SOL    HW176892   4.767   8.212   1.324
25622SOL    HW276893   4.630   8.217   1.235
25623SOL     OW76894   3.764   7.992   1.114
25623SOL    HW176895   3.849   7.959   1.073
25623SOL    HW276896   3.777   8.007   1.212
25624SOL     OW76897   3.913   7.968   1.722
25624SOL    HW176898   3.972   7.928   1.652
25624SOL    HW276899   3.855   8.039   1.681
25625SOL     OW76900   5.093   8.398   1.660
25625SOL    HW176901   5.132   8.487   1.680
25625SOL    HW276902   5.103   8.378   1.563
25626SOL     OW76903   4.539   8.020   0.325
25626SOL    HW176904   4.546   7.931   0.279
25626SOL    HW276905   4.445   8.054   0.317
25627SOL     OW76906   5.381   8.052   1.206
25627SOL    HW176907   5.343   7.983   1.268
25627SOL    HW276908   5.463   8.016   1.162
25628SOL     OW76909   3.976   9.012   1.744
25628SOL    HW176910   3.946   9.069   1.820
25628SOL    HW276911   3.969   8.915   1.770
25629SOL     OW76912   4.395   7.912   1.269
25629SOL    HW176913   4.361   7.823   1.239
25629SOL    HW276914   4.421   7.966   1.189
25630SOL     OW76915   4.654   9.126   1.465
25630SOL    HW176916   4.630   9.108   1.370
25630SOL    HW276917   4.684   9.220   1.475
25631SOL     OW76918   4.197   7.948   0.191
25631SOL    HW176919   4.258   8.028   0.195
25631SOL    HW276920   4.102   7.979   0.198
25632SOL     OW76921   3.883   8.585   1.466
25632SOL    HW176922   3.905   8.524   1.542
25632SOL    HW276923   3.893   8.536   1.380
25633SOL     OW76924   5.071   8.507   1.234
25633SOL    HW176925   5.095   8.444   1.160
25633SOL    HW276926   4.981   8.547   1.216
25634SOL     OW76927   5.026   8.303   0.309
25634SOL    HW176928   4.940   8.272   0.351
25634SOL    HW276929   5.022   8.289   0.210
25635SOL     OW76930   5.483   9.195   1.154
25635SOL    HW176931   5.544   9.225   1.081
25635SOL    HW276932   5.445   9.106   1.132
25636SOL     OW76933   4.976   9.179   1.128
25636SOL    HW176934   5.060   9.184   1.074
25636SOL    HW276935   4.953   9.083   1.146
25637SOL     OW76936   3.807   8.706   1.022
25637SOL    HW176937   3.802   8.705   1.122
25637SOL    HW276938   3.724   8.665   0.984
25638SOL     OW76939   4.412   9.110   1.716
25638SOL    HW176940   4.356   9.191   1.725
25638SOL    HW276941   4.464   9.114   1.630
25639SOL     OW76942   4.627   7.534   0.133
25639SOL    HW176943   4.678   7.535   0.047
25639SOL    HW276944   4.683   7.492   0.204
25640SOL     OW76945   5.450   7.583   0.523
25640SOL    HW176946   5.523   7.566   0.456
25640SOL    HW276947   5.419   7.496   0.561
25641SOL     OW76948   5.112   9.021   0.477
25641SOL    HW176949   5.179   9.033   0.403
25641SOL    HW276950   5.072   9.110   0.500
25642SOL     OW76951   3.854   9.242   1.851
25642SOL    HW176952   3.813   9.168   1.904
25642SOL    HW276953   3.918   9.293   1.909
25643SOL     OW76954   5.004   8.375   0.672
25643SOL    HW176955   5.064   8.294   0.674
25643SOL    HW276956   5.044   8.444   0.612
25644SOL     OW76957   4.554   8.721   1.422
25644SOL    HW176958   4.549   8.754   1.517
25644SOL    HW276959   4.468   8.740   1.376
25645SOL     OW76960   4.396   9.064   0.154
25645SOL    HW176961   4.405   9.074   0.055
25645SOL    HW276962   4.356   8.975   0.175
25646SOL     OW76963   5.374   9.168   1.394
25646SOL    HW176964   5.427   9.178   1.310
25646SOL    HW276965   5.347   9.258   1.428
25647SOL     OW76966   5.565   7.623   0.963
25647SOL    HW176967   5.604   7.538   0.927
25647SOL    HW276968   5.467   7.625   0.944
25648SOL     OW76969   3.987   7.774   0.720
25648SOL    HW176970   3.908   7.825   0.686
25648SOL    HW276971   3.978   7.759   0.818
25649SOL     OW76972   4.918   9.060   0.031
25649SOL    HW176973   4.924   8.967   0.068
25649SOL    HW276974   4.859   9.060  -0.049
25650SOL     OW76975   4.546   8.450   1.372
25650SOL    HW176976   4.586   8.449   1.280
25650SOL    HW276977   4.556   8.542   1.412
25651SOL     OW76978   4.640   8.358   0.291
25651SOL    HW176979   4.703   8.396   0.223
25651SOL    HW276980   4.680   8.275   0.330
25652SOL     OW76981   5.228   9.055   0.044
25652SOL    HW176982   5.136   9.092   0.051
25652SOL    HW276983   5.266   9.075  -0.046
25653SOL     OW76984   4.096   8.736   1.490
25653SOL    HW176985   4.083   8.829   1.456
25653SOL    HW276986   4.012   8.684   1.477
25654SOL     OW76987   5.338   8.740   1.289
25654SOL    HW176988   5.398   8.743   1.369
25654SOL    HW276989   5.263   8.804   1.302
25655SOL     OW76990   4.763   8.546   0.696
25655SOL    HW176991   4.693   8.499   0.750
25655SOL    HW276992   4.822   8.478   0.653
25656SOL     OW76993   4.738   7.684   0.971
25656SOL    HW176994   4.730   7.648   0.878
25656SOL    HW276995   4.736   7.608   1.036
25657SOL     OW76996   4.314   8.935   0.491
25657SOL    HW176997   4.356   8.877   0.421
25657SOL    HW276998   4.270   9.014   0.447
25658SOL     OW76999   5.433   7.833   1.381
25658SOL    HW177000   5.506   7.902   1.385
25658SOL    HW277001   5.461   7.758   1.322
25659SOL     OW77002   3.979   8.796   0.290
25659SOL    HW177003   3.883   8.797   0.263
25659SOL    HW277004   3.991   8.849   0.374
25660SOL     OW77005   3.829   8.461   1.726
25660SOL    HW177006   3.752   8.428   1.780
25660SOL    HW277007   3.914   8.431   1.768
25661SOL     OW77008   4.396   7.651   1.489
25661SOL    HW177009   4.486   7.635   1.449
25661SOL    HW277010   4.404   7.656   1.588
25662SOL     OW77011   5.164   8.304   1.398
25662SOL    HW177012   5.107   8.356   1.335
25662SOL    HW277013   5.260   8.316   1.374
25663SOL     OW77014   3.796   7.614   0.318
25663SOL    HW177015   3.779   7.697   0.264
25663SOL    HW277016   3.886   7.577   0.296
25664SOL     OW77017   4.907   8.783   0.119
25664SOL    HW177018   4.808   8.772   0.121
25664SOL    HW277019   4.941   8.798   0.212
25665SOL     OW77020   4.337   8.290   1.431
25665SOL    HW177021   4.393   8.371   1.414
25665SOL    HW277022   4.396   8.210   1.434
25666SOL     OW77023   5.217   9.215   0.959
25666SOL    HW177024   5.250   9.279   0.890
25666SOL    HW277025   5.283   9.209   1.034
25667SOL     OW77026   4.440   8.013   1.708
25667SOL    HW177027   4.459   8.078   1.782
25667SOL    HW277028   4.500   7.933   1.717
25668SOL     OW77029   5.174   8.668   1.633
25668SOL    HW177030   5.165   8.658   1.732
25668SOL    HW277031   5.270   8.661   1.607
25669SOL     OW77032   4.114   9.189   1.560
25669SOL    HW177033   4.023   9.230   1.558
25669SOL    HW277034   4.107   9.095   1.592
25670SOL     OW77035   5.398   8.331   1.254
25670SOL    HW177036   5.371   8.242   1.217
25670SOL    HW277037   5.399   8.399   1.181
25671SOL     OW77038   4.949   7.773   0.449
25671SOL    HW177039   5.014   7.699   0.438
25671SOL    HW277040   4.969   7.823   0.533
25672SOL     OW77041   4.318   8.193   0.652
25672SOL    HW177042   4.368   8.278   0.633
25672SOL    HW277043   4.230   8.195   0.604
25673SOL     OW77044   5.501   7.790   1.642
25673SOL    HW177045   5.484   7.821   1.548
25673SOL    HW277046   5.417   7.753   1.680
25674SOL     OW77047   5.454   8.382   1.517
25674SOL    HW177048   5.492   8.473   1.532
25674SOL    HW277049   5.446   8.365   1.418
25675SOL     OW77050   4.583   8.822   0.016
25675SOL    HW177051   4.537   8.837   0.104
25675SOL    HW277052   4.627   8.907  -0.014
25676SOL     OW77053   4.385   9.238   0.953
25676SOL    HW177054   4.339   9.326   0.940
25676SOL    HW277055   4.484   9.250   0.946
25677SOL     OW77056   4.583   8.404   0.861
25677SOL    HW177057   4.637   8.335   0.909
25677SOL    HW277058   4.551   8.473   0.927
25678SOL     OW77059   4.807   8.432   0.087
25678SOL    HW177060   4.784   8.485   0.005
25678SOL    HW277061   4.888   8.376   0.068
25679SOL     OW77062   5.585   9.017   0.851
25679SOL    HW177063   5.514   9.005   0.781
25679SOL    HW277064   5.586   8.938   0.911
25680SOL     OW77065   3.945   8.762   1.844
25680SOL    HW177066   3.880   8.689   1.823
25680SOL    HW277067   3.949   8.776   1.942
25681SOL     OW77068   3.803   8.688   0.653
25681SOL    HW177069   3.802   8.641   0.741
25681SOL    HW277070   3.885   8.660   0.602
25682SOL     OW77071   4.396   8.839   1.624
25682SOL    HW177072   4.318   8.789   1.662
25682SOL    HW277073   4.393   8.934   1.655
25683SOL     OW77074   5.548   7.640   1.227
25683SOL    HW177075   5.544   7.550   1.271
25683SOL    HW277076   5.551   7.629   1.128
25684SOL     OW77077   4.152   7.872   0.520
25684SOL    HW177078   4.182   7.800   0.458
25684SOL    HW277079   4.113   7.832   0.603
25685SOL     OW77080   5.429   8.935   1.104
25685SOL    HW177081   5.336   8.910   1.077
25685SOL    HW277082   5.455   8.885   1.186
25686SOL     OW77083   4.536   9.034   0.687
25686SOL    HW177084   4.568   9.044   0.593
25686SOL    HW277085   4.457   8.972   0.689
25687SOL     OW77086   5.148   7.662   1.112
25687SOL    HW177087   5.200   7.597   1.167
25687SOL    HW277088   5.099   7.725   1.173
25688SOL     OW77089   4.725   7.482   1.154
25688SOL    HW177090   4.662   7.410   1.123
25688SOL    HW277091   4.818   7.446   1.154
25689SOL     OW77092   4.494   8.778   0.301
25689SOL    HW177093   4.448   8.691   0.318
25689SOL    HW277094   4.585   8.775   0.342
25690SOL     OW77095   4.342   9.015   1.284
25690SOL    HW177096   4.337   9.097   1.341
25690SOL    HW277097   4.431   9.012   1.239
25691SOL     OW77098   5.076   7.500   0.168
25691SOL    HW177099   5.111   7.459   0.084
25691SOL    HW277100   4.986   7.462   0.188
25692SOL     OW77101   5.024   7.901   0.691
25692SOL    HW177102   4.965   7.981   0.695
25692SOL    HW277103   5.039   7.866   0.784
25693SOL     OW77104   5.317   7.669   0.882
25693SOL    HW177105   5.233   7.668   0.936
25693SOL    HW277106   5.319   7.752   0.826
25694SOL     OW77107   3.763   8.525   0.300
25694SOL    HW177108   3.862   8.514   0.291
25694SOL    HW277109   3.723   8.439   0.332
25695SOL     OW77110   4.599   9.094   0.337
25695SOL    HW177111   4.522   9.059   0.283
25695SOL    HW277112   4.567   9.165   0.399
25696SOL     OW77113   3.954   8.076   1.975
25696SOL    HW177114   3.861   8.074   2.012
25696SOL    HW277115   3.955   8.037   1.883
25697SOL     OW77116   3.949   7.723   2.858
25697SOL    HW177117   3.984   7.706   2.950
25697SOL    HW277118   3.861   7.678   2.846
25698SOL     OW77119   3.743   7.816   2.509
25698SOL    HW177120   3.661   7.859   2.548
25698SOL    HW277121   3.715   7.743   2.446
25699SOL     OW77122   4.293   8.723   3.027
25699SOL    HW177123   4.200   8.716   2.990
25699SOL    HW277124   4.304   8.812   3.071
25700SOL     OW77125   5.279   8.959   2.565
25700SOL    HW177126   5.222   8.943   2.646
25700SOL    HW277127   5.220   8.969   2.485
25701SOL     OW77128   4.859   8.151   2.579
25701SOL    HW177129   4.916   8.229   2.554
25701SOL    HW277130   4.799   8.177   2.655
25702SOL     OW77131   5.479   8.055   2.093
25702SOL    HW177132   5.467   8.042   1.994
25702SOL    HW277133   5.449   7.974   2.142
25703SOL     OW77134   4.492   8.592   2.885
25703SOL    HW177135   4.414   8.609   2.945
25703SOL    HW277136   4.526   8.679   2.849
25704SOL     OW77137   4.574   8.246   3.685
25704SOL    HW177138   4.570   8.322   3.750
25704SOL    HW277139   4.596   8.282   3.594
25705SOL     OW77140   4.409   8.460   2.527
25705SOL    HW177141   4.478   8.444   2.597
25705SOL    HW277142   4.336   8.517   2.565
25706SOL     OW77143   4.410   8.609   3.665
25706SOL    HW177144   4.470   8.688   3.679
25706SOL    HW277145   4.324   8.640   3.624
25707SOL     OW77146   4.059   8.883   2.923
25707SOL    HW177147   3.981   8.852   2.870
25707SOL    HW277148   4.117   8.941   2.866
25708SOL     OW77149   5.184   8.953   3.201
25708SOL    HW177150   5.208   9.047   3.227
25708SOL    HW277151   5.168   8.899   3.283
25709SOL     OW77152   4.162   7.840   3.361
25709SOL    HW177153   4.244   7.784   3.370
25709SOL    HW277154   4.081   7.782   3.365
25710SOL     OW77155   5.327   7.895   2.599
25710SOL    HW177156   5.253   7.941   2.549
25710SOL    HW277157   5.378   7.963   2.652
25711SOL     OW77158   3.955   9.161   2.345
25711SOL    HW177159   3.989   9.238   2.399
25711SOL    HW277160   3.999   9.161   2.255
25712SOL     OW77161   4.851   8.789   3.552
25712SOL    HW177162   4.898   8.789   3.640
25712SOL    HW277163   4.803   8.702   3.541
25713SOL     OW77164   3.954   8.882   2.400
25713SOL    HW177165   3.928   8.978   2.400
25713SOL    HW277166   3.883   8.828   2.445
25714SOL     OW77167   3.964   8.539   2.748
25714SOL    HW177168   3.978   8.455   2.800
25714SOL    HW277169   3.909   8.603   2.803
25715SOL     OW77170   4.344   9.234   3.301
25715SOL    HW177171   4.252   9.217   3.336
25715SOL    HW277172   4.372   9.326   3.327
25716SOL     OW77173   4.330   8.412   1.985
25716SOL    HW177174   4.337   8.496   1.931
25716SOL    HW277175   4.376   8.425   2.073
25717SOL     OW77176   5.318   7.562   3.342
25717SOL    HW177177   5.300   7.629   3.270
25717SOL    HW277178   5.315   7.608   3.431
25718SOL     OW77179   3.846   8.091   2.425
25718SOL    HW177180   3.801   8.003   2.442
25718SOL    HW277181   3.845   8.145   2.509
25719SOL     OW77182   5.566   9.215   2.221
25719SOL    HW177183   5.620   9.186   2.301
25719SOL    HW277184   5.596   9.305   2.192
25720SOL     OW77185   3.751   9.044   1.979
25720SOL    HW177186   3.732   8.948   2.000
25720SOL    HW277187   3.718   9.102   2.054
25721SOL     OW77188   5.413   8.370   2.474
25721SOL    HW177189   5.508   8.341   2.482
25721SOL    HW277190   5.405   8.435   2.399
25722SOL     OW77191   5.365   8.556   2.294
25722SOL    HW177192   5.451   8.558   2.242
25722SOL    HW277193   5.379   8.603   2.382
25723SOL     OW77194   3.837   8.185   3.459
25723SOL    HW177195   3.925   8.172   3.504
25723SOL    HW277196   3.824   8.282   3.437
25724SOL     OW77197   4.337   8.813   2.588
25724SOL    HW177198   4.288   8.726   2.597
25724SOL    HW277199   4.314   8.856   2.501
25725SOL     OW77200   5.017   8.676   3.285
25725SOL    HW177201   5.054   8.603   3.227
25725SOL    HW277202   5.069   8.681   3.370
25726SOL     OW77203   4.533   7.452   2.364
25726SOL    HW177204   4.573   7.543   2.355
25726SOL    HW277205   4.433   7.460   2.370
25727SOL     OW77206   3.921   8.424   3.126
25727SOL    HW177207   4.010   8.379   3.112
25727SOL    HW277208   3.848   8.359   3.107
25728SOL     OW77209   5.249   8.447   2.052
25728SOL    HW177210   5.186   8.371   2.065
25728SOL    HW277211   5.297   8.465   2.138
25729SOL     OW77212   4.911   9.240   3.478
25729SOL    HW177213   4.935   9.300   3.402
25729SOL    HW277214   4.918   9.145   3.448
25730SOL     OW77215   4.041   7.699   3.663
25730SOL    HW177216   4.112   7.770   3.669
25730SOL    HW277217   3.953   7.738   3.691
25731SOL     OW77218   5.190   8.865   2.815
25731SOL    HW177219   5.131   8.871   2.895
25731SOL    HW277220   5.175   8.777   2.769
25732SOL     OW77221   5.391   9.162   2.434
25732SOL    HW177222   5.350   9.139   2.346
25732SOL    HW277223   5.373   9.088   2.499
25733SOL     OW77224   4.322   8.177   2.132
25733SOL    HW177225   4.346   8.246   2.064
25733SOL    HW277226   4.244   8.210   2.186
25734SOL     OW77227   5.005   7.793   2.806
25734SOL    HW177228   4.919   7.743   2.793
25734SOL    HW277229   5.067   7.739   2.862
25735SOL     OW77230   5.300   9.110   2.169
25735SOL    HW177231   5.389   9.156   2.172
25735SOL    HW277232   5.279   9.086   2.074
25736SOL     OW77233   4.531   8.053   3.327
25736SOL    HW177234   4.484   8.050   3.416
25736SOL    HW277235   4.480   7.998   3.261
25737SOL     OW77236   5.118   7.917   3.536
25737SOL    HW177237   5.098   7.960   3.624
25737SOL    HW277238   5.196   7.855   3.545
25738SOL     OW77239   4.697   8.338   3.434
25738SOL    HW177240   4.743   8.254   3.405
25738SOL    HW277241   4.641   8.372   3.359
25739SOL     OW77242   4.715   7.858   3.104
25739SOL    HW177243   4.638   7.892   3.158
25739SOL    HW277244   4.681   7.807   3.025
25740SOL     OW77245   4.765   8.149   2.291
25740SOL    HW177246   4.791   8.145   2.387
25740SOL    HW277247   4.680   8.098   2.277
25741SOL     OW77248   3.800   8.259   2.651
25741SOL    HW177249   3.899   8.247   2.660
25741SOL    HW277250   3.776   8.354   2.672
25742SOL     OW77251   3.854   9.269   3.433
25742SOL    HW177252   3.844   9.254   3.532
25742SOL    HW277253   3.768   9.305   3.397
25743SOL     OW77254   4.589   7.796   2.057
25743SOL    HW177255   4.648   7.859   2.008
25743SOL    HW277256   4.608   7.702   2.028
25744SOL     OW77257   5.443   8.033   3.693
25744SOL    HW177258   5.417   8.122   3.657
25744SOL    HW277259   5.441   7.965   3.620
25745SOL     OW77260   5.086   8.592   2.407
25745SOL    HW177261   5.169   8.563   2.359
25745SOL    HW277262   5.037   8.659   2.351
25746SOL     OW77263   4.274   7.644   2.747
25746SOL    HW177264   4.269   7.639   2.847
25746SOL    HW277265   4.276   7.740   2.718
25747SOL     OW77266   4.732   8.904   2.339
25747SOL    HW177267   4.686   8.976   2.287
25747SOL    HW277268   4.728   8.924   2.437
25748SOL     OW77269   4.075   9.249   2.715
25748SOL    HW177270   4.125   9.163   2.721
25748SOL    HW277271   4.140   9.326   2.712
25749SOL     OW77272   5.519   8.514   2.735
25749SOL    HW177273   5.457   8.499   2.659
25749SOL    HW277274   5.467   8.525   2.820
25750SOL     OW77275   4.951   8.998   3.368
25750SOL    HW177276   4.957   8.921   3.432
25750SOL    HW277277   4.899   8.972   3.288
25751SOL     OW77278   4.045   8.391   2.104
25751SOL    HW177279   4.127   8.430   2.062
25751SOL    HW277280   4.018   8.309   2.055
25752SOL     OW77281   5.182   8.183   2.590
25752SOL    HW177282   5.177   8.118   2.665
25752SOL    HW277283   5.262   8.242   2.603
25753SOL     OW77284   4.185   8.714   3.589
25753SOL    HW177285   4.135   8.715   3.503
25753SOL    HW277286   4.122   8.696   3.665
25754SOL     OW77287   4.835   9.224   2.099
25754SOL    HW177288   4.775   9.162   2.149
25754SOL    HW277289   4.866   9.180   2.014
25755SOL     OW77290   3.926   7.733   3.360
25755SOL    HW177291   3.846   7.793   3.347
25755SOL    HW277292   3.916   7.684   3.446
25756SOL     OW77293   5.356   8.825   1.943
25756SOL    HW177294   5.324   8.919   1.933
25756SOL    HW277295   5.280   8.762   1.931
25757SOL     OW77296   4.188   9.191   2.185
25757SOL    HW177297   4.221   9.230   2.271
25757SOL    HW277298   4.264   9.184   2.120
25758SOL     OW77299   5.124   7.555   2.288
25758SOL    HW177300   5.100   7.518   2.198
25758SOL    HW277301   5.223   7.571   2.292
25759SOL     OW77302   3.973   9.233   3.103
25759SOL    HW177303   4.030   9.168   3.153
25759SOL    HW277304   3.957   9.200   3.010
25760SOL     OW77305   4.664   9.146   2.766
25760SOL    HW177306   4.744   9.089   2.787
25760SOL    HW277307   4.615   9.106   2.689
25761SOL     OW77308   4.106   8.148   2.342
25761SOL    HW177309   4.151   8.058   2.339
25761SOL    HW277310   4.012   8.137   2.375
25762SOL     OW77311   5.271   7.670   3.591
25762SOL    HW177312   5.266   7.707   3.683
25762SOL    HW277313   5.199   7.601   3.579
25763SOL     OW77314   4.338   7.570   1.979
25763SOL    HW177315   4.436   7.548   1.986
25763SOL    HW277316   4.307   7.553   1.886
25764SOL     OW77317   4.505   7.712   3.611
25764SOL    HW177318   4.572   7.651   3.654
25764SOL    HW277319   4.432   7.731   3.676
25765SOL     OW77320   4.612   8.962   3.057
25765SOL    HW177321   4.589   8.937   2.963
25765SOL    HW277322   4.673   8.893   3.096
25766SOL     OW77323   5.075   8.038   3.295
25766SOL    HW177324   5.103   7.995   3.380
25766SOL    HW277325   5.100   8.134   3.296
25767SOL     OW77326   4.527   8.850   2.786
25767SOL    HW177327   4.617   8.864   2.744
25767SOL    HW277328   4.456   8.852   2.715
25768SOL     OW77329   4.646   7.951   2.761
25768SOL    HW177330   4.621   7.942   2.665
25768SOL    HW277331   4.694   7.869   2.792
25769SOL     OW77332   4.263   7.512   2.374
25769SOL    HW177333   4.182   7.513   2.432
25769SOL    HW277334   4.266   7.595   2.319
25770SOL     OW77335   5.158   8.636   1.903
25770SOL    HW177336   5.190   8.560   1.960
25770SOL    HW277337   5.066   8.663   1.933
25771SOL     OW77338   4.021   7.483   2.033
25771SOL    HW177339   4.070   7.567   2.012
25771SOL    HW277340   4.083   7.418   2.078
25772SOL     OW77341   4.659   7.684   2.342
25772SOL    HW177342   4.611   7.725   2.264
25772SOL    HW277343   4.758   7.682   2.323
25773SOL     OW77344   4.800   8.131   3.326
25773SOL    HW177345   4.720   8.070   3.329
25773SOL    HW277346   4.881   8.078   3.302
25774SOL     OW77347   4.951   9.018   2.655
25774SOL    HW177348   4.972   9.092   2.590
25774SOL    HW277349   5.019   9.018   2.728
25775SOL     OW77350   4.183   8.600   2.603
25775SOL    HW177351   4.112   8.573   2.668
25775SOL    HW277352   4.157   8.572   2.510
25776SOL     OW77353   4.995   9.245   2.453
25776SOL    HW177354   5.039   9.309   2.389
25776SOL    HW277355   4.945   9.297   2.523
25777SOL     OW77356   4.756   7.997   1.878
25777SOL    HW177357   4.715   8.079   1.839
25777SOL    HW277358   4.820   8.023   1.951
25778SOL     OW77359   3.802   8.004   3.248
25778SOL    HW177360   3.894   8.003   3.207
25778SOL    HW277361   3.796   8.078   3.315
25779SOL     OW77362   4.285   7.670   3.009
25779SOL    HW177363   4.323   7.586   3.046
25779SOL    HW277364   4.197   7.689   3.053
25780SOL     OW77365   4.590   7.902   2.504
25780SOL    HW177366   4.558   7.974   2.442
25780SOL    HW277367   4.614   7.821   2.451
25781SOL     OW77368   4.741   7.487   2.615
25781SOL    HW177369   4.669   7.492   2.546
25781SOL    HW277370   4.717   7.418   2.684
25782SOL     OW77371   5.153   8.621   2.729
25782SOL    HW177372   5.098   8.537   2.722
25782SOL    HW277373   5.179   8.650   2.637
25783SOL     OW77374   5.190   8.038   2.854
25783SOL    HW177375   5.160   7.943   2.861
25783SOL    HW277376   5.263   8.054   2.920
25784SOL     OW77377   5.581   8.281   2.239
25784SOL    HW177378   5.623   8.217   2.303
25784SOL    HW277379   5.543   8.230   2.161
25785SOL     OW77380   4.212   8.833   2.036
25785SOL    HW177381   4.125   8.818   2.083
25785SOL    HW277382   4.195   8.859   1.941
25786SOL     OW77383   5.388   8.728   2.519
25786SOL    HW177384   5.487   8.736   2.533
25786SOL    HW277385   5.343   8.812   2.550
25787SOL     OW77386   5.114   8.023   1.940
25787SOL    HW177387   5.060   8.002   2.021
25787SOL    HW277388   5.205   7.982   1.949
25788SOL     OW77389   4.251   7.704   2.190
25788SOL    HW177390   4.278   7.645   2.115
25788SOL    HW277391   4.251   7.799   2.159
25789SOL     OW77392   5.478   8.671   3.450
25789SOL    HW177393   5.569   8.632   3.437
25789SOL    HW277394   5.486   8.767   3.474
25790SOL     OW77395   4.788   8.795   3.202
25790SOL    HW177396   4.708   8.772   3.257
25790SOL    HW277397   4.871   8.769   3.251
25791SOL     OW77398   5.316   9.077   3.487
25791SOL    HW177399   5.343   9.111   3.397
25791SOL    HW277400   5.395   9.039   3.533
25792SOL     OW77401   4.835   8.643   2.962
25792SOL    HW177402   4.795   8.687   3.043
25792SOL    HW277403   4.794   8.680   2.879
25793SOL     OW77404   5.362   8.547   2.941
25793SOL    HW177405   5.367   8.628   3.000
25793SOL    HW277406   5.276   8.549   2.890
25794SOL     OW77407   4.639   7.537   3.264
25794SOL    HW177408   4.664   7.517   3.169
25794SOL    HW277409   4.711   7.593   3.306
25795SOL     OW77410   4.704   8.564   3.581
25795SOL    HW177411   4.605   8.570   3.591
25795SOL    HW277412   4.727   8.484   3.525
25796SOL     OW77413   4.429   8.498   2.230
25796SOL    HW177414   4.415   8.505   2.329
25796SOL    HW277415   4.513   8.447   2.212
25797SOL     OW77416   4.134   8.261   3.113
25797SOL    HW177417   4.220   8.273   3.163
25797SOL    HW277418   4.092   8.174   3.140
25798SOL     OW77419   4.998   7.834   3.124
25798SOL    HW177420   5.019   7.908   3.188
25798SOL    HW277421   4.909   7.851   3.081
25799SOL     OW77422   3.788   9.012   3.193
25799SOL    HW177423   3.742   9.094   3.159
25799SOL    HW277424   3.886   9.031   3.202
25800SOL     OW77425   4.091   8.548   2.363
25800SOL    HW177426   4.084   8.631   2.307
25800SOL    HW277427   4.095   8.468   2.303
25801SOL     OW77428   4.290   7.985   2.727
25801SOL    HW177429   4.302   8.051   2.653
25801SOL    HW277430   4.336   8.019   2.810
25802SOL     OW77431   4.976   8.796   2.250
25802SOL    HW177432   5.026   8.873   2.290
25802SOL    HW277433   4.881   8.798   2.282
25803SOL     OW77434   4.996   8.893   3.004
25803SOL    HW177435   5.043   8.906   3.091
25803SOL    HW277436   4.930   8.819   3.013
25804SOL     OW77437   5.306   8.087   2.334
25804SOL    HW177438   5.275   8.148   2.407
25804SOL    HW277439   5.356   8.139   2.265
25805SOL     OW77440   4.078   8.958   3.191
25805SOL    HW177441   4.057   8.914   3.104
25805SOL    HW277442   4.175   8.984   3.194
25806SOL     OW77443   4.126   8.199   3.460
25806SOL    HW177444   4.194   8.254   3.413
25806SOL    HW277445   4.166   8.111   3.487
25807SOL     OW77446   5.311   8.227   3.532
25807SOL    HW177447   5.219   8.265   3.527
25807SOL    HW277448   5.371   8.274   3.467
25808SOL     OW77449   4.737   7.553   3.632
25808SOL    HW177450   4.743   7.638   3.580
25808SOL    HW277451   4.769   7.477   3.575
25809SOL     OW77452   4.228   7.498   3.602
25809SOL    HW177453   4.186   7.441   3.532
25809SOL    HW277454   4.162   7.567   3.634
25810SOL     OW77455   4.297   8.318   2.891
25810SOL    HW177456   4.341   8.407   2.882
25810SOL    HW277457   4.234   8.318   2.968
25811SOL     OW77458   5.084   8.310   2.907
25811SOL    HW177459   5.009   8.310   2.841
25811SOL    HW277460   5.121   8.218   2.916
25812SOL     OW77461   4.933   7.973   2.137
25812SOL    HW177462   4.946   7.889   2.191
25812SOL    HW277463   4.904   8.047   2.197
25813SOL     OW77464   4.031   7.661   3.093
25813SOL    HW177465   4.008   7.698   3.183
25813SOL    HW277466   4.001   7.566   3.087
25814SOL     OW77467   3.761   8.758   3.144
25814SOL    HW177468   3.814   8.709   3.212
25814SOL    HW277469   3.783   8.856   3.149
25815SOL     OW77470   4.456   8.082   2.926
25815SOL    HW177471   4.515   8.056   2.850
25815SOL    HW277472   4.428   8.178   2.915
25816SOL     OW77473   5.452   8.383   3.716
25816SOL    HW177474   5.406   8.376   3.627
25816SOL    HW277475   5.390   8.427   3.782
25817SOL     OW77476   4.031   7.511   2.480
25817SOL    HW177477   4.020   7.605   2.513
25817SOL    HW277478   4.026   7.448   2.557
25818SOL     OW77479   5.346   7.815   2.236
25818SOL    HW177480   5.348   7.739   2.300
25818SOL    HW277481   5.298   7.892   2.276
25819SOL     OW77482   4.747   8.214   2.828
25819SOL    HW177483   4.762   8.235   2.924
25819SOL    HW277484   4.717   8.119   2.819
25820SOL     OW77485   4.704   9.021   3.562
25820SOL    HW177486   4.684   9.065   3.474
25820SOL    HW277487   4.743   8.930   3.546
25821SOL     OW77488   5.583   8.966   3.467
25821SOL    HW177489   5.597   8.993   3.372
25821SOL    HW277490   5.666   8.988   3.520
25822SOL     OW77491   4.074   8.346   3.666
25822SOL    HW177492   4.150   8.390   3.714
25822SOL    HW277493   4.109   8.299   3.584
25823SOL     OW77494   5.264   7.722   1.987
25823SOL    HW177495   5.203   7.647   2.010
25823SOL    HW277496   5.286   7.774   2.070
25824SOL     OW77497   5.027   8.286   1.904
25824SOL    HW177498   5.061   8.193   1.919
25824SOL    HW277499   5.045   8.313   1.809
25825SOL     OW77500   4.792   8.781   2.711
25825SOL    HW177501   4.799   8.697   2.656
25825SOL    HW277502   4.854   8.850   2.675
25826SOL     OW77503   4.043   8.258   2.811
25826SOL    HW177504   4.136   8.294   2.816
25826SOL    HW277505   4.037   8.173   2.863
25827SOL     OW77506   4.063   7.957   2.868
25827SOL    HW177507   4.011   7.874   2.851
25827SOL    HW277508   4.140   7.962   2.804
25828SOL     OW77509   4.862   7.828   3.540
25828SOL    HW177510   4.817   7.891   3.604
25828SOL    HW277511   4.955   7.859   3.523
25829SOL     OW77512   4.884   7.655   3.339
25829SOL    HW177513   4.884   7.719   3.416
25829SOL    HW277514   4.912   7.703   3.256
25830SOL     OW77515   3.732   8.774   2.062
25830SOL    HW177516   3.639   8.795   2.031
25830SOL    HW277517   3.742   8.675   2.075
25831SOL     OW77518   3.812   9.249   2.789
25831SOL    HW177519   3.770   9.163   2.762
25831SOL    HW277520   3.906   9.252   2.755
25832SOL     OW77521   4.228   9.016   2.772
25832SOL    HW177522   4.294   9.090   2.781
25832SOL    HW277523   4.272   8.937   2.730
25833SOL     OW77524   4.726   8.244   3.100
25833SOL    HW177525   4.767   8.212   3.186
25833SOL    HW277526   4.630   8.217   3.097
25834SOL     OW77527   3.764   7.992   2.976
25834SOL    HW177528   3.849   7.959   2.935
25834SOL    HW277529   3.777   8.007   3.074
25835SOL     OW77530   3.913   7.968   3.584
25835SOL    HW177531   3.972   7.928   3.514
25835SOL    HW277532   3.855   8.039   3.543
25836SOL     OW77533   5.093   8.398   3.522
25836SOL    HW177534   5.132   8.487   3.542
25836SOL    HW277535   5.103   8.378   3.425
25837SOL     OW77536   4.539   8.020   2.187
25837SOL    HW177537   4.546   7.931   2.141
25837SOL    HW277538   4.445   8.054   2.179
25838SOL     OW77539   5.381   8.052   3.068
25838SOL    HW177540   5.343   7.983   3.130
25838SOL    HW277541   5.463   8.016   3.024
25839SOL     OW77542   3.976   9.012   3.606
25839SOL    HW177543   3.946   9.069   3.682
25839SOL    HW277544   3.969   8.915   3.632
25840SOL     OW77545   4.395   7.912   3.131
25840SOL    HW177546   4.361   7.823   3.101
25840SOL    HW277547   4.421   7.966   3.051
25841SOL     OW77548   4.654   9.126   3.327
25841SOL    HW177549   4.630   9.108   3.232
25841SOL    HW277550   4.684   9.220   3.337
25842SOL     OW77551   4.197   7.948   2.053
25842SOL    HW177552   4.258   8.028   2.057
25842SOL    HW277553   4.102   7.979   2.060
25843SOL     OW77554   3.883   8.585   3.328
25843SOL    HW177555   3.905   8.524   3.404
25843SOL    HW277556   3.893   8.536   3.242
25844SOL     OW77557   5.071   8.507   3.096
25844SOL    HW177558   5.095   8.444   3.022
25844SOL    HW277559   4.981   8.547   3.078
25845SOL     OW77560   5.026   8.303   2.171
25845SOL    HW177561   4.940   8.272   2.213
25845SOL    HW277562   5.022   8.289   2.072
25846SOL     OW77563   5.483   9.195   3.016
25846SOL    HW177564   5.544   9.225   2.943
25846SOL    HW277565   5.445   9.106   2.994
25847SOL     OW77566   4.976   9.179   2.990
25847SOL    HW177567   5.060   9.184   2.936
25847SOL    HW277568   4.953   9.083   3.008
25848SOL     OW77569   3.807   8.706   2.884
25848SOL    HW177570   3.802   8.705   2.984
25848SOL    HW277571   3.724   8.665   2.846
25849SOL     OW77572   4.412   9.110   3.578
25849SOL    HW177573   4.356   9.191   3.587
25849SOL    HW277574   4.464   9.114   3.492
25850SOL     OW77575   5.450   7.583   2.385
25850SOL    HW177576   5.523   7.566   2.318
25850SOL    HW277577   5.419   7.496   2.423
25851SOL     OW77578   5.112   9.021   2.339
25851SOL    HW177579   5.179   9.033   2.265
25851SOL    HW277580   5.072   9.110   2.362
25852SOL     OW77581   3.854   9.242   3.713
25852SOL    HW177582   3.813   9.168   3.766
25852SOL    HW277583   3.918   9.293   3.771
25853SOL     OW77584   5.004   8.375   2.534
25853SOL    HW177585   5.064   8.294   2.536
25853SOL    HW277586   5.044   8.444   2.474
25854SOL     OW77587   4.554   8.721   3.284
25854SOL    HW177588   4.549   8.754   3.379
25854SOL    HW277589   4.468   8.740   3.238
25855SOL     OW77590   4.396   9.064   2.016
25855SOL    HW177591   4.405   9.074   1.917
25855SOL    HW277592   4.356   8.975   2.037
25856SOL     OW77593   5.374   9.168   3.256
25856SOL    HW177594   5.427   9.178   3.172
25856SOL    HW277595   5.347   9.258   3.290
25857SOL     OW77596   5.565   7.623   2.825
25857SOL    HW177597   5.604   7.538   2.789
25857SOL    HW277598   5.467   7.625   2.806
25858SOL     OW77599   3.987   7.774   2.582
25858SOL    HW177600   3.908   7.825   2.548
25858SOL    HW277601   3.978   7.759   2.680
25859SOL     OW77602   4.918   9.060   1.893
25859SOL    HW177603   4.924   8.967   1.930
25859SOL    HW277604   4.859   9.060   1.813
25860SOL     OW77605   4.546   8.450   3.234
25860SOL    HW177606   4.586   8.449   3.142
25860SOL    HW277607   4.556   8.542   3.274
25861SOL     OW77608   4.640   8.358   2.153
25861SOL    HW177609   4.703   8.396   2.085
25861SOL    HW277610   4.680   8.275   2.192
25862SOL     OW77611   5.228   9.055   1.906
25862SOL    HW177612   5.136   9.092   1.913
25862SOL    HW277613   5.266   9.075   1.816
25863SOL     OW77614   4.096   8.736   3.352
25863SOL    HW177615   4.083   8.829   3.318
25863SOL    HW277616   4.012   8.684   3.339
25864SOL     OW77617   5.338   8.740   3.151
25864SOL    HW177618   5.398   8.743   3.231
25864SOL    HW277619   5.263   8.804   3.164
25865SOL     OW77620   4.763   8.546   2.558
25865SOL    HW177621   4.693   8.499   2.612
25865SOL    HW277622   4.822   8.478   2.515
25866SOL     OW77623   4.738   7.684   2.833
25866SOL    HW177624   4.730   7.648   2.740
25866SOL    HW277625   4.736   7.608   2.898
25867SOL     OW77626   4.314   8.935   2.353
25867SOL    HW177627   4.356   8.877   2.283
25867SOL    HW277628   4.270   9.014   2.309
25868SOL     OW77629   5.433   7.833   3.243
25868SOL    HW177630   5.506   7.902   3.247
25868SOL    HW277631   5.461   7.758   3.184
25869SOL     OW77632   3.979   8.796   2.152
25869SOL    HW177633   3.883   8.797   2.125
25869SOL    HW277634   3.991   8.849   2.236
25870SOL     OW77635   3.829   8.461   3.588
25870SOL    HW177636   3.752   8.428   3.642
25870SOL    HW277637   3.914   8.431   3.630
25871SOL     OW77638   4.396   7.651   3.351
25871SOL    HW177639   4.486   7.635   3.311
25871SOL    HW277640   4.404   7.656   3.450
25872SOL     OW77641   3.799   7.793   1.895
25872SOL    HW177642   3.707   7.765   1.866
25872SOL    HW277643   3.830   7.870   1.839
25873SOL     OW77644   5.164   8.304   3.260
25873SOL    HW177645   5.107   8.356   3.197
25873SOL    HW277646   5.260   8.316   3.236
25874SOL     OW77647   3.796   7.614   2.180
25874SOL    HW177648   3.779   7.697   2.126
25874SOL    HW277649   3.886   7.577   2.158
25875SOL     OW77650   4.907   8.783   1.981
25875SOL    HW177651   4.808   8.772   1.983
25875SOL    HW277652   4.941   8.798   2.074
25876SOL     OW77653   4.337   8.290   3.293
25876SOL    HW177654   4.393   8.371   3.276
25876SOL    HW277655   4.396   8.210   3.296
25877SOL     OW77656   5.217   9.215   2.821
25877SOL    HW177657   5.250   9.279   2.752
25877SOL    HW277658   5.283   9.209   2.896
25878SOL     OW77659   4.440   8.013   3.570
25878SOL    HW177660   4.459   8.078   3.644
25878SOL    HW277661   4.500   7.933   3.579
25879SOL     OW77662   5.174   8.668   3.495
25879SOL    HW177663   5.165   8.658   3.594
25879SOL    HW277664   5.270   8.661   3.469
25880SOL     OW77665   4.114   9.189   3.422
25880SOL    HW177666   4.023   9.230   3.420
25880SOL    HW277667   4.107   9.095   3.454
25881SOL     OW77668   5.398   8.331   3.116
25881SOL    HW177669   5.371   8.242   3.079
25881SOL    HW277670   5.399   8.399   3.043
25882SOL     OW77671   4.949   7.773   2.311
25882SOL    HW177672   5.014   7.699   2.300
25882SOL    HW277673   4.969   7.823   2.395
25883SOL     OW77674   4.318   8.193   2.514
25883SOL    HW177675   4.368   8.278   2.495
25883SOL    HW277676   4.230   8.195   2.466
25884SOL     OW77677   5.501   7.790   3.504
25884SOL    HW177678   5.484   7.821   3.410
25884SOL    HW277679   5.417   7.753   3.542
25885SOL     OW77680   5.454   8.382   3.379
25885SOL    HW177681   5.492   8.473   3.394
25885SOL    HW277682   5.446   8.365   3.280
25886SOL     OW77683   4.583   8.822   1.878
25886SOL    HW177684   4.537   8.837   1.966
25886SOL    HW277685   4.627   8.907   1.848
25887SOL     OW77686   4.385   9.238   2.815
25887SOL    HW177687   4.339   9.326   2.802
25887SOL    HW277688   4.484   9.250   2.808
25888SOL     OW77689   4.583   8.404   2.723
25888SOL    HW177690   4.637   8.335   2.771
25888SOL    HW277691   4.551   8.473   2.789
25889SOL     OW77692   4.807   8.432   1.949
25889SOL    HW177693   4.784   8.485   1.867
25889SOL    HW277694   4.888   8.376   1.930
25890SOL     OW77695   5.585   9.017   2.713
25890SOL    HW177696   5.514   9.005   2.643
25890SOL    HW277697   5.586   8.938   2.773
25891SOL     OW77698   3.945   8.762   3.706
25891SOL    HW177699   3.880   8.689   3.685
25891SOL    HW277700   3.949   8.776   3.804
25892SOL     OW77701   3.803   8.688   2.515
25892SOL    HW177702   3.802   8.641   2.603
25892SOL    HW277703   3.885   8.660   2.464
25893SOL     OW77704   4.396   8.839   3.486
25893SOL    HW177705   4.318   8.789   3.524
25893SOL    HW277706   4.393   8.934   3.517
25894SOL     OW77707   5.548   7.640   3.089
25894SOL    HW177708   5.544   7.550   3.133
25894SOL    HW277709   5.551   7.629   2.990
25895SOL     OW77710   4.152   7.872   2.382
25895SOL    HW177711   4.182   7.800   2.320
25895SOL    HW277712   4.113   7.832   2.465
25896SOL     OW77713   5.429   8.935   2.966
25896SOL    HW177714   5.336   8.910   2.939
25896SOL    HW277715   5.455   8.885   3.048
25897SOL     OW77716   4.041   7.995   3.142
25897SOL    HW177717   4.079   7.936   3.214
25897SOL    HW277718   4.081   7.969   3.054
25898SOL     OW77719   4.536   9.034   2.549
25898SOL    HW177720   4.568   9.044   2.455
25898SOL    HW277721   4.457   8.972   2.551
25899SOL     OW77722   5.148   7.662   2.974
25899SOL    HW177723   5.200   7.597   3.029
25899SOL    HW277724   5.099   7.725   3.035
25900SOL     OW77725   4.725   7.482   3.016
25900SOL    HW177726   4.662   7.410   2.985
25900SOL    HW277727   4.818   7.446   3.016
25901SOL     OW77728   4.494   8.778   2.163
25901SOL    HW177729   4.448   8.691   2.180
25901SOL    HW277730   4.585   8.775   2.204
25902SOL     OW77731   4.342   9.015   3.146
25902SOL    HW177732   4.337   9.097   3.203
25902SOL    HW277733   4.431   9.012   3.101
25903SOL     OW77734   5.076   7.500   2.030
25903SOL    HW177735   5.111   7.459   1.946
25903SOL    HW277736   4.986   7.462   2.050
25904SOL     OW77737   5.024   7.901   2.553
25904SOL    HW177738   4.965   7.981   2.557
25904SOL    HW277739   5.039   7.866   2.646
25905SOL     OW77740   5.317   7.669   2.744
25905SOL    HW177741   5.233   7.668   2.798
25905SOL    HW277742   5.319   7.752   2.688
25906SOL     OW77743   3.763   8.525   2.162
25906SOL    HW177744   3.862   8.514   2.153
25906SOL    HW277745   3.723   8.439   2.194
25907SOL     OW77746   4.599   9.094   2.199
25907SOL    HW177747   4.522   9.059   2.145
25907SOL    HW277748   4.567   9.165   2.261
25908SOL     OW77749   3.954   8.076   3.837
25908SOL    HW177750   3.861   8.074   3.874
25908SOL    HW277751   3.955   8.037   3.745
25909SOL     OW77752   3.949   7.723   4.720
25909SOL    HW177753   3.984   7.706   4.812
25909SOL    HW277754   3.861   7.678   4.708
25910SOL     OW77755   3.743   7.816   4.371
25910SOL    HW177756   3.661   7.859   4.410
25910SOL    HW277757   3.715   7.743   4.308
25911SOL     OW77758   4.293   8.723   4.889
25911SOL    HW177759   4.200   8.716   4.852
25911SOL    HW277760   4.304   8.812   4.933
25912SOL     OW77761   5.279   8.959   4.427
25912SOL    HW177762   5.222   8.943   4.508
25912SOL    HW277763   5.220   8.969   4.347
25913SOL     OW77764   4.859   8.151   4.441
25913SOL    HW177765   4.916   8.229   4.416
25913SOL    HW277766   4.799   8.177   4.517
25914SOL     OW77767   5.479   8.055   3.955
25914SOL    HW177768   5.467   8.042   3.856
25914SOL    HW277769   5.449   7.974   4.004
25915SOL     OW77770   4.492   8.592   4.747
25915SOL    HW177771   4.414   8.609   4.807
25915SOL    HW277772   4.526   8.679   4.711
25916SOL     OW77773   4.574   8.246   5.547
25916SOL    HW177774   4.570   8.322   5.612
25916SOL    HW277775   4.596   8.282   5.456
25917SOL     OW77776   4.409   8.460   4.389
25917SOL    HW177777   4.478   8.444   4.459
25917SOL    HW277778   4.336   8.517   4.427
25918SOL     OW77779   4.410   8.609   5.527
25918SOL    HW177780   4.470   8.688   5.541
25918SOL    HW277781   4.324   8.640   5.486
25919SOL     OW77782   4.059   8.883   4.785
25919SOL    HW177783   3.981   8.852   4.732
25919SOL    HW277784   4.117   8.941   4.728
25920SOL     OW77785   5.184   8.953   5.063
25920SOL    HW177786   5.208   9.047   5.089
25920SOL    HW277787   5.168   8.899   5.145
25921SOL     OW77788   4.162   7.840   5.223
25921SOL    HW177789   4.244   7.784   5.232
25921SOL    HW277790   4.081   7.782   5.227
25922SOL     OW77791   5.327   7.895   4.461
25922SOL    HW177792   5.253   7.941   4.411
25922SOL    HW277793   5.378   7.963   4.514
25923SOL     OW77794   3.955   9.161   4.207
25923SOL    HW177795   3.989   9.238   4.261
25923SOL    HW277796   3.999   9.161   4.117
25924SOL     OW77797   4.851   8.789   5.414
25924SOL    HW177798   4.898   8.789   5.502
25924SOL    HW277799   4.803   8.702   5.403
25925SOL     OW77800   3.954   8.882   4.262
25925SOL    HW177801   3.928   8.978   4.262
25925SOL    HW277802   3.883   8.828   4.307
25926SOL     OW77803   3.964   8.539   4.610
25926SOL    HW177804   3.978   8.455   4.662
25926SOL    HW277805   3.909   8.603   4.665
25927SOL     OW77806   4.344   9.234   5.163
25927SOL    HW177807   4.252   9.217   5.198
25927SOL    HW277808   4.372   9.326   5.189
25928SOL     OW77809   4.330   8.412   3.847
25928SOL    HW177810   4.337   8.496   3.793
25928SOL    HW277811   4.376   8.425   3.935
25929SOL     OW77812   5.318   7.562   5.204
25929SOL    HW177813   5.300   7.629   5.132
25929SOL    HW277814   5.315   7.608   5.293
25930SOL     OW77815   3.846   8.091   4.287
25930SOL    HW177816   3.801   8.003   4.304
25930SOL    HW277817   3.845   8.145   4.371
25931SOL     OW77818   5.566   9.215   4.083
25931SOL    HW177819   5.620   9.186   4.163
25931SOL    HW277820   5.596   9.305   4.054
25932SOL     OW77821   3.751   9.044   3.841
25932SOL    HW177822   3.732   8.948   3.862
25932SOL    HW277823   3.718   9.102   3.916
25933SOL     OW77824   5.413   8.370   4.336
25933SOL    HW177825   5.508   8.341   4.344
25933SOL    HW277826   5.405   8.435   4.261
25934SOL     OW77827   5.365   8.556   4.156
25934SOL    HW177828   5.451   8.558   4.104
25934SOL    HW277829   5.379   8.603   4.244
25935SOL     OW77830   3.837   8.185   5.321
25935SOL    HW177831   3.925   8.172   5.366
25935SOL    HW277832   3.824   8.282   5.299
25936SOL     OW77833   4.337   8.813   4.450
25936SOL    HW177834   4.288   8.726   4.459
25936SOL    HW277835   4.314   8.856   4.363
25937SOL     OW77836   5.017   8.676   5.147
25937SOL    HW177837   5.054   8.603   5.089
25937SOL    HW277838   5.069   8.681   5.232
25938SOL     OW77839   4.533   7.452   4.226
25938SOL    HW177840   4.573   7.543   4.217
25938SOL    HW277841   4.433   7.460   4.232
25939SOL     OW77842   3.921   8.424   4.988
25939SOL    HW177843   4.010   8.379   4.974
25939SOL    HW277844   3.848   8.359   4.969
25940SOL     OW77845   5.249   8.447   3.914
25940SOL    HW177846   5.186   8.371   3.927
25940SOL    HW277847   5.297   8.465   4.000
25941SOL     OW77848   4.911   9.240   5.340
25941SOL    HW177849   4.935   9.300   5.264
25941SOL    HW277850   4.918   9.145   5.310
25942SOL     OW77851   4.041   7.699   5.525
25942SOL    HW177852   4.112   7.770   5.531
25942SOL    HW277853   3.953   7.738   5.553
25943SOL     OW77854   5.190   8.865   4.677
25943SOL    HW177855   5.131   8.871   4.757
25943SOL    HW277856   5.175   8.777   4.631
25944SOL     OW77857   5.391   9.162   4.296
25944SOL    HW177858   5.350   9.139   4.208
25944SOL    HW277859   5.373   9.088   4.361
25945SOL     OW77860   4.322   8.177   3.994
25945SOL    HW177861   4.346   8.246   3.926
25945SOL    HW277862   4.244   8.210   4.048
25946SOL     OW77863   5.005   7.793   4.668
25946SOL    HW177864   4.919   7.743   4.655
25946SOL    HW277865   5.067   7.739   4.724
25947SOL     OW77866   5.300   9.110   4.031
25947SOL    HW177867   5.389   9.156   4.034
25947SOL    HW277868   5.279   9.086   3.936
25948SOL     OW77869   4.531   8.053   5.189
25948SOL    HW177870   4.484   8.050   5.278
25948SOL    HW277871   4.480   7.998   5.123
25949SOL     OW77872   5.118   7.917   5.398
25949SOL    HW177873   5.098   7.960   5.486
25949SOL    HW277874   5.196   7.855   5.407
25950SOL     OW77875   4.697   8.338   5.296
25950SOL    HW177876   4.743   8.254   5.267
25950SOL    HW277877   4.641   8.372   5.221
25951SOL     OW77878   4.715   7.858   4.966
25951SOL    HW177879   4.638   7.892   5.020
25951SOL    HW277880   4.681   7.807   4.887
25952SOL     OW77881   4.765   8.149   4.153
25952SOL    HW177882   4.791   8.145   4.249
25952SOL    HW277883   4.680   8.098   4.139
25953SOL     OW77884   3.800   8.259   4.513
25953SOL    HW177885   3.899   8.247   4.522
25953SOL    HW277886   3.776   8.354   4.534
25954SOL     OW77887   3.854   9.269   5.295
25954SOL    HW177888   3.844   9.254   5.394
25954SOL    HW277889   3.768   9.305   5.259
25955SOL     OW77890   4.589   7.796   3.919
25955SOL    HW177891   4.648   7.859   3.870
25955SOL    HW277892   4.608   7.702   3.890
25956SOL     OW77893   5.443   8.033   5.555
25956SOL    HW177894   5.417   8.122   5.519
25956SOL    HW277895   5.441   7.965   5.482
25957SOL     OW77896   5.086   8.592   4.269
25957SOL    HW177897   5.169   8.563   4.221
25957SOL    HW277898   5.037   8.659   4.213
25958SOL     OW77899   4.274   7.644   4.609
25958SOL    HW177900   4.269   7.639   4.709
25958SOL    HW277901   4.276   7.740   4.580
25959SOL     OW77902   4.732   8.904   4.201
25959SOL    HW177903   4.686   8.976   4.149
25959SOL    HW277904   4.728   8.924   4.299
25960SOL     OW77905   4.075   9.249   4.577
25960SOL    HW177906   4.125   9.163   4.583
25960SOL    HW277907   4.140   9.326   4.574
25961SOL     OW77908   5.519   8.514   4.597
25961SOL    HW177909   5.457   8.499   4.521
25961SOL    HW277910   5.467   8.525   4.682
25962SOL     OW77911   4.951   8.998   5.230
25962SOL    HW177912   4.957   8.921   5.294
25962SOL    HW277913   4.899   8.972   5.150
25963SOL     OW77914   4.045   8.391   3.966
25963SOL    HW177915   4.127   8.430   3.924
25963SOL    HW277916   4.018   8.309   3.917
25964SOL     OW77917   5.182   8.183   4.452
25964SOL    HW177918   5.177   8.118   4.527
25964SOL    HW277919   5.262   8.242   4.465
25965SOL     OW77920   4.185   8.714   5.451
25965SOL    HW177921   4.135   8.715   5.365
25965SOL    HW277922   4.122   8.696   5.527
25966SOL     OW77923   4.835   9.224   3.961
25966SOL    HW177924   4.775   9.162   4.011
25966SOL    HW277925   4.866   9.180   3.876
25967SOL     OW77926   3.926   7.733   5.222
25967SOL    HW177927   3.846   7.793   5.209
25967SOL    HW277928   3.916   7.684   5.308
25968SOL     OW77929   5.356   8.825   3.805
25968SOL    HW177930   5.324   8.919   3.795
25968SOL    HW277931   5.280   8.762   3.793
25969SOL     OW77932   4.188   9.191   4.047
25969SOL    HW177933   4.221   9.230   4.133
25969SOL    HW277934   4.264   9.184   3.982
25970SOL     OW77935   5.124   7.555   4.150
25970SOL    HW177936   5.100   7.518   4.060
25970SOL    HW277937   5.223   7.571   4.154
25971SOL     OW77938   3.973   9.233   4.965
25971SOL    HW177939   4.030   9.168   5.015
25971SOL    HW277940   3.957   9.200   4.872
25972SOL     OW77941   4.664   9.146   4.628
25972SOL    HW177942   4.744   9.089   4.649
25972SOL    HW277943   4.615   9.106   4.551
25973SOL     OW77944   4.106   8.148   4.204
25973SOL    HW177945   4.151   8.058   4.201
25973SOL    HW277946   4.012   8.137   4.237
25974SOL     OW77947   5.271   7.670   5.453
25974SOL    HW177948   5.266   7.707   5.545
25974SOL    HW277949   5.199   7.601   5.441
25975SOL     OW77950   4.338   7.570   3.841
25975SOL    HW177951   4.436   7.548   3.848
25975SOL    HW277952   4.307   7.553   3.748
25976SOL     OW77953   4.505   7.712   5.473
25976SOL    HW177954   4.572   7.651   5.516
25976SOL    HW277955   4.432   7.731   5.538
25977SOL     OW77956   4.612   8.962   4.919
25977SOL    HW177957   4.589   8.937   4.825
25977SOL    HW277958   4.673   8.893   4.958
25978SOL     OW77959   5.075   8.038   5.157
25978SOL    HW177960   5.103   7.995   5.242
25978SOL    HW277961   5.100   8.134   5.158
25979SOL     OW77962   4.527   8.850   4.648
25979SOL    HW177963   4.617   8.864   4.606
25979SOL    HW277964   4.456   8.852   4.577
25980SOL     OW77965   4.646   7.951   4.623
25980SOL    HW177966   4.621   7.942   4.527
25980SOL    HW277967   4.694   7.869   4.654
25981SOL     OW77968   4.263   7.512   4.236
25981SOL    HW177969   4.182   7.513   4.294
25981SOL    HW277970   4.266   7.595   4.181
25982SOL     OW77971   5.158   8.636   3.765
25982SOL    HW177972   5.190   8.560   3.822
25982SOL    HW277973   5.066   8.663   3.795
25983SOL     OW77974   4.021   7.483   3.895
25983SOL    HW177975   4.070   7.567   3.874
25983SOL    HW277976   4.083   7.418   3.940
25984SOL     OW77977   4.659   7.684   4.204
25984SOL    HW177978   4.611   7.725   4.126
25984SOL    HW277979   4.758   7.682   4.185
25985SOL     OW77980   4.800   8.131   5.188
25985SOL    HW177981   4.720   8.070   5.191
25985SOL    HW277982   4.881   8.078   5.164
25986SOL     OW77983   4.951   9.018   4.517
25986SOL    HW177984   4.972   9.092   4.452
25986SOL    HW277985   5.019   9.018   4.590
25987SOL     OW77986   4.183   8.600   4.465
25987SOL    HW177987   4.112   8.573   4.530
25987SOL    HW277988   4.157   8.572   4.372
25988SOL     OW77989   4.995   9.245   4.315
25988SOL    HW177990   5.039   9.309   4.251
25988SOL    HW277991   4.945   9.297   4.385
25989SOL     OW77992   4.756   7.997   3.740
25989SOL    HW177993   4.715   8.079   3.701
25989SOL    HW277994   4.820   8.023   3.813
25990SOL     OW77995   3.802   8.004   5.110
25990SOL    HW177996   3.894   8.003   5.069
25990SOL    HW277997   3.796   8.078   5.177
25991SOL     OW77998   4.285   7.670   4.871
25991SOL    HW177999   4.323   7.586   4.908
25991SOL    HW278000   4.197   7.689   4.915
25992SOL     OW78001   4.590   7.902   4.366
25992SOL    HW178002   4.558   7.974   4.304
25992SOL    HW278003   4.614   7.821   4.313
25993SOL     OW78004   4.741   7.487   4.477
25993SOL    HW178005   4.669   7.492   4.408
25993SOL    HW278006   4.717   7.418   4.546
25994SOL     OW78007   5.153   8.621   4.591
25994SOL    HW178008   5.098   8.537   4.584
25994SOL    HW278009   5.179   8.650   4.499
25995SOL     OW78010   5.190   8.038   4.716
25995SOL    HW178011   5.160   7.943   4.723
25995SOL    HW278012   5.263   8.054   4.782
25996SOL     OW78013   5.581   8.281   4.101
25996SOL    HW178014   5.623   8.217   4.165
25996SOL    HW278015   5.543   8.230   4.023
25997SOL     OW78016   4.212   8.833   3.898
25997SOL    HW178017   4.125   8.818   3.945
25997SOL    HW278018   4.195   8.859   3.803
25998SOL     OW78019   5.388   8.728   4.381
25998SOL    HW178020   5.487   8.736   4.395
25998SOL    HW278021   5.343   8.812   4.412
25999SOL     OW78022   5.114   8.023   3.802
25999SOL    HW178023   5.060   8.002   3.883
25999SOL    HW278024   5.205   7.982   3.811
26000SOL     OW78025   4.251   7.704   4.052
26000SOL    HW178026   4.278   7.645   3.977
26000SOL    HW278027   4.251   7.799   4.021
26001SOL     OW78028   5.478   8.671   5.312
26001SOL    HW178029   5.569   8.632   5.299
26001SOL    HW278030   5.486   8.767   5.336
26002SOL     OW78031   4.788   8.795   5.064
26002SOL    HW178032   4.708   8.772   5.119
26002SOL    HW278033   4.871   8.769   5.113
26003SOL     OW78034   5.316   9.077   5.349
26003SOL    HW178035   5.343   9.111   5.259
26003SOL    HW278036   5.395   9.039   5.395
26004SOL     OW78037   4.835   8.643   4.824
26004SOL    HW178038   4.795   8.687   4.905
26004SOL    HW278039   4.794   8.680   4.741
26005SOL     OW78040   5.362   8.547   4.803
26005SOL    HW178041   5.367   8.628   4.862
26005SOL    HW278042   5.276   8.549   4.752
26006SOL     OW78043   4.639   7.537   5.126
26006SOL    HW178044   4.664   7.517   5.031
26006SOL    HW278045   4.711   7.593   5.168
26007SOL     OW78046   4.704   8.564   5.443
26007SOL    HW178047   4.605   8.570   5.453
26007SOL    HW278048   4.727   8.484   5.387
26008SOL     OW78049   4.429   8.498   4.092
26008SOL    HW178050   4.415   8.505   4.191
26008SOL    HW278051   4.513   8.447   4.074
26009SOL     OW78052   4.134   8.261   4.975
26009SOL    HW178053   4.220   8.273   5.025
26009SOL    HW278054   4.092   8.174   5.002
26010SOL     OW78055   4.998   7.834   4.986
26010SOL    HW178056   5.019   7.908   5.050
26010SOL    HW278057   4.909   7.851   4.943
26011SOL     OW78058   3.788   9.012   5.055
26011SOL    HW178059   3.742   9.094   5.021
26011SOL    HW278060   3.886   9.031   5.064
26012SOL     OW78061   4.091   8.548   4.225
26012SOL    HW178062   4.084   8.631   4.169
26012SOL    HW278063   4.095   8.468   4.165
26013SOL     OW78064   4.290   7.985   4.589
26013SOL    HW178065   4.302   8.051   4.515
26013SOL    HW278066   4.336   8.019   4.672
26014SOL     OW78067   4.976   8.796   4.112
26014SOL    HW178068   5.026   8.873   4.152
26014SOL    HW278069   4.881   8.798   4.144
26015SOL     OW78070   4.996   8.893   4.866
26015SOL    HW178071   5.043   8.906   4.953
26015SOL    HW278072   4.930   8.819   4.875
26016SOL     OW78073   5.306   8.087   4.196
26016SOL    HW178074   5.275   8.148   4.269
26016SOL    HW278075   5.356   8.139   4.127
26017SOL     OW78076   4.078   8.958   5.053
26017SOL    HW178077   4.057   8.914   4.966
26017SOL    HW278078   4.175   8.984   5.056
26018SOL     OW78079   4.126   8.199   5.322
26018SOL    HW178080   4.194   8.254   5.275
26018SOL    HW278081   4.166   8.111   5.349
26019SOL     OW78082   5.311   8.227   5.394
26019SOL    HW178083   5.219   8.265   5.389
26019SOL    HW278084   5.371   8.274   5.329
26020SOL     OW78085   4.737   7.553   5.494
26020SOL    HW178086   4.743   7.638   5.442
26020SOL    HW278087   4.769   7.477   5.437
26021SOL     OW78088   4.228   7.498   5.464
26021SOL    HW178089   4.186   7.441   5.394
26021SOL    HW278090   4.162   7.567   5.496
26022SOL     OW78091   4.297   8.318   4.753
26022SOL    HW178092   4.341   8.407   4.744
26022SOL    HW278093   4.234   8.318   4.830
26023SOL     OW78094   5.084   8.310   4.769
26023SOL    HW178095   5.009   8.310   4.703
26023SOL    HW278096   5.121   8.218   4.778
26024SOL     OW78097   4.933   7.973   3.999
26024SOL    HW178098   4.946   7.889   4.053
26024SOL    HW278099   4.904   8.047   4.059
26025SOL     OW78100   4.031   7.661   4.955
26025SOL    HW178101   4.008   7.698   5.045
26025SOL    HW278102   4.001   7.566   4.949
26026SOL     OW78103   3.761   8.758   5.006
26026SOL    HW178104   3.814   8.709   5.074
26026SOL    HW278105   3.783   8.856   5.011
26027SOL     OW78106   4.456   8.082   4.788
26027SOL    HW178107   4.515   8.056   4.712
26027SOL    HW278108   4.428   8.178   4.777
26028SOL     OW78109   5.452   8.383   5.578
26028SOL    HW178110   5.406   8.376   5.489
26028SOL    HW278111   5.390   8.427   5.644
26029SOL     OW78112   4.031   7.511   4.342
26029SOL    HW178113   4.020   7.605   4.375
26029SOL    HW278114   4.026   7.448   4.419
26030SOL     OW78115   5.346   7.815   4.098
26030SOL    HW178116   5.348   7.739   4.162
26030SOL    HW278117   5.298   7.892   4.138
26031SOL     OW78118   4.747   8.214   4.690
26031SOL    HW178119   4.762   8.235   4.786
26031SOL    HW278120   4.717   8.119   4.681
26032SOL     OW78121   4.704   9.021   5.424
26032SOL    HW178122   4.684   9.065   5.336
26032SOL    HW278123   4.743   8.930   5.408
26033SOL     OW78124   5.583   8.966   5.329
26033SOL    HW178125   5.597   8.993   5.234
26033SOL    HW278126   5.666   8.988   5.382
26034SOL     OW78127   4.074   8.346   5.528
26034SOL    HW178128   4.150   8.390   5.576
26034SOL    HW278129   4.109   8.299   5.446
26035SOL     OW78130   5.264   7.722   3.849
26035SOL    HW178131   5.203   7.647   3.872
26035SOL    HW278132   5.286   7.774   3.932
26036SOL     OW78133   5.027   8.286   3.766
26036SOL    HW178134   5.061   8.193   3.781
26036SOL    HW278135   5.045   8.313   3.671
26037SOL     OW78136   4.792   8.781   4.573
26037SOL    HW178137   4.799   8.697   4.518
26037SOL    HW278138   4.854   8.850   4.537
26038SOL     OW78139   4.043   8.258   4.673
26038SOL    HW178140   4.136   8.294   4.678
26038SOL    HW278141   4.037   8.173   4.725
26039SOL     OW78142   4.063   7.957   4.730
26039SOL    HW178143   4.011   7.874   4.713
26039SOL    HW278144   4.140   7.962   4.666
26040SOL     OW78145   4.862   7.828   5.402
26040SOL    HW178146   4.817   7.891   5.466
26040SOL    HW278147   4.955   7.859   5.385
26041SOL     OW78148   4.884   7.655   5.201
26041SOL    HW178149   4.884   7.719   5.278
26041SOL    HW278150   4.912   7.703   5.118
26042SOL     OW78151   3.732   8.774   3.924
26042SOL    HW178152   3.639   8.795   3.893
26042SOL    HW278153   3.742   8.675   3.937
26043SOL     OW78154   3.812   9.249   4.651
26043SOL    HW178155   3.770   9.163   4.624
26043SOL    HW278156   3.906   9.252   4.617
26044SOL     OW78157   4.228   9.016   4.634
26044SOL    HW178158   4.294   9.090   4.643
26044SOL    HW278159   4.272   8.937   4.592
26045SOL     OW78160   4.726   8.244   4.962
26045SOL    HW178161   4.767   8.212   5.048
26045SOL    HW278162   4.630   8.217   4.959
26046SOL     OW78163   3.764   7.992   4.838
26046SOL    HW178164   3.849   7.959   4.797
26046SOL    HW278165   3.777   8.007   4.936
26047SOL     OW78166   3.913   7.968   5.446
26047SOL    HW178167   3.972   7.928   5.376
26047SOL    HW278168   3.855   8.039   5.405
26048SOL     OW78169   5.093   8.398   5.384
26048SOL    HW178170   5.132   8.487   5.404
26048SOL    HW278171   5.103   8.378   5.287
26049SOL     OW78172   4.539   8.020   4.049
26049SOL    HW178173   4.546   7.931   4.003
26049SOL    HW278174   4.445   8.054   4.041
26050SOL     OW78175   5.381   8.052   4.930
26050SOL    HW178176   5.343   7.983   4.992
26050SOL    HW278177   5.463   8.016   4.886
26051SOL     OW78178   3.976   9.012   5.468
26051SOL    HW178179   3.946   9.069   5.544
26051SOL    HW278180   3.969   8.915   5.494
26052SOL     OW78181   4.395   7.912   4.993
26052SOL    HW178182   4.361   7.823   4.963
26052SOL    HW278183   4.421   7.966   4.913
26053SOL     OW78184   4.654   9.126   5.189
26053SOL    HW178185   4.630   9.108   5.094
26053SOL    HW278186   4.684   9.220   5.199
26054SOL     OW78187   4.197   7.948   3.915
26054SOL    HW178188   4.258   8.028   3.919
26054SOL    HW278189   4.102   7.979   3.922
26055SOL     OW78190   3.883   8.585   5.190
26055SOL    HW178191   3.905   8.524   5.266
26055SOL    HW278192   3.893   8.536   5.104
26056SOL     OW78193   5.071   8.507   4.958
26056SOL    HW178194   5.095   8.444   4.884
26056SOL    HW278195   4.981   8.547   4.940
26057SOL     OW78196   5.026   8.303   4.033
26057SOL    HW178197   4.940   8.272   4.075
26057SOL    HW278198   5.022   8.289   3.934
26058SOL     OW78199   5.483   9.195   4.878
26058SOL    HW178200   5.544   9.225   4.805
26058SOL    HW278201   5.445   9.106   4.856
26059SOL     OW78202   4.976   9.179   4.852
26059SOL    HW178203   5.060   9.184   4.798
26059SOL    HW278204   4.953   9.083   4.870
26060SOL     OW78205   3.807   8.706   4.746
26060SOL    HW178206   3.802   8.705   4.846
26060SOL    HW278207   3.724   8.665   4.708
26061SOL     OW78208   4.412   9.110   5.440
26061SOL    HW178209   4.356   9.191   5.449
26061SOL    HW278210   4.464   9.114   5.354
26062SOL     OW78211   5.450   7.583   4.247
26062SOL    HW178212   5.523   7.566   4.180
26062SOL    HW278213   5.419   7.496   4.285
26063SOL     OW78214   5.112   9.021   4.201
26063SOL    HW178215   5.179   9.033   4.127
26063SOL    HW278216   5.072   9.110   4.224
26064SOL     OW78217   3.854   9.242   5.575
26064SOL    HW178218   3.813   9.168   5.628
26064SOL    HW278219   3.918   9.293   5.633
26065SOL     OW78220   5.004   8.375   4.396
26065SOL    HW178221   5.064   8.294   4.398
26065SOL    HW278222   5.044   8.444   4.336
26066SOL     OW78223   4.554   8.721   5.146
26066SOL    HW178224   4.549   8.754   5.241
26066SOL    HW278225   4.468   8.740   5.100
26067SOL     OW78226   4.396   9.064   3.878
26067SOL    HW178227   4.405   9.074   3.779
26067SOL    HW278228   4.356   8.975   3.899
26068SOL     OW78229   5.374   9.168   5.118
26068SOL    HW178230   5.427   9.178   5.034
26068SOL    HW278231   5.347   9.258   5.152
26069SOL     OW78232   5.565   7.623   4.687
26069SOL    HW178233   5.604   7.538   4.651
26069SOL    HW278234   5.467   7.625   4.668
26070SOL     OW78235   3.987   7.774   4.444
26070SOL    HW178236   3.908   7.825   4.410
26070SOL    HW278237   3.978   7.759   4.542
26071SOL     OW78238   4.918   9.060   3.755
26071SOL    HW178239   4.924   8.967   3.792
26071SOL    HW278240   4.859   9.060   3.675
26072SOL     OW78241   4.546   8.450   5.096
26072SOL    HW178242   4.586   8.449   5.004
26072SOL    HW278243   4.556   8.542   5.136
26073SOL     OW78244   4.640   8.358   4.015
26073SOL    HW178245   4.703   8.396   3.947
26073SOL    HW278246   4.680   8.275   4.054
26074SOL     OW78247   5.228   9.055   3.768
26074SOL    HW178248   5.136   9.092   3.775
26074SOL    HW278249   5.266   9.075   3.678
26075SOL     OW78250   4.096   8.736   5.214
26075SOL    HW178251   4.083   8.829   5.180
26075SOL    HW278252   4.012   8.684   5.201
26076SOL     OW78253   5.338   8.740   5.013
26076SOL    HW178254   5.398   8.743   5.093
26076SOL    HW278255   5.263   8.804   5.026
26077SOL     OW78256   4.763   8.546   4.420
26077SOL    HW178257   4.693   8.499   4.474
26077SOL    HW278258   4.822   8.478   4.377
26078SOL     OW78259   4.738   7.684   4.695
26078SOL    HW178260   4.730   7.648   4.602
26078SOL    HW278261   4.736   7.608   4.760
26079SOL     OW78262   4.314   8.935   4.215
26079SOL    HW178263   4.356   8.877   4.145
26079SOL    HW278264   4.270   9.014   4.171
26080SOL     OW78265   5.433   7.833   5.105
26080SOL    HW178266   5.506   7.902   5.109
26080SOL    HW278267   5.461   7.758   5.046
26081SOL     OW78268   3.979   8.796   4.014
26081SOL    HW178269   3.883   8.797   3.987
26081SOL    HW278270   3.991   8.849   4.098
26082SOL     OW78271   3.829   8.461   5.450
26082SOL    HW178272   3.752   8.428   5.504
26082SOL    HW278273   3.914   8.431   5.492
26083SOL     OW78274   4.396   7.651   5.213
26083SOL    HW178275   4.486   7.635   5.173
26083SOL    HW278276   4.404   7.656   5.312
26084SOL     OW78277   3.799   7.793   3.757
26084SOL    HW178278   3.707   7.765   3.728
26084SOL    HW278279   3.830   7.870   3.701
26085SOL     OW78280   5.164   8.304   5.122
26085SOL    HW178281   5.107   8.356   5.059
26085SOL    HW278282   5.260   8.316   5.098
26086SOL     OW78283   3.796   7.614   4.042
26086SOL    HW178284   3.779   7.697   3.988
26086SOL    HW278285   3.886   7.577   4.020
26087SOL     OW78286   4.907   8.783   3.843
26087SOL    HW178287   4.808   8.772   3.845
26087SOL    HW278288   4.941   8.798   3.936
26088SOL     OW78289   4.337   8.290   5.155
26088SOL    HW178290   4.393   8.371   5.138
26088SOL    HW278291   4.396   8.210   5.158
26089SOL     OW78292   5.217   9.215   4.683
26089SOL    HW178293   5.250   9.279   4.614
26089SOL    HW278294   5.283   9.209   4.758
26090SOL     OW78295   4.440   8.013   5.432
26090SOL    HW178296   4.459   8.078   5.506
26090SOL    HW278297   4.500   7.933   5.441
26091SOL     OW78298   5.174   8.668   5.357
26091SOL    HW178299   5.165   8.658   5.456
26091SOL    HW278300   5.270   8.661   5.331
26092SOL     OW78301   4.114   9.189   5.284
26092SOL    HW178302   4.023   9.230   5.282
26092SOL    HW278303   4.107   9.095   5.316
26093SOL     OW78304   5.398   8.331   4.978
26093SOL    HW178305   5.371   8.242   4.941
26093SOL    HW278306   5.399   8.399   4.905
26094SOL     OW78307   4.949   7.773   4.173
26094SOL    HW178308   5.014   7.699   4.162
26094SOL    HW278309   4.969   7.823   4.257
26095SOL     OW78310   4.318   8.193   4.376
26095SOL    HW178311   4.368   8.278   4.357
26095SOL    HW278312   4.230   8.195   4.328
26096SOL     OW78313   5.501   7.790   5.366
26096SOL    HW178314   5.484   7.821   5.272
26096SOL    HW278315   5.417   7.753   5.404
26097SOL     OW78316   5.454   8.382   5.241
26097SOL    HW178317   5.492   8.473   5.256
26097SOL    HW278318   5.446   8.365   5.142
26098SOL     OW78319   4.583   8.822   3.740
26098SOL    HW178320   4.537   8.837   3.828
26098SOL    HW278321   4.627   8.907   3.710
26099SOL     OW78322   4.385   9.238   4.677
26099SOL    HW178323   4.339   9.326   4.664
26099SOL    HW278324   4.484   9.250   4.670
26100SOL     OW78325   4.583   8.404   4.585
26100SOL    HW178326   4.637   8.335   4.633
26100SOL    HW278327   4.551   8.473   4.651
26101SOL     OW78328   4.807   8.432   3.811
26101SOL    HW178329   4.784   8.485   3.729
26101SOL    HW278330   4.888   8.376   3.792
26102SOL     OW78331   5.585   9.017   4.575
26102SOL    HW178332   5.514   9.005   4.505
26102SOL    HW278333   5.586   8.938   4.635
26103SOL     OW78334   3.945   8.762   5.568
26103SOL    HW178335   3.880   8.689   5.547
26103SOL    HW278336   3.949   8.776   5.666
26104SOL     OW78337   3.803   8.688   4.377
26104SOL    HW178338   3.802   8.641   4.465
26104SOL    HW278339   3.885   8.660   4.326
26105SOL     OW78340   4.396   8.839   5.348
26105SOL    HW178341   4.318   8.789   5.386
26105SOL    HW278342   4.393   8.934   5.379
26106SOL     OW78343   5.548   7.640   4.951
26106SOL    HW178344   5.544   7.550   4.995
26106SOL    HW278345   5.551   7.629   4.852
26107SOL     OW78346   4.152   7.872   4.244
26107SOL    HW178347   4.182   7.800   4.182
26107SOL    HW278348   4.113   7.832   4.327
26108SOL     OW78349   5.429   8.935   4.828
26108SOL    HW178350   5.336   8.910   4.801
26108SOL    HW278351   5.455   8.885   4.910
26109SOL     OW78352   4.041   7.995   5.004
26109SOL    HW178353   4.079   7.936   5.076
26109SOL    HW278354   4.081   7.969   4.916
26110SOL     OW78355   4.536   9.034   4.411
26110SOL    HW178356   4.568   9.044   4.317
26110SOL    HW278357   4.457   8.972   4.413
26111SOL     OW78358   5.148   7.662   4.836
26111SOL    HW178359   5.200   7.597   4.891
26111SOL    HW278360   5.099   7.725   4.897
26112SOL     OW78361   4.725   7.482   4.878
26112SOL    HW178362   4.662   7.410   4.847
26112SOL    HW278363   4.818   7.446   4.878
26113SOL     OW78364   4.494   8.778   4.025
26113SOL    HW178365   4.448   8.691   4.042
26113SOL    HW278366   4.585   8.775   4.066
26114SOL     OW78367   4.342   9.015   5.008
26114SOL    HW178368   4.337   9.097   5.065
26114SOL    HW278369   4.431   9.012   4.963
26115SOL     OW78370   5.076   7.500   3.892
26115SOL    HW178371   5.111   7.459   3.808
26115SOL    HW278372   4.986   7.462   3.912
26116SOL     OW78373   5.024   7.901   4.415
26116SOL    HW178374   4.965   7.981   4.419
26116SOL    HW278375   5.039   7.866   4.508
26117SOL     OW78376   5.317   7.669   4.606
26117SOL    HW178377   5.233   7.668   4.660
26117SOL    HW278378   5.319   7.752   4.550
26118SOL     OW78379   3.763   8.525   4.024
26118SOL    HW178380   3.862   8.514   4.015
26118SOL    HW278381   3.723   8.439   4.056
26119SOL     OW78382   4.599   9.094   4.061
26119SOL    HW178383   4.522   9.059   4.007
26119SOL    HW278384   4.567   9.165   4.123
26120SOL     OW78385   3.954   8.076   5.699
26120SOL    HW178386   3.861   8.074   5.736
26120SOL    HW278387   3.955   8.037   5.607
26121SOL     OW78388   3.949   7.723   6.582
26121SOL    HW178389   3.984   7.706   6.674
26121SOL    HW278390   3.861   7.678   6.570
26122SOL     OW78391   3.743   7.816   6.233
26122SOL    HW178392   3.661   7.859   6.272
26122SOL    HW278393   3.715   7.743   6.170
26123SOL     OW78394   4.293   8.723   6.751
26123SOL    HW178395   4.200   8.716   6.714
26123SOL    HW278396   4.304   8.812   6.795
26124SOL     OW78397   5.279   8.959   6.289
26124SOL    HW178398   5.222   8.943   6.370
26124SOL    HW278399   5.220   8.969   6.209
26125SOL     OW78400   4.859   8.151   6.303
26125SOL    HW178401   4.916   8.229   6.278
26125SOL    HW278402   4.799   8.177   6.379
26126SOL     OW78403   5.479   8.055   5.817
26126SOL    HW178404   5.467   8.042   5.718
26126SOL    HW278405   5.449   7.974   5.866
26127SOL     OW78406   4.492   8.592   6.609
26127SOL    HW178407   4.414   8.609   6.669
26127SOL    HW278408   4.526   8.679   6.573
26128SOL     OW78409   4.574   8.246   7.409
26128SOL    HW178410   4.570   8.322   7.474
26128SOL    HW278411   4.596   8.282   7.318
26129SOL     OW78412   4.409   8.460   6.251
26129SOL    HW178413   4.478   8.444   6.321
26129SOL    HW278414   4.336   8.517   6.289
26130SOL     OW78415   4.410   8.609   7.389
26130SOL    HW178416   4.470   8.688   7.403
26130SOL    HW278417   4.324   8.640   7.348
26131SOL     OW78418   4.059   8.883   6.647
26131SOL    HW178419   3.981   8.852   6.594
26131SOL    HW278420   4.117   8.941   6.590
26132SOL     OW78421   5.184   8.953   6.925
26132SOL    HW178422   5.208   9.047   6.951
26132SOL    HW278423   5.168   8.899   7.007
26133SOL     OW78424   4.162   7.840   7.085
26133SOL    HW178425   4.244   7.784   7.094
26133SOL    HW278426   4.081   7.782   7.089
26134SOL     OW78427   5.327   7.895   6.323
26134SOL    HW178428   5.253   7.941   6.273
26134SOL    HW278429   5.378   7.963   6.376
26135SOL     OW78430   4.851   8.789   7.276
26135SOL    HW178431   4.898   8.789   7.364
26135SOL    HW278432   4.803   8.702   7.265
26136SOL     OW78433   3.954   8.882   6.124
26136SOL    HW178434   3.928   8.978   6.124
26136SOL    HW278435   3.883   8.828   6.169
26137SOL     OW78436   3.964   8.539   6.472
26137SOL    HW178437   3.978   8.455   6.524
26137SOL    HW278438   3.909   8.603   6.527
26138SOL     OW78439   4.344   9.234   7.025
26138SOL    HW178440   4.252   9.217   7.060
26138SOL    HW278441   4.372   9.326   7.051
26139SOL     OW78442   4.330   8.412   5.709
26139SOL    HW178443   4.337   8.496   5.655
26139SOL    HW278444   4.376   8.425   5.797
26140SOL     OW78445   5.318   7.562   7.066
26140SOL    HW178446   5.300   7.629   6.994
26140SOL    HW278447   5.315   7.608   7.155
26141SOL     OW78448   3.846   8.091   6.149
26141SOL    HW178449   3.801   8.003   6.166
26141SOL    HW278450   3.845   8.145   6.233
26142SOL     OW78451   5.566   9.215   5.945
26142SOL    HW178452   5.620   9.186   6.025
26142SOL    HW278453   5.596   9.305   5.916
26143SOL     OW78454   3.751   9.044   5.703
26143SOL    HW178455   3.732   8.948   5.724
26143SOL    HW278456   3.718   9.102   5.778
26144SOL     OW78457   5.413   8.370   6.198
26144SOL    HW178458   5.508   8.341   6.206
26144SOL    HW278459   5.405   8.435   6.123
26145SOL     OW78460   5.365   8.556   6.018
26145SOL    HW178461   5.451   8.558   5.966
26145SOL    HW278462   5.379   8.603   6.106
26146SOL     OW78463   3.837   8.185   7.183
26146SOL    HW178464   3.925   8.172   7.228
26146SOL    HW278465   3.824   8.282   7.161
26147SOL     OW78466   4.337   8.813   6.312
26147SOL    HW178467   4.288   8.726   6.321
26147SOL    HW278468   4.314   8.856   6.225
26148SOL     OW78469   5.017   8.676   7.009
26148SOL    HW178470   5.054   8.603   6.951
26148SOL    HW278471   5.069   8.681   7.094
26149SOL     OW78472   4.533   7.452   6.088
26149SOL    HW178473   4.573   7.543   6.079
26149SOL    HW278474   4.433   7.460   6.094
26150SOL     OW78475   3.921   8.424   6.850
26150SOL    HW178476   4.010   8.379   6.836
26150SOL    HW278477   3.848   8.359   6.831
26151SOL     OW78478   5.249   8.447   5.776
26151SOL    HW178479   5.186   8.371   5.789
26151SOL    HW278480   5.297   8.465   5.862
26152SOL     OW78481   4.911   9.240   7.202
26152SOL    HW178482   4.935   9.300   7.126
26152SOL    HW278483   4.918   9.145   7.172
26153SOL     OW78484   4.041   7.699   7.387
26153SOL    HW178485   4.112   7.770   7.393
26153SOL    HW278486   3.953   7.738   7.415
26154SOL     OW78487   5.190   8.865   6.539
26154SOL    HW178488   5.131   8.871   6.619
26154SOL    HW278489   5.175   8.777   6.493
26155SOL     OW78490   5.391   9.162   6.158
26155SOL    HW178491   5.350   9.139   6.070
26155SOL    HW278492   5.373   9.088   6.223
26156SOL     OW78493   4.322   8.177   5.856
26156SOL    HW178494   4.346   8.246   5.788
26156SOL    HW278495   4.244   8.210   5.910
26157SOL     OW78496   5.005   7.793   6.530
26157SOL    HW178497   4.919   7.743   6.517
26157SOL    HW278498   5.067   7.739   6.586
26158SOL     OW78499   5.300   9.110   5.893
26158SOL    HW178500   5.389   9.156   5.896
26158SOL    HW278501   5.279   9.086   5.798
26159SOL     OW78502   4.531   8.053   7.051
26159SOL    HW178503   4.484   8.050   7.140
26159SOL    HW278504   4.480   7.998   6.985
26160SOL     OW78505   5.118   7.917   7.260
26160SOL    HW178506   5.098   7.960   7.348
26160SOL    HW278507   5.196   7.855   7.269
26161SOL     OW78508   4.697   8.338   7.158
26161SOL    HW178509   4.743   8.254   7.129
26161SOL    HW278510   4.641   8.372   7.083
26162SOL     OW78511   4.715   7.858   6.828
26162SOL    HW178512   4.638   7.892   6.882
26162SOL    HW278513   4.681   7.807   6.749
26163SOL     OW78514   4.765   8.149   6.015
26163SOL    HW178515   4.791   8.145   6.111
26163SOL    HW278516   4.680   8.098   6.001
26164SOL     OW78517   3.800   8.259   6.375
26164SOL    HW178518   3.899   8.247   6.384
26164SOL    HW278519   3.776   8.354   6.396
26165SOL     OW78520   3.854   9.269   7.157
26165SOL    HW178521   3.844   9.254   7.256
26165SOL    HW278522   3.768   9.305   7.121
26166SOL     OW78523   4.589   7.796   5.781
26166SOL    HW178524   4.648   7.859   5.732
26166SOL    HW278525   4.608   7.702   5.752
26167SOL     OW78526   5.443   8.033   7.417
26167SOL    HW178527   5.417   8.122   7.381
26167SOL    HW278528   5.441   7.965   7.344
26168SOL     OW78529   5.086   8.592   6.131
26168SOL    HW178530   5.169   8.563   6.083
26168SOL    HW278531   5.037   8.659   6.075
26169SOL     OW78532   4.274   7.644   6.471
26169SOL    HW178533   4.269   7.639   6.571
26169SOL    HW278534   4.276   7.740   6.442
26170SOL     OW78535   4.732   8.904   6.063
26170SOL    HW178536   4.686   8.976   6.011
26170SOL    HW278537   4.728   8.924   6.161
26171SOL     OW78538   4.075   9.249   6.439
26171SOL    HW178539   4.125   9.163   6.445
26171SOL    HW278540   4.140   9.326   6.436
26172SOL     OW78541   5.519   8.514   6.459
26172SOL    HW178542   5.457   8.499   6.383
26172SOL    HW278543   5.467   8.525   6.544
26173SOL     OW78544   4.951   8.998   7.092
26173SOL    HW178545   4.957   8.921   7.156
26173SOL    HW278546   4.899   8.972   7.012
26174SOL     OW78547   4.045   8.391   5.828
26174SOL    HW178548   4.127   8.430   5.786
26174SOL    HW278549   4.018   8.309   5.779
26175SOL     OW78550   5.182   8.183   6.314
26175SOL    HW178551   5.177   8.118   6.389
26175SOL    HW278552   5.262   8.242   6.327
26176SOL     OW78553   4.185   8.714   7.313
26176SOL    HW178554   4.135   8.715   7.227
26176SOL    HW278555   4.122   8.696   7.389
26177SOL     OW78556   4.835   9.224   5.823
26177SOL    HW178557   4.775   9.162   5.873
26177SOL    HW278558   4.866   9.180   5.738
26178SOL     OW78559   3.926   7.733   7.084
26178SOL    HW178560   3.846   7.793   7.071
26178SOL    HW278561   3.916   7.684   7.170
26179SOL     OW78562   5.356   8.825   5.667
26179SOL    HW178563   5.324   8.919   5.657
26179SOL    HW278564   5.280   8.762   5.655
26180SOL     OW78565   4.188   9.191   5.909
26180SOL    HW178566   4.221   9.230   5.995
26180SOL    HW278567   4.264   9.184   5.844
26181SOL     OW78568   5.124   7.555   6.012
26181SOL    HW178569   5.100   7.518   5.922
26181SOL    HW278570   5.223   7.571   6.016
26182SOL     OW78571   3.973   9.233   6.827
26182SOL    HW178572   4.030   9.168   6.877
26182SOL    HW278573   3.957   9.200   6.734
26183SOL     OW78574   4.664   9.146   6.490
26183SOL    HW178575   4.744   9.089   6.511
26183SOL    HW278576   4.615   9.106   6.413
26184SOL     OW78577   4.106   8.148   6.066
26184SOL    HW178578   4.151   8.058   6.063
26184SOL    HW278579   4.012   8.137   6.099
26185SOL     OW78580   5.271   7.670   7.315
26185SOL    HW178581   5.266   7.707   7.407
26185SOL    HW278582   5.199   7.601   7.303
26186SOL     OW78583   4.338   7.570   5.703
26186SOL    HW178584   4.436   7.548   5.710
26186SOL    HW278585   4.307   7.553   5.610
26187SOL     OW78586   4.505   7.712   7.335
26187SOL    HW178587   4.572   7.651   7.378
26187SOL    HW278588   4.432   7.731   7.400
26188SOL     OW78589   4.612   8.962   6.781
26188SOL    HW178590   4.589   8.937   6.687
26188SOL    HW278591   4.673   8.893   6.820
26189SOL     OW78592   5.075   8.038   7.019
26189SOL    HW178593   5.103   7.995   7.104
26189SOL    HW278594   5.100   8.134   7.020
26190SOL     OW78595   4.527   8.850   6.510
26190SOL    HW178596   4.617   8.864   6.468
26190SOL    HW278597   4.456   8.852   6.439
26191SOL     OW78598   4.646   7.951   6.485
26191SOL    HW178599   4.621   7.942   6.389
26191SOL    HW278600   4.694   7.869   6.516
26192SOL     OW78601   4.263   7.512   6.098
26192SOL    HW178602   4.182   7.513   6.156
26192SOL    HW278603   4.266   7.595   6.043
26193SOL     OW78604   5.158   8.636   5.627
26193SOL    HW178605   5.190   8.560   5.684
26193SOL    HW278606   5.066   8.663   5.657
26194SOL     OW78607   4.021   7.483   5.757
26194SOL    HW178608   4.070   7.567   5.736
26194SOL    HW278609   4.083   7.418   5.802
26195SOL     OW78610   4.659   7.684   6.066
26195SOL    HW178611   4.611   7.725   5.988
26195SOL    HW278612   4.758   7.682   6.047
26196SOL     OW78613   4.800   8.131   7.050
26196SOL    HW178614   4.720   8.070   7.053
26196SOL    HW278615   4.881   8.078   7.026
26197SOL     OW78616   4.951   9.018   6.379
26197SOL    HW178617   4.972   9.092   6.314
26197SOL    HW278618   5.019   9.018   6.452
26198SOL     OW78619   4.183   8.600   6.327
26198SOL    HW178620   4.112   8.573   6.392
26198SOL    HW278621   4.157   8.572   6.234
26199SOL     OW78622   4.995   9.245   6.177
26199SOL    HW178623   5.039   9.309   6.113
26199SOL    HW278624   4.945   9.297   6.247
26200SOL     OW78625   4.756   7.997   5.602
26200SOL    HW178626   4.715   8.079   5.563
26200SOL    HW278627   4.820   8.023   5.675
26201SOL     OW78628   3.802   8.004   6.972
26201SOL    HW178629   3.894   8.003   6.931
26201SOL    HW278630   3.796   8.078   7.039
26202SOL     OW78631   4.285   7.670   6.733
26202SOL    HW178632   4.323   7.586   6.770
26202SOL    HW278633   4.197   7.689   6.777
26203SOL     OW78634   4.590   7.902   6.228
26203SOL    HW178635   4.558   7.974   6.166
26203SOL    HW278636   4.614   7.821   6.175
26204SOL     OW78637   4.741   7.487   6.339
26204SOL    HW178638   4.669   7.492   6.270
26204SOL    HW278639   4.717   7.418   6.408
26205SOL     OW78640   5.153   8.621   6.453
26205SOL    HW178641   5.098   8.537   6.446
26205SOL    HW278642   5.179   8.650   6.361
26206SOL     OW78643   5.190   8.038   6.578
26206SOL    HW178644   5.160   7.943   6.585
26206SOL    HW278645   5.263   8.054   6.644
26207SOL     OW78646   5.581   8.281   5.963
26207SOL    HW178647   5.623   8.217   6.027
26207SOL    HW278648   5.543   8.230   5.885
26208SOL     OW78649   4.212   8.833   5.760
26208SOL    HW178650   4.125   8.818   5.807
26208SOL    HW278651   4.195   8.859   5.665
26209SOL     OW78652   5.388   8.728   6.243
26209SOL    HW178653   5.487   8.736   6.257
26209SOL    HW278654   5.343   8.812   6.274
26210SOL     OW78655   5.114   8.023   5.664
26210SOL    HW178656   5.060   8.002   5.745
26210SOL    HW278657   5.205   7.982   5.673
26211SOL     OW78658   4.251   7.704   5.914
26211SOL    HW178659   4.278   7.645   5.839
26211SOL    HW278660   4.251   7.799   5.883
26212SOL     OW78661   5.478   8.671   7.174
26212SOL    HW178662   5.569   8.632   7.161
26212SOL    HW278663   5.486   8.767   7.198
26213SOL     OW78664   4.788   8.795   6.926
26213SOL    HW178665   4.708   8.772   6.981
26213SOL    HW278666   4.871   8.769   6.975
26214SOL     OW78667   5.316   9.077   7.211
26214SOL    HW178668   5.343   9.111   7.121
26214SOL    HW278669   5.395   9.039   7.257
26215SOL     OW78670   4.835   8.643   6.686
26215SOL    HW178671   4.795   8.687   6.767
26215SOL    HW278672   4.794   8.680   6.603
26216SOL     OW78673   5.362   8.547   6.665
26216SOL    HW178674   5.367   8.628   6.724
26216SOL    HW278675   5.276   8.549   6.614
26217SOL     OW78676   4.639   7.537   6.988
26217SOL    HW178677   4.664   7.517   6.893
26217SOL    HW278678   4.711   7.593   7.030
26218SOL     OW78679   4.704   8.564   7.305
26218SOL    HW178680   4.605   8.570   7.315
26218SOL    HW278681   4.727   8.484   7.249
26219SOL     OW78682   4.429   8.498   5.954
26219SOL    HW178683   4.415   8.505   6.053
26219SOL    HW278684   4.513   8.447   5.936
26220SOL     OW78685   4.134   8.261   6.837
26220SOL    HW178686   4.220   8.273   6.887
26220SOL    HW278687   4.092   8.174   6.864
26221SOL     OW78688   4.998   7.834   6.848
26221SOL    HW178689   5.019   7.908   6.912
26221SOL    HW278690   4.909   7.851   6.805
26222SOL     OW78691   3.788   9.012   6.917
26222SOL    HW178692   3.742   9.094   6.883
26222SOL    HW278693   3.886   9.031   6.926
26223SOL     OW78694   4.091   8.548   6.087
26223SOL    HW178695   4.084   8.631   6.031
26223SOL    HW278696   4.095   8.468   6.027
26224SOL     OW78697   4.290   7.985   6.451
26224SOL    HW178698   4.302   8.051   6.377
26224SOL    HW278699   4.336   8.019   6.534
26225SOL     OW78700   4.976   8.796   5.974
26225SOL    HW178701   5.026   8.873   6.014
26225SOL    HW278702   4.881   8.798   6.006
26226SOL     OW78703   4.996   8.893   6.728
26226SOL    HW178704   5.043   8.906   6.815
26226SOL    HW278705   4.930   8.819   6.737
26227SOL     OW78706   5.306   8.087   6.058
26227SOL    HW178707   5.275   8.148   6.131
26227SOL    HW278708   5.356   8.139   5.989
26228SOL     OW78709   4.078   8.958   6.915
26228SOL    HW178710   4.057   8.914   6.828
26228SOL    HW278711   4.175   8.984   6.918
26229SOL     OW78712   4.126   8.199   7.184
26229SOL    HW178713   4.194   8.254   7.137
26229SOL    HW278714   4.166   8.111   7.211
26230SOL     OW78715   5.311   8.227   7.256
26230SOL    HW178716   5.219   8.265   7.251
26230SOL    HW278717   5.371   8.274   7.191
26231SOL     OW78718   4.737   7.553   7.356
26231SOL    HW178719   4.743   7.638   7.304
26231SOL    HW278720   4.769   7.477   7.299
26232SOL     OW78721   4.228   7.498   7.326
26232SOL    HW178722   4.186   7.441   7.256
26232SOL    HW278723   4.162   7.567   7.358
26233SOL     OW78724   4.297   8.318   6.615
26233SOL    HW178725   4.341   8.407   6.606
26233SOL    HW278726   4.234   8.318   6.692
26234SOL     OW78727   5.084   8.310   6.631
26234SOL    HW178728   5.009   8.310   6.565
26234SOL    HW278729   5.121   8.218   6.640
26235SOL     OW78730   4.933   7.973   5.861
26235SOL    HW178731   4.946   7.889   5.915
26235SOL    HW278732   4.904   8.047   5.921
26236SOL     OW78733   4.031   7.661   6.817
26236SOL    HW178734   4.008   7.698   6.907
26236SOL    HW278735   4.001   7.566   6.811
26237SOL     OW78736   3.761   8.758   6.868
26237SOL    HW178737   3.814   8.709   6.936
26237SOL    HW278738   3.783   8.856   6.873
26238SOL     OW78739   5.452   8.383   7.440
26238SOL    HW178740   5.406   8.376   7.351
26238SOL    HW278741   5.390   8.427   7.506
26239SOL     OW78742   4.031   7.511   6.204
26239SOL    HW178743   4.020   7.605   6.237
26239SOL    HW278744   4.026   7.448   6.281
26240SOL     OW78745   5.346   7.815   5.960
26240SOL    HW178746   5.348   7.739   6.024
26240SOL    HW278747   5.298   7.892   6.000
26241SOL     OW78748   4.747   8.214   6.552
26241SOL    HW178749   4.762   8.235   6.648
26241SOL    HW278750   4.717   8.119   6.543
26242SOL     OW78751   4.704   9.021   7.286
26242SOL    HW178752   4.684   9.065   7.198
26242SOL    HW278753   4.743   8.930   7.270
26243SOL     OW78754   5.583   8.966   7.191
26243SOL    HW178755   5.597   8.993   7.096
26243SOL    HW278756   5.666   8.988   7.244
26244SOL     OW78757   4.074   8.346   7.390
26244SOL    HW178758   4.150   8.390   7.438
26244SOL    HW278759   4.109   8.299   7.308
26245SOL     OW78760   5.264   7.722   5.711
26245SOL    HW178761   5.203   7.647   5.734
26245SOL    HW278762   5.286   7.774   5.794
26246SOL     OW78763   5.027   8.286   5.628
26246SOL    HW178764   5.061   8.193   5.643
26246SOL    HW278765   5.045   8.313   5.533
26247SOL     OW78766   4.792   8.781   6.435
26247SOL    HW178767   4.799   8.697   6.380
26247SOL    HW278768   4.854   8.850   6.399
26248SOL     OW78769   4.043   8.258   6.535
26248SOL    HW178770   4.136   8.294   6.540
26248SOL    HW278771   4.037   8.173   6.587
26249SOL     OW78772   4.063   7.957   6.592
26249SOL    HW178773   4.011   7.874   6.575
26249SOL    HW278774   4.140   7.962   6.528
26250SOL     OW78775   4.862   7.828   7.264
26250SOL    HW178776   4.817   7.891   7.328
26250SOL    HW278777   4.955   7.859   7.247
26251SOL     OW78778   4.884   7.655   7.063
26251SOL    HW178779   4.884   7.719   7.140
26251SOL    HW278780   4.912   7.703   6.980
26252SOL     OW78781   3.732   8.774   5.786
26252SOL    HW178782   3.639   8.795   5.755
26252SOL    HW278783   3.742   8.675   5.799
26253SOL     OW78784   3.812   9.249   6.513
26253SOL    HW178785   3.770   9.163   6.486
26253SOL    HW278786   3.906   9.252   6.479
26254SOL     OW78787   4.228   9.016   6.496
26254SOL    HW178788   4.294   9.090   6.505
26254SOL    HW278789   4.272   8.937   6.454
26255SOL     OW78790   4.726   8.244   6.824
26255SOL    HW178791   4.767   8.212   6.910
26255SOL    HW278792   4.630   8.217   6.821
26256SOL     OW78793   3.764   7.992   6.700
26256SOL    HW178794   3.849   7.959   6.659
26256SOL    HW278795   3.777   8.007   6.798
26257SOL     OW78796   3.913   7.968   7.308
26257SOL    HW178797   3.972   7.928   7.238
26257SOL    HW278798   3.855   8.039   7.267
26258SOL     OW78799   5.093   8.398   7.246
26258SOL    HW178800   5.132   8.487   7.266
26258SOL    HW278801   5.103   8.378   7.149
26259SOL     OW78802   4.539   8.020   5.911
26259SOL    HW178803   4.546   7.931   5.865
26259SOL    HW278804   4.445   8.054   5.903
26260SOL     OW78805   5.381   8.052   6.792
26260SOL    HW178806   5.343   7.983   6.854
26260SOL    HW278807   5.463   8.016   6.748
26261SOL     OW78808   3.976   9.012   7.330
26261SOL    HW178809   3.946   9.069   7.406
26261SOL    HW278810   3.969   8.915   7.356
26262SOL     OW78811   4.395   7.912   6.855
26262SOL    HW178812   4.361   7.823   6.825
26262SOL    HW278813   4.421   7.966   6.775
26263SOL     OW78814   4.654   9.126   7.051
26263SOL    HW178815   4.630   9.108   6.956
26263SOL    HW278816   4.684   9.220   7.061
26264SOL     OW78817   4.197   7.948   5.777
26264SOL    HW178818   4.258   8.028   5.781
26264SOL    HW278819   4.102   7.979   5.784
26265SOL     OW78820   3.883   8.585   7.052
26265SOL    HW178821   3.905   8.524   7.128
26265SOL    HW278822   3.893   8.536   6.966
26266SOL     OW78823   5.071   8.507   6.820
26266SOL    HW178824   5.095   8.444   6.746
26266SOL    HW278825   4.981   8.547   6.802
26267SOL     OW78826   5.026   8.303   5.895
26267SOL    HW178827   4.940   8.272   5.937
26267SOL    HW278828   5.022   8.289   5.796
26268SOL     OW78829   5.483   9.195   6.740
26268SOL    HW178830   5.544   9.225   6.667
26268SOL    HW278831   5.445   9.106   6.718
26269SOL     OW78832   4.976   9.179   6.714
26269SOL    HW178833   5.060   9.184   6.660
26269SOL    HW278834   4.953   9.083   6.732
26270SOL     OW78835   3.807   8.706   6.608
26270SOL    HW178836   3.802   8.705   6.708
26270SOL    HW278837   3.724   8.665   6.570
26271SOL     OW78838   4.412   9.110   7.302
26271SOL    HW178839   4.356   9.191   7.311
26271SOL    HW278840   4.464   9.114   7.216
26272SOL     OW78841   5.450   7.583   6.109
26272SOL    HW178842   5.523   7.566   6.042
26272SOL    HW278843   5.419   7.496   6.147
26273SOL     OW78844   5.112   9.021   6.063
26273SOL    HW178845   5.179   9.033   5.989
26273SOL    HW278846   5.072   9.110   6.086
26274SOL     OW78847   3.854   9.242   7.437
26274SOL    HW178848   3.813   9.168   7.490
26274SOL    HW278849   3.918   9.293   7.495
26275SOL     OW78850   5.004   8.375   6.258
26275SOL    HW178851   5.064   8.294   6.260
26275SOL    HW278852   5.044   8.444   6.198
26276SOL     OW78853   4.554   8.721   7.008
26276SOL    HW178854   4.549   8.754   7.103
26276SOL    HW278855   4.468   8.740   6.962
26277SOL     OW78856   4.396   9.064   5.740
26277SOL    HW178857   4.405   9.074   5.641
26277SOL    HW278858   4.356   8.975   5.761
26278SOL     OW78859   5.374   9.168   6.980
26278SOL    HW178860   5.427   9.178   6.896
26278SOL    HW278861   5.347   9.258   7.014
26279SOL     OW78862   5.565   7.623   6.549
26279SOL    HW178863   5.604   7.538   6.513
26279SOL    HW278864   5.467   7.625   6.530
26280SOL     OW78865   3.987   7.774   6.306
26280SOL    HW178866   3.908   7.825   6.272
26280SOL    HW278867   3.978   7.759   6.404
26281SOL     OW78868   4.918   9.060   5.617
26281SOL    HW178869   4.924   8.967   5.654
26281SOL    HW278870   4.859   9.060   5.537
26282SOL     OW78871   4.546   8.450   6.958
26282SOL    HW178872   4.586   8.449   6.866
26282SOL    HW278873   4.556   8.542   6.998
26283SOL     OW78874   4.640   8.358   5.877
26283SOL    HW178875   4.703   8.396   5.809
26283SOL    HW278876   4.680   8.275   5.916
26284SOL     OW78877   5.228   9.055   5.630
26284SOL    HW178878   5.136   9.092   5.637
26284SOL    HW278879   5.266   9.075   5.540
26285SOL     OW78880   4.096   8.736   7.076
26285SOL    HW178881   4.083   8.829   7.042
26285SOL    HW278882   4.012   8.684   7.063
26286SOL     OW78883   5.338   8.740   6.875
26286SOL    HW178884   5.398   8.743   6.955
26286SOL    HW278885   5.263   8.804   6.888
26287SOL     OW78886   4.763   8.546   6.282
26287SOL    HW178887   4.693   8.499   6.336
26287SOL    HW278888   4.822   8.478   6.239
26288SOL     OW78889   4.738   7.684   6.557
26288SOL    HW178890   4.730   7.648   6.464
26288SOL    HW278891   4.736   7.608   6.622
26289SOL     OW78892   4.314   8.935   6.077
26289SOL    HW178893   4.356   8.877   6.007
26289SOL    HW278894   4.270   9.014   6.033
26290SOL     OW78895   5.433   7.833   6.967
26290SOL    HW178896   5.506   7.902   6.971
26290SOL    HW278897   5.461   7.758   6.908
26291SOL     OW78898   3.979   8.796   5.876
26291SOL    HW178899   3.883   8.797   5.849
26291SOL    HW278900   3.991   8.849   5.960
26292SOL     OW78901   3.829   8.461   7.312
26292SOL    HW178902   3.752   8.428   7.366
26292SOL    HW278903   3.914   8.431   7.354
26293SOL     OW78904   4.396   7.651   7.075
26293SOL    HW178905   4.486   7.635   7.035
26293SOL    HW278906   4.404   7.656   7.174
26294SOL     OW78907   3.799   7.793   5.619
26294SOL    HW178908   3.707   7.765   5.590
26294SOL    HW278909   3.830   7.870   5.563
26295SOL     OW78910   5.164   8.304   6.984
26295SOL    HW178911   5.107   8.356   6.921
26295SOL    HW278912   5.260   8.316   6.960
26296SOL     OW78913   3.796   7.614   5.904
26296SOL    HW178914   3.779   7.697   5.850
26296SOL    HW278915   3.886   7.577   5.882
26297SOL     OW78916   4.907   8.783   5.705
26297SOL    HW178917   4.808   8.772   5.707
26297SOL    HW278918   4.941   8.798   5.798
26298SOL     OW78919   4.337   8.290   7.017
26298SOL    HW178920   4.393   8.371   7.000
26298SOL    HW278921   4.396   8.210   7.020
26299SOL     OW78922   5.217   9.215   6.545
26299SOL    HW178923   5.250   9.279   6.476
26299SOL    HW278924   5.283   9.209   6.620
26300SOL     OW78925   4.440   8.013   7.294
26300SOL    HW178926   4.459   8.078   7.368
26300SOL    HW278927   4.500   7.933   7.303
26301SOL     OW78928   5.174   8.668   7.219
26301SOL    HW178929   5.165   8.658   7.318
26301SOL    HW278930   5.270   8.661   7.193
26302SOL     OW78931   4.114   9.189   7.146
26302SOL    HW178932   4.023   9.230   7.144
26302SOL    HW278933   4.107   9.095   7.178
26303SOL     OW78934   5.398   8.331   6.840
26303SOL    HW178935   5.371   8.242   6.803
26303SOL    HW278936   5.399   8.399   6.767
26304SOL     OW78937   4.949   7.773   6.035
26304SOL    HW178938   5.014   7.699   6.024
26304SOL    HW278939   4.969   7.823   6.119
26305SOL     OW78940   4.318   8.193   6.238
26305SOL    HW178941   4.368   8.278   6.219
26305SOL    HW278942   4.230   8.195   6.190
26306SOL     OW78943   5.501   7.790   7.228
26306SOL    HW178944   5.484   7.821   7.134
26306SOL    HW278945   5.417   7.753   7.266
26307SOL     OW78946   5.454   8.382   7.103
26307SOL    HW178947   5.492   8.473   7.118
26307SOL    HW278948   5.446   8.365   7.004
26308SOL     OW78949   4.583   8.822   5.602
26308SOL    HW178950   4.537   8.837   5.690
26308SOL    HW278951   4.627   8.907   5.572
26309SOL     OW78952   4.385   9.238   6.539
26309SOL    HW178953   4.339   9.326   6.526
26309SOL    HW278954   4.484   9.250   6.532
26310SOL     OW78955   4.583   8.404   6.447
26310SOL    HW178956   4.637   8.335   6.495
26310SOL    HW278957   4.551   8.473   6.513
26311SOL     OW78958   4.807   8.432   5.673
26311SOL    HW178959   4.784   8.485   5.591
26311SOL    HW278960   4.888   8.376   5.654
26312SOL     OW78961   5.585   9.017   6.437
26312SOL    HW178962   5.514   9.005   6.367
26312SOL    HW278963   5.586   8.938   6.497
26313SOL     OW78964   3.945   8.762   7.430
26313SOL    HW178965   3.880   8.689   7.409
26313SOL    HW278966   3.949   8.776   7.528
26314SOL     OW78967   3.803   8.688   6.239
26314SOL    HW178968   3.802   8.641   6.327
26314SOL    HW278969   3.885   8.660   6.188
26315SOL     OW78970   4.396   8.839   7.210
26315SOL    HW178971   4.318   8.789   7.248
26315SOL    HW278972   4.393   8.934   7.241
26316SOL     OW78973   5.548   7.640   6.813
26316SOL    HW178974   5.544   7.550   6.857
26316SOL    HW278975   5.551   7.629   6.714
26317SOL     OW78976   4.152   7.872   6.106
26317SOL    HW178977   4.182   7.800   6.044
26317SOL    HW278978   4.113   7.832   6.189
26318SOL     OW78979   5.429   8.935   6.690
26318SOL    HW178980   5.336   8.910   6.663
26318SOL    HW278981   5.455   8.885   6.772
26319SOL     OW78982   4.041   7.995   6.866
26319SOL    HW178983   4.079   7.936   6.938
26319SOL    HW278984   4.081   7.969   6.778
26320SOL     OW78985   4.536   9.034   6.273
26320SOL    HW178986   4.568   9.044   6.179
26320SOL    HW278987   4.457   8.972   6.275
26321SOL     OW78988   5.148   7.662   6.698
26321SOL    HW178989   5.200   7.597   6.753
26321SOL    HW278990   5.099   7.725   6.759
26322SOL     OW78991   4.725   7.482   6.740
26322SOL    HW178992   4.662   7.410   6.709
26322SOL    HW278993   4.818   7.446   6.740
26323SOL     OW78994   4.494   8.778   5.887
26323SOL    HW178995   4.448   8.691   5.904
26323SOL    HW278996   4.585   8.775   5.928
26324SOL     OW78997   4.342   9.015   6.870
26324SOL    HW178998   4.337   9.097   6.927
26324SOL    HW278999   4.431   9.012   6.825
26325SOL     OW79000   5.076   7.500   5.754
26325SOL    HW179001   5.111   7.459   5.670
26325SOL    HW279002   4.986   7.462   5.774
26326SOL     OW79003   5.024   7.901   6.277
26326SOL    HW179004   4.965   7.981   6.281
26326SOL    HW279005   5.039   7.866   6.370
26327SOL     OW79006   5.317   7.669   6.468
26327SOL    HW179007   5.233   7.668   6.522
26327SOL    HW279008   5.319   7.752   6.412
26328SOL     OW79009   3.763   8.525   5.886
26328SOL    HW179010   3.862   8.514   5.877
26328SOL    HW279011   3.723   8.439   5.918
26329SOL     OW79012   4.599   9.094   5.923
26329SOL    HW179013   4.522   9.059   5.869
26329SOL    HW279014   4.567   9.165   5.985
26330SOL     OW79015   3.954   8.076   7.561
26330SOL    HW179016   3.861   8.074   7.598
26330SOL    HW279017   3.955   8.037   7.469
26331SOL     OW79018   3.949   7.723   8.444
26331SOL    HW179019   3.984   7.706   8.536
26331SOL    HW279020   3.861   7.678   8.432
26332SOL     OW79021   3.743   7.816   8.095
26332SOL    HW179022   3.661   7.859   8.134
26332SOL    HW279023   3.715   7.743   8.032
26333SOL     OW79024   4.293   8.723   8.613
26333SOL    HW179025   4.200   8.716   8.576
26333SOL    HW279026   4.304   8.812   8.657
26334SOL     OW79027   5.279   8.959   8.151
26334SOL    HW179028   5.222   8.943   8.232
26334SOL    HW279029   5.220   8.969   8.071
26335SOL     OW79030   4.859   8.151   8.165
26335SOL    HW179031   4.916   8.229   8.140
26335SOL    HW279032   4.799   8.177   8.241
26336SOL     OW79033   5.479   8.055   7.679
26336SOL    HW179034   5.467   8.042   7.580
26336SOL    HW279035   5.449   7.974   7.728
26337SOL     OW79036   4.492   8.592   8.471
26337SOL    HW179037   4.414   8.609   8.531
26337SOL    HW279038   4.526   8.679   8.435
26338SOL     OW79039   4.574   8.246   9.271
26338SOL    HW179040   4.570   8.322   9.336
26338SOL    HW279041   4.596   8.282   9.180
26339SOL     OW79042   4.409   8.460   8.113
26339SOL    HW179043   4.478   8.444   8.183
26339SOL    HW279044   4.336   8.517   8.151
26340SOL     OW79045   4.410   8.609   9.251
26340SOL    HW179046   4.470   8.688   9.265
26340SOL    HW279047   4.324   8.640   9.210
26341SOL     OW79048   4.059   8.883   8.509
26341SOL    HW179049   3.981   8.852   8.456
26341SOL    HW279050   4.117   8.941   8.452
26342SOL     OW79051   5.184   8.953   8.787
26342SOL    HW179052   5.208   9.047   8.813
26342SOL    HW279053   5.168   8.899   8.869
26343SOL     OW79054   4.162   7.840   8.947
26343SOL    HW179055   4.244   7.784   8.956
26343SOL    HW279056   4.081   7.782   8.951
26344SOL     OW79057   5.327   7.895   8.185
26344SOL    HW179058   5.253   7.941   8.135
26344SOL    HW279059   5.378   7.963   8.238
26345SOL     OW79060   3.955   9.161   7.931
26345SOL    HW179061   3.989   9.238   7.985
26345SOL    HW279062   3.999   9.161   7.841
26346SOL     OW79063   4.851   8.789   9.138
26346SOL    HW179064   4.898   8.789   9.226
26346SOL    HW279065   4.803   8.702   9.127
26347SOL     OW79066   3.954   8.882   7.986
26347SOL    HW179067   3.928   8.978   7.986
26347SOL    HW279068   3.883   8.828   8.031
26348SOL     OW79069   3.964   8.539   8.334
26348SOL    HW179070   3.978   8.455   8.386
26348SOL    HW279071   3.909   8.603   8.389
26349SOL     OW79072   4.344   9.234   8.887
26349SOL    HW179073   4.252   9.217   8.922
26349SOL    HW279074   4.372   9.326   8.913
26350SOL     OW79075   4.330   8.412   7.571
26350SOL    HW179076   4.337   8.496   7.517
26350SOL    HW279077   4.376   8.425   7.659
26351SOL     OW79078   5.318   7.562   8.928
26351SOL    HW179079   5.300   7.629   8.856
26351SOL    HW279080   5.315   7.608   9.017
26352SOL     OW79081   3.846   8.091   8.011
26352SOL    HW179082   3.801   8.003   8.028
26352SOL    HW279083   3.845   8.145   8.095
26353SOL     OW79084   3.751   9.044   7.565
26353SOL    HW179085   3.732   8.948   7.586
26353SOL    HW279086   3.718   9.102   7.640
26354SOL     OW79087   5.413   8.370   8.060
26354SOL    HW179088   5.508   8.341   8.068
26354SOL    HW279089   5.405   8.435   7.985
26355SOL     OW79090   5.365   8.556   7.880
26355SOL    HW179091   5.451   8.558   7.828
26355SOL    HW279092   5.379   8.603   7.968
26356SOL     OW79093   3.837   8.185   9.045
26356SOL    HW179094   3.925   8.172   9.090
26356SOL    HW279095   3.824   8.282   9.023
26357SOL     OW79096   4.337   8.813   8.174
26357SOL    HW179097   4.288   8.726   8.183
26357SOL    HW279098   4.314   8.856   8.087
26358SOL     OW79099   5.017   8.676   8.871
26358SOL    HW179100   5.054   8.603   8.813
26358SOL    HW279101   5.069   8.681   8.956
26359SOL     OW79102   4.533   7.452   7.950
26359SOL    HW179103   4.573   7.543   7.941
26359SOL    HW279104   4.433   7.460   7.956
26360SOL     OW79105   3.921   8.424   8.712
26360SOL    HW179106   4.010   8.379   8.698
26360SOL    HW279107   3.848   8.359   8.693
26361SOL     OW79108   5.249   8.447   7.638
26361SOL    HW179109   5.186   8.371   7.651
26361SOL    HW279110   5.297   8.465   7.724
26362SOL     OW79111   4.911   9.240   9.064
26362SOL    HW179112   4.935   9.300   8.988
26362SOL    HW279113   4.918   9.145   9.034
26363SOL     OW79114   4.041   7.699   9.249
26363SOL    HW179115   4.112   7.770   9.255
26363SOL    HW279116   3.953   7.738   9.277
26364SOL     OW79117   5.190   8.865   8.401
26364SOL    HW179118   5.131   8.871   8.481
26364SOL    HW279119   5.175   8.777   8.355
26365SOL     OW79120   5.391   9.162   8.020
26365SOL    HW179121   5.350   9.139   7.932
26365SOL    HW279122   5.373   9.088   8.085
26366SOL     OW79123   4.322   8.177   7.718
26366SOL    HW179124   4.346   8.246   7.650
26366SOL    HW279125   4.244   8.210   7.772
26367SOL     OW79126   5.005   7.793   8.392
26367SOL    HW179127   4.919   7.743   8.379
26367SOL    HW279128   5.067   7.739   8.448
26368SOL     OW79129   5.300   9.110   7.755
26368SOL    HW179130   5.389   9.156   7.758
26368SOL    HW279131   5.279   9.086   7.660
26369SOL     OW79132   4.531   8.053   8.913
26369SOL    HW179133   4.484   8.050   9.002
26369SOL    HW279134   4.480   7.998   8.847
26370SOL     OW79135   5.118   7.917   9.122
26370SOL    HW179136   5.098   7.960   9.210
26370SOL    HW279137   5.196   7.855   9.131
26371SOL     OW79138   4.697   8.338   9.020
26371SOL    HW179139   4.743   8.254   8.991
26371SOL    HW279140   4.641   8.372   8.945
26372SOL     OW79141   4.715   7.858   8.690
26372SOL    HW179142   4.638   7.892   8.744
26372SOL    HW279143   4.681   7.807   8.611
26373SOL     OW79144   4.765   8.149   7.877
26373SOL    HW179145   4.791   8.145   7.973
26373SOL    HW279146   4.680   8.098   7.863
26374SOL     OW79147   3.800   8.259   8.237
26374SOL    HW179148   3.899   8.247   8.246
26374SOL    HW279149   3.776   8.354   8.258
26375SOL     OW79150   3.854   9.269   9.019
26375SOL    HW179151   3.844   9.254   9.118
26375SOL    HW279152   3.768   9.305   8.983
26376SOL     OW79153   4.589   7.796   7.643
26376SOL    HW179154   4.648   7.859   7.594
26376SOL    HW279155   4.608   7.702   7.614
26377SOL     OW79156   5.443   8.033   9.279
26377SOL    HW179157   5.417   8.122   9.243
26377SOL    HW279158   5.441   7.965   9.206
26378SOL     OW79159   5.086   8.592   7.993
26378SOL    HW179160   5.169   8.563   7.945
26378SOL    HW279161   5.037   8.659   7.937
26379SOL     OW79162   4.274   7.644   8.333
26379SOL    HW179163   4.269   7.639   8.433
26379SOL    HW279164   4.276   7.740   8.304
26380SOL     OW79165   4.732   8.904   7.925
26380SOL    HW179166   4.686   8.976   7.873
26380SOL    HW279167   4.728   8.924   8.023
26381SOL     OW79168   4.075   9.249   8.301
26381SOL    HW179169   4.125   9.163   8.307
26381SOL    HW279170   4.140   9.326   8.298
26382SOL     OW79171   5.519   8.514   8.321
26382SOL    HW179172   5.457   8.499   8.245
26382SOL    HW279173   5.467   8.525   8.406
26383SOL     OW79174   4.951   8.998   8.954
26383SOL    HW179175   4.957   8.921   9.018
26383SOL    HW279176   4.899   8.972   8.874
26384SOL     OW79177   4.045   8.391   7.690
26384SOL    HW179178   4.127   8.430   7.648
26384SOL    HW279179   4.018   8.309   7.641
26385SOL     OW79180   5.182   8.183   8.176
26385SOL    HW179181   5.177   8.118   8.251
26385SOL    HW279182   5.262   8.242   8.189
26386SOL     OW79183   4.185   8.714   9.175
26386SOL    HW179184   4.135   8.715   9.089
26386SOL    HW279185   4.122   8.696   9.251
26387SOL     OW79186   4.835   9.224   7.685
26387SOL    HW179187   4.775   9.162   7.735
26387SOL    HW279188   4.866   9.180   7.600
26388SOL     OW79189   3.926   7.733   8.946
26388SOL    HW179190   3.846   7.793   8.933
26388SOL    HW279191   3.916   7.684   9.032
26389SOL     OW79192   5.356   8.825   7.529
26389SOL    HW179193   5.324   8.919   7.519
26389SOL    HW279194   5.280   8.762   7.517
26390SOL     OW79195   4.188   9.191   7.771
26390SOL    HW179196   4.221   9.230   7.857
26390SOL    HW279197   4.264   9.184   7.706
26391SOL     OW79198   5.124   7.555   7.874
26391SOL    HW179199   5.100   7.518   7.784
26391SOL    HW279200   5.223   7.571   7.878
26392SOL     OW79201   3.973   9.233   8.689
26392SOL    HW179202   4.030   9.168   8.739
26392SOL    HW279203   3.957   9.200   8.596
26393SOL     OW79204   4.664   9.146   8.352
26393SOL    HW179205   4.744   9.089   8.373
26393SOL    HW279206   4.615   9.106   8.275
26394SOL     OW79207   4.106   8.148   7.928
26394SOL    HW179208   4.151   8.058   7.925
26394SOL    HW279209   4.012   8.137   7.961
26395SOL     OW79210   5.271   7.670   9.177
26395SOL    HW179211   5.266   7.707   9.269
26395SOL    HW279212   5.199   7.601   9.165
26396SOL     OW79213   4.338   7.570   7.565
26396SOL    HW179214   4.436   7.548   7.572
26396SOL    HW279215   4.307   7.553   7.472
26397SOL     OW79216   4.505   7.712   9.197
26397SOL    HW179217   4.572   7.651   9.240
26397SOL    HW279218   4.432   7.731   9.262
26398SOL     OW79219   4.612   8.962   8.643
26398SOL    HW179220   4.589   8.937   8.549
26398SOL    HW279221   4.673   8.893   8.682
26399SOL     OW79222   5.075   8.038   8.881
26399SOL    HW179223   5.103   7.995   8.966
26399SOL    HW279224   5.100   8.134   8.882
26400SOL     OW79225   4.527   8.850   8.372
26400SOL    HW179226   4.617   8.864   8.330
26400SOL    HW279227   4.456   8.852   8.301
26401SOL     OW79228   4.646   7.951   8.347
26401SOL    HW179229   4.621   7.942   8.251
26401SOL    HW279230   4.694   7.869   8.378
26402SOL     OW79231   4.263   7.512   7.960
26402SOL    HW179232   4.182   7.513   8.018
26402SOL    HW279233   4.266   7.595   7.905
26403SOL     OW79234   5.158   8.636   7.489
26403SOL    HW179235   5.190   8.560   7.546
26403SOL    HW279236   5.066   8.663   7.519
26404SOL     OW79237   4.021   7.483   7.619
26404SOL    HW179238   4.070   7.567   7.598
26404SOL    HW279239   4.083   7.418   7.664
26405SOL     OW79240   4.659   7.684   7.928
26405SOL    HW179241   4.611   7.725   7.850
26405SOL    HW279242   4.758   7.682   7.909
26406SOL     OW79243   4.800   8.131   8.912
26406SOL    HW179244   4.720   8.070   8.915
26406SOL    HW279245   4.881   8.078   8.888
26407SOL     OW79246   4.951   9.018   8.241
26407SOL    HW179247   4.972   9.092   8.176
26407SOL    HW279248   5.019   9.018   8.314
26408SOL     OW79249   4.995   9.245   8.039
26408SOL    HW179250   5.039   9.309   7.975
26408SOL    HW279251   4.945   9.297   8.109
26409SOL     OW79252   4.756   7.997   7.464
26409SOL    HW179253   4.715   8.079   7.425
26409SOL    HW279254   4.820   8.023   7.537
26410SOL     OW79255   3.802   8.004   8.834
26410SOL    HW179256   3.894   8.003   8.793
26410SOL    HW279257   3.796   8.078   8.901
26411SOL     OW79258   4.285   7.670   8.595
26411SOL    HW179259   4.323   7.586   8.632
26411SOL    HW279260   4.197   7.689   8.639
26412SOL     OW79261   4.590   7.902   8.090
26412SOL    HW179262   4.558   7.974   8.028
26412SOL    HW279263   4.614   7.821   8.037
26413SOL     OW79264   4.741   7.487   8.201
26413SOL    HW179265   4.669   7.492   8.132
26413SOL    HW279266   4.717   7.418   8.270
26414SOL     OW79267   5.153   8.621   8.315
26414SOL    HW179268   5.098   8.537   8.308
26414SOL    HW279269   5.179   8.650   8.223
26415SOL     OW79270   5.190   8.038   8.440
26415SOL    HW179271   5.160   7.943   8.447
26415SOL    HW279272   5.263   8.054   8.506
26416SOL     OW79273   5.581   8.281   7.825
26416SOL    HW179274   5.623   8.217   7.889
26416SOL    HW279275   5.543   8.230   7.747
26417SOL     OW79276   4.212   8.833   7.622
26417SOL    HW179277   4.125   8.818   7.669
26417SOL    HW279278   4.195   8.859   7.527
26418SOL     OW79279   5.388   8.728   8.105
26418SOL    HW179280   5.487   8.736   8.119
26418SOL    HW279281   5.343   8.812   8.136
26419SOL     OW79282   5.114   8.023   7.526
26419SOL    HW179283   5.060   8.002   7.607
26419SOL    HW279284   5.205   7.982   7.535
26420SOL     OW79285   4.251   7.704   7.776
26420SOL    HW179286   4.278   7.645   7.701
26420SOL    HW279287   4.251   7.799   7.745
26421SOL     OW79288   5.478   8.671   9.036
26421SOL    HW179289   5.569   8.632   9.023
26421SOL    HW279290   5.486   8.767   9.060
26422SOL     OW79291   4.788   8.795   8.788
26422SOL    HW179292   4.708   8.772   8.843
26422SOL    HW279293   4.871   8.769   8.837
26423SOL     OW79294   5.316   9.077   9.073
26423SOL    HW179295   5.343   9.111   8.983
26423SOL    HW279296   5.395   9.039   9.119
26424SOL     OW79297   4.835   8.643   8.548
26424SOL    HW179298   4.795   8.687   8.629
26424SOL    HW279299   4.794   8.680   8.465
26425SOL     OW79300   5.362   8.547   8.527
26425SOL    HW179301   5.367   8.628   8.586
26425SOL    HW279302   5.276   8.549   8.476
26426SOL     OW79303   4.639   7.537   8.850
26426SOL    HW179304   4.664   7.517   8.755
26426SOL    HW279305   4.711   7.593   8.892
26427SOL     OW79306   4.429   8.498   7.816
26427SOL    HW179307   4.415   8.505   7.915
26427SOL    HW279308   4.513   8.447   7.798
26428SOL     OW79309   4.134   8.261   8.699
26428SOL    HW179310   4.220   8.273   8.749
26428SOL    HW279311   4.092   8.174   8.726
26429SOL     OW79312   4.998   7.834   8.710
26429SOL    HW179313   5.019   7.908   8.774
26429SOL    HW279314   4.909   7.851   8.667
26430SOL     OW79315   3.788   9.012   8.779
26430SOL    HW179316   3.742   9.094   8.745
26430SOL    HW279317   3.886   9.031   8.788
26431SOL     OW79318   4.091   8.548   7.949
26431SOL    HW179319   4.084   8.631   7.893
26431SOL    HW279320   4.095   8.468   7.889
26432SOL     OW79321   4.290   7.985   8.313
26432SOL    HW179322   4.302   8.051   8.239
26432SOL    HW279323   4.336   8.019   8.396
26433SOL     OW79324   4.976   8.796   7.836
26433SOL    HW179325   5.026   8.873   7.876
26433SOL    HW279326   4.881   8.798   7.868
26434SOL     OW79327   4.996   8.893   8.590
26434SOL    HW179328   5.043   8.906   8.677
26434SOL    HW279329   4.930   8.819   8.599
26435SOL     OW79330   5.306   8.087   7.920
26435SOL    HW179331   5.275   8.148   7.993
26435SOL    HW279332   5.356   8.139   7.851
26436SOL     OW79333   4.078   8.958   8.777
26436SOL    HW179334   4.057   8.914   8.690
26436SOL    HW279335   4.175   8.984   8.780
26437SOL     OW79336   4.126   8.199   9.046
26437SOL    HW179337   4.194   8.254   8.999
26437SOL    HW279338   4.166   8.111   9.073
26438SOL     OW79339   5.311   8.227   9.118
26438SOL    HW179340   5.219   8.265   9.113
26438SOL    HW279341   5.371   8.274   9.053
26439SOL     OW79342   4.737   7.553   9.218
26439SOL    HW179343   4.743   7.638   9.166
26439SOL    HW279344   4.769   7.477   9.161
26440SOL     OW79345   4.228   7.498   9.188
26440SOL    HW179346   4.186   7.441   9.118
26440SOL    HW279347   4.162   7.567   9.220
26441SOL     OW79348   4.297   8.318   8.477
26441SOL    HW179349   4.341   8.407   8.468
26441SOL    HW279350   4.234   8.318   8.554
26442SOL     OW79351   5.084   8.310   8.493
26442SOL    HW179352   5.009   8.310   8.427
26442SOL    HW279353   5.121   8.218   8.502
26443SOL     OW79354   4.933   7.973   7.723
26443SOL    HW179355   4.946   7.889   7.777
26443SOL    HW279356   4.904   8.047   7.783
26444SOL     OW79357   4.031   7.661   8.679
26444SOL    HW179358   4.008   7.698   8.769
26444SOL    HW279359   4.001   7.566   8.673
26445SOL     OW79360   3.761   8.758   8.730
26445SOL    HW179361   3.814   8.709   8.798
26445SOL    HW279362   3.783   8.856   8.735
26446SOL     OW79363   4.456   8.082   8.512
26446SOL    HW179364   4.515   8.056   8.436
26446SOL    HW279365   4.428   8.178   8.501
26447SOL     OW79366   5.452   8.383   9.302
26447SOL    HW179367   5.406   8.376   9.213
26447SOL    HW279368   5.390   8.427   9.368
26448SOL     OW79369   4.031   7.511   8.066
26448SOL    HW179370   4.020   7.605   8.099
26448SOL    HW279371   4.026   7.448   8.143
26449SOL     OW79372   5.346   7.815   7.822
26449SOL    HW179373   5.348   7.739   7.886
26449SOL    HW279374   5.298   7.892   7.862
26450SOL     OW79375   4.747   8.214   8.414
26450SOL    HW179376   4.762   8.235   8.510
26450SOL    HW279377   4.717   8.119   8.405
26451SOL     OW79378   4.704   9.021   9.148
26451SOL    HW179379   4.684   9.065   9.060
26451SOL    HW279380   4.743   8.930   9.132
26452SOL     OW79381   5.583   8.966   9.053
26452SOL    HW179382   5.597   8.993   8.958
26452SOL    HW279383   5.666   8.988   9.106
26453SOL     OW79384   4.074   8.346   9.252
26453SOL    HW179385   4.150   8.390   9.300
26453SOL    HW279386   4.109   8.299   9.170
26454SOL     OW79387   5.264   7.722   7.573
26454SOL    HW179388   5.203   7.647   7.596
26454SOL    HW279389   5.286   7.774   7.656
26455SOL     OW79390   5.027   8.286   7.490
26455SOL    HW179391   5.061   8.193   7.505
26455SOL    HW279392   5.045   8.313   7.395
26456SOL     OW79393   4.792   8.781   8.297
26456SOL    HW179394   4.799   8.697   8.242
26456SOL    HW279395   4.854   8.850   8.261
26457SOL     OW79396   4.043   8.258   8.397
26457SOL    HW179397   4.136   8.294   8.402
26457SOL    HW279398   4.037   8.173   8.449
26458SOL     OW79399   4.063   7.957   8.454
26458SOL    HW179400   4.011   7.874   8.437
26458SOL    HW279401   4.140   7.962   8.390
26459SOL     OW79402   4.862   7.828   9.126
26459SOL    HW179403   4.817   7.891   9.190
26459SOL    HW279404   4.955   7.859   9.109
26460SOL     OW79405   4.884   7.655   8.925
26460SOL    HW179406   4.884   7.719   9.002
26460SOL    HW279407   4.912   7.703   8.842
26461SOL     OW79408   3.732   8.774   7.648
26461SOL    HW179409   3.639   8.795   7.617
26461SOL    HW279410   3.742   8.675   7.661
26462SOL     OW79411   3.812   9.249   8.375
26462SOL    HW179412   3.770   9.163   8.348
26462SOL    HW279413   3.906   9.252   8.341
26463SOL     OW79414   4.228   9.016   8.358
26463SOL    HW179415   4.294   9.090   8.367
26463SOL    HW279416   4.272   8.937   8.316
26464SOL     OW79417   4.726   8.244   8.686
26464SOL    HW179418   4.767   8.212   8.772
26464SOL    HW279419   4.630   8.217   8.683
26465SOL     OW79420   3.764   7.992   8.562
26465SOL    HW179421   3.849   7.959   8.521
26465SOL    HW279422   3.777   8.007   8.660
26466SOL     OW79423   3.913   7.968   9.170
26466SOL    HW179424   3.972   7.928   9.100
26466SOL    HW279425   3.855   8.039   9.129
26467SOL     OW79426   5.093   8.398   9.108
26467SOL    HW179427   5.132   8.487   9.128
26467SOL    HW279428   5.103   8.378   9.011
26468SOL     OW79429   4.539   8.020   7.773
26468SOL    HW179430   4.546   7.931   7.727
26468SOL    HW279431   4.445   8.054   7.765
26469SOL     OW79432   5.381   8.052   8.654
26469SOL    HW179433   5.343   7.983   8.716
26469SOL    HW279434   5.463   8.016   8.610
26470SOL     OW79435   3.976   9.012   9.192
26470SOL    HW179436   3.946   9.069   9.268
26470SOL    HW279437   3.969   8.915   9.218
26471SOL     OW79438   4.395   7.912   8.717
26471SOL    HW179439   4.361   7.823   8.687
26471SOL    HW279440   4.421   7.966   8.637
26472SOL     OW79441   4.654   9.126   8.913
26472SOL    HW179442   4.630   9.108   8.818
26472SOL    HW279443   4.684   9.220   8.923
26473SOL     OW79444   4.197   7.948   7.639
26473SOL    HW179445   4.258   8.028   7.643
26473SOL    HW279446   4.102   7.979   7.646
26474SOL     OW79447   3.883   8.585   8.914
26474SOL    HW179448   3.905   8.524   8.990
26474SOL    HW279449   3.893   8.536   8.828
26475SOL     OW79450   5.071   8.507   8.682
26475SOL    HW179451   5.095   8.444   8.608
26475SOL    HW279452   4.981   8.547   8.664
26476SOL     OW79453   5.026   8.303   7.757
26476SOL    HW179454   4.940   8.272   7.799
26476SOL    HW279455   5.022   8.289   7.658
26477SOL     OW79456   5.483   9.195   8.602
26477SOL    HW179457   5.544   9.225   8.529
26477SOL    HW279458   5.445   9.106   8.580
26478SOL     OW79459   4.976   9.179   8.576
26478SOL    HW179460   5.060   9.184   8.522
26478SOL    HW279461   4.953   9.083   8.594
26479SOL     OW79462   3.807   8.706   8.470
26479SOL    HW179463   3.802   8.705   8.570
26479SOL    HW279464   3.724   8.665   8.432
26480SOL     OW79465   4.412   9.110   9.164
26480SOL    HW179466   4.356   9.191   9.173
26480SOL    HW279467   4.464   9.114   9.078
26481SOL     OW79468   5.450   7.583   7.971
26481SOL    HW179469   5.523   7.566   7.904
26481SOL    HW279470   5.419   7.496   8.009
26482SOL     OW79471   5.112   9.021   7.925
26482SOL    HW179472   5.179   9.033   7.851
26482SOL    HW279473   5.072   9.110   7.948
26483SOL     OW79474   3.854   9.242   9.299
26483SOL    HW179475   3.813   9.168   9.352
26483SOL    HW279476   3.918   9.293   9.357
26484SOL     OW79477   5.004   8.375   8.120
26484SOL    HW179478   5.064   8.294   8.122
26484SOL    HW279479   5.044   8.444   8.060
26485SOL     OW79480   4.554   8.721   8.870
26485SOL    HW179481   4.549   8.754   8.965
26485SOL    HW279482   4.468   8.740   8.824
26486SOL     OW79483   4.396   9.064   7.602
26486SOL    HW179484   4.405   9.074   7.503
26486SOL    HW279485   4.356   8.975   7.623
26487SOL     OW79486   5.374   9.168   8.842
26487SOL    HW179487   5.427   9.178   8.758
26487SOL    HW279488   5.347   9.258   8.876
26488SOL     OW79489   5.565   7.623   8.411
26488SOL    HW179490   5.604   7.538   8.375
26488SOL    HW279491   5.467   7.625   8.392
26489SOL     OW79492   3.987   7.774   8.168
26489SOL    HW179493   3.908   7.825   8.134
26489SOL    HW279494   3.978   7.759   8.266
26490SOL     OW79495   4.918   9.060   7.479
26490SOL    HW179496   4.924   8.967   7.516
26490SOL    HW279497   4.859   9.060   7.399
26491SOL     OW79498   4.546   8.450   8.820
26491SOL    HW179499   4.586   8.449   8.728
26491SOL    HW279500   4.556   8.542   8.860
26492SOL     OW79501   4.640   8.358   7.739
26492SOL    HW179502   4.703   8.396   7.671
26492SOL    HW279503   4.680   8.275   7.778
26493SOL     OW79504   5.228   9.055   7.492
26493SOL    HW179505   5.136   9.092   7.499
26493SOL    HW279506   5.266   9.075   7.402
26494SOL     OW79507   4.096   8.736   8.938
26494SOL    HW179508   4.083   8.829   8.904
26494SOL    HW279509   4.012   8.684   8.925
26495SOL     OW79510   5.338   8.740   8.737
26495SOL    HW179511   5.398   8.743   8.817
26495SOL    HW279512   5.263   8.804   8.750
26496SOL     OW79513   4.763   8.546   8.144
26496SOL    HW179514   4.693   8.499   8.198
26496SOL    HW279515   4.822   8.478   8.101
26497SOL     OW79516   4.738   7.684   8.419
26497SOL    HW179517   4.730   7.648   8.326
26497SOL    HW279518   4.736   7.608   8.484
26498SOL     OW79519   4.314   8.935   7.939
26498SOL    HW179520   4.356   8.877   7.869
26498SOL    HW279521   4.270   9.014   7.895
26499SOL     OW79522   5.433   7.833   8.829
26499SOL    HW179523   5.506   7.902   8.833
26499SOL    HW279524   5.461   7.758   8.770
26500SOL     OW79525   3.979   8.796   7.738
26500SOL    HW179526   3.883   8.797   7.711
26500SOL    HW279527   3.991   8.849   7.822
26501SOL     OW79528   3.829   8.461   9.174
26501SOL    HW179529   3.752   8.428   9.228
26501SOL    HW279530   3.914   8.431   9.216
26502SOL     OW79531   4.396   7.651   8.937
26502SOL    HW179532   4.486   7.635   8.897
26502SOL    HW279533   4.404   7.656   9.036
26503SOL     OW79534   3.799   7.793   7.481
26503SOL    HW179535   3.707   7.765   7.452
26503SOL    HW279536   3.830   7.870   7.425
26504SOL     OW79537   5.164   8.304   8.846
26504SOL    HW179538   5.107   8.356   8.783
26504SOL    HW279539   5.260   8.316   8.822
26505SOL     OW79540   3.796   7.614   7.766
26505SOL    HW179541   3.779   7.697   7.712
26505SOL    HW279542   3.886   7.577   7.744
26506SOL     OW79543   4.907   8.783   7.567
26506SOL    HW179544   4.808   8.772   7.569
26506SOL    HW279545   4.941   8.798   7.660
26507SOL     OW79546   4.337   8.290   8.879
26507SOL    HW179547   4.393   8.371   8.862
26507SOL    HW279548   4.396   8.210   8.882
26508SOL     OW79549   5.217   9.215   8.407
26508SOL    HW179550   5.250   9.279   8.338
26508SOL    HW279551   5.283   9.209   8.482
26509SOL     OW79552   4.440   8.013   9.156
26509SOL    HW179553   4.459   8.078   9.230
26509SOL    HW279554   4.500   7.933   9.165
26510SOL     OW79555   5.174   8.668   9.081
26510SOL    HW179556   5.165   8.658   9.180
26510SOL    HW279557   5.270   8.661   9.055
26511SOL     OW79558   4.114   9.189   9.008
26511SOL    HW179559   4.023   9.230   9.006
26511SOL    HW279560   4.107   9.095   9.040
26512SOL     OW79561   5.398   8.331   8.702
26512SOL    HW179562   5.371   8.242   8.665
26512SOL    HW279563   5.399   8.399   8.629
26513SOL     OW79564   4.949   7.773   7.897
26513SOL    HW179565   5.014   7.699   7.886
26513SOL    HW279566   4.969   7.823   7.981
26514SOL     OW79567   4.318   8.193   8.100
26514SOL    HW179568   4.368   8.278   8.081
26514SOL    HW279569   4.230   8.195   8.052
26515SOL     OW79570   5.501   7.790   9.090
26515SOL    HW179571   5.484   7.821   8.996
26515SOL    HW279572   5.417   7.753   9.128
26516SOL     OW79573   5.454   8.382   8.965
26516SOL    HW179574   5.492   8.473   8.980
26516SOL    HW279575   5.446   8.365   8.866
26517SOL     OW79576   4.583   8.822   7.464
26517SOL    HW179577   4.537   8.837   7.552
26517SOL    HW279578   4.627   8.907   7.434
26518SOL     OW79579   4.385   9.238   8.401
26518SOL    HW179580   4.339   9.326   8.388
26518SOL    HW279581   4.484   9.250   8.394
26519SOL     OW79582   4.583   8.404   8.309
26519SOL    HW179583   4.637   8.335   8.357
26519SOL    HW279584   4.551   8.473   8.375
26520SOL     OW79585   4.807   8.432   7.535
26520SOL    HW179586   4.784   8.485   7.453
26520SOL    HW279587   4.888   8.376   7.516
26521SOL     OW79588   5.585   9.017   8.299
26521SOL    HW179589   5.514   9.005   8.229
26521SOL    HW279590   5.586   8.938   8.359
26522SOL     OW79591   3.945   8.762   9.292
26522SOL    HW179592   3.880   8.689   9.271
26522SOL    HW279593   3.949   8.776   9.390
26523SOL     OW79594   3.803   8.688   8.101
26523SOL    HW179595   3.802   8.641   8.189
26523SOL    HW279596   3.885   8.660   8.050
26524SOL     OW79597   4.396   8.839   9.072
26524SOL    HW179598   4.318   8.789   9.110
26524SOL    HW279599   4.393   8.934   9.103
26525SOL     OW79600   5.548   7.640   8.675
26525SOL    HW179601   5.544   7.550   8.719
26525SOL    HW279602   5.551   7.629   8.576
26526SOL     OW79603   4.152   7.872   7.968
26526SOL    HW179604   4.182   7.800   7.906
26526SOL    HW279605   4.113   7.832   8.051
26527SOL     OW79606   5.429   8.935   8.552
26527SOL    HW179607   5.336   8.910   8.525
26527SOL    HW279608   5.455   8.885   8.634
26528SOL     OW79609   4.041   7.995   8.728
26528SOL    HW179610   4.079   7.936   8.800
26528SOL    HW279611   4.081   7.969   8.640
26529SOL     OW79612   4.536   9.034   8.135
26529SOL    HW179613   4.568   9.044   8.041
26529SOL    HW279614   4.457   8.972   8.137
26530SOL     OW79615   5.148   7.662   8.560
26530SOL    HW179616   5.200   7.597   8.615
26530SOL    HW279617   5.099   7.725   8.621
26531SOL     OW79618   4.725   7.482   8.602
26531SOL    HW179619   4.662   7.410   8.571
26531SOL    HW279620   4.818   7.446   8.602
26532SOL     OW79621   4.494   8.778   7.749
26532SOL    HW179622   4.448   8.691   7.766
26532SOL    HW279623   4.585   8.775   7.790
26533SOL     OW79624   4.342   9.015   8.732
26533SOL    HW179625   4.337   9.097   8.789
26533SOL    HW279626   4.431   9.012   8.687
26534SOL     OW79627   5.076   7.500   7.616
26534SOL    HW179628   5.111   7.459   7.532
26534SOL    HW279629   4.986   7.462   7.636
26535SOL     OW79630   5.024   7.901   8.139
26535SOL    HW179631   4.965   7.981   8.143
26535SOL    HW279632   5.039   7.866   8.232
26536SOL     OW79633   5.317   7.669   8.330
26536SOL    HW179634   5.233   7.668   8.384
26536SOL    HW279635   5.319   7.752   8.274
26537SOL     OW79636   3.763   8.525   7.748
26537SOL    HW179637   3.862   8.514   7.739
26537SOL    HW279638   3.723   8.439   7.780
26538SOL     OW79639   4.599   9.094   7.785
26538SOL    HW179640   4.522   9.059   7.731
26538SOL    HW279641   4.567   9.165   7.847
26539SOL     OW79642   3.954   8.076   9.423
26539SOL    HW179643   3.861   8.074   9.460
26539SOL    HW279644   3.955   8.037   9.331
26540SOL     OW79645   3.949   7.723  10.306
26540SOL    HW179646   3.984   7.706  10.398
26540SOL    HW279647   3.861   7.678  10.294
26541SOL     OW79648   3.743   7.816   9.957
26541SOL    HW179649   3.661   7.859   9.996
26541SOL    HW279650   3.715   7.743   9.894
26542SOL     OW79651   4.293   8.723  10.475
26542SOL    HW179652   4.200   8.716  10.438
26542SOL    HW279653   4.304   8.812  10.519
26543SOL     OW79654   5.279   8.959  10.013
26543SOL    HW179655   5.222   8.943  10.094
26543SOL    HW279656   5.220   8.969   9.933
26544SOL     OW79657   4.859   8.151  10.027
26544SOL    HW179658   4.916   8.229  10.002
26544SOL    HW279659   4.799   8.177  10.103
26545SOL     OW79660   5.479   8.055   9.541
26545SOL    HW179661   5.467   8.042   9.442
26545SOL    HW279662   5.449   7.974   9.590
26546SOL     OW79663   4.492   8.592  10.333
26546SOL    HW179664   4.414   8.609  10.393
26546SOL    HW279665   4.526   8.679  10.297
26547SOL     OW79666   4.574   8.246  11.133
26547SOL    HW179667   4.570   8.322  11.198
26547SOL    HW279668   4.596   8.282  11.042
26548SOL     OW79669   4.409   8.460   9.975
26548SOL    HW179670   4.478   8.444  10.045
26548SOL    HW279671   4.336   8.517  10.013
26549SOL     OW79672   4.410   8.609  11.113
26549SOL    HW179673   4.470   8.688  11.127
26549SOL    HW279674   4.324   8.640  11.072
26550SOL     OW79675   4.059   8.883  10.371
26550SOL    HW179676   3.981   8.852  10.318
26550SOL    HW279677   4.117   8.941  10.314
26551SOL     OW79678   5.184   8.953  10.649
26551SOL    HW179679   5.208   9.047  10.675
26551SOL    HW279680   5.168   8.899  10.731
26552SOL     OW79681   4.162   7.840  10.809
26552SOL    HW179682   4.244   7.784  10.818
26552SOL    HW279683   4.081   7.782  10.813
26553SOL     OW79684   5.327   7.895  10.047
26553SOL    HW179685   5.253   7.941   9.997
26553SOL    HW279686   5.378   7.963  10.100
26554SOL     OW79687   3.955   9.161   9.793
26554SOL    HW179688   3.989   9.238   9.847
26554SOL    HW279689   3.999   9.161   9.703
26555SOL     OW79690   4.851   8.789  11.000
26555SOL    HW179691   4.898   8.789  11.088
26555SOL    HW279692   4.803   8.702  10.989
26556SOL     OW79693   3.954   8.882   9.848
26556SOL    HW179694   3.928   8.978   9.848
26556SOL    HW279695   3.883   8.828   9.893
26557SOL     OW79696   3.964   8.539  10.196
26557SOL    HW179697   3.978   8.455  10.248
26557SOL    HW279698   3.909   8.603  10.251
26558SOL     OW79699   4.344   9.234  10.749
26558SOL    HW179700   4.252   9.217  10.784
26558SOL    HW279701   4.372   9.326  10.775
26559SOL     OW79702   4.330   8.412   9.433
26559SOL    HW179703   4.337   8.496   9.379
26559SOL    HW279704   4.376   8.425   9.521
26560SOL     OW79705   5.318   7.562  10.790
26560SOL    HW179706   5.300   7.629  10.718
26560SOL    HW279707   5.315   7.608  10.879
26561SOL     OW79708   3.846   8.091   9.873
26561SOL    HW179709   3.801   8.003   9.890
26561SOL    HW279710   3.845   8.145   9.957
26562SOL     OW79711   5.566   9.215   9.669
26562SOL    HW179712   5.620   9.186   9.749
26562SOL    HW279713   5.596   9.305   9.640
26563SOL     OW79714   3.751   9.044   9.427
26563SOL    HW179715   3.732   8.948   9.448
26563SOL    HW279716   3.718   9.102   9.502
26564SOL     OW79717   5.413   8.370   9.922
26564SOL    HW179718   5.508   8.341   9.930
26564SOL    HW279719   5.405   8.435   9.847
26565SOL     OW79720   5.365   8.556   9.742
26565SOL    HW179721   5.451   8.558   9.690
26565SOL    HW279722   5.379   8.603   9.830
26566SOL     OW79723   3.837   8.185  10.907
26566SOL    HW179724   3.925   8.172  10.952
26566SOL    HW279725   3.824   8.282  10.885
26567SOL     OW79726   4.337   8.813  10.036
26567SOL    HW179727   4.288   8.726  10.045
26567SOL    HW279728   4.314   8.856   9.949
26568SOL     OW79729   5.017   8.676  10.733
26568SOL    HW179730   5.054   8.603  10.675
26568SOL    HW279731   5.069   8.681  10.818
26569SOL     OW79732   4.533   7.452   9.812
26569SOL    HW179733   4.573   7.543   9.803
26569SOL    HW279734   4.433   7.460   9.818
26570SOL     OW79735   3.921   8.424  10.574
26570SOL    HW179736   4.010   8.379  10.560
26570SOL    HW279737   3.848   8.359  10.555
26571SOL     OW79738   5.249   8.447   9.500
26571SOL    HW179739   5.186   8.371   9.513
26571SOL    HW279740   5.297   8.465   9.586
26572SOL     OW79741   4.911   9.240  10.926
26572SOL    HW179742   4.935   9.300  10.850
26572SOL    HW279743   4.918   9.145  10.896
26573SOL     OW79744   4.041   7.699  11.111
26573SOL    HW179745   4.112   7.770  11.117
26573SOL    HW279746   3.953   7.738  11.139
26574SOL     OW79747   5.190   8.865  10.263
26574SOL    HW179748   5.131   8.871  10.343
26574SOL    HW279749   5.175   8.777  10.217
26575SOL     OW79750   5.391   9.162   9.882
26575SOL    HW179751   5.350   9.139   9.794
26575SOL    HW279752   5.373   9.088   9.947
26576SOL     OW79753   4.322   8.177   9.580
26576SOL    HW179754   4.346   8.246   9.512
26576SOL    HW279755   4.244   8.210   9.634
26577SOL     OW79756   5.005   7.793  10.254
26577SOL    HW179757   4.919   7.743  10.241
26577SOL    HW279758   5.067   7.739  10.310
26578SOL     OW79759   5.300   9.110   9.617
26578SOL    HW179760   5.389   9.156   9.620
26578SOL    HW279761   5.279   9.086   9.522
26579SOL     OW79762   4.531   8.053  10.775
26579SOL    HW179763   4.484   8.050  10.864
26579SOL    HW279764   4.480   7.998  10.709
26580SOL     OW79765   5.118   7.917  10.984
26580SOL    HW179766   5.098   7.960  11.072
26580SOL    HW279767   5.196   7.855  10.993
26581SOL     OW79768   4.697   8.338  10.882
26581SOL    HW179769   4.743   8.254  10.853
26581SOL    HW279770   4.641   8.372  10.807
26582SOL     OW79771   4.715   7.858  10.552
26582SOL    HW179772   4.638   7.892  10.606
26582SOL    HW279773   4.681   7.807  10.473
26583SOL     OW79774   4.765   8.149   9.739
26583SOL    HW179775   4.791   8.145   9.835
26583SOL    HW279776   4.680   8.098   9.725
26584SOL     OW79777   3.800   8.259  10.099
26584SOL    HW179778   3.899   8.247  10.108
26584SOL    HW279779   3.776   8.354  10.120
26585SOL     OW79780   3.854   9.269  10.881
26585SOL    HW179781   3.844   9.254  10.980
26585SOL    HW279782   3.768   9.305  10.845
26586SOL     OW79783   4.589   7.796   9.505
26586SOL    HW179784   4.648   7.859   9.456
26586SOL    HW279785   4.608   7.702   9.476
26587SOL     OW79786   5.443   8.033  11.141
26587SOL    HW179787   5.417   8.122  11.105
26587SOL    HW279788   5.441   7.965  11.068
26588SOL     OW79789   5.086   8.592   9.855
26588SOL    HW179790   5.169   8.563   9.807
26588SOL    HW279791   5.037   8.659   9.799
26589SOL     OW79792   4.274   7.644  10.195
26589SOL    HW179793   4.269   7.639  10.295
26589SOL    HW279794   4.276   7.740  10.166
26590SOL     OW79795   4.732   8.904   9.787
26590SOL    HW179796   4.686   8.976   9.735
26590SOL    HW279797   4.728   8.924   9.885
26591SOL     OW79798   4.075   9.249  10.163
26591SOL    HW179799   4.125   9.163  10.169
26591SOL    HW279800   4.140   9.326  10.160
26592SOL     OW79801   5.519   8.514  10.183
26592SOL    HW179802   5.457   8.499  10.107
26592SOL    HW279803   5.467   8.525  10.268
26593SOL     OW79804   4.951   8.998  10.816
26593SOL    HW179805   4.957   8.921  10.880
26593SOL    HW279806   4.899   8.972  10.736
26594SOL     OW79807   4.045   8.391   9.552
26594SOL    HW179808   4.127   8.430   9.510
26594SOL    HW279809   4.018   8.309   9.503
26595SOL     OW79810   5.182   8.183  10.038
26595SOL    HW179811   5.177   8.118  10.113
26595SOL    HW279812   5.262   8.242  10.051
26596SOL     OW79813   4.185   8.714  11.037
26596SOL    HW179814   4.135   8.715  10.951
26596SOL    HW279815   4.122   8.696  11.113
26597SOL     OW79816   4.835   9.224   9.547
26597SOL    HW179817   4.775   9.162   9.597
26597SOL    HW279818   4.866   9.180   9.462
26598SOL     OW79819   3.926   7.733  10.808
26598SOL    HW179820   3.846   7.793  10.795
26598SOL    HW279821   3.916   7.684  10.894
26599SOL     OW79822   4.188   9.191   9.633
26599SOL    HW179823   4.221   9.230   9.719
26599SOL    HW279824   4.264   9.184   9.568
26600SOL     OW79825   5.124   7.555   9.736
26600SOL    HW179826   5.100   7.518   9.646
26600SOL    HW279827   5.223   7.571   9.740
26601SOL     OW79828   3.973   9.233  10.551
26601SOL    HW179829   4.030   9.168  10.601
26601SOL    HW279830   3.957   9.200  10.458
26602SOL     OW79831   4.664   9.146  10.214
26602SOL    HW179832   4.744   9.089  10.235
26602SOL    HW279833   4.615   9.106  10.137
26603SOL     OW79834   4.106   8.148   9.790
26603SOL    HW179835   4.151   8.058   9.787
26603SOL    HW279836   4.012   8.137   9.823
26604SOL     OW79837   5.271   7.670  11.039
26604SOL    HW179838   5.266   7.707  11.131
26604SOL    HW279839   5.199   7.601  11.027
26605SOL     OW79840   4.338   7.570   9.427
26605SOL    HW179841   4.436   7.548   9.434
26605SOL    HW279842   4.307   7.553   9.334
26606SOL     OW79843   4.505   7.712  11.059
26606SOL    HW179844   4.572   7.651  11.102
26606SOL    HW279845   4.432   7.731  11.124
26607SOL     OW79846   4.612   8.962  10.505
26607SOL    HW179847   4.589   8.937  10.411
26607SOL    HW279848   4.673   8.893  10.544
26608SOL     OW79849   5.075   8.038  10.743
26608SOL    HW179850   5.103   7.995  10.828
26608SOL    HW279851   5.100   8.134  10.744
26609SOL     OW79852   4.527   8.850  10.234
26609SOL    HW179853   4.617   8.864  10.192
26609SOL    HW279854   4.456   8.852  10.163
26610SOL     OW79855   4.646   7.951  10.209
26610SOL    HW179856   4.621   7.942  10.113
26610SOL    HW279857   4.694   7.869  10.240
26611SOL     OW79858   4.263   7.512   9.822
26611SOL    HW179859   4.182   7.513   9.880
26611SOL    HW279860   4.266   7.595   9.767
26612SOL     OW79861   5.158   8.636   9.351
26612SOL    HW179862   5.190   8.560   9.408
26612SOL    HW279863   5.066   8.663   9.381
26613SOL     OW79864   4.021   7.483   9.481
26613SOL    HW179865   4.070   7.567   9.460
26613SOL    HW279866   4.083   7.418   9.526
26614SOL     OW79867   4.659   7.684   9.790
26614SOL    HW179868   4.611   7.725   9.712
26614SOL    HW279869   4.758   7.682   9.771
26615SOL     OW79870   4.800   8.131  10.774
26615SOL    HW179871   4.720   8.070  10.777
26615SOL    HW279872   4.881   8.078  10.750
26616SOL     OW79873   4.951   9.018  10.103
26616SOL    HW179874   4.972   9.092  10.038
26616SOL    HW279875   5.019   9.018  10.176
26617SOL     OW79876   4.183   8.600  10.051
26617SOL    HW179877   4.112   8.573  10.116
26617SOL    HW279878   4.157   8.572   9.958
26618SOL     OW79879   4.756   7.997   9.326
26618SOL    HW179880   4.715   8.079   9.287
26618SOL    HW279881   4.820   8.023   9.399
26619SOL     OW79882   3.802   8.004  10.696
26619SOL    HW179883   3.894   8.003  10.655
26619SOL    HW279884   3.796   8.078  10.763
26620SOL     OW79885   4.285   7.670  10.457
26620SOL    HW179886   4.323   7.586  10.494
26620SOL    HW279887   4.197   7.689  10.501
26621SOL     OW79888   4.590   7.902   9.952
26621SOL    HW179889   4.558   7.974   9.890
26621SOL    HW279890   4.614   7.821   9.899
26622SOL     OW79891   4.741   7.487  10.063
26622SOL    HW179892   4.669   7.492   9.994
26622SOL    HW279893   4.717   7.418  10.132
26623SOL     OW79894   5.153   8.621  10.177
26623SOL    HW179895   5.098   8.537  10.170
26623SOL    HW279896   5.179   8.650  10.085
26624SOL     OW79897   5.190   8.038  10.302
26624SOL    HW179898   5.160   7.943  10.309
26624SOL    HW279899   5.263   8.054  10.368
26625SOL     OW79900   5.581   8.281   9.687
26625SOL    HW179901   5.623   8.217   9.751
26625SOL    HW279902   5.543   8.230   9.609
26626SOL     OW79903   4.212   8.833   9.484
26626SOL    HW179904   4.125   8.818   9.531
26626SOL    HW279905   4.195   8.859   9.389
26627SOL     OW79906   5.388   8.728   9.967
26627SOL    HW179907   5.487   8.736   9.981
26627SOL    HW279908   5.343   8.812   9.998
26628SOL     OW79909   5.114   8.023   9.388
26628SOL    HW179910   5.060   8.002   9.469
26628SOL    HW279911   5.205   7.982   9.397
26629SOL     OW79912   4.251   7.704   9.638
26629SOL    HW179913   4.278   7.645   9.563
26629SOL    HW279914   4.251   7.799   9.607
26630SOL     OW79915   5.478   8.671  10.898
26630SOL    HW179916   5.569   8.632  10.885
26630SOL    HW279917   5.486   8.767  10.922
26631SOL     OW79918   4.788   8.795  10.650
26631SOL    HW179919   4.708   8.772  10.705
26631SOL    HW279920   4.871   8.769  10.699
26632SOL     OW79921   5.316   9.077  10.935
26632SOL    HW179922   5.343   9.111  10.845
26632SOL    HW279923   5.395   9.039  10.981
26633SOL     OW79924   4.835   8.643  10.410
26633SOL    HW179925   4.795   8.687  10.491
26633SOL    HW279926   4.794   8.680  10.327
26634SOL     OW79927   5.362   8.547  10.389
26634SOL    HW179928   5.367   8.628  10.448
26634SOL    HW279929   5.276   8.549  10.338
26635SOL     OW79930   4.639   7.537  10.712
26635SOL    HW179931   4.664   7.517  10.617
26635SOL    HW279932   4.711   7.593  10.754
26636SOL     OW79933   4.704   8.564  11.029
26636SOL    HW179934   4.605   8.570  11.039
26636SOL    HW279935   4.727   8.484  10.973
26637SOL     OW79936   4.429   8.498   9.678
26637SOL    HW179937   4.415   8.505   9.777
26637SOL    HW279938   4.513   8.447   9.660
26638SOL     OW79939   4.134   8.261  10.561
26638SOL    HW179940   4.220   8.273  10.611
26638SOL    HW279941   4.092   8.174  10.588
26639SOL     OW79942   4.998   7.834  10.572
26639SOL    HW179943   5.019   7.908  10.636
26639SOL    HW279944   4.909   7.851  10.529
26640SOL     OW79945   3.788   9.012  10.641
26640SOL    HW179946   3.742   9.094  10.607
26640SOL    HW279947   3.886   9.031  10.650
26641SOL     OW79948   4.091   8.548   9.811
26641SOL    HW179949   4.084   8.631   9.755
26641SOL    HW279950   4.095   8.468   9.751
26642SOL     OW79951   4.290   7.985  10.175
26642SOL    HW179952   4.302   8.051  10.101
26642SOL    HW279953   4.336   8.019  10.258
26643SOL     OW79954   4.976   8.796   9.698
26643SOL    HW179955   5.026   8.873   9.738
26643SOL    HW279956   4.881   8.798   9.730
26644SOL     OW79957   4.996   8.893  10.452
26644SOL    HW179958   5.043   8.906  10.539
26644SOL    HW279959   4.930   8.819  10.461
26645SOL     OW79960   5.306   8.087   9.782
26645SOL    HW179961   5.275   8.148   9.855
26645SOL    HW279962   5.356   8.139   9.713
26646SOL     OW79963   4.078   8.958  10.639
26646SOL    HW179964   4.057   8.914  10.552
26646SOL    HW279965   4.175   8.984  10.642
26647SOL     OW79966   4.126   8.199  10.908
26647SOL    HW179967   4.194   8.254  10.861
26647SOL    HW279968   4.166   8.111  10.935
26648SOL     OW79969   5.311   8.227  10.980
26648SOL    HW179970   5.219   8.265  10.975
26648SOL    HW279971   5.371   8.274  10.915
26649SOL     OW79972   4.737   7.553  11.080
26649SOL    HW179973   4.743   7.638  11.028
26649SOL    HW279974   4.769   7.477  11.023
26650SOL     OW79975   4.228   7.498  11.050
26650SOL    HW179976   4.186   7.441  10.980
26650SOL    HW279977   4.162   7.567  11.082
26651SOL     OW79978   4.297   8.318  10.339
26651SOL    HW179979   4.341   8.407  10.330
26651SOL    HW279980   4.234   8.318  10.416
26652SOL     OW79981   5.084   8.310  10.355
26652SOL    HW179982   5.009   8.310  10.289
26652SOL    HW279983   5.121   8.218  10.364
26653SOL     OW79984   4.933   7.973   9.585
26653SOL    HW179985   4.946   7.889   9.639
26653SOL    HW279986   4.904   8.047   9.645
26654SOL     OW79987   4.031   7.661  10.541
26654SOL    HW179988   4.008   7.698  10.631
26654SOL    HW279989   4.001   7.566  10.535
26655SOL     OW79990   3.761   8.758  10.592
26655SOL    HW179991   3.814   8.709  10.660
26655SOL    HW279992   3.783   8.856  10.597
26656SOL     OW79993   4.456   8.082  10.374
26656SOL    HW179994   4.515   8.056  10.298
26656SOL    HW279995   4.428   8.178  10.363
26657SOL     OW79996   5.452   8.383  11.164
26657SOL    HW179997   5.406   8.376  11.075
26657SOL    HW279998   5.390   8.427  11.230
26658SOL     OW79999   4.031   7.511   9.928
26658SOL    HW180000   4.020   7.605   9.961
26658SOL    HW280001   4.026   7.448  10.005
26659SOL     OW80002   5.346   7.815   9.684
26659SOL    HW180003   5.348   7.739   9.748
26659SOL    HW280004   5.298   7.892   9.724
26660SOL     OW80005   4.747   8.214  10.276
26660SOL    HW180006   4.762   8.235  10.372
26660SOL    HW280007   4.717   8.119  10.267
26661SOL     OW80008   4.704   9.021  11.010
26661SOL    HW180009   4.684   9.065  10.922
26661SOL    HW280010   4.743   8.930  10.994
26662SOL     OW80011   5.583   8.966  10.915
26662SOL    HW180012   5.597   8.993  10.820
26662SOL    HW280013   5.666   8.988  10.968
26663SOL     OW80014   4.074   8.346  11.114
26663SOL    HW180015   4.150   8.390  11.162
26663SOL    HW280016   4.109   8.299  11.032
26664SOL     OW80017   5.264   7.722   9.435
26664SOL    HW180018   5.203   7.647   9.458
26664SOL    HW280019   5.286   7.774   9.518
26665SOL     OW80020   5.027   8.286   9.352
26665SOL    HW180021   5.061   8.193   9.367
26665SOL    HW280022   5.045   8.313   9.257
26666SOL     OW80023   4.792   8.781  10.159
26666SOL    HW180024   4.799   8.697  10.104
26666SOL    HW280025   4.854   8.850  10.123
26667SOL     OW80026   4.043   8.258  10.259
26667SOL    HW180027   4.136   8.294  10.264
26667SOL    HW280028   4.037   8.173  10.311
26668SOL     OW80029   4.063   7.957  10.316
26668SOL    HW180030   4.011   7.874  10.299
26668SOL    HW280031   4.140   7.962  10.252
26669SOL     OW80032   4.862   7.828  10.988
26669SOL    HW180033   4.817   7.891  11.052
26669SOL    HW280034   4.955   7.859  10.971
26670SOL     OW80035   4.884   7.655  10.787
26670SOL    HW180036   4.884   7.719  10.864
26670SOL    HW280037   4.912   7.703  10.704
26671SOL     OW80038   3.732   8.774   9.510
26671SOL    HW180039   3.639   8.795   9.479
26671SOL    HW280040   3.742   8.675   9.523
26672SOL     OW80041   3.812   9.249  10.237
26672SOL    HW180042   3.770   9.163  10.210
26672SOL    HW280043   3.906   9.252  10.203
26673SOL     OW80044   4.228   9.016  10.220
26673SOL    HW180045   4.294   9.090  10.229
26673SOL    HW280046   4.272   8.937  10.178
26674SOL     OW80047   4.726   8.244  10.548
26674SOL    HW180048   4.767   8.212  10.634
26674SOL    HW280049   4.630   8.217  10.545
26675SOL     OW80050   3.764   7.992  10.424
26675SOL    HW180051   3.849   7.959  10.383
26675SOL    HW280052   3.777   8.007  10.522
26676SOL     OW80053   3.913   7.968  11.032
26676SOL    HW180054   3.972   7.928  10.962
26676SOL    HW280055   3.855   8.039  10.991
26677SOL     OW80056   5.093   8.398  10.970
26677SOL    HW180057   5.132   8.487  10.990
26677SOL    HW280058   5.103   8.378  10.873
26678SOL     OW80059   4.539   8.020   9.635
26678SOL    HW180060   4.546   7.931   9.589
26678SOL    HW280061   4.445   8.054   9.627
26679SOL     OW80062   5.381   8.052  10.516
26679SOL    HW180063   5.343   7.983  10.578
26679SOL    HW280064   5.463   8.016  10.472
26680SOL     OW80065   3.976   9.012  11.054
26680SOL    HW180066   3.946   9.069  11.130
26680SOL    HW280067   3.969   8.915  11.080
26681SOL     OW80068   4.395   7.912  10.579
26681SOL    HW180069   4.361   7.823  10.549
26681SOL    HW280070   4.421   7.966  10.499
26682SOL     OW80071   4.654   9.126  10.775
26682SOL    HW180072   4.630   9.108  10.680
26682SOL    HW280073   4.684   9.220  10.785
26683SOL     OW80074   4.197   7.948   9.501
26683SOL    HW180075   4.258   8.028   9.505
26683SOL    HW280076   4.102   7.979   9.508
26684SOL     OW80077   3.883   8.585  10.776
26684SOL    HW180078   3.905   8.524  10.852
26684SOL    HW280079   3.893   8.536  10.690
26685SOL     OW80080   5.071   8.507  10.544
26685SOL    HW180081   5.095   8.444  10.470
26685SOL    HW280082   4.981   8.547  10.526
26686SOL     OW80083   5.026   8.303   9.619
26686SOL    HW180084   4.940   8.272   9.661
26686SOL    HW280085   5.022   8.289   9.520
26687SOL     OW80086   5.483   9.195  10.464
26687SOL    HW180087   5.544   9.225  10.391
26687SOL    HW280088   5.445   9.106  10.442
26688SOL     OW80089   4.976   9.179  10.438
26688SOL    HW180090   5.060   9.184  10.384
26688SOL    HW280091   4.953   9.083  10.456
26689SOL     OW80092   3.807   8.706  10.332
26689SOL    HW180093   3.802   8.705  10.432
26689SOL    HW280094   3.724   8.665  10.294
26690SOL     OW80095   4.412   9.110  11.026
26690SOL    HW180096   4.356   9.191  11.035
26690SOL    HW280097   4.464   9.114  10.940
26691SOL     OW80098   5.450   7.583   9.833
26691SOL    HW180099   5.523   7.566   9.766
26691SOL    HW280100   5.419   7.496   9.871
26692SOL     OW80101   5.112   9.021   9.787
26692SOL    HW180102   5.179   9.033   9.713
26692SOL    HW280103   5.072   9.110   9.810
26693SOL     OW80104   3.854   9.242  11.161
26693SOL    HW180105   3.813   9.168  11.214
26693SOL    HW280106   3.918   9.293  11.219
26694SOL     OW80107   5.004   8.375   9.982
26694SOL    HW180108   5.064   8.294   9.984
26694SOL    HW280109   5.044   8.444   9.922
26695SOL     OW80110   4.554   8.721  10.732
26695SOL    HW180111   4.549   8.754  10.827
26695SOL    HW280112   4.468   8.740  10.686
26696SOL     OW80113   4.396   9.064   9.464
26696SOL    HW180114   4.405   9.074   9.365
26696SOL    HW280115   4.356   8.975   9.485
26697SOL     OW80116   5.374   9.168  10.704
26697SOL    HW180117   5.427   9.178  10.620
26697SOL    HW280118   5.347   9.258  10.738
26698SOL     OW80119   5.565   7.623  10.273
26698SOL    HW180120   5.604   7.538  10.237
26698SOL    HW280121   5.467   7.625  10.254
26699SOL     OW80122   3.987   7.774  10.030
26699SOL    HW180123   3.908   7.825   9.996
26699SOL    HW280124   3.978   7.759  10.128
26700SOL     OW80125   4.918   9.060   9.341
26700SOL    HW180126   4.924   8.967   9.378
26700SOL    HW280127   4.859   9.060   9.261
26701SOL     OW80128   4.546   8.450  10.682
26701SOL    HW180129   4.586   8.449  10.590
26701SOL    HW280130   4.556   8.542  10.722
26702SOL     OW80131   4.640   8.358   9.601
26702SOL    HW180132   4.703   8.396   9.533
26702SOL    HW280133   4.680   8.275   9.640
26703SOL     OW80134   5.228   9.055   9.354
26703SOL    HW180135   5.136   9.092   9.361
26703SOL    HW280136   5.266   9.075   9.264
26704SOL     OW80137   4.096   8.736  10.800
26704SOL    HW180138   4.083   8.829  10.766
26704SOL    HW280139   4.012   8.684  10.787
26705SOL     OW80140   5.338   8.740  10.599
26705SOL    HW180141   5.398   8.743  10.679
26705SOL    HW280142   5.263   8.804  10.612
26706SOL     OW80143   4.763   8.546  10.006
26706SOL    HW180144   4.693   8.499  10.060
26706SOL    HW280145   4.822   8.478   9.963
26707SOL     OW80146   4.738   7.684  10.281
26707SOL    HW180147   4.730   7.648  10.188
26707SOL    HW280148   4.736   7.608  10.346
26708SOL     OW80149   4.314   8.935   9.801
26708SOL    HW180150   4.356   8.877   9.731
26708SOL    HW280151   4.270   9.014   9.757
26709SOL     OW80152   5.433   7.833  10.691
26709SOL    HW180153   5.506   7.902  10.695
26709SOL    HW280154   5.461   7.758  10.632
26710SOL     OW80155   3.979   8.796   9.600
26710SOL    HW180156   3.883   8.797   9.573
26710SOL    HW280157   3.991   8.849   9.684
26711SOL     OW80158   3.829   8.461  11.036
26711SOL    HW180159   3.752   8.428  11.090
26711SOL    HW280160   3.914   8.431  11.078
26712SOL     OW80161   4.396   7.651  10.799
26712SOL    HW180162   4.486   7.635  10.759
26712SOL    HW280163   4.404   7.656  10.898
26713SOL     OW80164   3.799   7.793   9.343
26713SOL    HW180165   3.707   7.765   9.314
26713SOL    HW280166   3.830   7.870   9.287
26714SOL     OW80167   5.164   8.304  10.708
26714SOL    HW180168   5.107   8.356  10.645
26714SOL    HW280169   5.260   8.316  10.684
26715SOL     OW80170   3.796   7.614   9.628
26715SOL    HW180171   3.779   7.697   9.574
26715SOL    HW280172   3.886   7.577   9.606
26716SOL     OW80173   4.907   8.783   9.429
26716SOL    HW180174   4.808   8.772   9.431
26716SOL    HW280175   4.941   8.798   9.522
26717SOL     OW80176   4.337   8.290  10.741
26717SOL    HW180177   4.393   8.371  10.724
26717SOL    HW280178   4.396   8.210  10.744
26718SOL     OW80179   5.217   9.215  10.269
26718SOL    HW180180   5.250   9.279  10.200
26718SOL    HW280181   5.283   9.209  10.344
26719SOL     OW80182   4.440   8.013  11.018
26719SOL    HW180183   4.459   8.078  11.092
26719SOL    HW280184   4.500   7.933  11.027
26720SOL     OW80185   5.174   8.668  10.943
26720SOL    HW180186   5.165   8.658  11.042
26720SOL    HW280187   5.270   8.661  10.917
26721SOL     OW80188   4.114   9.189  10.870
26721SOL    HW180189   4.023   9.230  10.868
26721SOL    HW280190   4.107   9.095  10.902
26722SOL     OW80191   5.398   8.331  10.564
26722SOL    HW180192   5.371   8.242  10.527
26722SOL    HW280193   5.399   8.399  10.491
26723SOL     OW80194   4.949   7.773   9.759
26723SOL    HW180195   5.014   7.699   9.748
26723SOL    HW280196   4.969   7.823   9.843
26724SOL     OW80197   4.318   8.193   9.962
26724SOL    HW180198   4.368   8.278   9.943
26724SOL    HW280199   4.230   8.195   9.914
26725SOL     OW80200   5.501   7.790  10.952
26725SOL    HW180201   5.484   7.821  10.858
26725SOL    HW280202   5.417   7.753  10.990
26726SOL     OW80203   5.454   8.382  10.827
26726SOL    HW180204   5.492   8.473  10.842
26726SOL    HW280205   5.446   8.365  10.728
26727SOL     OW80206   4.583   8.822   9.326
26727SOL    HW180207   4.537   8.837   9.414
26727SOL    HW280208   4.627   8.907   9.296
26728SOL     OW80209   4.385   9.238  10.263
26728SOL    HW180210   4.339   9.326  10.250
26728SOL    HW280211   4.484   9.250  10.256
26729SOL     OW80212   4.583   8.404  10.171
26729SOL    HW180213   4.637   8.335  10.219
26729SOL    HW280214   4.551   8.473  10.237
26730SOL     OW80215   4.807   8.432   9.397
26730SOL    HW180216   4.784   8.485   9.315
26730SOL    HW280217   4.888   8.376   9.378
26731SOL     OW80218   5.585   9.017  10.161
26731SOL    HW180219   5.514   9.005  10.091
26731SOL    HW280220   5.586   8.938  10.221
26732SOL     OW80221   3.945   8.762  11.154
26732SOL    HW180222   3.880   8.689  11.133
26732SOL    HW280223   3.949   8.776  11.252
26733SOL     OW80224   3.803   8.688   9.963
26733SOL    HW180225   3.802   8.641  10.051
26733SOL    HW280226   3.885   8.660   9.912
26734SOL     OW80227   4.396   8.839  10.934
26734SOL    HW180228   4.318   8.789  10.972
26734SOL    HW280229   4.393   8.934  10.965
26735SOL     OW80230   5.548   7.640  10.537
26735SOL    HW180231   5.544   7.550  10.581
26735SOL    HW280232   5.551   7.629  10.438
26736SOL     OW80233   4.152   7.872   9.830
26736SOL    HW180234   4.182   7.800   9.768
26736SOL    HW280235   4.113   7.832   9.913
26737SOL     OW80236   5.429   8.935  10.414
26737SOL    HW180237   5.336   8.910  10.387
26737SOL    HW280238   5.455   8.885  10.496
26738SOL     OW80239   4.041   7.995  10.590
26738SOL    HW180240   4.079   7.936  10.662
26738SOL    HW280241   4.081   7.969  10.502
26739SOL     OW80242   4.536   9.034   9.997
26739SOL    HW180243   4.568   9.044   9.903
26739SOL    HW280244   4.457   8.972   9.999
26740SOL     OW80245   5.148   7.662  10.422
26740SOL    HW180246   5.200   7.597  10.477
26740SOL    HW280247   5.099   7.725  10.483
26741SOL     OW80248   4.725   7.482  10.464
26741SOL    HW180249   4.662   7.410  10.433
26741SOL    HW280250   4.818   7.446  10.464
26742SOL     OW80251   4.494   8.778   9.611
26742SOL    HW180252   4.448   8.691   9.628
26742SOL    HW280253   4.585   8.775   9.652
26743SOL     OW80254   4.342   9.015  10.594
26743SOL    HW180255   4.337   9.097  10.651
26743SOL    HW280256   4.431   9.012  10.549
26744SOL     OW80257   5.076   7.500   9.478
26744SOL    HW180258   5.111   7.459   9.394
26744SOL    HW280259   4.986   7.462   9.498
26745SOL     OW80260   5.024   7.901  10.001
26745SOL    HW180261   4.965   7.981  10.005
26745SOL    HW280262   5.039   7.866  10.094
26746SOL     OW80263   5.317   7.669  10.192
26746SOL    HW180264   5.233   7.668  10.246
26746SOL    HW280265   5.319   7.752  10.136
26747SOL     OW80266   3.763   8.525   9.610
26747SOL    HW180267   3.862   8.514   9.601
26747SOL    HW280268   3.723   8.439   9.642
26748SOL     OW80269   4.599   9.094   9.647
26748SOL    HW180270   4.522   9.059   9.593
26748SOL    HW280271   4.567   9.165   9.709
26749SOL     OW80272   3.954   8.076  11.285
26749SOL    HW180273   3.861   8.074  11.322
26749SOL    HW280274   3.955   8.037  11.193
26750SOL     OW80275   3.949   7.723  12.168
26750SOL    HW180276   3.984   7.706  12.260
26750SOL    HW280277   3.861   7.678  12.156
26751SOL     OW80278   3.743   7.816  11.819
26751SOL    HW180279   3.661   7.859  11.858
26751SOL    HW280280   3.715   7.743  11.756
26752SOL     OW80281   4.293   8.723  12.337
26752SOL    HW180282   4.200   8.716  12.300
26752SOL    HW280283   4.304   8.812  12.381
26753SOL     OW80284   5.279   8.959  11.875
26753SOL    HW180285   5.222   8.943  11.956
26753SOL    HW280286   5.220   8.969  11.795
26754SOL     OW80287   4.859   8.151  11.889
26754SOL    HW180288   4.916   8.229  11.864
26754SOL    HW280289   4.799   8.177  11.965
26755SOL     OW80290   5.479   8.055  11.403
26755SOL    HW180291   5.467   8.042  11.304
26755SOL    HW280292   5.449   7.974  11.452
26756SOL     OW80293   4.492   8.592  12.195
26756SOL    HW180294   4.414   8.609  12.255
26756SOL    HW280295   4.526   8.679  12.159
26757SOL     OW80296   4.409   8.460  11.837
26757SOL    HW180297   4.478   8.444  11.907
26757SOL    HW280298   4.336   8.517  11.875
26758SOL     OW80299   4.059   8.883  12.233
26758SOL    HW180300   3.981   8.852  12.180
26758SOL    HW280301   4.117   8.941  12.176
26759SOL     OW80302   5.184   8.953  12.511
26759SOL    HW180303   5.208   9.047  12.537
26759SOL    HW280304   5.168   8.899  12.593
26760SOL     OW80305   4.162   7.840  12.671
26760SOL    HW180306   4.244   7.784  12.680
26760SOL    HW280307   4.081   7.782  12.675
26761SOL     OW80308   5.327   7.895  11.909
26761SOL    HW180309   5.253   7.941  11.859
26761SOL    HW280310   5.378   7.963  11.962
26762SOL     OW80311   3.955   9.161  11.655
26762SOL    HW180312   3.989   9.238  11.709
26762SOL    HW280313   3.999   9.161  11.565
26763SOL     OW80314   3.954   8.882  11.710
26763SOL    HW180315   3.928   8.978  11.710
26763SOL    HW280316   3.883   8.828  11.755
26764SOL     OW80317   3.964   8.539  12.058
26764SOL    HW180318   3.978   8.455  12.110
26764SOL    HW280319   3.909   8.603  12.113
26765SOL     OW80320   4.344   9.234  12.611
26765SOL    HW180321   4.252   9.217  12.646
26765SOL    HW280322   4.372   9.326  12.637
26766SOL     OW80323   4.330   8.412  11.295
26766SOL    HW180324   4.337   8.496  11.241
26766SOL    HW280325   4.376   8.425  11.383
26767SOL     OW80326   5.318   7.562  12.652
26767SOL    HW180327   5.300   7.629  12.580
26767SOL    HW280328   5.315   7.608  12.741
26768SOL     OW80329   3.846   8.091  11.735
26768SOL    HW180330   3.801   8.003  11.752
26768SOL    HW280331   3.845   8.145  11.819
26769SOL     OW80332   5.566   9.215  11.531
26769SOL    HW180333   5.620   9.186  11.611
26769SOL    HW280334   5.596   9.305  11.502
26770SOL     OW80335   3.751   9.044  11.289
26770SOL    HW180336   3.732   8.948  11.310
26770SOL    HW280337   3.718   9.102  11.364
26771SOL     OW80338   5.413   8.370  11.784
26771SOL    HW180339   5.508   8.341  11.792
26771SOL    HW280340   5.405   8.435  11.709
26772SOL     OW80341   5.365   8.556  11.604
26772SOL    HW180342   5.451   8.558  11.552
26772SOL    HW280343   5.379   8.603  11.692
26773SOL     OW80344   4.337   8.813  11.898
26773SOL    HW180345   4.288   8.726  11.907
26773SOL    HW280346   4.314   8.856  11.811
26774SOL     OW80347   4.533   7.452  11.674
26774SOL    HW180348   4.573   7.543  11.665
26774SOL    HW280349   4.433   7.460  11.680
26775SOL     OW80350   3.921   8.424  12.436
26775SOL    HW180351   4.010   8.379  12.422
26775SOL    HW280352   3.848   8.359  12.417
26776SOL     OW80353   5.249   8.447  11.362
26776SOL    HW180354   5.186   8.371  11.375
26776SOL    HW280355   5.297   8.465  11.448
26777SOL     OW80356   4.041   7.699  12.973
26777SOL    HW180357   4.112   7.770  12.979
26777SOL    HW280358   3.953   7.738  13.001
26778SOL     OW80359   5.190   8.865  12.125
26778SOL    HW180360   5.131   8.871  12.205
26778SOL    HW280361   5.175   8.777  12.079
26779SOL     OW80362   5.391   9.162  11.744
26779SOL    HW180363   5.350   9.139  11.656
26779SOL    HW280364   5.373   9.088  11.809
26780SOL     OW80365   4.322   8.177  11.442
26780SOL    HW180366   4.346   8.246  11.374
26780SOL    HW280367   4.244   8.210  11.496
26781SOL     OW80368   5.005   7.793  12.116
26781SOL    HW180369   4.919   7.743  12.103
26781SOL    HW280370   5.067   7.739  12.172
26782SOL     OW80371   5.300   9.110  11.479
26782SOL    HW180372   5.389   9.156  11.482
26782SOL    HW280373   5.279   9.086  11.384
26783SOL     OW80374   4.531   8.053  12.637
26783SOL    HW180375   4.484   8.050  12.726
26783SOL    HW280376   4.480   7.998  12.571
26784SOL     OW80377   4.715   7.858  12.414
26784SOL    HW180378   4.638   7.892  12.468
26784SOL    HW280379   4.681   7.807  12.335
26785SOL     OW80380   4.765   8.149  11.601
26785SOL    HW180381   4.791   8.145  11.697
26785SOL    HW280382   4.680   8.098  11.587
26786SOL     OW80383   3.800   8.259  11.961
26786SOL    HW180384   3.899   8.247  11.970
26786SOL    HW280385   3.776   8.354  11.982
26787SOL     OW80386   3.854   9.269  12.743
26787SOL    HW180387   3.844   9.254  12.842
26787SOL    HW280388   3.768   9.305  12.707
26788SOL     OW80389   4.589   7.796  11.367
26788SOL    HW180390   4.648   7.859  11.318
26788SOL    HW280391   4.608   7.702  11.338
26789SOL     OW80392   5.086   8.592  11.717
26789SOL    HW180393   5.169   8.563  11.669
26789SOL    HW280394   5.037   8.659  11.661
26790SOL     OW80395   4.274   7.644  12.057
26790SOL    HW180396   4.269   7.639  12.157
26790SOL    HW280397   4.276   7.740  12.028
26791SOL     OW80398   4.732   8.904  11.649
26791SOL    HW180399   4.686   8.976  11.597
26791SOL    HW280400   4.728   8.924  11.747
26792SOL     OW80401   4.075   9.249  12.025
26792SOL    HW180402   4.125   9.163  12.031
26792SOL    HW280403   4.140   9.326  12.022
26793SOL     OW80404   5.519   8.514  12.045
26793SOL    HW180405   5.457   8.499  11.969
26793SOL    HW280406   5.467   8.525  12.130
26794SOL     OW80407   4.045   8.391  11.414
26794SOL    HW180408   4.127   8.430  11.372
26794SOL    HW280409   4.018   8.309  11.365
26795SOL     OW80410   5.182   8.183  11.900
26795SOL    HW180411   5.177   8.118  11.975
26795SOL    HW280412   5.262   8.242  11.913
26796SOL     OW80413   4.835   9.224  11.409
26796SOL    HW180414   4.775   9.162  11.459
26796SOL    HW280415   4.866   9.180  11.324
26797SOL     OW80416   3.926   7.733  12.670
26797SOL    HW180417   3.846   7.793  12.657
26797SOL    HW280418   3.916   7.684  12.756
26798SOL     OW80419   5.356   8.825  11.253
26798SOL    HW180420   5.324   8.919  11.243
26798SOL    HW280421   5.280   8.762  11.241
26799SOL     OW80422   4.188   9.191  11.495
26799SOL    HW180423   4.221   9.230  11.581
26799SOL    HW280424   4.264   9.184  11.430
26800SOL     OW80425   5.124   7.555  11.598
26800SOL    HW180426   5.100   7.518  11.508
26800SOL    HW280427   5.223   7.571  11.602
26801SOL     OW80428   3.973   9.233  12.413
26801SOL    HW180429   4.030   9.168  12.463
26801SOL    HW280430   3.957   9.200  12.320
26802SOL     OW80431   4.664   9.146  12.076
26802SOL    HW180432   4.744   9.089  12.097
26802SOL    HW280433   4.615   9.106  11.999
26803SOL     OW80434   4.106   8.148  11.652
26803SOL    HW180435   4.151   8.058  11.649
26803SOL    HW280436   4.012   8.137  11.685
26804SOL     OW80437   4.338   7.570  11.289
26804SOL    HW180438   4.436   7.548  11.296
26804SOL    HW280439   4.307   7.553  11.196
26805SOL     OW80440   4.612   8.962  12.367
26805SOL    HW180441   4.589   8.937  12.273
26805SOL    HW280442   4.673   8.893  12.406
26806SOL     OW80443   4.527   8.850  12.096
26806SOL    HW180444   4.617   8.864  12.054
26806SOL    HW280445   4.456   8.852  12.025
26807SOL     OW80446   4.646   7.951  12.071
26807SOL    HW180447   4.621   7.942  11.975
26807SOL    HW280448   4.694   7.869  12.102
26808SOL     OW80449   4.263   7.512  11.684
26808SOL    HW180450   4.182   7.513  11.742
26808SOL    HW280451   4.266   7.595  11.629
26809SOL     OW80452   5.158   8.636  11.213
26809SOL    HW180453   5.190   8.560  11.270
26809SOL    HW280454   5.066   8.663  11.243
26810SOL     OW80455   4.021   7.483  11.343
26810SOL    HW180456   4.070   7.567  11.322
26810SOL    HW280457   4.083   7.418  11.388
26811SOL     OW80458   4.659   7.684  11.652
26811SOL    HW180459   4.611   7.725  11.574
26811SOL    HW280460   4.758   7.682  11.633
26812SOL     OW80461   4.951   9.018  11.965
26812SOL    HW180462   4.972   9.092  11.900
26812SOL    HW280463   5.019   9.018  12.038
26813SOL     OW80464   4.183   8.600  11.913
26813SOL    HW180465   4.112   8.573  11.978
26813SOL    HW280466   4.157   8.572  11.820
26814SOL     OW80467   4.995   9.245  11.763
26814SOL    HW180468   5.039   9.309  11.699
26814SOL    HW280469   4.945   9.297  11.833
26815SOL     OW80470   4.756   7.997  11.188
26815SOL    HW180471   4.715   8.079  11.149
26815SOL    HW280472   4.820   8.023  11.261
26816SOL     OW80473   3.802   8.004  12.558
26816SOL    HW180474   3.894   8.003  12.517
26816SOL    HW280475   3.796   8.078  12.625
26817SOL     OW80476   4.285   7.670  12.319
26817SOL    HW180477   4.323   7.586  12.356
26817SOL    HW280478   4.197   7.689  12.363
26818SOL     OW80479   4.590   7.902  11.814
26818SOL    HW180480   4.558   7.974  11.752
26818SOL    HW280481   4.614   7.821  11.761
26819SOL     OW80482   4.741   7.487  11.925
26819SOL    HW180483   4.669   7.492  11.856
26819SOL    HW280484   4.717   7.418  11.994
26820SOL     OW80485   5.153   8.621  12.039
26820SOL    HW180486   5.098   8.537  12.032
26820SOL    HW280487   5.179   8.650  11.947
26821SOL     OW80488   5.190   8.038  12.164
26821SOL    HW180489   5.160   7.943  12.171
26821SOL    HW280490   5.263   8.054  12.230
26822SOL     OW80491   5.581   8.281  11.549
26822SOL    HW180492   5.623   8.217  11.613
26822SOL    HW280493   5.543   8.230  11.471
26823SOL     OW80494   4.212   8.833  11.346
26823SOL    HW180495   4.125   8.818  11.393
26823SOL    HW280496   4.195   8.859  11.251
26824SOL     OW80497   5.388   8.728  11.829
26824SOL    HW180498   5.487   8.736  11.843
26824SOL    HW280499   5.343   8.812  11.860
26825SOL     OW80500   5.114   8.023  11.250
26825SOL    HW180501   5.060   8.002  11.331
26825SOL    HW280502   5.205   7.982  11.259
26826SOL     OW80503   4.251   7.704  11.500
26826SOL    HW180504   4.278   7.645  11.425
26826SOL    HW280505   4.251   7.799  11.469
26827SOL     OW80506   4.788   8.795  12.512
26827SOL    HW180507   4.708   8.772  12.567
26827SOL    HW280508   4.871   8.769  12.561
26828SOL     OW80509   4.835   8.643  12.272
26828SOL    HW180510   4.795   8.687  12.353
26828SOL    HW280511   4.794   8.680  12.189
26829SOL     OW80512   5.362   8.547  12.251
26829SOL    HW180513   5.367   8.628  12.310
26829SOL    HW280514   5.276   8.549  12.200
26830SOL     OW80515   4.639   7.537  12.574
26830SOL    HW180516   4.664   7.517  12.479
26830SOL    HW280517   4.711   7.593  12.616
26831SOL     OW80518   4.429   8.498  11.540
26831SOL    HW180519   4.415   8.505  11.639
26831SOL    HW280520   4.513   8.447  11.522
26832SOL     OW80521   4.134   8.261  12.423
26832SOL    HW180522   4.220   8.273  12.473
26832SOL    HW280523   4.092   8.174  12.450
26833SOL     OW80524   4.998   7.834  12.434
26833SOL    HW180525   5.019   7.908  12.498
26833SOL    HW280526   4.909   7.851  12.391
26834SOL     OW80527   3.788   9.012  12.503
26834SOL    HW180528   3.742   9.094  12.469
26834SOL    HW280529   3.886   9.031  12.512
26835SOL     OW80530   4.091   8.548  11.673
26835SOL    HW180531   4.084   8.631  11.617
26835SOL    HW280532   4.095   8.468  11.613
26836SOL     OW80533   4.290   7.985  12.037
26836SOL    HW180534   4.302   8.051  11.963
26836SOL    HW280535   4.336   8.019  12.120
26837SOL     OW80536   4.976   8.796  11.560
26837SOL    HW180537   5.026   8.873  11.600
26837SOL    HW280538   4.881   8.798  11.592
26838SOL     OW80539   4.996   8.893  12.314
26838SOL    HW180540   5.043   8.906  12.401
26838SOL    HW280541   4.930   8.819  12.323
26839SOL     OW80542   5.306   8.087  11.644
26839SOL    HW180543   5.275   8.148  11.717
26839SOL    HW280544   5.356   8.139  11.575
26840SOL     OW80545   4.078   8.958  12.501
26840SOL    HW180546   4.057   8.914  12.414
26840SOL    HW280547   4.175   8.984  12.504
26841SOL     OW80548   4.126   8.199  12.770
26841SOL    HW180549   4.194   8.254  12.723
26841SOL    HW280550   4.166   8.111  12.797
26842SOL     OW80551   5.311   8.227  12.842
26842SOL    HW180552   5.219   8.265  12.837
26842SOL    HW280553   5.371   8.274  12.777
26843SOL     OW80554   4.297   8.318  12.201
26843SOL    HW180555   4.341   8.407  12.192
26843SOL    HW280556   4.234   8.318  12.278
26844SOL     OW80557   5.084   8.310  12.217
26844SOL    HW180558   5.009   8.310  12.151
26844SOL    HW280559   5.121   8.218  12.226
26845SOL     OW80560   4.933   7.973  11.447
26845SOL    HW180561   4.946   7.889  11.501
26845SOL    HW280562   4.904   8.047  11.507
26846SOL     OW80563   4.031   7.661  12.403
26846SOL    HW180564   4.008   7.698  12.493
26846SOL    HW280565   4.001   7.566  12.397
26847SOL     OW80566   3.761   8.758  12.454
26847SOL    HW180567   3.814   8.709  12.522
26847SOL    HW280568   3.783   8.856  12.459
26848SOL     OW80569   4.456   8.082  12.236
26848SOL    HW180570   4.515   8.056  12.160
26848SOL    HW280571   4.428   8.178  12.225
26849SOL     OW80572   4.031   7.511  11.790
26849SOL    HW180573   4.020   7.605  11.823
26849SOL    HW280574   4.026   7.448  11.867
26850SOL     OW80575   5.346   7.815  11.546
26850SOL    HW180576   5.348   7.739  11.610
26850SOL    HW280577   5.298   7.892  11.586
26851SOL     OW80578   4.747   8.214  12.138
26851SOL    HW180579   4.762   8.235  12.234
26851SOL    HW280580   4.717   8.119  12.129
26852SOL     OW80581   4.704   9.021  12.872
26852SOL    HW180582   4.684   9.065  12.784
26852SOL    HW280583   4.743   8.930  12.856
26853SOL     OW80584   5.264   7.722  11.297
26853SOL    HW180585   5.203   7.647  11.320
26853SOL    HW280586   5.286   7.774  11.380
26854SOL     OW80587   5.027   8.286  11.214
26854SOL    HW180588   5.061   8.193  11.229
26854SOL    HW280589   5.045   8.313  11.119
26855SOL     OW80590   4.792   8.781  12.021
26855SOL    HW180591   4.799   8.697  11.966
26855SOL    HW280592   4.854   8.850  11.985
26856SOL     OW80593   4.043   8.258  12.121
26856SOL    HW180594   4.136   8.294  12.126
26856SOL    HW280595   4.037   8.173  12.173
26857SOL     OW80596   4.063   7.957  12.178
26857SOL    HW180597   4.011   7.874  12.161
26857SOL    HW280598   4.140   7.962  12.114
26858SOL     OW80599   4.862   7.828  12.850
26858SOL    HW180600   4.817   7.891  12.914
26858SOL    HW280601   4.955   7.859  12.833
26859SOL     OW80602   4.884   7.655  12.649
26859SOL    HW180603   4.884   7.719  12.726
26859SOL    HW280604   4.912   7.703  12.566
26860SOL     OW80605   3.732   8.774  11.372
26860SOL    HW180606   3.639   8.795  11.341
26860SOL    HW280607   3.742   8.675  11.385
26861SOL     OW80608   3.812   9.249  12.099
26861SOL    HW180609   3.770   9.163  12.072
26861SOL    HW280610   3.906   9.252  12.065
26862SOL     OW80611   4.228   9.016  12.082
26862SOL    HW180612   4.294   9.090  12.091
26862SOL    HW280613   4.272   8.937  12.040
26863SOL     OW80614   4.726   8.244  12.410
26863SOL    HW180615   4.767   8.212  12.496
26863SOL    HW280616   4.630   8.217  12.407
26864SOL     OW80617   3.764   7.992  12.286
26864SOL    HW180618   3.849   7.959  12.245
26864SOL    HW280619   3.777   8.007  12.384
26865SOL     OW80620   4.539   8.020  11.497
26865SOL    HW180621   4.546   7.931  11.451
26865SOL    HW280622   4.445   8.054  11.489
26866SOL     OW80623   5.381   8.052  12.378
26866SOL    HW180624   5.343   7.983  12.440
26866SOL    HW280625   5.463   8.016  12.334
26867SOL     OW80626   4.395   7.912  12.441
26867SOL    HW180627   4.361   7.823  12.411
26867SOL    HW280628   4.421   7.966  12.361
26868SOL     OW80629   4.654   9.126  12.637
26868SOL    HW180630   4.630   9.108  12.542
26868SOL    HW280631   4.684   9.220  12.647
26869SOL     OW80632   4.197   7.948  11.363
26869SOL    HW180633   4.258   8.028  11.367
26869SOL    HW280634   4.102   7.979  11.370
26870SOL     OW80635   3.883   8.585  12.638
26870SOL    HW180636   3.905   8.524  12.714
26870SOL    HW280637   3.893   8.536  12.552
26871SOL     OW80638   5.071   8.507  12.406
26871SOL    HW180639   5.095   8.444  12.332
26871SOL    HW280640   4.981   8.547  12.388
26872SOL     OW80641   5.026   8.303  11.481
26872SOL    HW180642   4.940   8.272  11.523
26872SOL    HW280643   5.022   8.289  11.382
26873SOL     OW80644   5.483   9.195  12.326
26873SOL    HW180645   5.544   9.225  12.253
26873SOL    HW280646   5.445   9.106  12.304
26874SOL     OW80647   4.976   9.179  12.300
26874SOL    HW180648   5.060   9.184  12.246
26874SOL    HW280649   4.953   9.083  12.318
26875SOL     OW80650   3.807   8.706  12.194
26875SOL    HW180651   3.802   8.705  12.294
26875SOL    HW280652   3.724   8.665  12.156
26876SOL     OW80653   5.450   7.583  11.695
26876SOL    HW180654   5.523   7.566  11.628
26876SOL    HW280655   5.419   7.496  11.733
26877SOL     OW80656   5.112   9.021  11.649
26877SOL    HW180657   5.179   9.033  11.575
26877SOL    HW280658   5.072   9.110  11.672
26878SOL     OW80659   5.004   8.375  11.844
26878SOL    HW180660   5.064   8.294  11.846
26878SOL    HW280661   5.044   8.444  11.784
26879SOL     OW80662   4.396   9.064  11.326
26879SOL    HW180663   4.405   9.074  11.227
26879SOL    HW280664   4.356   8.975  11.347
26880SOL     OW80665   5.374   9.168  12.566
26880SOL    HW180666   5.427   9.178  12.482
26880SOL    HW280667   5.347   9.258  12.600
26881SOL     OW80668   5.565   7.623  12.135
26881SOL    HW180669   5.604   7.538  12.099
26881SOL    HW280670   5.467   7.625  12.116
26882SOL     OW80671   3.987   7.774  11.892
26882SOL    HW180672   3.908   7.825  11.858
26882SOL    HW280673   3.978   7.759  11.990
26883SOL     OW80674   4.918   9.060  11.203
26883SOL    HW180675   4.924   8.967  11.240
26883SOL    HW280676   4.859   9.060  11.123
26884SOL     OW80677   4.546   8.450  12.544
26884SOL    HW180678   4.586   8.449  12.452
26884SOL    HW280679   4.556   8.542  12.584
26885SOL     OW80680   4.640   8.358  11.463
26885SOL    HW180681   4.703   8.396  11.395
26885SOL    HW280682   4.680   8.275  11.502
26886SOL     OW80683   5.228   9.055  11.216
26886SOL    HW180684   5.136   9.092  11.223
26886SOL    HW280685   5.266   9.075  11.126
26887SOL     OW80686   4.096   8.736  12.662
26887SOL    HW180687   4.083   8.829  12.628
26887SOL    HW280688   4.012   8.684  12.649
26888SOL     OW80689   5.338   8.740  12.461
26888SOL    HW180690   5.398   8.743  12.541
26888SOL    HW280691   5.263   8.804  12.474
26889SOL     OW80692   4.763   8.546  11.868
26889SOL    HW180693   4.693   8.499  11.922
26889SOL    HW280694   4.822   8.478  11.825
26890SOL     OW80695   4.738   7.684  12.143
26890SOL    HW180696   4.730   7.648  12.050
26890SOL    HW280697   4.736   7.608  12.208
26891SOL     OW80698   4.314   8.935  11.663
26891SOL    HW180699   4.356   8.877  11.593
26891SOL    HW280700   4.270   9.014  11.619
26892SOL     OW80701   5.433   7.833  12.553
26892SOL    HW180702   5.506   7.902  12.557
26892SOL    HW280703   5.461   7.758  12.494
26893SOL     OW80704   3.979   8.796  11.462
26893SOL    HW180705   3.883   8.797  11.435
26893SOL    HW280706   3.991   8.849  11.546
26894SOL     OW80707   3.799   7.793  11.205
26894SOL    HW180708   3.707   7.765  11.176
26894SOL    HW280709   3.830   7.870  11.149
26895SOL     OW80710   5.164   8.304  12.570
26895SOL    HW180711   5.107   8.356  12.507
26895SOL    HW280712   5.260   8.316  12.546
26896SOL     OW80713   3.796   7.614  11.490
26896SOL    HW180714   3.779   7.697  11.436
26896SOL    HW280715   3.886   7.577  11.468
26897SOL     OW80716   4.907   8.783  11.291
26897SOL    HW180717   4.808   8.772  11.293
26897SOL    HW280718   4.941   8.798  11.384
26898SOL     OW80719   4.337   8.290  12.603
26898SOL    HW180720   4.393   8.371  12.586
26898SOL    HW280721   4.396   8.210  12.606
26899SOL     OW80722   5.217   9.215  12.131
26899SOL    HW180723   5.250   9.279  12.062
26899SOL    HW280724   5.283   9.209  12.206
26900SOL     OW80725   4.114   9.189  12.732
26900SOL    HW180726   4.023   9.230  12.730
26900SOL    HW280727   4.107   9.095  12.764
26901SOL     OW80728   5.398   8.331  12.426
26901SOL    HW180729   5.371   8.242  12.389
26901SOL    HW280730   5.399   8.399  12.353
26902SOL     OW80731   4.949   7.773  11.621
26902SOL    HW180732   5.014   7.699  11.610
26902SOL    HW280733   4.969   7.823  11.705
26903SOL     OW80734   4.318   8.193  11.824
26903SOL    HW180735   4.368   8.278  11.805
26903SOL    HW280736   4.230   8.195  11.776
26904SOL     OW80737   5.501   7.790  12.814
26904SOL    HW180738   5.484   7.821  12.720
26904SOL    HW280739   5.417   7.753  12.852
26905SOL     OW80740   5.454   8.382  12.689
26905SOL    HW180741   5.492   8.473  12.704
26905SOL    HW280742   5.446   8.365  12.590
26906SOL     OW80743   4.583   8.822  11.188
26906SOL    HW180744   4.537   8.837  11.276
26906SOL    HW280745   4.627   8.907  11.158
26907SOL     OW80746   4.385   9.238  12.125
26907SOL    HW180747   4.339   9.326  12.112
26907SOL    HW280748   4.484   9.250  12.118
26908SOL     OW80749   4.583   8.404  12.033
26908SOL    HW180750   4.637   8.335  12.081
26908SOL    HW280751   4.551   8.473  12.099
26909SOL     OW80752   4.807   8.432  11.259
26909SOL    HW180753   4.784   8.485  11.177
26909SOL    HW280754   4.888   8.376  11.240
26910SOL     OW80755   5.585   9.017  12.023
26910SOL    HW180756   5.514   9.005  11.953
26910SOL    HW280757   5.586   8.938  12.083
26911SOL     OW80758   3.803   8.688  11.825
26911SOL    HW180759   3.802   8.641  11.913
26911SOL    HW280760   3.885   8.660  11.774
26912SOL     OW80761   5.548   7.640  12.399
26912SOL    HW180762   5.544   7.550  12.443
26912SOL    HW280763   5.551   7.629  12.300
26913SOL     OW80764   4.152   7.872  11.692
26913SOL    HW180765   4.182   7.800  11.630
26913SOL    HW280766   4.113   7.832  11.775
26914SOL     OW80767   5.429   8.935  12.276
26914SOL    HW180768   5.336   8.910  12.249
26914SOL    HW280769   5.455   8.885  12.358
26915SOL     OW80770   4.041   7.995  12.452
26915SOL    HW180771   4.079   7.936  12.524
26915SOL    HW280772   4.081   7.969  12.364
26916SOL     OW80773   4.536   9.034  11.859
26916SOL    HW180774   4.568   9.044  11.765
26916SOL    HW280775   4.457   8.972  11.861
26917SOL     OW80776   5.148   7.662  12.284
26917SOL    HW180777   5.200   7.597  12.339
26917SOL    HW280778   5.099   7.725  12.345
26918SOL     OW80779   4.725   7.482  12.326
26918SOL    HW180780   4.662   7.410  12.295
26918SOL    HW280781   4.818   7.446  12.326
26919SOL     OW80782   4.494   8.778  11.473
26919SOL    HW180783   4.448   8.691  11.490
26919SOL    HW280784   4.585   8.775  11.514
26920SOL     OW80785   4.342   9.015  12.456
26920SOL    HW180786   4.337   9.097  12.513
26920SOL    HW280787   4.431   9.012  12.411
26921SOL     OW80788   5.076   7.500  11.340
26921SOL    HW180789   5.111   7.459  11.256
26921SOL    HW280790   4.986   7.462  11.360
26922SOL     OW80791   5.024   7.901  11.863
26922SOL    HW180792   4.965   7.981  11.867
26922SOL    HW280793   5.039   7.866  11.956
26923SOL     OW80794   5.317   7.669  12.054
26923SOL    HW180795   5.233   7.668  12.108
26923SOL    HW280796   5.319   7.752  11.998
26924SOL     OW80797   3.763   8.525  11.472
26924SOL    HW180798   3.862   8.514  11.463
26924SOL    HW280799   3.723   8.439  11.504
26925SOL     OW80800   4.599   9.094  11.509
26925SOL    HW180801   4.522   9.059  11.455
26925SOL    HW280802   4.567   9.165  11.571
26926SOL     OW80803   3.954   9.938   0.113
26926SOL    HW180804   3.861   9.936   0.150
26926SOL    HW280805   3.955   9.899   0.021
26927SOL     OW80806   3.949   9.585   0.996
26927SOL    HW180807   3.984   9.568   1.088
26927SOL    HW280808   3.861   9.540   0.984
26928SOL     OW80809   3.743   9.678   0.647
26928SOL    HW180810   3.661   9.721   0.686
26928SOL    HW280811   3.715   9.605   0.584
26929SOL     OW80812   4.293  10.585   1.165
26929SOL    HW180813   4.200  10.578   1.128
26929SOL    HW280814   4.304  10.674   1.209
26930SOL     OW80815   5.279  10.821   0.703
26930SOL    HW180816   5.222  10.805   0.784
26930SOL    HW280817   5.220  10.831   0.623
26931SOL     OW80818   4.859  10.013   0.717
26931SOL    HW180819   4.916  10.091   0.692
26931SOL    HW280820   4.799  10.039   0.793
26932SOL     OW80821   5.479   9.917   0.231
26932SOL    HW180822   5.467   9.904   0.132
26932SOL    HW280823   5.449   9.836   0.280
26933SOL     OW80824   4.492  10.454   1.023
26933SOL    HW180825   4.414  10.471   1.083
26933SOL    HW280826   4.526  10.541   0.987
26934SOL     OW80827   4.574  10.108   1.823
26934SOL    HW180828   4.570  10.184   1.888
26934SOL    HW280829   4.596  10.144   1.732
26935SOL     OW80830   4.409  10.322   0.665
26935SOL    HW180831   4.478  10.306   0.735
26935SOL    HW280832   4.336  10.379   0.703
26936SOL     OW80833   4.410  10.471   1.803
26936SOL    HW180834   4.470  10.550   1.817
26936SOL    HW280835   4.324  10.502   1.762
26937SOL     OW80836   4.059  10.745   1.061
26937SOL    HW180837   3.981  10.714   1.008
26937SOL    HW280838   4.117  10.803   1.004
26938SOL     OW80839   5.184  10.815   1.339
26938SOL    HW180840   5.208  10.909   1.365
26938SOL    HW280841   5.168  10.761   1.421
26939SOL     OW80842   4.162   9.702   1.499
26939SOL    HW180843   4.244   9.646   1.508
26939SOL    HW280844   4.081   9.644   1.503
26940SOL     OW80845   3.955  11.023   0.483
26940SOL    HW180846   3.989  11.100   0.537
26940SOL    HW280847   3.999  11.023   0.393
26941SOL     OW80848   4.851  10.651   1.690
26941SOL    HW180849   4.898  10.651   1.778
26941SOL    HW280850   4.803  10.564   1.679
26942SOL     OW80851   3.954  10.744   0.538
26942SOL    HW180852   3.928  10.840   0.538
26942SOL    HW280853   3.883  10.690   0.583
26943SOL     OW80854   3.964  10.401   0.886
26943SOL    HW180855   3.978  10.317   0.938
26943SOL    HW280856   3.909  10.465   0.941
26944SOL     OW80857   4.344  11.096   1.439
26944SOL    HW180858   4.252  11.079   1.474
26944SOL    HW280859   4.372  11.188   1.465
26945SOL     OW80860   4.330  10.274   0.123
26945SOL    HW180861   4.337  10.358   0.069
26945SOL    HW280862   4.376  10.287   0.211
26946SOL     OW80863   5.318   9.424   1.480
26946SOL    HW180864   5.300   9.491   1.408
26946SOL    HW280865   5.315   9.470   1.569
26947SOL     OW80866   3.846   9.953   0.563
26947SOL    HW180867   3.801   9.865   0.580
26947SOL    HW280868   3.845  10.007   0.647
26948SOL     OW80869   5.566  11.077   0.359
26948SOL    HW180870   5.620  11.048   0.439
26948SOL    HW280871   5.596  11.167   0.330
26949SOL     OW80872   3.751  10.906   0.117
26949SOL    HW180873   3.732  10.810   0.138
26949SOL    HW280874   3.718  10.964   0.192
26950SOL     OW80875   5.413  10.232   0.612
26950SOL    HW180876   5.508  10.203   0.620
26950SOL    HW280877   5.405  10.297   0.537
26951SOL     OW80878   5.365  10.418   0.432
26951SOL    HW180879   5.451  10.420   0.380
26951SOL    HW280880   5.379  10.465   0.520
26952SOL     OW80881   3.837  10.047   1.597
26952SOL    HW180882   3.925  10.034   1.642
26952SOL    HW280883   3.824  10.144   1.575
26953SOL     OW80884   4.337  10.675   0.726
26953SOL    HW180885   4.288  10.588   0.735
26953SOL    HW280886   4.314  10.718   0.639
26954SOL     OW80887   5.017  10.538   1.423
26954SOL    HW180888   5.054  10.465   1.365
26954SOL    HW280889   5.069  10.543   1.508
26955SOL     OW80890   4.533   9.314   0.502
26955SOL    HW180891   4.573   9.405   0.493
26955SOL    HW280892   4.433   9.322   0.508
26956SOL     OW80893   3.921  10.286   1.264
26956SOL    HW180894   4.010  10.241   1.250
26956SOL    HW280895   3.848  10.221   1.245
26957SOL     OW80896   5.249  10.309   0.190
26957SOL    HW180897   5.186  10.233   0.203
26957SOL    HW280898   5.297  10.327   0.276
26958SOL     OW80899   4.911  11.102   1.616
26958SOL    HW180900   4.935  11.162   1.540
26958SOL    HW280901   4.918  11.007   1.586
26959SOL     OW80902   4.041   9.561   1.801
26959SOL    HW180903   4.112   9.632   1.807
26959SOL    HW280904   3.953   9.600   1.829
26960SOL     OW80905   5.190  10.727   0.953
26960SOL    HW180906   5.131  10.733   1.033
26960SOL    HW280907   5.175  10.639   0.907
26961SOL     OW80908   5.391  11.024   0.572
26961SOL    HW180909   5.350  11.001   0.484
26961SOL    HW280910   5.373  10.950   0.637
26962SOL     OW80911   4.322  10.039   0.270
26962SOL    HW180912   4.346  10.108   0.202
26962SOL    HW280913   4.244  10.072   0.324
26963SOL     OW80914   5.005   9.655   0.944
26963SOL    HW180915   4.919   9.605   0.931
26963SOL    HW280916   5.067   9.601   1.000
26964SOL     OW80917   5.300  10.972   0.307
26964SOL    HW180918   5.389  11.018   0.310
26964SOL    HW280919   5.279  10.948   0.212
26965SOL     OW80920   4.531   9.915   1.465
26965SOL    HW180921   4.484   9.912   1.554
26965SOL    HW280922   4.480   9.860   1.399
26966SOL     OW80923   5.118   9.779   1.674
26966SOL    HW180924   5.098   9.822   1.762
26966SOL    HW280925   5.196   9.717   1.683
26967SOL     OW80926   4.697  10.200   1.572
26967SOL    HW180927   4.743  10.116   1.543
26967SOL    HW280928   4.641  10.234   1.497
26968SOL     OW80929   4.715   9.720   1.242
26968SOL    HW180930   4.638   9.754   1.296
26968SOL    HW280931   4.681   9.669   1.163
26969SOL     OW80932   4.765  10.011   0.429
26969SOL    HW180933   4.791  10.007   0.525
26969SOL    HW280934   4.680   9.960   0.415
26970SOL     OW80935   3.800  10.121   0.789
26970SOL    HW180936   3.899  10.109   0.798
26970SOL    HW280937   3.776  10.216   0.810
26971SOL     OW80938   3.854  11.131   1.571
26971SOL    HW180939   3.844  11.116   1.670
26971SOL    HW280940   3.768  11.167   1.535
26972SOL     OW80941   4.589   9.658   0.195
26972SOL    HW180942   4.648   9.721   0.146
26972SOL    HW280943   4.608   9.564   0.166
26973SOL     OW80944   5.443   9.895   1.831
26973SOL    HW180945   5.417   9.984   1.795
26973SOL    HW280946   5.441   9.827   1.758
26974SOL     OW80947   5.086  10.454   0.545
26974SOL    HW180948   5.169  10.425   0.497
26974SOL    HW280949   5.037  10.521   0.489
26975SOL     OW80950   4.274   9.506   0.885
26975SOL    HW180951   4.269   9.501   0.985
26975SOL    HW280952   4.276   9.602   0.856
26976SOL     OW80953   4.732  10.766   0.477
26976SOL    HW180954   4.686  10.838   0.425
26976SOL    HW280955   4.728  10.786   0.575
26977SOL     OW80956   4.075  11.111   0.853
26977SOL    HW180957   4.125  11.025   0.859
26977SOL    HW280958   4.140  11.188   0.850
26978SOL     OW80959   5.519  10.376   0.873
26978SOL    HW180960   5.457  10.361   0.797
26978SOL    HW280961   5.467  10.387   0.958
26979SOL     OW80962   4.951  10.860   1.506
26979SOL    HW180963   4.957  10.783   1.570
26979SOL    HW280964   4.899  10.834   1.426
26980SOL     OW80965   4.045  10.253   0.242
26980SOL    HW180966   4.127  10.292   0.200
26980SOL    HW280967   4.018  10.171   0.193
26981SOL     OW80968   5.182  10.045   0.728
26981SOL    HW180969   5.177   9.980   0.803
26981SOL    HW280970   5.262  10.104   0.741
26982SOL     OW80971   4.185  10.576   1.727
26982SOL    HW180972   4.135  10.577   1.641
26982SOL    HW280973   4.122  10.558   1.803
26983SOL     OW80974   4.835  11.086   0.237
26983SOL    HW180975   4.775  11.024   0.287
26983SOL    HW280976   4.866  11.042   0.152
26984SOL     OW80977   3.926   9.595   1.498
26984SOL    HW180978   3.846   9.655   1.485
26984SOL    HW280979   3.916   9.546   1.584
26985SOL     OW80980   5.356  10.687   0.081
26985SOL    HW180981   5.324  10.781   0.071
26985SOL    HW280982   5.280  10.624   0.069
26986SOL     OW80983   5.124   9.417   0.426
26986SOL    HW180984   5.100   9.380   0.336
26986SOL    HW280985   5.223   9.433   0.430
26987SOL     OW80986   3.973  11.095   1.241
26987SOL    HW180987   4.030  11.030   1.291
26987SOL    HW280988   3.957  11.062   1.148
26988SOL     OW80989   4.664  11.008   0.904
26988SOL    HW180990   4.744  10.951   0.925
26988SOL    HW280991   4.615  10.968   0.827
26989SOL     OW80992   4.106  10.010   0.480
26989SOL    HW180993   4.151   9.920   0.477
26989SOL    HW280994   4.012   9.999   0.513
26990SOL     OW80995   5.271   9.532   1.729
26990SOL    HW180996   5.266   9.569   1.821
26990SOL    HW280997   5.199   9.463   1.717
26991SOL     OW80998   4.338   9.432   0.117
26991SOL    HW180999   4.436   9.410   0.124
26991SOL    HW281000   4.307   9.415   0.024
26992SOL     OW81001   4.505   9.574   1.749
26992SOL    HW181002   4.572   9.513   1.792
26992SOL    HW281003   4.432   9.593   1.814
26993SOL     OW81004   4.612  10.824   1.195
26993SOL    HW181005   4.589  10.799   1.101
26993SOL    HW281006   4.673  10.755   1.234
26994SOL     OW81007   5.075   9.900   1.433
26994SOL    HW181008   5.103   9.857   1.518
26994SOL    HW281009   5.100   9.996   1.434
26995SOL     OW81010   4.527  10.712   0.924
26995SOL    HW181011   4.617  10.726   0.882
26995SOL    HW281012   4.456  10.714   0.853
26996SOL     OW81013   4.646   9.813   0.899
26996SOL    HW181014   4.621   9.804   0.803
26996SOL    HW281015   4.694   9.731   0.930
26997SOL     OW81016   4.263   9.374   0.512
26997SOL    HW181017   4.182   9.375   0.570
26997SOL    HW281018   4.266   9.457   0.457
26998SOL     OW81019   5.158  10.498   0.041
26998SOL    HW181020   5.190  10.422   0.098
26998SOL    HW281021   5.066  10.525   0.071
26999SOL     OW81022   4.021   9.345   0.171
26999SOL    HW181023   4.070   9.429   0.150
26999SOL    HW281024   4.083   9.280   0.216
27000SOL     OW81025   4.659   9.546   0.480
27000SOL    HW181026   4.611   9.587   0.402
27000SOL    HW281027   4.758   9.544   0.461
27001SOL     OW81028   4.800   9.993   1.464
27001SOL    HW181029   4.720   9.932   1.467
27001SOL    HW281030   4.881   9.940   1.440
27002SOL     OW81031   4.951  10.880   0.793
27002SOL    HW181032   4.972  10.954   0.728
27002SOL    HW281033   5.019  10.880   0.866
27003SOL     OW81034   4.183  10.462   0.741
27003SOL    HW181035   4.112  10.435   0.806
27003SOL    HW281036   4.157  10.434   0.648
27004SOL     OW81037   4.995  11.107   0.591
27004SOL    HW181038   5.039  11.171   0.527
27004SOL    HW281039   4.945  11.159   0.661
27005SOL     OW81040   4.756   9.859   0.016
27005SOL    HW181041   4.715   9.941  -0.023
27005SOL    HW281042   4.820   9.885   0.089
27006SOL     OW81043   3.802   9.866   1.386
27006SOL    HW181044   3.894   9.865   1.345
27006SOL    HW281045   3.796   9.940   1.453
27007SOL     OW81046   4.285   9.532   1.147
27007SOL    HW181047   4.323   9.448   1.184
27007SOL    HW281048   4.197   9.551   1.191
27008SOL     OW81049   4.590   9.764   0.642
27008SOL    HW181050   4.558   9.836   0.580
27008SOL    HW281051   4.614   9.683   0.589
27009SOL     OW81052   4.741   9.349   0.753
27009SOL    HW181053   4.669   9.354   0.684
27009SOL    HW281054   4.717   9.280   0.822
27010SOL     OW81055   5.153  10.483   0.867
27010SOL    HW181056   5.098  10.399   0.860
27010SOL    HW281057   5.179  10.512   0.775
27011SOL     OW81058   5.190   9.900   0.992
27011SOL    HW181059   5.160   9.805   0.999
27011SOL    HW281060   5.263   9.916   1.058
27012SOL     OW81061   5.581  10.143   0.377
27012SOL    HW181062   5.623  10.079   0.441
27012SOL    HW281063   5.543  10.092   0.299
27013SOL     OW81064   4.212  10.695   0.174
27013SOL    HW181065   4.125  10.680   0.221
27013SOL    HW281066   4.195  10.721   0.079
27014SOL     OW81067   5.388  10.590   0.657
27014SOL    HW181068   5.487  10.598   0.671
27014SOL    HW281069   5.343  10.674   0.688
27015SOL     OW81070   5.114   9.885   0.078
27015SOL    HW181071   5.060   9.864   0.159
27015SOL    HW281072   5.205   9.844   0.087
27016SOL     OW81073   4.251   9.566   0.328
27016SOL    HW181074   4.278   9.507   0.253
27016SOL    HW281075   4.251   9.661   0.297
27017SOL     OW81076   5.478  10.533   1.588
27017SOL    HW181077   5.569  10.494   1.575
27017SOL    HW281078   5.486  10.629   1.612
27018SOL     OW81079   4.788  10.657   1.340
27018SOL    HW181080   4.708  10.634   1.395
27018SOL    HW281081   4.871  10.631   1.389
27019SOL     OW81082   5.316  10.939   1.625
27019SOL    HW181083   5.343  10.973   1.535
27019SOL    HW281084   5.395  10.901   1.671
27020SOL     OW81085   4.835  10.505   1.100
27020SOL    HW181086   4.795  10.549   1.181
27020SOL    HW281087   4.794  10.542   1.017
27021SOL     OW81088   5.362  10.409   1.079
27021SOL    HW181089   5.367  10.490   1.138
27021SOL    HW281090   5.276  10.411   1.028
27022SOL     OW81091   4.639   9.399   1.402
27022SOL    HW181092   4.664   9.379   1.307
27022SOL    HW281093   4.711   9.455   1.444
27023SOL     OW81094   4.704  10.426   1.719
27023SOL    HW181095   4.605  10.432   1.729
27023SOL    HW281096   4.727  10.346   1.663
27024SOL     OW81097   4.429  10.360   0.368
27024SOL    HW181098   4.415  10.367   0.467
27024SOL    HW281099   4.513  10.309   0.350
27025SOL     OW81100   4.134  10.123   1.251
27025SOL    HW181101   4.220  10.135   1.301
27025SOL    HW281102   4.092  10.036   1.278
27026SOL     OW81103   4.998   9.696   1.262
27026SOL    HW181104   5.019   9.770   1.326
27026SOL    HW281105   4.909   9.713   1.219
27027SOL     OW81106   3.788  10.874   1.331
27027SOL    HW181107   3.742  10.956   1.297
27027SOL    HW281108   3.886  10.893   1.340
27028SOL     OW81109   4.091  10.410   0.501
27028SOL    HW181110   4.084  10.493   0.445
27028SOL    HW281111   4.095  10.330   0.441
27029SOL     OW81112   4.290   9.847   0.865
27029SOL    HW181113   4.302   9.913   0.791
27029SOL    HW281114   4.336   9.881   0.948
27030SOL     OW81115   4.976  10.658   0.388
27030SOL    HW181116   5.026  10.735   0.428
27030SOL    HW281117   4.881  10.660   0.420
27031SOL     OW81118   4.996  10.755   1.142
27031SOL    HW181119   5.043  10.768   1.229
27031SOL    HW281120   4.930  10.681   1.151
27032SOL     OW81121   5.306   9.949   0.472
27032SOL    HW181122   5.275  10.010   0.545
27032SOL    HW281123   5.356  10.001   0.403
27033SOL     OW81124   4.078  10.820   1.329
27033SOL    HW181125   4.057  10.776   1.242
27033SOL    HW281126   4.175  10.846   1.332
27034SOL     OW81127   4.126  10.061   1.598
27034SOL    HW181128   4.194  10.116   1.551
27034SOL    HW281129   4.166   9.973   1.625
27035SOL     OW81130   5.311  10.089   1.670
27035SOL    HW181131   5.219  10.127   1.665
27035SOL    HW281132   5.371  10.136   1.605
27036SOL     OW81133   4.737   9.415   1.770
27036SOL    HW181134   4.743   9.500   1.718
27036SOL    HW281135   4.769   9.339   1.713
27037SOL     OW81136   4.228   9.360   1.740
27037SOL    HW181137   4.186   9.303   1.670
27037SOL    HW281138   4.162   9.429   1.772
27038SOL     OW81139   4.297  10.180   1.029
27038SOL    HW181140   4.341  10.269   1.020
27038SOL    HW281141   4.234  10.180   1.106
27039SOL     OW81142   5.084  10.172   1.045
27039SOL    HW181143   5.009  10.172   0.979
27039SOL    HW281144   5.121  10.080   1.054
27040SOL     OW81145   4.933   9.835   0.275
27040SOL    HW181146   4.946   9.751   0.329
27040SOL    HW281147   4.904   9.909   0.335
27041SOL     OW81148   4.031   9.523   1.231
27041SOL    HW181149   4.008   9.560   1.321
27041SOL    HW281150   4.001   9.428   1.225
27042SOL     OW81151   3.761  10.620   1.282
27042SOL    HW181152   3.814  10.571   1.350
27042SOL    HW281153   3.783  10.718   1.287
27043SOL     OW81154   4.456   9.944   1.064
27043SOL    HW181155   4.515   9.918   0.988
27043SOL    HW281156   4.428  10.040   1.053
27044SOL     OW81157   5.452  10.245   1.854
27044SOL    HW181158   5.406  10.238   1.765
27044SOL    HW281159   5.390  10.289   1.920
27045SOL     OW81160   4.031   9.373   0.618
27045SOL    HW181161   4.020   9.467   0.651
27045SOL    HW281162   4.026   9.310   0.695
27046SOL     OW81163   5.346   9.677   0.374
27046SOL    HW181164   5.348   9.601   0.438
27046SOL    HW281165   5.298   9.754   0.414
27047SOL     OW81166   4.747  10.076   0.966
27047SOL    HW181167   4.762  10.097   1.062
27047SOL    HW281168   4.717   9.981   0.957
27048SOL     OW81169   4.704  10.883   1.700
27048SOL    HW181170   4.684  10.927   1.612
27048SOL    HW281171   4.743  10.792   1.684
27049SOL     OW81172   5.583  10.828   1.605
27049SOL    HW181173   5.597  10.855   1.510
27049SOL    HW281174   5.666  10.850   1.658
27050SOL     OW81175   4.074  10.208   1.804
27050SOL    HW181176   4.150  10.252   1.852
27050SOL    HW281177   4.109  10.161   1.722
27051SOL     OW81178   5.264   9.584   0.125
27051SOL    HW181179   5.203   9.509   0.148
27051SOL    HW281180   5.286   9.636   0.208
27052SOL     OW81181   5.027  10.148   0.042
27052SOL    HW181182   5.061  10.055   0.057
27052SOL    HW281183   5.045  10.175  -0.053
27053SOL     OW81184   4.792  10.643   0.849
27053SOL    HW181185   4.799  10.559   0.794
27053SOL    HW281186   4.854  10.712   0.813
27054SOL     OW81187   4.043  10.120   0.949
27054SOL    HW181188   4.136  10.156   0.954
27054SOL    HW281189   4.037  10.035   1.001
27055SOL     OW81190   4.063   9.819   1.006
27055SOL    HW181191   4.011   9.736   0.989
27055SOL    HW281192   4.140   9.824   0.942
27056SOL     OW81193   4.862   9.690   1.678
27056SOL    HW181194   4.817   9.753   1.742
27056SOL    HW281195   4.955   9.721   1.661
27057SOL     OW81196   4.884   9.517   1.477
27057SOL    HW181197   4.884   9.581   1.554
27057SOL    HW281198   4.912   9.565   1.394
27058SOL     OW81199   3.732  10.636   0.200
27058SOL    HW181200   3.639  10.657   0.169
27058SOL    HW281201   3.742  10.537   0.213
27059SOL     OW81202   3.812  11.111   0.927
27059SOL    HW181203   3.770  11.025   0.900
27059SOL    HW281204   3.906  11.114   0.893
27060SOL     OW81205   4.228  10.878   0.910
27060SOL    HW181206   4.294  10.952   0.919
27060SOL    HW281207   4.272  10.799   0.868
27061SOL     OW81208   4.726  10.106   1.238
27061SOL    HW181209   4.767  10.074   1.324
27061SOL    HW281210   4.630  10.079   1.235
27062SOL     OW81211   3.764   9.854   1.114
27062SOL    HW181212   3.849   9.821   1.073
27062SOL    HW281213   3.777   9.869   1.212
27063SOL     OW81214   3.913   9.830   1.722
27063SOL    HW181215   3.972   9.790   1.652
27063SOL    HW281216   3.855   9.901   1.681
27064SOL     OW81217   5.093  10.260   1.660
27064SOL    HW181218   5.132  10.349   1.680
27064SOL    HW281219   5.103  10.240   1.563
27065SOL     OW81220   4.539   9.882   0.325
27065SOL    HW181221   4.546   9.793   0.279
27065SOL    HW281222   4.445   9.916   0.317
27066SOL     OW81223   5.381   9.914   1.206
27066SOL    HW181224   5.343   9.845   1.268
27066SOL    HW281225   5.463   9.878   1.162
27067SOL     OW81226   3.976  10.874   1.744
27067SOL    HW181227   3.946  10.931   1.820
27067SOL    HW281228   3.969  10.777   1.770
27068SOL     OW81229   4.395   9.774   1.269
27068SOL    HW181230   4.361   9.685   1.239
27068SOL    HW281231   4.421   9.828   1.189
27069SOL     OW81232   4.654  10.988   1.465
27069SOL    HW181233   4.630  10.970   1.370
27069SOL    HW281234   4.684  11.082   1.475
27070SOL     OW81235   4.197   9.810   0.191
27070SOL    HW181236   4.258   9.890   0.195
27070SOL    HW281237   4.102   9.841   0.198
27071SOL     OW81238   3.883  10.447   1.466
27071SOL    HW181239   3.905  10.386   1.542
27071SOL    HW281240   3.893  10.398   1.380
27072SOL     OW81241   5.071  10.369   1.234
27072SOL    HW181242   5.095  10.306   1.160
27072SOL    HW281243   4.981  10.409   1.216
27073SOL     OW81244   5.026  10.165   0.309
27073SOL    HW181245   4.940  10.134   0.351
27073SOL    HW281246   5.022  10.151   0.210
27074SOL     OW81247   5.483  11.057   1.154
27074SOL    HW181248   5.544  11.087   1.081
27074SOL    HW281249   5.445  10.968   1.132
27075SOL     OW81250   4.976  11.041   1.128
27075SOL    HW181251   5.060  11.046   1.074
27075SOL    HW281252   4.953  10.945   1.146
27076SOL     OW81253   3.807  10.568   1.022
27076SOL    HW181254   3.802  10.567   1.122
27076SOL    HW281255   3.724  10.527   0.984
27077SOL     OW81256   4.412  10.972   1.716
27077SOL    HW181257   4.356  11.053   1.725
27077SOL    HW281258   4.464  10.976   1.630
27078SOL     OW81259   4.627   9.396   0.133
27078SOL    HW181260   4.678   9.397   0.047
27078SOL    HW281261   4.683   9.354   0.204
27079SOL     OW81262   5.450   9.445   0.523
27079SOL    HW181263   5.523   9.428   0.456
27079SOL    HW281264   5.419   9.358   0.561
27080SOL     OW81265   5.112  10.883   0.477
27080SOL    HW181266   5.179  10.895   0.403
27080SOL    HW281267   5.072  10.972   0.500
27081SOL     OW81268   3.854  11.104   1.851
27081SOL    HW181269   3.813  11.030   1.904
27081SOL    HW281270   3.918  11.155   1.909
27082SOL     OW81271   5.004  10.237   0.672
27082SOL    HW181272   5.064  10.156   0.674
27082SOL    HW281273   5.044  10.306   0.612
27083SOL     OW81274   4.554  10.583   1.422
27083SOL    HW181275   4.549  10.616   1.517
27083SOL    HW281276   4.468  10.602   1.376
27084SOL     OW81277   4.396  10.926   0.154
27084SOL    HW181278   4.405  10.936   0.055
27084SOL    HW281279   4.356  10.837   0.175
27085SOL     OW81280   5.374  11.030   1.394
27085SOL    HW181281   5.427  11.040   1.310
27085SOL    HW281282   5.347  11.120   1.428
27086SOL     OW81283   5.565   9.485   0.963
27086SOL    HW181284   5.604   9.400   0.927
27086SOL    HW281285   5.467   9.487   0.944
27087SOL     OW81286   3.987   9.636   0.720
27087SOL    HW181287   3.908   9.687   0.686
27087SOL    HW281288   3.978   9.621   0.818
27088SOL     OW81289   4.918  10.922   0.031
27088SOL    HW181290   4.924  10.829   0.068
27088SOL    HW281291   4.859  10.922  -0.049
27089SOL     OW81292   4.546  10.312   1.372
27089SOL    HW181293   4.586  10.311   1.280
27089SOL    HW281294   4.556  10.404   1.412
27090SOL     OW81295   4.640  10.220   0.291
27090SOL    HW181296   4.703  10.258   0.223
27090SOL    HW281297   4.680  10.137   0.330
27091SOL     OW81298   5.228  10.917   0.044
27091SOL    HW181299   5.136  10.954   0.051
27091SOL    HW281300   5.266  10.937  -0.046
27092SOL     OW81301   4.096  10.598   1.490
27092SOL    HW181302   4.083  10.691   1.456
27092SOL    HW281303   4.012  10.546   1.477
27093SOL     OW81304   5.338  10.602   1.289
27093SOL    HW181305   5.398  10.605   1.369
27093SOL    HW281306   5.263  10.666   1.302
27094SOL     OW81307   4.763  10.408   0.696
27094SOL    HW181308   4.693  10.361   0.750
27094SOL    HW281309   4.822  10.340   0.653
27095SOL     OW81310   4.738   9.546   0.971
27095SOL    HW181311   4.730   9.510   0.878
27095SOL    HW281312   4.736   9.470   1.036
27096SOL     OW81313   4.314  10.797   0.491
27096SOL    HW181314   4.356  10.739   0.421
27096SOL    HW281315   4.270  10.876   0.447
27097SOL     OW81316   5.433   9.695   1.381
27097SOL    HW181317   5.506   9.764   1.385
27097SOL    HW281318   5.461   9.620   1.322
27098SOL     OW81319   3.979  10.658   0.290
27098SOL    HW181320   3.883  10.659   0.263
27098SOL    HW281321   3.991  10.711   0.374
27099SOL     OW81322   3.829  10.323   1.726
27099SOL    HW181323   3.752  10.290   1.780
27099SOL    HW281324   3.914  10.293   1.768
27100SOL     OW81325   4.396   9.513   1.489
27100SOL    HW181326   4.486   9.497   1.449
27100SOL    HW281327   4.404   9.518   1.588
27101SOL     OW81328   5.164  10.166   1.398
27101SOL    HW181329   5.107  10.218   1.335
27101SOL    HW281330   5.260  10.178   1.374
27102SOL     OW81331   3.796   9.476   0.318
27102SOL    HW181332   3.779   9.559   0.264
27102SOL    HW281333   3.886   9.439   0.296
27103SOL     OW81334   4.907  10.645   0.119
27103SOL    HW181335   4.808  10.634   0.121
27103SOL    HW281336   4.941  10.660   0.212
27104SOL     OW81337   4.337  10.152   1.431
27104SOL    HW181338   4.393  10.233   1.414
27104SOL    HW281339   4.396  10.072   1.434
27105SOL     OW81340   5.217  11.077   0.959
27105SOL    HW181341   5.250  11.141   0.890
27105SOL    HW281342   5.283  11.071   1.034
27106SOL     OW81343   4.440   9.875   1.708
27106SOL    HW181344   4.459   9.940   1.782
27106SOL    HW281345   4.500   9.795   1.717
27107SOL     OW81346   5.174  10.530   1.633
27107SOL    HW181347   5.165  10.520   1.732
27107SOL    HW281348   5.270  10.523   1.607
27108SOL     OW81349   4.114  11.051   1.560
27108SOL    HW181350   4.023  11.092   1.558
27108SOL    HW281351   4.107  10.957   1.592
27109SOL     OW81352   5.398  10.193   1.254
27109SOL    HW181353   5.371  10.104   1.217
27109SOL    HW281354   5.399  10.261   1.181
27110SOL     OW81355   4.949   9.635   0.449
27110SOL    HW181356   5.014   9.561   0.438
27110SOL    HW281357   4.969   9.685   0.533
27111SOL     OW81358   4.318  10.055   0.652
27111SOL    HW181359   4.368  10.140   0.633
27111SOL    HW281360   4.230  10.057   0.604
27112SOL     OW81361   5.501   9.652   1.642
27112SOL    HW181362   5.484   9.683   1.548
27112SOL    HW281363   5.417   9.615   1.680
27113SOL     OW81364   5.454  10.244   1.517
27113SOL    HW181365   5.492  10.335   1.532
27113SOL    HW281366   5.446  10.227   1.418
27114SOL     OW81367   4.583  10.684   0.016
27114SOL    HW181368   4.537  10.699   0.104
27114SOL    HW281369   4.627  10.769  -0.014
27115SOL     OW81370   4.385  11.100   0.953
27115SOL    HW181371   4.339  11.188   0.940
27115SOL    HW281372   4.484  11.112   0.946
27116SOL     OW81373   4.583  10.266   0.861
27116SOL    HW181374   4.637  10.197   0.909
27116SOL    HW281375   4.551  10.335   0.927
27117SOL     OW81376   4.807  10.294   0.087
27117SOL    HW181377   4.784  10.347   0.005
27117SOL    HW281378   4.888  10.238   0.068
27118SOL     OW81379   5.585  10.879   0.851
27118SOL    HW181380   5.514  10.867   0.781
27118SOL    HW281381   5.586  10.800   0.911
27119SOL     OW81382   3.945  10.624   1.844
27119SOL    HW181383   3.880  10.551   1.823
27119SOL    HW281384   3.949  10.638   1.942
27120SOL     OW81385   3.803  10.550   0.653
27120SOL    HW181386   3.802  10.503   0.741
27120SOL    HW281387   3.885  10.522   0.602
27121SOL     OW81388   4.396  10.701   1.624
27121SOL    HW181389   4.318  10.651   1.662
27121SOL    HW281390   4.393  10.796   1.655
27122SOL     OW81391   5.548   9.502   1.227
27122SOL    HW181392   5.544   9.412   1.271
27122SOL    HW281393   5.551   9.491   1.128
27123SOL     OW81394   4.152   9.734   0.520
27123SOL    HW181395   4.182   9.662   0.458
27123SOL    HW281396   4.113   9.694   0.603
27124SOL     OW81397   5.429  10.797   1.104
27124SOL    HW181398   5.336  10.772   1.077
27124SOL    HW281399   5.455  10.747   1.186
27125SOL     OW81400   4.041   9.857   1.280
27125SOL    HW181401   4.079   9.798   1.352
27125SOL    HW281402   4.081   9.831   1.192
27126SOL     OW81403   4.536  10.896   0.687
27126SOL    HW181404   4.568  10.906   0.593
27126SOL    HW281405   4.457  10.834   0.689
27127SOL     OW81406   5.148   9.524   1.112
27127SOL    HW181407   5.200   9.459   1.167
27127SOL    HW281408   5.099   9.587   1.173
27128SOL     OW81409   4.725   9.344   1.154
27128SOL    HW181410   4.662   9.272   1.123
27128SOL    HW281411   4.818   9.308   1.154
27129SOL     OW81412   4.494  10.640   0.301
27129SOL    HW181413   4.448  10.553   0.318
27129SOL    HW281414   4.585  10.637   0.342
27130SOL     OW81415   4.342  10.877   1.284
27130SOL    HW181416   4.337  10.959   1.341
27130SOL    HW281417   4.431  10.874   1.239
27131SOL     OW81418   5.076   9.362   0.168
27131SOL    HW181419   5.111   9.321   0.084
27131SOL    HW281420   4.986   9.324   0.188
27132SOL     OW81421   5.024   9.763   0.691
27132SOL    HW181422   4.965   9.843   0.695
27132SOL    HW281423   5.039   9.728   0.784
27133SOL     OW81424   5.317   9.531   0.882
27133SOL    HW181425   5.233   9.530   0.936
27133SOL    HW281426   5.319   9.614   0.826
27134SOL     OW81427   3.763  10.387   0.300
27134SOL    HW181428   3.862  10.376   0.291
27134SOL    HW281429   3.723  10.301   0.332
27135SOL     OW81430   4.599  10.956   0.337
27135SOL    HW181431   4.522  10.921   0.283
27135SOL    HW281432   4.567  11.027   0.399
27136SOL     OW81433   3.954   9.938   1.975
27136SOL    HW181434   3.861   9.936   2.012
27136SOL    HW281435   3.955   9.899   1.883
27137SOL     OW81436   3.949   9.585   2.858
27137SOL    HW181437   3.984   9.568   2.950
27137SOL    HW281438   3.861   9.540   2.846
27138SOL     OW81439   3.743   9.678   2.509
27138SOL    HW181440   3.661   9.721   2.548
27138SOL    HW281441   3.715   9.605   2.446
27139SOL     OW81442   4.293  10.585   3.027
27139SOL    HW181443   4.200  10.578   2.990
27139SOL    HW281444   4.304  10.674   3.071
27140SOL     OW81445   5.279  10.821   2.565
27140SOL    HW181446   5.222  10.805   2.646
27140SOL    HW281447   5.220  10.831   2.485
27141SOL     OW81448   4.859  10.013   2.579
27141SOL    HW181449   4.916  10.091   2.554
27141SOL    HW281450   4.799  10.039   2.655
27142SOL     OW81451   5.479   9.917   2.093
27142SOL    HW181452   5.467   9.904   1.994
27142SOL    HW281453   5.449   9.836   2.142
27143SOL     OW81454   4.492  10.454   2.885
27143SOL    HW181455   4.414  10.471   2.945
27143SOL    HW281456   4.526  10.541   2.849
27144SOL     OW81457   4.574  10.108   3.685
27144SOL    HW181458   4.570  10.184   3.750
27144SOL    HW281459   4.596  10.144   3.594
27145SOL     OW81460   4.409  10.322   2.527
27145SOL    HW181461   4.478  10.306   2.597
27145SOL    HW281462   4.336  10.379   2.565
27146SOL     OW81463   4.410  10.471   3.665
27146SOL    HW181464   4.470  10.550   3.679
27146SOL    HW281465   4.324  10.502   3.624
27147SOL     OW81466   4.059  10.745   2.923
27147SOL    HW181467   3.981  10.714   2.870
27147SOL    HW281468   4.117  10.803   2.866
27148SOL     OW81469   5.184  10.815   3.201
27148SOL    HW181470   5.208  10.909   3.227
27148SOL    HW281471   5.168  10.761   3.283
27149SOL     OW81472   4.162   9.702   3.361
27149SOL    HW181473   4.244   9.646   3.370
27149SOL    HW281474   4.081   9.644   3.365
27150SOL     OW81475   5.327   9.757   2.599
27150SOL    HW181476   5.253   9.803   2.549
27150SOL    HW281477   5.378   9.825   2.652
27151SOL     OW81478   3.955  11.023   2.345
27151SOL    HW181479   3.989  11.100   2.399
27151SOL    HW281480   3.999  11.023   2.255
27152SOL     OW81481   4.851  10.651   3.552
27152SOL    HW181482   4.898  10.651   3.640
27152SOL    HW281483   4.803  10.564   3.541
27153SOL     OW81484   3.954  10.744   2.400
27153SOL    HW181485   3.928  10.840   2.400
27153SOL    HW281486   3.883  10.690   2.445
27154SOL     OW81487   3.964  10.401   2.748
27154SOL    HW181488   3.978  10.317   2.800
27154SOL    HW281489   3.909  10.465   2.803
27155SOL     OW81490   4.344  11.096   3.301
27155SOL    HW181491   4.252  11.079   3.336
27155SOL    HW281492   4.372  11.188   3.327
27156SOL     OW81493   4.330  10.274   1.985
27156SOL    HW181494   4.337  10.358   1.931
27156SOL    HW281495   4.376  10.287   2.073
27157SOL     OW81496   5.318   9.424   3.342
27157SOL    HW181497   5.300   9.491   3.270
27157SOL    HW281498   5.315   9.470   3.431
27158SOL     OW81499   3.846   9.953   2.425
27158SOL    HW181500   3.801   9.865   2.442
27158SOL    HW281501   3.845  10.007   2.509
27159SOL     OW81502   5.566  11.077   2.221
27159SOL    HW181503   5.620  11.048   2.301
27159SOL    HW281504   5.596  11.167   2.192
27160SOL     OW81505   3.751  10.906   1.979
27160SOL    HW181506   3.732  10.810   2.000
27160SOL    HW281507   3.718  10.964   2.054
27161SOL     OW81508   5.413  10.232   2.474
27161SOL    HW181509   5.508  10.203   2.482
27161SOL    HW281510   5.405  10.297   2.399
27162SOL     OW81511   5.365  10.418   2.294
27162SOL    HW181512   5.451  10.420   2.242
27162SOL    HW281513   5.379  10.465   2.382
27163SOL     OW81514   3.837  10.047   3.459
27163SOL    HW181515   3.925  10.034   3.504
27163SOL    HW281516   3.824  10.144   3.437
27164SOL     OW81517   4.337  10.675   2.588
27164SOL    HW181518   4.288  10.588   2.597
27164SOL    HW281519   4.314  10.718   2.501
27165SOL     OW81520   5.017  10.538   3.285
27165SOL    HW181521   5.054  10.465   3.227
27165SOL    HW281522   5.069  10.543   3.370
27166SOL     OW81523   4.533   9.314   2.364
27166SOL    HW181524   4.573   9.405   2.355
27166SOL    HW281525   4.433   9.322   2.370
27167SOL     OW81526   3.921  10.286   3.126
27167SOL    HW181527   4.010  10.241   3.112
27167SOL    HW281528   3.848  10.221   3.107
27168SOL     OW81529   5.249  10.309   2.052
27168SOL    HW181530   5.186  10.233   2.065
27168SOL    HW281531   5.297  10.327   2.138
27169SOL     OW81532   4.911  11.102   3.478
27169SOL    HW181533   4.935  11.162   3.402
27169SOL    HW281534   4.918  11.007   3.448
27170SOL     OW81535   4.041   9.561   3.663
27170SOL    HW181536   4.112   9.632   3.669
27170SOL    HW281537   3.953   9.600   3.691
27171SOL     OW81538   5.190  10.727   2.815
27171SOL    HW181539   5.131  10.733   2.895
27171SOL    HW281540   5.175  10.639   2.769
27172SOL     OW81541   5.391  11.024   2.434
27172SOL    HW181542   5.350  11.001   2.346
27172SOL    HW281543   5.373  10.950   2.499
27173SOL     OW81544   4.322  10.039   2.132
27173SOL    HW181545   4.346  10.108   2.064
27173SOL    HW281546   4.244  10.072   2.186
27174SOL     OW81547   5.005   9.655   2.806
27174SOL    HW181548   4.919   9.605   2.793
27174SOL    HW281549   5.067   9.601   2.862
27175SOL     OW81550   5.300  10.972   2.169
27175SOL    HW181551   5.389  11.018   2.172
27175SOL    HW281552   5.279  10.948   2.074
27176SOL     OW81553   4.531   9.915   3.327
27176SOL    HW181554   4.484   9.912   3.416
27176SOL    HW281555   4.480   9.860   3.261
27177SOL     OW81556   5.118   9.779   3.536
27177SOL    HW181557   5.098   9.822   3.624
27177SOL    HW281558   5.196   9.717   3.545
27178SOL     OW81559   4.697  10.200   3.434
27178SOL    HW181560   4.743  10.116   3.405
27178SOL    HW281561   4.641  10.234   3.359
27179SOL     OW81562   4.715   9.720   3.104
27179SOL    HW181563   4.638   9.754   3.158
27179SOL    HW281564   4.681   9.669   3.025
27180SOL     OW81565   4.765  10.011   2.291
27180SOL    HW181566   4.791  10.007   2.387
27180SOL    HW281567   4.680   9.960   2.277
27181SOL     OW81568   3.800  10.121   2.651
27181SOL    HW181569   3.899  10.109   2.660
27181SOL    HW281570   3.776  10.216   2.672
27182SOL     OW81571   3.854  11.131   3.433
27182SOL    HW181572   3.844  11.116   3.532
27182SOL    HW281573   3.768  11.167   3.397
27183SOL     OW81574   4.589   9.658   2.057
27183SOL    HW181575   4.648   9.721   2.008
27183SOL    HW281576   4.608   9.564   2.028
27184SOL     OW81577   5.443   9.895   3.693
27184SOL    HW181578   5.417   9.984   3.657
27184SOL    HW281579   5.441   9.827   3.620
27185SOL     OW81580   5.086  10.454   2.407
27185SOL    HW181581   5.169  10.425   2.359
27185SOL    HW281582   5.037  10.521   2.351
27186SOL     OW81583   4.274   9.506   2.747
27186SOL    HW181584   4.269   9.501   2.847
27186SOL    HW281585   4.276   9.602   2.718
27187SOL     OW81586   4.732  10.766   2.339
27187SOL    HW181587   4.686  10.838   2.287
27187SOL    HW281588   4.728  10.786   2.437
27188SOL     OW81589   4.075  11.111   2.715
27188SOL    HW181590   4.125  11.025   2.721
27188SOL    HW281591   4.140  11.188   2.712
27189SOL     OW81592   5.519  10.376   2.735
27189SOL    HW181593   5.457  10.361   2.659
27189SOL    HW281594   5.467  10.387   2.820
27190SOL     OW81595   4.951  10.860   3.368
27190SOL    HW181596   4.957  10.783   3.432
27190SOL    HW281597   4.899  10.834   3.288
27191SOL     OW81598   4.045  10.253   2.104
27191SOL    HW181599   4.127  10.292   2.062
27191SOL    HW281600   4.018  10.171   2.055
27192SOL     OW81601   5.182  10.045   2.590
27192SOL    HW181602   5.177   9.980   2.665
27192SOL    HW281603   5.262  10.104   2.603
27193SOL     OW81604   4.185  10.576   3.589
27193SOL    HW181605   4.135  10.577   3.503
27193SOL    HW281606   4.122  10.558   3.665
27194SOL     OW81607   4.835  11.086   2.099
27194SOL    HW181608   4.775  11.024   2.149
27194SOL    HW281609   4.866  11.042   2.014
27195SOL     OW81610   3.926   9.595   3.360
27195SOL    HW181611   3.846   9.655   3.347
27195SOL    HW281612   3.916   9.546   3.446
27196SOL     OW81613   5.356  10.687   1.943
27196SOL    HW181614   5.324  10.781   1.933
27196SOL    HW281615   5.280  10.624   1.931
27197SOL     OW81616   4.188  11.053   2.185
27197SOL    HW181617   4.221  11.092   2.271
27197SOL    HW281618   4.264  11.046   2.120
27198SOL     OW81619   5.124   9.417   2.288
27198SOL    HW181620   5.100   9.380   2.198
27198SOL    HW281621   5.223   9.433   2.292
27199SOL     OW81622   3.973  11.095   3.103
27199SOL    HW181623   4.030  11.030   3.153
27199SOL    HW281624   3.957  11.062   3.010
27200SOL     OW81625   4.664  11.008   2.766
27200SOL    HW181626   4.744  10.951   2.787
27200SOL    HW281627   4.615  10.968   2.689
27201SOL     OW81628   4.106  10.010   2.342
27201SOL    HW181629   4.151   9.920   2.339
27201SOL    HW281630   4.012   9.999   2.375
27202SOL     OW81631   5.271   9.532   3.591
27202SOL    HW181632   5.266   9.569   3.683
27202SOL    HW281633   5.199   9.463   3.579
27203SOL     OW81634   4.338   9.432   1.979
27203SOL    HW181635   4.436   9.410   1.986
27203SOL    HW281636   4.307   9.415   1.886
27204SOL     OW81637   4.505   9.574   3.611
27204SOL    HW181638   4.572   9.513   3.654
27204SOL    HW281639   4.432   9.593   3.676
27205SOL     OW81640   4.612  10.824   3.057
27205SOL    HW181641   4.589  10.799   2.963
27205SOL    HW281642   4.673  10.755   3.096
27206SOL     OW81643   5.075   9.900   3.295
27206SOL    HW181644   5.103   9.857   3.380
27206SOL    HW281645   5.100   9.996   3.296
27207SOL     OW81646   4.527  10.712   2.786
27207SOL    HW181647   4.617  10.726   2.744
27207SOL    HW281648   4.456  10.714   2.715
27208SOL     OW81649   4.646   9.813   2.761
27208SOL    HW181650   4.621   9.804   2.665
27208SOL    HW281651   4.694   9.731   2.792
27209SOL     OW81652   4.263   9.374   2.374
27209SOL    HW181653   4.182   9.375   2.432
27209SOL    HW281654   4.266   9.457   2.319
27210SOL     OW81655   5.158  10.498   1.903
27210SOL    HW181656   5.190  10.422   1.960
27210SOL    HW281657   5.066  10.525   1.933
27211SOL     OW81658   4.021   9.345   2.033
27211SOL    HW181659   4.070   9.429   2.012
27211SOL    HW281660   4.083   9.280   2.078
27212SOL     OW81661   4.659   9.546   2.342
27212SOL    HW181662   4.611   9.587   2.264
27212SOL    HW281663   4.758   9.544   2.323
27213SOL     OW81664   4.800   9.993   3.326
27213SOL    HW181665   4.720   9.932   3.329
27213SOL    HW281666   4.881   9.940   3.302
27214SOL     OW81667   4.951  10.880   2.655
27214SOL    HW181668   4.972  10.954   2.590
27214SOL    HW281669   5.019  10.880   2.728
27215SOL     OW81670   4.183  10.462   2.603
27215SOL    HW181671   4.112  10.435   2.668
27215SOL    HW281672   4.157  10.434   2.510
27216SOL     OW81673   4.995  11.107   2.453
27216SOL    HW181674   5.039  11.171   2.389
27216SOL    HW281675   4.945  11.159   2.523
27217SOL     OW81676   4.756   9.859   1.878
27217SOL    HW181677   4.715   9.941   1.839
27217SOL    HW281678   4.820   9.885   1.951
27218SOL     OW81679   3.802   9.866   3.248
27218SOL    HW181680   3.894   9.865   3.207
27218SOL    HW281681   3.796   9.940   3.315
27219SOL     OW81682   4.285   9.532   3.009
27219SOL    HW181683   4.323   9.448   3.046
27219SOL    HW281684   4.197   9.551   3.053
27220SOL     OW81685   4.590   9.764   2.504
27220SOL    HW181686   4.558   9.836   2.442
27220SOL    HW281687   4.614   9.683   2.451
27221SOL     OW81688   4.741   9.349   2.615
27221SOL    HW181689   4.669   9.354   2.546
27221SOL    HW281690   4.717   9.280   2.684
27222SOL     OW81691   5.153  10.483   2.729
27222SOL    HW181692   5.098  10.399   2.722
27222SOL    HW281693   5.179  10.512   2.637
27223SOL     OW81694   5.190   9.900   2.854
27223SOL    HW181695   5.160   9.805   2.861
27223SOL    HW281696   5.263   9.916   2.920
27224SOL     OW81697   5.581  10.143   2.239
27224SOL    HW181698   5.623  10.079   2.303
27224SOL    HW281699   5.543  10.092   2.161
27225SOL     OW81700   4.212  10.695   2.036
27225SOL    HW181701   4.125  10.680   2.083
27225SOL    HW281702   4.195  10.721   1.941
27226SOL     OW81703   5.388  10.590   2.519
27226SOL    HW181704   5.487  10.598   2.533
27226SOL    HW281705   5.343  10.674   2.550
27227SOL     OW81706   5.114   9.885   1.940
27227SOL    HW181707   5.060   9.864   2.021
27227SOL    HW281708   5.205   9.844   1.949
27228SOL     OW81709   4.251   9.566   2.190
27228SOL    HW181710   4.278   9.507   2.115
27228SOL    HW281711   4.251   9.661   2.159
27229SOL     OW81712   5.478  10.533   3.450
27229SOL    HW181713   5.569  10.494   3.437
27229SOL    HW281714   5.486  10.629   3.474
27230SOL     OW81715   4.788  10.657   3.202
27230SOL    HW181716   4.708  10.634   3.257
27230SOL    HW281717   4.871  10.631   3.251
27231SOL     OW81718   5.316  10.939   3.487
27231SOL    HW181719   5.343  10.973   3.397
27231SOL    HW281720   5.395  10.901   3.533
27232SOL     OW81721   4.835  10.505   2.962
27232SOL    HW181722   4.795  10.549   3.043
27232SOL    HW281723   4.794  10.542   2.879
27233SOL     OW81724   5.362  10.409   2.941
27233SOL    HW181725   5.367  10.490   3.000
27233SOL    HW281726   5.276  10.411   2.890
27234SOL     OW81727   4.639   9.399   3.264
27234SOL    HW181728   4.664   9.379   3.169
27234SOL    HW281729   4.711   9.455   3.306
27235SOL     OW81730   4.704  10.426   3.581
27235SOL    HW181731   4.605  10.432   3.591
27235SOL    HW281732   4.727  10.346   3.525
27236SOL     OW81733   4.429  10.360   2.230
27236SOL    HW181734   4.415  10.367   2.329
27236SOL    HW281735   4.513  10.309   2.212
27237SOL     OW81736   4.134  10.123   3.113
27237SOL    HW181737   4.220  10.135   3.163
27237SOL    HW281738   4.092  10.036   3.140
27238SOL     OW81739   4.998   9.696   3.124
27238SOL    HW181740   5.019   9.770   3.188
27238SOL    HW281741   4.909   9.713   3.081
27239SOL     OW81742   3.788  10.874   3.193
27239SOL    HW181743   3.742  10.956   3.159
27239SOL    HW281744   3.886  10.893   3.202
27240SOL     OW81745   4.091  10.410   2.363
27240SOL    HW181746   4.084  10.493   2.307
27240SOL    HW281747   4.095  10.330   2.303
27241SOL     OW81748   4.290   9.847   2.727
27241SOL    HW181749   4.302   9.913   2.653
27241SOL    HW281750   4.336   9.881   2.810
27242SOL     OW81751   4.976  10.658   2.250
27242SOL    HW181752   5.026  10.735   2.290
27242SOL    HW281753   4.881  10.660   2.282
27243SOL     OW81754   4.996  10.755   3.004
27243SOL    HW181755   5.043  10.768   3.091
27243SOL    HW281756   4.930  10.681   3.013
27244SOL     OW81757   5.306   9.949   2.334
27244SOL    HW181758   5.275  10.010   2.407
27244SOL    HW281759   5.356  10.001   2.265
27245SOL     OW81760   4.078  10.820   3.191
27245SOL    HW181761   4.057  10.776   3.104
27245SOL    HW281762   4.175  10.846   3.194
27246SOL     OW81763   4.126  10.061   3.460
27246SOL    HW181764   4.194  10.116   3.413
27246SOL    HW281765   4.166   9.973   3.487
27247SOL     OW81766   5.311  10.089   3.532
27247SOL    HW181767   5.219  10.127   3.527
27247SOL    HW281768   5.371  10.136   3.467
27248SOL     OW81769   4.737   9.415   3.632
27248SOL    HW181770   4.743   9.500   3.580
27248SOL    HW281771   4.769   9.339   3.575
27249SOL     OW81772   4.228   9.360   3.602
27249SOL    HW181773   4.186   9.303   3.532
27249SOL    HW281774   4.162   9.429   3.634
27250SOL     OW81775   4.297  10.180   2.891
27250SOL    HW181776   4.341  10.269   2.882
27250SOL    HW281777   4.234  10.180   2.968
27251SOL     OW81778   5.084  10.172   2.907
27251SOL    HW181779   5.009  10.172   2.841
27251SOL    HW281780   5.121  10.080   2.916
27252SOL     OW81781   4.933   9.835   2.137
27252SOL    HW181782   4.946   9.751   2.191
27252SOL    HW281783   4.904   9.909   2.197
27253SOL     OW81784   4.031   9.523   3.093
27253SOL    HW181785   4.008   9.560   3.183
27253SOL    HW281786   4.001   9.428   3.087
27254SOL     OW81787   3.761  10.620   3.144
27254SOL    HW181788   3.814  10.571   3.212
27254SOL    HW281789   3.783  10.718   3.149
27255SOL     OW81790   4.456   9.944   2.926
27255SOL    HW181791   4.515   9.918   2.850
27255SOL    HW281792   4.428  10.040   2.915
27256SOL     OW81793   5.452  10.245   3.716
27256SOL    HW181794   5.406  10.238   3.627
27256SOL    HW281795   5.390  10.289   3.782
27257SOL     OW81796   4.031   9.373   2.480
27257SOL    HW181797   4.020   9.467   2.513
27257SOL    HW281798   4.026   9.310   2.557
27258SOL     OW81799   5.346   9.677   2.236
27258SOL    HW181800   5.348   9.601   2.300
27258SOL    HW281801   5.298   9.754   2.276
27259SOL     OW81802   4.747  10.076   2.828
27259SOL    HW181803   4.762  10.097   2.924
27259SOL    HW281804   4.717   9.981   2.819
27260SOL     OW81805   4.704  10.883   3.562
27260SOL    HW181806   4.684  10.927   3.474
27260SOL    HW281807   4.743  10.792   3.546
27261SOL     OW81808   5.583  10.828   3.467
27261SOL    HW181809   5.597  10.855   3.372
27261SOL    HW281810   5.666  10.850   3.520
27262SOL     OW81811   4.074  10.208   3.666
27262SOL    HW181812   4.150  10.252   3.714
27262SOL    HW281813   4.109  10.161   3.584
27263SOL     OW81814   5.264   9.584   1.987
27263SOL    HW181815   5.203   9.509   2.010
27263SOL    HW281816   5.286   9.636   2.070
27264SOL     OW81817   5.027  10.148   1.904
27264SOL    HW181818   5.061  10.055   1.919
27264SOL    HW281819   5.045  10.175   1.809
27265SOL     OW81820   4.792  10.643   2.711
27265SOL    HW181821   4.799  10.559   2.656
27265SOL    HW281822   4.854  10.712   2.675
27266SOL     OW81823   4.043  10.120   2.811
27266SOL    HW181824   4.136  10.156   2.816
27266SOL    HW281825   4.037  10.035   2.863
27267SOL     OW81826   4.063   9.819   2.868
27267SOL    HW181827   4.011   9.736   2.851
27267SOL    HW281828   4.140   9.824   2.804
27268SOL     OW81829   4.862   9.690   3.540
27268SOL    HW181830   4.817   9.753   3.604
27268SOL    HW281831   4.955   9.721   3.523
27269SOL     OW81832   4.884   9.517   3.339
27269SOL    HW181833   4.884   9.581   3.416
27269SOL    HW281834   4.912   9.565   3.256
27270SOL     OW81835   3.732  10.636   2.062
27270SOL    HW181836   3.639  10.657   2.031
27270SOL    HW281837   3.742  10.537   2.075
27271SOL     OW81838   3.812  11.111   2.789
27271SOL    HW181839   3.770  11.025   2.762
27271SOL    HW281840   3.906  11.114   2.755
27272SOL     OW81841   4.228  10.878   2.772
27272SOL    HW181842   4.294  10.952   2.781
27272SOL    HW281843   4.272  10.799   2.730
27273SOL     OW81844   4.726  10.106   3.100
27273SOL    HW181845   4.767  10.074   3.186
27273SOL    HW281846   4.630  10.079   3.097
27274SOL     OW81847   3.764   9.854   2.976
27274SOL    HW181848   3.849   9.821   2.935
27274SOL    HW281849   3.777   9.869   3.074
27275SOL     OW81850   3.913   9.830   3.584
27275SOL    HW181851   3.972   9.790   3.514
27275SOL    HW281852   3.855   9.901   3.543
27276SOL     OW81853   5.093  10.260   3.522
27276SOL    HW181854   5.132  10.349   3.542
27276SOL    HW281855   5.103  10.240   3.425
27277SOL     OW81856   4.539   9.882   2.187
27277SOL    HW181857   4.546   9.793   2.141
27277SOL    HW281858   4.445   9.916   2.179
27278SOL     OW81859   5.381   9.914   3.068
27278SOL    HW181860   5.343   9.845   3.130
27278SOL    HW281861   5.463   9.878   3.024
27279SOL     OW81862   3.976  10.874   3.606
27279SOL    HW181863   3.946  10.931   3.682
27279SOL    HW281864   3.969  10.777   3.632
27280SOL     OW81865   4.395   9.774   3.131
27280SOL    HW181866   4.361   9.685   3.101
27280SOL    HW281867   4.421   9.828   3.051
27281SOL     OW81868   4.654  10.988   3.327
27281SOL    HW181869   4.630  10.970   3.232
27281SOL    HW281870   4.684  11.082   3.337
27282SOL     OW81871   4.197   9.810   2.053
27282SOL    HW181872   4.258   9.890   2.057
27282SOL    HW281873   4.102   9.841   2.060
27283SOL     OW81874   3.883  10.447   3.328
27283SOL    HW181875   3.905  10.386   3.404
27283SOL    HW281876   3.893  10.398   3.242
27284SOL     OW81877   5.071  10.369   3.096
27284SOL    HW181878   5.095  10.306   3.022
27284SOL    HW281879   4.981  10.409   3.078
27285SOL     OW81880   5.026  10.165   2.171
27285SOL    HW181881   4.940  10.134   2.213
27285SOL    HW281882   5.022  10.151   2.072
27286SOL     OW81883   5.483  11.057   3.016
27286SOL    HW181884   5.544  11.087   2.943
27286SOL    HW281885   5.445  10.968   2.994
27287SOL     OW81886   4.976  11.041   2.990
27287SOL    HW181887   5.060  11.046   2.936
27287SOL    HW281888   4.953  10.945   3.008
27288SOL     OW81889   3.807  10.568   2.884
27288SOL    HW181890   3.802  10.567   2.984
27288SOL    HW281891   3.724  10.527   2.846
27289SOL     OW81892   4.412  10.972   3.578
27289SOL    HW181893   4.356  11.053   3.587
27289SOL    HW281894   4.464  10.976   3.492
27290SOL     OW81895   5.450   9.445   2.385
27290SOL    HW181896   5.523   9.428   2.318
27290SOL    HW281897   5.419   9.358   2.423
27291SOL     OW81898   5.112  10.883   2.339
27291SOL    HW181899   5.179  10.895   2.265
27291SOL    HW281900   5.072  10.972   2.362
27292SOL     OW81901   3.854  11.104   3.713
27292SOL    HW181902   3.813  11.030   3.766
27292SOL    HW281903   3.918  11.155   3.771
27293SOL     OW81904   5.004  10.237   2.534
27293SOL    HW181905   5.064  10.156   2.536
27293SOL    HW281906   5.044  10.306   2.474
27294SOL     OW81907   4.554  10.583   3.284
27294SOL    HW181908   4.549  10.616   3.379
27294SOL    HW281909   4.468  10.602   3.238
27295SOL     OW81910   4.396  10.926   2.016
27295SOL    HW181911   4.405  10.936   1.917
27295SOL    HW281912   4.356  10.837   2.037
27296SOL     OW81913   5.374  11.030   3.256
27296SOL    HW181914   5.427  11.040   3.172
27296SOL    HW281915   5.347  11.120   3.290
27297SOL     OW81916   5.565   9.485   2.825
27297SOL    HW181917   5.604   9.400   2.789
27297SOL    HW281918   5.467   9.487   2.806
27298SOL     OW81919   3.987   9.636   2.582
27298SOL    HW181920   3.908   9.687   2.548
27298SOL    HW281921   3.978   9.621   2.680
27299SOL     OW81922   4.918  10.922   1.893
27299SOL    HW181923   4.924  10.829   1.930
27299SOL    HW281924   4.859  10.922   1.813
27300SOL     OW81925   4.546  10.312   3.234
27300SOL    HW181926   4.586  10.311   3.142
27300SOL    HW281927   4.556  10.404   3.274
27301SOL     OW81928   4.640  10.220   2.153
27301SOL    HW181929   4.703  10.258   2.085
27301SOL    HW281930   4.680  10.137   2.192
27302SOL     OW81931   5.228  10.917   1.906
27302SOL    HW181932   5.136  10.954   1.913
27302SOL    HW281933   5.266  10.937   1.816
27303SOL     OW81934   4.096  10.598   3.352
27303SOL    HW181935   4.083  10.691   3.318
27303SOL    HW281936   4.012  10.546   3.339
27304SOL     OW81937   5.338  10.602   3.151
27304SOL    HW181938   5.398  10.605   3.231
27304SOL    HW281939   5.263  10.666   3.164
27305SOL     OW81940   4.763  10.408   2.558
27305SOL    HW181941   4.693  10.361   2.612
27305SOL    HW281942   4.822  10.340   2.515
27306SOL     OW81943   4.738   9.546   2.833
27306SOL    HW181944   4.730   9.510   2.740
27306SOL    HW281945   4.736   9.470   2.898
27307SOL     OW81946   4.314  10.797   2.353
27307SOL    HW181947   4.356  10.739   2.283
27307SOL    HW281948   4.270  10.876   2.309
27308SOL     OW81949   5.433   9.695   3.243
27308SOL    HW181950   5.506   9.764   3.247
27308SOL    HW281951   5.461   9.620   3.184
27309SOL     OW81952   3.979  10.658   2.152
27309SOL    HW181953   3.883  10.659   2.125
27309SOL    HW281954   3.991  10.711   2.236
27310SOL     OW81955   3.829  10.323   3.588
27310SOL    HW181956   3.752  10.290   3.642
27310SOL    HW281957   3.914  10.293   3.630
27311SOL     OW81958   4.396   9.513   3.351
27311SOL    HW181959   4.486   9.497   3.311
27311SOL    HW281960   4.404   9.518   3.450
27312SOL     OW81961   3.799   9.655   1.895
27312SOL    HW181962   3.707   9.627   1.866
27312SOL    HW281963   3.830   9.732   1.839
27313SOL     OW81964   5.164  10.166   3.260
27313SOL    HW181965   5.107  10.218   3.197
27313SOL    HW281966   5.260  10.178   3.236
27314SOL     OW81967   3.796   9.476   2.180
27314SOL    HW181968   3.779   9.559   2.126
27314SOL    HW281969   3.886   9.439   2.158
27315SOL     OW81970   4.907  10.645   1.981
27315SOL    HW181971   4.808  10.634   1.983
27315SOL    HW281972   4.941  10.660   2.074
27316SOL     OW81973   4.337  10.152   3.293
27316SOL    HW181974   4.393  10.233   3.276
27316SOL    HW281975   4.396  10.072   3.296
27317SOL     OW81976   5.217  11.077   2.821
27317SOL    HW181977   5.250  11.141   2.752
27317SOL    HW281978   5.283  11.071   2.896
27318SOL     OW81979   4.440   9.875   3.570
27318SOL    HW181980   4.459   9.940   3.644
27318SOL    HW281981   4.500   9.795   3.579
27319SOL     OW81982   5.174  10.530   3.495
27319SOL    HW181983   5.165  10.520   3.594
27319SOL    HW281984   5.270  10.523   3.469
27320SOL     OW81985   4.114  11.051   3.422
27320SOL    HW181986   4.023  11.092   3.420
27320SOL    HW281987   4.107  10.957   3.454
27321SOL     OW81988   5.398  10.193   3.116
27321SOL    HW181989   5.371  10.104   3.079
27321SOL    HW281990   5.399  10.261   3.043
27322SOL     OW81991   4.949   9.635   2.311
27322SOL    HW181992   5.014   9.561   2.300
27322SOL    HW281993   4.969   9.685   2.395
27323SOL     OW81994   4.318  10.055   2.514
27323SOL    HW181995   4.368  10.140   2.495
27323SOL    HW281996   4.230  10.057   2.466
27324SOL     OW81997   5.501   9.652   3.504
27324SOL    HW181998   5.484   9.683   3.410
27324SOL    HW281999   5.417   9.615   3.542
27325SOL     OW82000   5.454  10.244   3.379
27325SOL    HW182001   5.492  10.335   3.394
27325SOL    HW282002   5.446  10.227   3.280
27326SOL     OW82003   4.583  10.684   1.878
27326SOL    HW182004   4.537  10.699   1.966
27326SOL    HW282005   4.627  10.769   1.848
27327SOL     OW82006   4.385  11.100   2.815
27327SOL    HW182007   4.339  11.188   2.802
27327SOL    HW282008   4.484  11.112   2.808
27328SOL     OW82009   4.583  10.266   2.723
27328SOL    HW182010   4.637  10.197   2.771
27328SOL    HW282011   4.551  10.335   2.789
27329SOL     OW82012   4.807  10.294   1.949
27329SOL    HW182013   4.784  10.347   1.867
27329SOL    HW282014   4.888  10.238   1.930
27330SOL     OW82015   5.585  10.879   2.713
27330SOL    HW182016   5.514  10.867   2.643
27330SOL    HW282017   5.586  10.800   2.773
27331SOL     OW82018   3.945  10.624   3.706
27331SOL    HW182019   3.880  10.551   3.685
27331SOL    HW282020   3.949  10.638   3.804
27332SOL     OW82021   3.803  10.550   2.515
27332SOL    HW182022   3.802  10.503   2.603
27332SOL    HW282023   3.885  10.522   2.464
27333SOL     OW82024   4.396  10.701   3.486
27333SOL    HW182025   4.318  10.651   3.524
27333SOL    HW282026   4.393  10.796   3.517
27334SOL     OW82027   5.548   9.502   3.089
27334SOL    HW182028   5.544   9.412   3.133
27334SOL    HW282029   5.551   9.491   2.990
27335SOL     OW82030   4.152   9.734   2.382
27335SOL    HW182031   4.182   9.662   2.320
27335SOL    HW282032   4.113   9.694   2.465
27336SOL     OW82033   5.429  10.797   2.966
27336SOL    HW182034   5.336  10.772   2.939
27336SOL    HW282035   5.455  10.747   3.048
27337SOL     OW82036   4.041   9.857   3.142
27337SOL    HW182037   4.079   9.798   3.214
27337SOL    HW282038   4.081   9.831   3.054
27338SOL     OW82039   4.536  10.896   2.549
27338SOL    HW182040   4.568  10.906   2.455
27338SOL    HW282041   4.457  10.834   2.551
27339SOL     OW82042   4.725   9.344   3.016
27339SOL    HW182043   4.662   9.272   2.985
27339SOL    HW282044   4.818   9.308   3.016
27340SOL     OW82045   4.494  10.640   2.163
27340SOL    HW182046   4.448  10.553   2.180
27340SOL    HW282047   4.585  10.637   2.204
27341SOL     OW82048   4.342  10.877   3.146
27341SOL    HW182049   4.337  10.959   3.203
27341SOL    HW282050   4.431  10.874   3.101
27342SOL     OW82051   5.076   9.362   2.030
27342SOL    HW182052   5.111   9.321   1.946
27342SOL    HW282053   4.986   9.324   2.050
27343SOL     OW82054   5.024   9.763   2.553
27343SOL    HW182055   4.965   9.843   2.557
27343SOL    HW282056   5.039   9.728   2.646
27344SOL     OW82057   5.317   9.531   2.744
27344SOL    HW182058   5.233   9.530   2.798
27344SOL    HW282059   5.319   9.614   2.688
27345SOL     OW82060   3.763  10.387   2.162
27345SOL    HW182061   3.862  10.376   2.153
27345SOL    HW282062   3.723  10.301   2.194
27346SOL     OW82063   4.599  10.956   2.199
27346SOL    HW182064   4.522  10.921   2.145
27346SOL    HW282065   4.567  11.027   2.261
27347SOL     OW82066   3.954   9.938   3.837
27347SOL    HW182067   3.861   9.936   3.874
27347SOL    HW282068   3.955   9.899   3.745
27348SOL     OW82069   3.949   9.585   4.720
27348SOL    HW182070   3.984   9.568   4.812
27348SOL    HW282071   3.861   9.540   4.708
27349SOL     OW82072   3.743   9.678   4.371
27349SOL    HW182073   3.661   9.721   4.410
27349SOL    HW282074   3.715   9.605   4.308
27350SOL     OW82075   4.293  10.585   4.889
27350SOL    HW182076   4.200  10.578   4.852
27350SOL    HW282077   4.304  10.674   4.933
27351SOL     OW82078   5.279  10.821   4.427
27351SOL    HW182079   5.222  10.805   4.508
27351SOL    HW282080   5.220  10.831   4.347
27352SOL     OW82081   4.859  10.013   4.441
27352SOL    HW182082   4.916  10.091   4.416
27352SOL    HW282083   4.799  10.039   4.517
27353SOL     OW82084   5.479   9.917   3.955
27353SOL    HW182085   5.467   9.904   3.856
27353SOL    HW282086   5.449   9.836   4.004
27354SOL     OW82087   4.492  10.454   4.747
27354SOL    HW182088   4.414  10.471   4.807
27354SOL    HW282089   4.526  10.541   4.711
27355SOL     OW82090   4.574  10.108   5.547
27355SOL    HW182091   4.570  10.184   5.612
27355SOL    HW282092   4.596  10.144   5.456
27356SOL     OW82093   4.409  10.322   4.389
27356SOL    HW182094   4.478  10.306   4.459
27356SOL    HW282095   4.336  10.379   4.427
27357SOL     OW82096   4.410  10.471   5.527
27357SOL    HW182097   4.470  10.550   5.541
27357SOL    HW282098   4.324  10.502   5.486
27358SOL     OW82099   4.059  10.745   4.785
27358SOL    HW182100   3.981  10.714   4.732
27358SOL    HW282101   4.117  10.803   4.728
27359SOL     OW82102   5.184  10.815   5.063
27359SOL    HW182103   5.208  10.909   5.089
27359SOL    HW282104   5.168  10.761   5.145
27360SOL     OW82105   4.162   9.702   5.223
27360SOL    HW182106   4.244   9.646   5.232
27360SOL    HW282107   4.081   9.644   5.227
27361SOL     OW82108   5.327   9.757   4.461
27361SOL    HW182109   5.253   9.803   4.411
27361SOL    HW282110   5.378   9.825   4.514
27362SOL     OW82111   3.955  11.023   4.207
27362SOL    HW182112   3.989  11.100   4.261
27362SOL    HW282113   3.999  11.023   4.117
27363SOL     OW82114   4.851  10.651   5.414
27363SOL    HW182115   4.898  10.651   5.502
27363SOL    HW282116   4.803  10.564   5.403
27364SOL     OW82117   3.954  10.744   4.262
27364SOL    HW182118   3.928  10.840   4.262
27364SOL    HW282119   3.883  10.690   4.307
27365SOL     OW82120   3.964  10.401   4.610
27365SOL    HW182121   3.978  10.317   4.662
27365SOL    HW282122   3.909  10.465   4.665
27366SOL     OW82123   4.344  11.096   5.163
27366SOL    HW182124   4.252  11.079   5.198
27366SOL    HW282125   4.372  11.188   5.189
27367SOL     OW82126   4.330  10.274   3.847
27367SOL    HW182127   4.337  10.358   3.793
27367SOL    HW282128   4.376  10.287   3.935
27368SOL     OW82129   5.318   9.424   5.204
27368SOL    HW182130   5.300   9.491   5.132
27368SOL    HW282131   5.315   9.470   5.293
27369SOL     OW82132   3.846   9.953   4.287
27369SOL    HW182133   3.801   9.865   4.304
27369SOL    HW282134   3.845  10.007   4.371
27370SOL     OW82135   5.566  11.077   4.083
27370SOL    HW182136   5.620  11.048   4.163
27370SOL    HW282137   5.596  11.167   4.054
27371SOL     OW82138   3.751  10.906   3.841
27371SOL    HW182139   3.732  10.810   3.862
27371SOL    HW282140   3.718  10.964   3.916
27372SOL     OW82141   5.413  10.232   4.336
27372SOL    HW182142   5.508  10.203   4.344
27372SOL    HW282143   5.405  10.297   4.261
27373SOL     OW82144   5.365  10.418   4.156
27373SOL    HW182145   5.451  10.420   4.104
27373SOL    HW282146   5.379  10.465   4.244
27374SOL     OW82147   3.837  10.047   5.321
27374SOL    HW182148   3.925  10.034   5.366
27374SOL    HW282149   3.824  10.144   5.299
27375SOL     OW82150   4.337  10.675   4.450
27375SOL    HW182151   4.288  10.588   4.459
27375SOL    HW282152   4.314  10.718   4.363
27376SOL     OW82153   5.017  10.538   5.147
27376SOL    HW182154   5.054  10.465   5.089
27376SOL    HW282155   5.069  10.543   5.232
27377SOL     OW82156   4.533   9.314   4.226
27377SOL    HW182157   4.573   9.405   4.217
27377SOL    HW282158   4.433   9.322   4.232
27378SOL     OW82159   3.921  10.286   4.988
27378SOL    HW182160   4.010  10.241   4.974
27378SOL    HW282161   3.848  10.221   4.969
27379SOL     OW82162   5.249  10.309   3.914
27379SOL    HW182163   5.186  10.233   3.927
27379SOL    HW282164   5.297  10.327   4.000
27380SOL     OW82165   4.911  11.102   5.340
27380SOL    HW182166   4.935  11.162   5.264
27380SOL    HW282167   4.918  11.007   5.310
27381SOL     OW82168   4.041   9.561   5.525
27381SOL    HW182169   4.112   9.632   5.531
27381SOL    HW282170   3.953   9.600   5.553
27382SOL     OW82171   5.190  10.727   4.677
27382SOL    HW182172   5.131  10.733   4.757
27382SOL    HW282173   5.175  10.639   4.631
27383SOL     OW82174   5.391  11.024   4.296
27383SOL    HW182175   5.350  11.001   4.208
27383SOL    HW282176   5.373  10.950   4.361
27384SOL     OW82177   4.322  10.039   3.994
27384SOL    HW182178   4.346  10.108   3.926
27384SOL    HW282179   4.244  10.072   4.048
27385SOL     OW82180   5.005   9.655   4.668
27385SOL    HW182181   4.919   9.605   4.655
27385SOL    HW282182   5.067   9.601   4.724
27386SOL     OW82183   5.300  10.972   4.031
27386SOL    HW182184   5.389  11.018   4.034
27386SOL    HW282185   5.279  10.948   3.936
27387SOL     OW82186   4.531   9.915   5.189
27387SOL    HW182187   4.484   9.912   5.278
27387SOL    HW282188   4.480   9.860   5.123
27388SOL     OW82189   5.118   9.779   5.398
27388SOL    HW182190   5.098   9.822   5.486
27388SOL    HW282191   5.196   9.717   5.407
27389SOL     OW82192   4.697  10.200   5.296
27389SOL    HW182193   4.743  10.116   5.267
27389SOL    HW282194   4.641  10.234   5.221
27390SOL     OW82195   4.715   9.720   4.966
27390SOL    HW182196   4.638   9.754   5.020
27390SOL    HW282197   4.681   9.669   4.887
27391SOL     OW82198   4.765  10.011   4.153
27391SOL    HW182199   4.791  10.007   4.249
27391SOL    HW282200   4.680   9.960   4.139
27392SOL     OW82201   3.800  10.121   4.513
27392SOL    HW182202   3.899  10.109   4.522
27392SOL    HW282203   3.776  10.216   4.534
27393SOL     OW82204   3.854  11.131   5.295
27393SOL    HW182205   3.844  11.116   5.394
27393SOL    HW282206   3.768  11.167   5.259
27394SOL     OW82207   4.589   9.658   3.919
27394SOL    HW182208   4.648   9.721   3.870
27394SOL    HW282209   4.608   9.564   3.890
27395SOL     OW82210   5.443   9.895   5.555
27395SOL    HW182211   5.417   9.984   5.519
27395SOL    HW282212   5.441   9.827   5.482
27396SOL     OW82213   5.086  10.454   4.269
27396SOL    HW182214   5.169  10.425   4.221
27396SOL    HW282215   5.037  10.521   4.213
27397SOL     OW82216   4.274   9.506   4.609
27397SOL    HW182217   4.269   9.501   4.709
27397SOL    HW282218   4.276   9.602   4.580
27398SOL     OW82219   4.732  10.766   4.201
27398SOL    HW182220   4.686  10.838   4.149
27398SOL    HW282221   4.728  10.786   4.299
27399SOL     OW82222   4.075  11.111   4.577
27399SOL    HW182223   4.125  11.025   4.583
27399SOL    HW282224   4.140  11.188   4.574
27400SOL     OW82225   5.519  10.376   4.597
27400SOL    HW182226   5.457  10.361   4.521
27400SOL    HW282227   5.467  10.387   4.682
27401SOL     OW82228   4.951  10.860   5.230
27401SOL    HW182229   4.957  10.783   5.294
27401SOL    HW282230   4.899  10.834   5.150
27402SOL     OW82231   4.045  10.253   3.966
27402SOL    HW182232   4.127  10.292   3.924
27402SOL    HW282233   4.018  10.171   3.917
27403SOL     OW82234   5.182  10.045   4.452
27403SOL    HW182235   5.177   9.980   4.527
27403SOL    HW282236   5.262  10.104   4.465
27404SOL     OW82237   4.185  10.576   5.451
27404SOL    HW182238   4.135  10.577   5.365
27404SOL    HW282239   4.122  10.558   5.527
27405SOL     OW82240   4.835  11.086   3.961
27405SOL    HW182241   4.775  11.024   4.011
27405SOL    HW282242   4.866  11.042   3.876
27406SOL     OW82243   3.926   9.595   5.222
27406SOL    HW182244   3.846   9.655   5.209
27406SOL    HW282245   3.916   9.546   5.308
27407SOL     OW82246   5.356  10.687   3.805
27407SOL    HW182247   5.324  10.781   3.795
27407SOL    HW282248   5.280  10.624   3.793
27408SOL     OW82249   4.188  11.053   4.047
27408SOL    HW182250   4.221  11.092   4.133
27408SOL    HW282251   4.264  11.046   3.982
27409SOL     OW82252   5.124   9.417   4.150
27409SOL    HW182253   5.100   9.380   4.060
27409SOL    HW282254   5.223   9.433   4.154
27410SOL     OW82255   3.973  11.095   4.965
27410SOL    HW182256   4.030  11.030   5.015
27410SOL    HW282257   3.957  11.062   4.872
27411SOL     OW82258   4.664  11.008   4.628
27411SOL    HW182259   4.744  10.951   4.649
27411SOL    HW282260   4.615  10.968   4.551
27412SOL     OW82261   4.106  10.010   4.204
27412SOL    HW182262   4.151   9.920   4.201
27412SOL    HW282263   4.012   9.999   4.237
27413SOL     OW82264   5.271   9.532   5.453
27413SOL    HW182265   5.266   9.569   5.545
27413SOL    HW282266   5.199   9.463   5.441
27414SOL     OW82267   4.338   9.432   3.841
27414SOL    HW182268   4.436   9.410   3.848
27414SOL    HW282269   4.307   9.415   3.748
27415SOL     OW82270   4.505   9.574   5.473
27415SOL    HW182271   4.572   9.513   5.516
27415SOL    HW282272   4.432   9.593   5.538
27416SOL     OW82273   4.612  10.824   4.919
27416SOL    HW182274   4.589  10.799   4.825
27416SOL    HW282275   4.673  10.755   4.958
27417SOL     OW82276   5.075   9.900   5.157
27417SOL    HW182277   5.103   9.857   5.242
27417SOL    HW282278   5.100   9.996   5.158
27418SOL     OW82279   4.527  10.712   4.648
27418SOL    HW182280   4.617  10.726   4.606
27418SOL    HW282281   4.456  10.714   4.577
27419SOL     OW82282   4.646   9.813   4.623
27419SOL    HW182283   4.621   9.804   4.527
27419SOL    HW282284   4.694   9.731   4.654
27420SOL     OW82285   4.263   9.374   4.236
27420SOL    HW182286   4.182   9.375   4.294
27420SOL    HW282287   4.266   9.457   4.181
27421SOL     OW82288   5.158  10.498   3.765
27421SOL    HW182289   5.190  10.422   3.822
27421SOL    HW282290   5.066  10.525   3.795
27422SOL     OW82291   4.021   9.345   3.895
27422SOL    HW182292   4.070   9.429   3.874
27422SOL    HW282293   4.083   9.280   3.940
27423SOL     OW82294   4.659   9.546   4.204
27423SOL    HW182295   4.611   9.587   4.126
27423SOL    HW282296   4.758   9.544   4.185
27424SOL     OW82297   4.800   9.993   5.188
27424SOL    HW182298   4.720   9.932   5.191
27424SOL    HW282299   4.881   9.940   5.164
27425SOL     OW82300   4.951  10.880   4.517
27425SOL    HW182301   4.972  10.954   4.452
27425SOL    HW282302   5.019  10.880   4.590
27426SOL     OW82303   4.183  10.462   4.465
27426SOL    HW182304   4.112  10.435   4.530
27426SOL    HW282305   4.157  10.434   4.372
27427SOL     OW82306   4.995  11.107   4.315
27427SOL    HW182307   5.039  11.171   4.251
27427SOL    HW282308   4.945  11.159   4.385
27428SOL     OW82309   4.756   9.859   3.740
27428SOL    HW182310   4.715   9.941   3.701
27428SOL    HW282311   4.820   9.885   3.813
27429SOL     OW82312   3.802   9.866   5.110
27429SOL    HW182313   3.894   9.865   5.069
27429SOL    HW282314   3.796   9.940   5.177
27430SOL     OW82315   4.285   9.532   4.871
27430SOL    HW182316   4.323   9.448   4.908
27430SOL    HW282317   4.197   9.551   4.915
27431SOL     OW82318   4.590   9.764   4.366
27431SOL    HW182319   4.558   9.836   4.304
27431SOL    HW282320   4.614   9.683   4.313
27432SOL     OW82321   4.741   9.349   4.477
27432SOL    HW182322   4.669   9.354   4.408
27432SOL    HW282323   4.717   9.280   4.546
27433SOL     OW82324   5.153  10.483   4.591
27433SOL    HW182325   5.098  10.399   4.584
27433SOL    HW282326   5.179  10.512   4.499
27434SOL     OW82327   5.190   9.900   4.716
27434SOL    HW182328   5.160   9.805   4.723
27434SOL    HW282329   5.263   9.916   4.782
27435SOL     OW82330   5.581  10.143   4.101
27435SOL    HW182331   5.623  10.079   4.165
27435SOL    HW282332   5.543  10.092   4.023
27436SOL     OW82333   4.212  10.695   3.898
27436SOL    HW182334   4.125  10.680   3.945
27436SOL    HW282335   4.195  10.721   3.803
27437SOL     OW82336   5.388  10.590   4.381
27437SOL    HW182337   5.487  10.598   4.395
27437SOL    HW282338   5.343  10.674   4.412
27438SOL     OW82339   5.114   9.885   3.802
27438SOL    HW182340   5.060   9.864   3.883
27438SOL    HW282341   5.205   9.844   3.811
27439SOL     OW82342   4.251   9.566   4.052
27439SOL    HW182343   4.278   9.507   3.977
27439SOL    HW282344   4.251   9.661   4.021
27440SOL     OW82345   5.478  10.533   5.312
27440SOL    HW182346   5.569  10.494   5.299
27440SOL    HW282347   5.486  10.629   5.336
27441SOL     OW82348   4.788  10.657   5.064
27441SOL    HW182349   4.708  10.634   5.119
27441SOL    HW282350   4.871  10.631   5.113
27442SOL     OW82351   5.316  10.939   5.349
27442SOL    HW182352   5.343  10.973   5.259
27442SOL    HW282353   5.395  10.901   5.395
27443SOL     OW82354   4.835  10.505   4.824
27443SOL    HW182355   4.795  10.549   4.905
27443SOL    HW282356   4.794  10.542   4.741
27444SOL     OW82357   5.362  10.409   4.803
27444SOL    HW182358   5.367  10.490   4.862
27444SOL    HW282359   5.276  10.411   4.752
27445SOL     OW82360   4.639   9.399   5.126
27445SOL    HW182361   4.664   9.379   5.031
27445SOL    HW282362   4.711   9.455   5.168
27446SOL     OW82363   4.704  10.426   5.443
27446SOL    HW182364   4.605  10.432   5.453
27446SOL    HW282365   4.727  10.346   5.387
27447SOL     OW82366   4.429  10.360   4.092
27447SOL    HW182367   4.415  10.367   4.191
27447SOL    HW282368   4.513  10.309   4.074
27448SOL     OW82369   4.134  10.123   4.975
27448SOL    HW182370   4.220  10.135   5.025
27448SOL    HW282371   4.092  10.036   5.002
27449SOL     OW82372   4.998   9.696   4.986
27449SOL    HW182373   5.019   9.770   5.050
27449SOL    HW282374   4.909   9.713   4.943
27450SOL     OW82375   3.788  10.874   5.055
27450SOL    HW182376   3.742  10.956   5.021
27450SOL    HW282377   3.886  10.893   5.064
27451SOL     OW82378   4.091  10.410   4.225
27451SOL    HW182379   4.084  10.493   4.169
27451SOL    HW282380   4.095  10.330   4.165
27452SOL     OW82381   4.290   9.847   4.589
27452SOL    HW182382   4.302   9.913   4.515
27452SOL    HW282383   4.336   9.881   4.672
27453SOL     OW82384   4.976  10.658   4.112
27453SOL    HW182385   5.026  10.735   4.152
27453SOL    HW282386   4.881  10.660   4.144
27454SOL     OW82387   4.996  10.755   4.866
27454SOL    HW182388   5.043  10.768   4.953
27454SOL    HW282389   4.930  10.681   4.875
27455SOL     OW82390   5.306   9.949   4.196
27455SOL    HW182391   5.275  10.010   4.269
27455SOL    HW282392   5.356  10.001   4.127
27456SOL     OW82393   4.078  10.820   5.053
27456SOL    HW182394   4.057  10.776   4.966
27456SOL    HW282395   4.175  10.846   5.056
27457SOL     OW82396   4.126  10.061   5.322
27457SOL    HW182397   4.194  10.116   5.275
27457SOL    HW282398   4.166   9.973   5.349
27458SOL     OW82399   5.311  10.089   5.394
27458SOL    HW182400   5.219  10.127   5.389
27458SOL    HW282401   5.371  10.136   5.329
27459SOL     OW82402   4.737   9.415   5.494
27459SOL    HW182403   4.743   9.500   5.442
27459SOL    HW282404   4.769   9.339   5.437
27460SOL     OW82405   4.228   9.360   5.464
27460SOL    HW182406   4.186   9.303   5.394
27460SOL    HW282407   4.162   9.429   5.496
27461SOL     OW82408   4.297  10.180   4.753
27461SOL    HW182409   4.341  10.269   4.744
27461SOL    HW282410   4.234  10.180   4.830
27462SOL     OW82411   5.084  10.172   4.769
27462SOL    HW182412   5.009  10.172   4.703
27462SOL    HW282413   5.121  10.080   4.778
27463SOL     OW82414   4.933   9.835   3.999
27463SOL    HW182415   4.946   9.751   4.053
27463SOL    HW282416   4.904   9.909   4.059
27464SOL     OW82417   4.031   9.523   4.955
27464SOL    HW182418   4.008   9.560   5.045
27464SOL    HW282419   4.001   9.428   4.949
27465SOL     OW82420   3.761  10.620   5.006
27465SOL    HW182421   3.814  10.571   5.074
27465SOL    HW282422   3.783  10.718   5.011
27466SOL     OW82423   4.456   9.944   4.788
27466SOL    HW182424   4.515   9.918   4.712
27466SOL    HW282425   4.428  10.040   4.777
27467SOL     OW82426   5.452  10.245   5.578
27467SOL    HW182427   5.406  10.238   5.489
27467SOL    HW282428   5.390  10.289   5.644
27468SOL     OW82429   4.031   9.373   4.342
27468SOL    HW182430   4.020   9.467   4.375
27468SOL    HW282431   4.026   9.310   4.419
27469SOL     OW82432   5.346   9.677   4.098
27469SOL    HW182433   5.348   9.601   4.162
27469SOL    HW282434   5.298   9.754   4.138
27470SOL     OW82435   4.747  10.076   4.690
27470SOL    HW182436   4.762  10.097   4.786
27470SOL    HW282437   4.717   9.981   4.681
27471SOL     OW82438   4.704  10.883   5.424
27471SOL    HW182439   4.684  10.927   5.336
27471SOL    HW282440   4.743  10.792   5.408
27472SOL     OW82441   5.583  10.828   5.329
27472SOL    HW182442   5.597  10.855   5.234
27472SOL    HW282443   5.666  10.850   5.382
27473SOL     OW82444   4.074  10.208   5.528
27473SOL    HW182445   4.150  10.252   5.576
27473SOL    HW282446   4.109  10.161   5.446
27474SOL     OW82447   5.264   9.584   3.849
27474SOL    HW182448   5.203   9.509   3.872
27474SOL    HW282449   5.286   9.636   3.932
27475SOL     OW82450   5.027  10.148   3.766
27475SOL    HW182451   5.061  10.055   3.781
27475SOL    HW282452   5.045  10.175   3.671
27476SOL     OW82453   4.792  10.643   4.573
27476SOL    HW182454   4.799  10.559   4.518
27476SOL    HW282455   4.854  10.712   4.537
27477SOL     OW82456   4.043  10.120   4.673
27477SOL    HW182457   4.136  10.156   4.678
27477SOL    HW282458   4.037  10.035   4.725
27478SOL     OW82459   4.063   9.819   4.730
27478SOL    HW182460   4.011   9.736   4.713
27478SOL    HW282461   4.140   9.824   4.666
27479SOL     OW82462   4.862   9.690   5.402
27479SOL    HW182463   4.817   9.753   5.466
27479SOL    HW282464   4.955   9.721   5.385
27480SOL     OW82465   3.732  10.636   3.924
27480SOL    HW182466   3.639  10.657   3.893
27480SOL    HW282467   3.742  10.537   3.937
27481SOL     OW82468   3.812  11.111   4.651
27481SOL    HW182469   3.770  11.025   4.624
27481SOL    HW282470   3.906  11.114   4.617
27482SOL     OW82471   4.228  10.878   4.634
27482SOL    HW182472   4.294  10.952   4.643
27482SOL    HW282473   4.272  10.799   4.592
27483SOL     OW82474   4.726  10.106   4.962
27483SOL    HW182475   4.767  10.074   5.048
27483SOL    HW282476   4.630  10.079   4.959
27484SOL     OW82477   3.764   9.854   4.838
27484SOL    HW182478   3.849   9.821   4.797
27484SOL    HW282479   3.777   9.869   4.936
27485SOL     OW82480   3.913   9.830   5.446
27485SOL    HW182481   3.972   9.790   5.376
27485SOL    HW282482   3.855   9.901   5.405
27486SOL     OW82483   5.093  10.260   5.384
27486SOL    HW182484   5.132  10.349   5.404
27486SOL    HW282485   5.103  10.240   5.287
27487SOL     OW82486   4.539   9.882   4.049
27487SOL    HW182487   4.546   9.793   4.003
27487SOL    HW282488   4.445   9.916   4.041
27488SOL     OW82489   5.381   9.914   4.930
27488SOL    HW182490   5.343   9.845   4.992
27488SOL    HW282491   5.463   9.878   4.886
27489SOL     OW82492   3.976  10.874   5.468
27489SOL    HW182493   3.946  10.931   5.544
27489SOL    HW282494   3.969  10.777   5.494
27490SOL     OW82495   4.395   9.774   4.993
27490SOL    HW182496   4.361   9.685   4.963
27490SOL    HW282497   4.421   9.828   4.913
27491SOL     OW82498   4.654  10.988   5.189
27491SOL    HW182499   4.630  10.970   5.094
27491SOL    HW282500   4.684  11.082   5.199
27492SOL     OW82501   4.197   9.810   3.915
27492SOL    HW182502   4.258   9.890   3.919
27492SOL    HW282503   4.102   9.841   3.922
27493SOL     OW82504   3.883  10.447   5.190
27493SOL    HW182505   3.905  10.386   5.266
27493SOL    HW282506   3.893  10.398   5.104
27494SOL     OW82507   5.071  10.369   4.958
27494SOL    HW182508   5.095  10.306   4.884
27494SOL    HW282509   4.981  10.409   4.940
27495SOL     OW82510   5.026  10.165   4.033
27495SOL    HW182511   4.940  10.134   4.075
27495SOL    HW282512   5.022  10.151   3.934
27496SOL     OW82513   5.483  11.057   4.878
27496SOL    HW182514   5.544  11.087   4.805
27496SOL    HW282515   5.445  10.968   4.856
27497SOL     OW82516   4.976  11.041   4.852
27497SOL    HW182517   5.060  11.046   4.798
27497SOL    HW282518   4.953  10.945   4.870
27498SOL     OW82519   3.807  10.568   4.746
27498SOL    HW182520   3.802  10.567   4.846
27498SOL    HW282521   3.724  10.527   4.708
27499SOL     OW82522   4.412  10.972   5.440
27499SOL    HW182523   4.356  11.053   5.449
27499SOL    HW282524   4.464  10.976   5.354
27500SOL     OW82525   5.450   9.445   4.247
27500SOL    HW182526   5.523   9.428   4.180
27500SOL    HW282527   5.419   9.358   4.285
27501SOL     OW82528   5.112  10.883   4.201
27501SOL    HW182529   5.179  10.895   4.127
27501SOL    HW282530   5.072  10.972   4.224
27502SOL     OW82531   3.854  11.104   5.575
27502SOL    HW182532   3.813  11.030   5.628
27502SOL    HW282533   3.918  11.155   5.633
27503SOL     OW82534   5.004  10.237   4.396
27503SOL    HW182535   5.064  10.156   4.398
27503SOL    HW282536   5.044  10.306   4.336
27504SOL     OW82537   4.554  10.583   5.146
27504SOL    HW182538   4.549  10.616   5.241
27504SOL    HW282539   4.468  10.602   5.100
27505SOL     OW82540   4.396  10.926   3.878
27505SOL    HW182541   4.405  10.936   3.779
27505SOL    HW282542   4.356  10.837   3.899
27506SOL     OW82543   5.374  11.030   5.118
27506SOL    HW182544   5.427  11.040   5.034
27506SOL    HW282545   5.347  11.120   5.152
27507SOL     OW82546   5.565   9.485   4.687
27507SOL    HW182547   5.604   9.400   4.651
27507SOL    HW282548   5.467   9.487   4.668
27508SOL     OW82549   3.987   9.636   4.444
27508SOL    HW182550   3.908   9.687   4.410
27508SOL    HW282551   3.978   9.621   4.542
27509SOL     OW82552   4.918  10.922   3.755
27509SOL    HW182553   4.924  10.829   3.792
27509SOL    HW282554   4.859  10.922   3.675
27510SOL     OW82555   4.546  10.312   5.096
27510SOL    HW182556   4.586  10.311   5.004
27510SOL    HW282557   4.556  10.404   5.136
27511SOL     OW82558   4.640  10.220   4.015
27511SOL    HW182559   4.703  10.258   3.947
27511SOL    HW282560   4.680  10.137   4.054
27512SOL     OW82561   5.228  10.917   3.768
27512SOL    HW182562   5.136  10.954   3.775
27512SOL    HW282563   5.266  10.937   3.678
27513SOL     OW82564   4.096  10.598   5.214
27513SOL    HW182565   4.083  10.691   5.180
27513SOL    HW282566   4.012  10.546   5.201
27514SOL     OW82567   5.338  10.602   5.013
27514SOL    HW182568   5.398  10.605   5.093
27514SOL    HW282569   5.263  10.666   5.026
27515SOL     OW82570   4.763  10.408   4.420
27515SOL    HW182571   4.693  10.361   4.474
27515SOL    HW282572   4.822  10.340   4.377
27516SOL     OW82573   4.738   9.546   4.695
27516SOL    HW182574   4.730   9.510   4.602
27516SOL    HW282575   4.736   9.470   4.760
27517SOL     OW82576   4.314  10.797   4.215
27517SOL    HW182577   4.356  10.739   4.145
27517SOL    HW282578   4.270  10.876   4.171
27518SOL     OW82579   5.433   9.695   5.105
27518SOL    HW182580   5.506   9.764   5.109
27518SOL    HW282581   5.461   9.620   5.046
27519SOL     OW82582   3.979  10.658   4.014
27519SOL    HW182583   3.883  10.659   3.987
27519SOL    HW282584   3.991  10.711   4.098
27520SOL     OW82585   3.829  10.323   5.450
27520SOL    HW182586   3.752  10.290   5.504
27520SOL    HW282587   3.914  10.293   5.492
27521SOL     OW82588   4.396   9.513   5.213
27521SOL    HW182589   4.486   9.497   5.173
27521SOL    HW282590   4.404   9.518   5.312
27522SOL     OW82591   3.799   9.655   3.757
27522SOL    HW182592   3.707   9.627   3.728
27522SOL    HW282593   3.830   9.732   3.701
27523SOL     OW82594   5.164  10.166   5.122
27523SOL    HW182595   5.107  10.218   5.059
27523SOL    HW282596   5.260  10.178   5.098
27524SOL     OW82597   3.796   9.476   4.042
27524SOL    HW182598   3.779   9.559   3.988
27524SOL    HW282599   3.886   9.439   4.020
27525SOL     OW82600   4.907  10.645   3.843
27525SOL    HW182601   4.808  10.634   3.845
27525SOL    HW282602   4.941  10.660   3.936
27526SOL     OW82603   4.337  10.152   5.155
27526SOL    HW182604   4.393  10.233   5.138
27526SOL    HW282605   4.396  10.072   5.158
27527SOL     OW82606   5.217  11.077   4.683
27527SOL    HW182607   5.250  11.141   4.614
27527SOL    HW282608   5.283  11.071   4.758
27528SOL     OW82609   4.440   9.875   5.432
27528SOL    HW182610   4.459   9.940   5.506
27528SOL    HW282611   4.500   9.795   5.441
27529SOL     OW82612   5.174  10.530   5.357
27529SOL    HW182613   5.165  10.520   5.456
27529SOL    HW282614   5.270  10.523   5.331
27530SOL     OW82615   4.114  11.051   5.284
27530SOL    HW182616   4.023  11.092   5.282
27530SOL    HW282617   4.107  10.957   5.316
27531SOL     OW82618   5.398  10.193   4.978
27531SOL    HW182619   5.371  10.104   4.941
27531SOL    HW282620   5.399  10.261   4.905
27532SOL     OW82621   4.949   9.635   4.173
27532SOL    HW182622   5.014   9.561   4.162
27532SOL    HW282623   4.969   9.685   4.257
27533SOL     OW82624   4.318  10.055   4.376
27533SOL    HW182625   4.368  10.140   4.357
27533SOL    HW282626   4.230  10.057   4.328
27534SOL     OW82627   5.501   9.652   5.366
27534SOL    HW182628   5.484   9.683   5.272
27534SOL    HW282629   5.417   9.615   5.404
27535SOL     OW82630   5.454  10.244   5.241
27535SOL    HW182631   5.492  10.335   5.256
27535SOL    HW282632   5.446  10.227   5.142
27536SOL     OW82633   4.583  10.684   3.740
27536SOL    HW182634   4.537  10.699   3.828
27536SOL    HW282635   4.627  10.769   3.710
27537SOL     OW82636   4.385  11.100   4.677
27537SOL    HW182637   4.339  11.188   4.664
27537SOL    HW282638   4.484  11.112   4.670
27538SOL     OW82639   4.583  10.266   4.585
27538SOL    HW182640   4.637  10.197   4.633
27538SOL    HW282641   4.551  10.335   4.651
27539SOL     OW82642   4.807  10.294   3.811
27539SOL    HW182643   4.784  10.347   3.729
27539SOL    HW282644   4.888  10.238   3.792
27540SOL     OW82645   5.585  10.879   4.575
27540SOL    HW182646   5.514  10.867   4.505
27540SOL    HW282647   5.586  10.800   4.635
27541SOL     OW82648   3.945  10.624   5.568
27541SOL    HW182649   3.880  10.551   5.547
27541SOL    HW282650   3.949  10.638   5.666
27542SOL     OW82651   3.803  10.550   4.377
27542SOL    HW182652   3.802  10.503   4.465
27542SOL    HW282653   3.885  10.522   4.326
27543SOL     OW82654   4.396  10.701   5.348
27543SOL    HW182655   4.318  10.651   5.386
27543SOL    HW282656   4.393  10.796   5.379
27544SOL     OW82657   5.548   9.502   4.951
27544SOL    HW182658   5.544   9.412   4.995
27544SOL    HW282659   5.551   9.491   4.852
27545SOL     OW82660   4.152   9.734   4.244
27545SOL    HW182661   4.182   9.662   4.182
27545SOL    HW282662   4.113   9.694   4.327
27546SOL     OW82663   5.429  10.797   4.828
27546SOL    HW182664   5.336  10.772   4.801
27546SOL    HW282665   5.455  10.747   4.910
27547SOL     OW82666   4.041   9.857   5.004
27547SOL    HW182667   4.079   9.798   5.076
27547SOL    HW282668   4.081   9.831   4.916
27548SOL     OW82669   4.536  10.896   4.411
27548SOL    HW182670   4.568  10.906   4.317
27548SOL    HW282671   4.457  10.834   4.413
27549SOL     OW82672   5.148   9.524   4.836
27549SOL    HW182673   5.200   9.459   4.891
27549SOL    HW282674   5.099   9.587   4.897
27550SOL     OW82675   4.725   9.344   4.878
27550SOL    HW182676   4.662   9.272   4.847
27550SOL    HW282677   4.818   9.308   4.878
27551SOL     OW82678   4.494  10.640   4.025
27551SOL    HW182679   4.448  10.553   4.042
27551SOL    HW282680   4.585  10.637   4.066
27552SOL     OW82681   4.342  10.877   5.008
27552SOL    HW182682   4.337  10.959   5.065
27552SOL    HW282683   4.431  10.874   4.963
27553SOL     OW82684   5.024   9.763   4.415
27553SOL    HW182685   4.965   9.843   4.419
27553SOL    HW282686   5.039   9.728   4.508
27554SOL     OW82687   5.317   9.531   4.606
27554SOL    HW182688   5.233   9.530   4.660
27554SOL    HW282689   5.319   9.614   4.550
27555SOL     OW82690   3.763  10.387   4.024
27555SOL    HW182691   3.862  10.376   4.015
27555SOL    HW282692   3.723  10.301   4.056
27556SOL     OW82693   4.599  10.956   4.061
27556SOL    HW182694   4.522  10.921   4.007
27556SOL    HW282695   4.567  11.027   4.123
27557SOL     OW82696   3.954   9.938   5.699
27557SOL    HW182697   3.861   9.936   5.736
27557SOL    HW282698   3.955   9.899   5.607
27558SOL     OW82699   3.949   9.585   6.582
27558SOL    HW182700   3.984   9.568   6.674
27558SOL    HW282701   3.861   9.540   6.570
27559SOL     OW82702   3.743   9.678   6.233
27559SOL    HW182703   3.661   9.721   6.272
27559SOL    HW282704   3.715   9.605   6.170
27560SOL     OW82705   4.293  10.585   6.751
27560SOL    HW182706   4.200  10.578   6.714
27560SOL    HW282707   4.304  10.674   6.795
27561SOL     OW82708   5.279  10.821   6.289
27561SOL    HW182709   5.222  10.805   6.370
27561SOL    HW282710   5.220  10.831   6.209
27562SOL     OW82711   4.859  10.013   6.303
27562SOL    HW182712   4.916  10.091   6.278
27562SOL    HW282713   4.799  10.039   6.379
27563SOL     OW82714   5.479   9.917   5.817
27563SOL    HW182715   5.467   9.904   5.718
27563SOL    HW282716   5.449   9.836   5.866
27564SOL     OW82717   4.492  10.454   6.609
27564SOL    HW182718   4.414  10.471   6.669
27564SOL    HW282719   4.526  10.541   6.573
27565SOL     OW82720   4.574  10.108   7.409
27565SOL    HW182721   4.570  10.184   7.474
27565SOL    HW282722   4.596  10.144   7.318
27566SOL     OW82723   4.409  10.322   6.251
27566SOL    HW182724   4.478  10.306   6.321
27566SOL    HW282725   4.336  10.379   6.289
27567SOL     OW82726   4.410  10.471   7.389
27567SOL    HW182727   4.470  10.550   7.403
27567SOL    HW282728   4.324  10.502   7.348
27568SOL     OW82729   4.059  10.745   6.647
27568SOL    HW182730   3.981  10.714   6.594
27568SOL    HW282731   4.117  10.803   6.590
27569SOL     OW82732   5.184  10.815   6.925
27569SOL    HW182733   5.208  10.909   6.951
27569SOL    HW282734   5.168  10.761   7.007
27570SOL     OW82735   4.162   9.702   7.085
27570SOL    HW182736   4.244   9.646   7.094
27570SOL    HW282737   4.081   9.644   7.089
27571SOL     OW82738   5.327   9.757   6.323
27571SOL    HW182739   5.253   9.803   6.273
27571SOL    HW282740   5.378   9.825   6.376
27572SOL     OW82741   3.955  11.023   6.069
27572SOL    HW182742   3.989  11.100   6.123
27572SOL    HW282743   3.999  11.023   5.979
27573SOL     OW82744   4.851  10.651   7.276
27573SOL    HW182745   4.898  10.651   7.364
27573SOL    HW282746   4.803  10.564   7.265
27574SOL     OW82747   3.954  10.744   6.124
27574SOL    HW182748   3.928  10.840   6.124
27574SOL    HW282749   3.883  10.690   6.169
27575SOL     OW82750   3.964  10.401   6.472
27575SOL    HW182751   3.978  10.317   6.524
27575SOL    HW282752   3.909  10.465   6.527
27576SOL     OW82753   4.344  11.096   7.025
27576SOL    HW182754   4.252  11.079   7.060
27576SOL    HW282755   4.372  11.188   7.051
27577SOL     OW82756   4.330  10.274   5.709
27577SOL    HW182757   4.337  10.358   5.655
27577SOL    HW282758   4.376  10.287   5.797
27578SOL     OW82759   5.318   9.424   7.066
27578SOL    HW182760   5.300   9.491   6.994
27578SOL    HW282761   5.315   9.470   7.155
27579SOL     OW82762   3.846   9.953   6.149
27579SOL    HW182763   3.801   9.865   6.166
27579SOL    HW282764   3.845  10.007   6.233
27580SOL     OW82765   5.566  11.077   5.945
27580SOL    HW182766   5.620  11.048   6.025
27580SOL    HW282767   5.596  11.167   5.916
27581SOL     OW82768   3.751  10.906   5.703
27581SOL    HW182769   3.732  10.810   5.724
27581SOL    HW282770   3.718  10.964   5.778
27582SOL     OW82771   5.413  10.232   6.198
27582SOL    HW182772   5.508  10.203   6.206
27582SOL    HW282773   5.405  10.297   6.123
27583SOL     OW82774   5.365  10.418   6.018
27583SOL    HW182775   5.451  10.420   5.966
27583SOL    HW282776   5.379  10.465   6.106
27584SOL     OW82777   3.837  10.047   7.183
27584SOL    HW182778   3.925  10.034   7.228
27584SOL    HW282779   3.824  10.144   7.161
27585SOL     OW82780   4.337  10.675   6.312
27585SOL    HW182781   4.288  10.588   6.321
27585SOL    HW282782   4.314  10.718   6.225
27586SOL     OW82783   5.017  10.538   7.009
27586SOL    HW182784   5.054  10.465   6.951
27586SOL    HW282785   5.069  10.543   7.094
27587SOL     OW82786   4.533   9.314   6.088
27587SOL    HW182787   4.573   9.405   6.079
27587SOL    HW282788   4.433   9.322   6.094
27588SOL     OW82789   3.921  10.286   6.850
27588SOL    HW182790   4.010  10.241   6.836
27588SOL    HW282791   3.848  10.221   6.831
27589SOL     OW82792   5.249  10.309   5.776
27589SOL    HW182793   5.186  10.233   5.789
27589SOL    HW282794   5.297  10.327   5.862
27590SOL     OW82795   4.911  11.102   7.202
27590SOL    HW182796   4.935  11.162   7.126
27590SOL    HW282797   4.918  11.007   7.172
27591SOL     OW82798   4.041   9.561   7.387
27591SOL    HW182799   4.112   9.632   7.393
27591SOL    HW282800   3.953   9.600   7.415
27592SOL     OW82801   5.190  10.727   6.539
27592SOL    HW182802   5.131  10.733   6.619
27592SOL    HW282803   5.175  10.639   6.493
27593SOL     OW82804   5.391  11.024   6.158
27593SOL    HW182805   5.350  11.001   6.070
27593SOL    HW282806   5.373  10.950   6.223
27594SOL     OW82807   4.322  10.039   5.856
27594SOL    HW182808   4.346  10.108   5.788
27594SOL    HW282809   4.244  10.072   5.910
27595SOL     OW82810   5.005   9.655   6.530
27595SOL    HW182811   4.919   9.605   6.517
27595SOL    HW282812   5.067   9.601   6.586
27596SOL     OW82813   5.300  10.972   5.893
27596SOL    HW182814   5.389  11.018   5.896
27596SOL    HW282815   5.279  10.948   5.798
27597SOL     OW82816   4.531   9.915   7.051
27597SOL    HW182817   4.484   9.912   7.140
27597SOL    HW282818   4.480   9.860   6.985
27598SOL     OW82819   5.118   9.779   7.260
27598SOL    HW182820   5.098   9.822   7.348
27598SOL    HW282821   5.196   9.717   7.269
27599SOL     OW82822   4.697  10.200   7.158
27599SOL    HW182823   4.743  10.116   7.129
27599SOL    HW282824   4.641  10.234   7.083
27600SOL     OW82825   4.715   9.720   6.828
27600SOL    HW182826   4.638   9.754   6.882
27600SOL    HW282827   4.681   9.669   6.749
27601SOL     OW82828   4.765  10.011   6.015
27601SOL    HW182829   4.791  10.007   6.111
27601SOL    HW282830   4.680   9.960   6.001
27602SOL     OW82831   3.854  11.131   7.157
27602SOL    HW182832   3.844  11.116   7.256
27602SOL    HW282833   3.768  11.167   7.121
27603SOL     OW82834   4.589   9.658   5.781
27603SOL    HW182835   4.648   9.721   5.732
27603SOL    HW282836   4.608   9.564   5.752
27604SOL     OW82837   5.443   9.895   7.417
27604SOL    HW182838   5.417   9.984   7.381
27604SOL    HW282839   5.441   9.827   7.344
27605SOL     OW82840   5.086  10.454   6.131
27605SOL    HW182841   5.169  10.425   6.083
27605SOL    HW282842   5.037  10.521   6.075
27606SOL     OW82843   4.274   9.506   6.471
27606SOL    HW182844   4.269   9.501   6.571
27606SOL    HW282845   4.276   9.602   6.442
27607SOL     OW82846   4.732  10.766   6.063
27607SOL    HW182847   4.686  10.838   6.011
27607SOL    HW282848   4.728  10.786   6.161
27608SOL     OW82849   4.075  11.111   6.439
27608SOL    HW182850   4.125  11.025   6.445
27608SOL    HW282851   4.140  11.188   6.436
27609SOL     OW82852   5.519  10.376   6.459
27609SOL    HW182853   5.457  10.361   6.383
27609SOL    HW282854   5.467  10.387   6.544
27610SOL     OW82855   4.951  10.860   7.092
27610SOL    HW182856   4.957  10.783   7.156
27610SOL    HW282857   4.899  10.834   7.012
27611SOL     OW82858   4.045  10.253   5.828
27611SOL    HW182859   4.127  10.292   5.786
27611SOL    HW282860   4.018  10.171   5.779
27612SOL     OW82861   5.182  10.045   6.314
27612SOL    HW182862   5.177   9.980   6.389
27612SOL    HW282863   5.262  10.104   6.327
27613SOL     OW82864   4.185  10.576   7.313
27613SOL    HW182865   4.135  10.577   7.227
27613SOL    HW282866   4.122  10.558   7.389
27614SOL     OW82867   4.835  11.086   5.823
27614SOL    HW182868   4.775  11.024   5.873
27614SOL    HW282869   4.866  11.042   5.738
27615SOL     OW82870   3.926   9.595   7.084
27615SOL    HW182871   3.846   9.655   7.071
27615SOL    HW282872   3.916   9.546   7.170
27616SOL     OW82873   5.356  10.687   5.667
27616SOL    HW182874   5.324  10.781   5.657
27616SOL    HW282875   5.280  10.624   5.655
27617SOL     OW82876   4.188  11.053   5.909
27617SOL    HW182877   4.221  11.092   5.995
27617SOL    HW282878   4.264  11.046   5.844
27618SOL     OW82879   5.124   9.417   6.012
27618SOL    HW182880   5.100   9.380   5.922
27618SOL    HW282881   5.223   9.433   6.016
27619SOL     OW82882   3.973  11.095   6.827
27619SOL    HW182883   4.030  11.030   6.877
27619SOL    HW282884   3.957  11.062   6.734
27620SOL     OW82885   4.664  11.008   6.490
27620SOL    HW182886   4.744  10.951   6.511
27620SOL    HW282887   4.615  10.968   6.413
27621SOL     OW82888   4.106  10.010   6.066
27621SOL    HW182889   4.151   9.920   6.063
27621SOL    HW282890   4.012   9.999   6.099
27622SOL     OW82891   5.271   9.532   7.315
27622SOL    HW182892   5.266   9.569   7.407
27622SOL    HW282893   5.199   9.463   7.303
27623SOL     OW82894   4.338   9.432   5.703
27623SOL    HW182895   4.436   9.410   5.710
27623SOL    HW282896   4.307   9.415   5.610
27624SOL     OW82897   4.505   9.574   7.335
27624SOL    HW182898   4.572   9.513   7.378
27624SOL    HW282899   4.432   9.593   7.400
27625SOL     OW82900   4.612  10.824   6.781
27625SOL    HW182901   4.589  10.799   6.687
27625SOL    HW282902   4.673  10.755   6.820
27626SOL     OW82903   5.075   9.900   7.019
27626SOL    HW182904   5.103   9.857   7.104
27626SOL    HW282905   5.100   9.996   7.020
27627SOL     OW82906   4.527  10.712   6.510
27627SOL    HW182907   4.617  10.726   6.468
27627SOL    HW282908   4.456  10.714   6.439
27628SOL     OW82909   4.646   9.813   6.485
27628SOL    HW182910   4.621   9.804   6.389
27628SOL    HW282911   4.694   9.731   6.516
27629SOL     OW82912   4.263   9.374   6.098
27629SOL    HW182913   4.182   9.375   6.156
27629SOL    HW282914   4.266   9.457   6.043
27630SOL     OW82915   5.158  10.498   5.627
27630SOL    HW182916   5.190  10.422   5.684
27630SOL    HW282917   5.066  10.525   5.657
27631SOL     OW82918   4.021   9.345   5.757
27631SOL    HW182919   4.070   9.429   5.736
27631SOL    HW282920   4.083   9.280   5.802
27632SOL     OW82921   4.659   9.546   6.066
27632SOL    HW182922   4.611   9.587   5.988
27632SOL    HW282923   4.758   9.544   6.047
27633SOL     OW82924   4.800   9.993   7.050
27633SOL    HW182925   4.720   9.932   7.053
27633SOL    HW282926   4.881   9.940   7.026
27634SOL     OW82927   4.951  10.880   6.379
27634SOL    HW182928   4.972  10.954   6.314
27634SOL    HW282929   5.019  10.880   6.452
27635SOL     OW82930   4.183  10.462   6.327
27635SOL    HW182931   4.112  10.435   6.392
27635SOL    HW282932   4.157  10.434   6.234
27636SOL     OW82933   4.995  11.107   6.177
27636SOL    HW182934   5.039  11.171   6.113
27636SOL    HW282935   4.945  11.159   6.247
27637SOL     OW82936   4.756   9.859   5.602
27637SOL    HW182937   4.715   9.941   5.563
27637SOL    HW282938   4.820   9.885   5.675
27638SOL     OW82939   3.802   9.866   6.972
27638SOL    HW182940   3.894   9.865   6.931
27638SOL    HW282941   3.796   9.940   7.039
27639SOL     OW82942   4.285   9.532   6.733
27639SOL    HW182943   4.323   9.448   6.770
27639SOL    HW282944   4.197   9.551   6.777
27640SOL     OW82945   4.590   9.764   6.228
27640SOL    HW182946   4.558   9.836   6.166
27640SOL    HW282947   4.614   9.683   6.175
27641SOL     OW82948   4.741   9.349   6.339
27641SOL    HW182949   4.669   9.354   6.270
27641SOL    HW282950   4.717   9.280   6.408
27642SOL     OW82951   5.153  10.483   6.453
27642SOL    HW182952   5.098  10.399   6.446
27642SOL    HW282953   5.179  10.512   6.361
27643SOL     OW82954   5.190   9.900   6.578
27643SOL    HW182955   5.160   9.805   6.585
27643SOL    HW282956   5.263   9.916   6.644
27644SOL     OW82957   5.581  10.143   5.963
27644SOL    HW182958   5.623  10.079   6.027
27644SOL    HW282959   5.543  10.092   5.885
27645SOL     OW82960   4.212  10.695   5.760
27645SOL    HW182961   4.125  10.680   5.807
27645SOL    HW282962   4.195  10.721   5.665
27646SOL     OW82963   5.388  10.590   6.243
27646SOL    HW182964   5.487  10.598   6.257
27646SOL    HW282965   5.343  10.674   6.274
27647SOL     OW82966   5.114   9.885   5.664
27647SOL    HW182967   5.060   9.864   5.745
27647SOL    HW282968   5.205   9.844   5.673
27648SOL     OW82969   4.251   9.566   5.914
27648SOL    HW182970   4.278   9.507   5.839
27648SOL    HW282971   4.251   9.661   5.883
27649SOL     OW82972   5.478  10.533   7.174
27649SOL    HW182973   5.569  10.494   7.161
27649SOL    HW282974   5.486  10.629   7.198
27650SOL     OW82975   4.788  10.657   6.926
27650SOL    HW182976   4.708  10.634   6.981
27650SOL    HW282977   4.871  10.631   6.975
27651SOL     OW82978   5.316  10.939   7.211
27651SOL    HW182979   5.343  10.973   7.121
27651SOL    HW282980   5.395  10.901   7.257
27652SOL     OW82981   4.835  10.505   6.686
27652SOL    HW182982   4.795  10.549   6.767
27652SOL    HW282983   4.794  10.542   6.603
27653SOL     OW82984   5.362  10.409   6.665
27653SOL    HW182985   5.367  10.490   6.724
27653SOL    HW282986   5.276  10.411   6.614
27654SOL     OW82987   4.639   9.399   6.988
27654SOL    HW182988   4.664   9.379   6.893
27654SOL    HW282989   4.711   9.455   7.030
27655SOL     OW82990   4.704  10.426   7.305
27655SOL    HW182991   4.605  10.432   7.315
27655SOL    HW282992   4.727  10.346   7.249
27656SOL     OW82993   4.429  10.360   5.954
27656SOL    HW182994   4.415  10.367   6.053
27656SOL    HW282995   4.513  10.309   5.936
27657SOL     OW82996   4.134  10.123   6.837
27657SOL    HW182997   4.220  10.135   6.887
27657SOL    HW282998   4.092  10.036   6.864
27658SOL     OW82999   4.998   9.696   6.848
27658SOL    HW183000   5.019   9.770   6.912
27658SOL    HW283001   4.909   9.713   6.805
27659SOL     OW83002   3.788  10.874   6.917
27659SOL    HW183003   3.742  10.956   6.883
27659SOL    HW283004   3.886  10.893   6.926
27660SOL     OW83005   4.091  10.410   6.087
27660SOL    HW183006   4.084  10.493   6.031
27660SOL    HW283007   4.095  10.330   6.027
27661SOL     OW83008   4.290   9.847   6.451
27661SOL    HW183009   4.302   9.913   6.377
27661SOL    HW283010   4.336   9.881   6.534
27662SOL     OW83011   4.976  10.658   5.974
27662SOL    HW183012   5.026  10.735   6.014
27662SOL    HW283013   4.881  10.660   6.006
27663SOL     OW83014   4.996  10.755   6.728
27663SOL    HW183015   5.043  10.768   6.815
27663SOL    HW283016   4.930  10.681   6.737
27664SOL     OW83017   5.306   9.949   6.058
27664SOL    HW183018   5.275  10.010   6.131
27664SOL    HW283019   5.356  10.001   5.989
27665SOL     OW83020   4.078  10.820   6.915
27665SOL    HW183021   4.057  10.776   6.828
27665SOL    HW283022   4.175  10.846   6.918
27666SOL     OW83023   4.126  10.061   7.184
27666SOL    HW183024   4.194  10.116   7.137
27666SOL    HW283025   4.166   9.973   7.211
27667SOL     OW83026   5.311  10.089   7.256
27667SOL    HW183027   5.219  10.127   7.251
27667SOL    HW283028   5.371  10.136   7.191
27668SOL     OW83029   4.737   9.415   7.356
27668SOL    HW183030   4.743   9.500   7.304
27668SOL    HW283031   4.769   9.339   7.299
27669SOL     OW83032   4.228   9.360   7.326
27669SOL    HW183033   4.186   9.303   7.256
27669SOL    HW283034   4.162   9.429   7.358
27670SOL     OW83035   4.297  10.180   6.615
27670SOL    HW183036   4.341  10.269   6.606
27670SOL    HW283037   4.234  10.180   6.692
27671SOL     OW83038   5.084  10.172   6.631
27671SOL    HW183039   5.009  10.172   6.565
27671SOL    HW283040   5.121  10.080   6.640
27672SOL     OW83041   4.933   9.835   5.861
27672SOL    HW183042   4.946   9.751   5.915
27672SOL    HW283043   4.904   9.909   5.921
27673SOL     OW83044   4.031   9.523   6.817
27673SOL    HW183045   4.008   9.560   6.907
27673SOL    HW283046   4.001   9.428   6.811
27674SOL     OW83047   3.761  10.620   6.868
27674SOL    HW183048   3.814  10.571   6.936
27674SOL    HW283049   3.783  10.718   6.873
27675SOL     OW83050   4.456   9.944   6.650
27675SOL    HW183051   4.515   9.918   6.574
27675SOL    HW283052   4.428  10.040   6.639
27676SOL     OW83053   5.452  10.245   7.440
27676SOL    HW183054   5.406  10.238   7.351
27676SOL    HW283055   5.390  10.289   7.506
27677SOL     OW83056   4.031   9.373   6.204
27677SOL    HW183057   4.020   9.467   6.237
27677SOL    HW283058   4.026   9.310   6.281
27678SOL     OW83059   5.346   9.677   5.960
27678SOL    HW183060   5.348   9.601   6.024
27678SOL    HW283061   5.298   9.754   6.000
27679SOL     OW83062   4.747  10.076   6.552
27679SOL    HW183063   4.762  10.097   6.648
27679SOL    HW283064   4.717   9.981   6.543
27680SOL     OW83065   4.704  10.883   7.286
27680SOL    HW183066   4.684  10.927   7.198
27680SOL    HW283067   4.743  10.792   7.270
27681SOL     OW83068   5.583  10.828   7.191
27681SOL    HW183069   5.597  10.855   7.096
27681SOL    HW283070   5.666  10.850   7.244
27682SOL     OW83071   4.074  10.208   7.390
27682SOL    HW183072   4.150  10.252   7.438
27682SOL    HW283073   4.109  10.161   7.308
27683SOL     OW83074   5.264   9.584   5.711
27683SOL    HW183075   5.203   9.509   5.734
27683SOL    HW283076   5.286   9.636   5.794
27684SOL     OW83077   5.027  10.148   5.628
27684SOL    HW183078   5.061  10.055   5.643
27684SOL    HW283079   5.045  10.175   5.533
27685SOL     OW83080   4.792  10.643   6.435
27685SOL    HW183081   4.799  10.559   6.380
27685SOL    HW283082   4.854  10.712   6.399
27686SOL     OW83083   4.043  10.120   6.535
27686SOL    HW183084   4.136  10.156   6.540
27686SOL    HW283085   4.037  10.035   6.587
27687SOL     OW83086   4.063   9.819   6.592
27687SOL    HW183087   4.011   9.736   6.575
27687SOL    HW283088   4.140   9.824   6.528
27688SOL     OW83089   4.862   9.690   7.264
27688SOL    HW183090   4.817   9.753   7.328
27688SOL    HW283091   4.955   9.721   7.247
27689SOL     OW83092   4.884   9.517   7.063
27689SOL    HW183093   4.884   9.581   7.140
27689SOL    HW283094   4.912   9.565   6.980
27690SOL     OW83095   3.732  10.636   5.786
27690SOL    HW183096   3.639  10.657   5.755
27690SOL    HW283097   3.742  10.537   5.799
27691SOL     OW83098   3.812  11.111   6.513
27691SOL    HW183099   3.770  11.025   6.486
27691SOL    HW283100   3.906  11.114   6.479
27692SOL     OW83101   4.228  10.878   6.496
27692SOL    HW183102   4.294  10.952   6.505
27692SOL    HW283103   4.272  10.799   6.454
27693SOL     OW83104   4.726  10.106   6.824
27693SOL    HW183105   4.767  10.074   6.910
27693SOL    HW283106   4.630  10.079   6.821
27694SOL     OW83107   3.764   9.854   6.700
27694SOL    HW183108   3.849   9.821   6.659
27694SOL    HW283109   3.777   9.869   6.798
27695SOL     OW83110   3.913   9.830   7.308
27695SOL    HW183111   3.972   9.790   7.238
27695SOL    HW283112   3.855   9.901   7.267
27696SOL     OW83113   5.093  10.260   7.246
27696SOL    HW183114   5.132  10.349   7.266
27696SOL    HW283115   5.103  10.240   7.149
27697SOL     OW83116   4.539   9.882   5.911
27697SOL    HW183117   4.546   9.793   5.865
27697SOL    HW283118   4.445   9.916   5.903
27698SOL     OW83119   5.381   9.914   6.792
27698SOL    HW183120   5.343   9.845   6.854
27698SOL    HW283121   5.463   9.878   6.748
27699SOL     OW83122   3.976  10.874   7.330
27699SOL    HW183123   3.946  10.931   7.406
27699SOL    HW283124   3.969  10.777   7.356
27700SOL     OW83125   4.395   9.774   6.855
27700SOL    HW183126   4.361   9.685   6.825
27700SOL    HW283127   4.421   9.828   6.775
27701SOL     OW83128   4.654  10.988   7.051
27701SOL    HW183129   4.630  10.970   6.956
27701SOL    HW283130   4.684  11.082   7.061
27702SOL     OW83131   4.197   9.810   5.777
27702SOL    HW183132   4.258   9.890   5.781
27702SOL    HW283133   4.102   9.841   5.784
27703SOL     OW83134   3.883  10.447   7.052
27703SOL    HW183135   3.905  10.386   7.128
27703SOL    HW283136   3.893  10.398   6.966
27704SOL     OW83137   5.071  10.369   6.820
27704SOL    HW183138   5.095  10.306   6.746
27704SOL    HW283139   4.981  10.409   6.802
27705SOL     OW83140   5.026  10.165   5.895
27705SOL    HW183141   4.940  10.134   5.937
27705SOL    HW283142   5.022  10.151   5.796
27706SOL     OW83143   4.976  11.041   6.714
27706SOL    HW183144   5.060  11.046   6.660
27706SOL    HW283145   4.953  10.945   6.732
27707SOL     OW83146   3.807  10.568   6.608
27707SOL    HW183147   3.802  10.567   6.708
27707SOL    HW283148   3.724  10.527   6.570
27708SOL     OW83149   4.412  10.972   7.302
27708SOL    HW183150   4.356  11.053   7.311
27708SOL    HW283151   4.464  10.976   7.216
27709SOL     OW83152   5.450   9.445   6.109
27709SOL    HW183153   5.523   9.428   6.042
27709SOL    HW283154   5.419   9.358   6.147
27710SOL     OW83155   5.112  10.883   6.063
27710SOL    HW183156   5.179  10.895   5.989
27710SOL    HW283157   5.072  10.972   6.086
27711SOL     OW83158   3.854  11.104   7.437
27711SOL    HW183159   3.813  11.030   7.490
27711SOL    HW283160   3.918  11.155   7.495
27712SOL     OW83161   5.004  10.237   6.258
27712SOL    HW183162   5.064  10.156   6.260
27712SOL    HW283163   5.044  10.306   6.198
27713SOL     OW83164   4.554  10.583   7.008
27713SOL    HW183165   4.549  10.616   7.103
27713SOL    HW283166   4.468  10.602   6.962
27714SOL     OW83167   4.396  10.926   5.740
27714SOL    HW183168   4.405  10.936   5.641
27714SOL    HW283169   4.356  10.837   5.761
27715SOL     OW83170   5.374  11.030   6.980
27715SOL    HW183171   5.427  11.040   6.896
27715SOL    HW283172   5.347  11.120   7.014
27716SOL     OW83173   5.565   9.485   6.549
27716SOL    HW183174   5.604   9.400   6.513
27716SOL    HW283175   5.467   9.487   6.530
27717SOL     OW83176   3.987   9.636   6.306
27717SOL    HW183177   3.908   9.687   6.272
27717SOL    HW283178   3.978   9.621   6.404
27718SOL     OW83179   4.918  10.922   5.617
27718SOL    HW183180   4.924  10.829   5.654
27718SOL    HW283181   4.859  10.922   5.537
27719SOL     OW83182   4.546  10.312   6.958
27719SOL    HW183183   4.586  10.311   6.866
27719SOL    HW283184   4.556  10.404   6.998
27720SOL     OW83185   4.640  10.220   5.877
27720SOL    HW183186   4.703  10.258   5.809
27720SOL    HW283187   4.680  10.137   5.916
27721SOL     OW83188   5.228  10.917   5.630
27721SOL    HW183189   5.136  10.954   5.637
27721SOL    HW283190   5.266  10.937   5.540
27722SOL     OW83191   4.096  10.598   7.076
27722SOL    HW183192   4.083  10.691   7.042
27722SOL    HW283193   4.012  10.546   7.063
27723SOL     OW83194   5.338  10.602   6.875
27723SOL    HW183195   5.398  10.605   6.955
27723SOL    HW283196   5.263  10.666   6.888
27724SOL     OW83197   4.763  10.408   6.282
27724SOL    HW183198   4.693  10.361   6.336
27724SOL    HW283199   4.822  10.340   6.239
27725SOL     OW83200   4.738   9.546   6.557
27725SOL    HW183201   4.730   9.510   6.464
27725SOL    HW283202   4.736   9.470   6.622
27726SOL     OW83203   4.314  10.797   6.077
27726SOL    HW183204   4.356  10.739   6.007
27726SOL    HW283205   4.270  10.876   6.033
27727SOL     OW83206   5.433   9.695   6.967
27727SOL    HW183207   5.506   9.764   6.971
27727SOL    HW283208   5.461   9.620   6.908
27728SOL     OW83209   3.979  10.658   5.876
27728SOL    HW183210   3.883  10.659   5.849
27728SOL    HW283211   3.991  10.711   5.960
27729SOL     OW83212   3.829  10.323   7.312
27729SOL    HW183213   3.752  10.290   7.366
27729SOL    HW283214   3.914  10.293   7.354
27730SOL     OW83215   4.396   9.513   7.075
27730SOL    HW183216   4.486   9.497   7.035
27730SOL    HW283217   4.404   9.518   7.174
27731SOL     OW83218   3.799   9.655   5.619
27731SOL    HW183219   3.707   9.627   5.590
27731SOL    HW283220   3.830   9.732   5.563
27732SOL     OW83221   5.164  10.166   6.984
27732SOL    HW183222   5.107  10.218   6.921
27732SOL    HW283223   5.260  10.178   6.960
27733SOL     OW83224   3.796   9.476   5.904
27733SOL    HW183225   3.779   9.559   5.850
27733SOL    HW283226   3.886   9.439   5.882
27734SOL     OW83227   4.907  10.645   5.705
27734SOL    HW183228   4.808  10.634   5.707
27734SOL    HW283229   4.941  10.660   5.798
27735SOL     OW83230   4.337  10.152   7.017
27735SOL    HW183231   4.393  10.233   7.000
27735SOL    HW283232   4.396  10.072   7.020
27736SOL     OW83233   5.217  11.077   6.545
27736SOL    HW183234   5.250  11.141   6.476
27736SOL    HW283235   5.283  11.071   6.620
27737SOL     OW83236   4.440   9.875   7.294
27737SOL    HW183237   4.459   9.940   7.368
27737SOL    HW283238   4.500   9.795   7.303
27738SOL     OW83239   5.174  10.530   7.219
27738SOL    HW183240   5.165  10.520   7.318
27738SOL    HW283241   5.270  10.523   7.193
27739SOL     OW83242   4.114  11.051   7.146
27739SOL    HW183243   4.023  11.092   7.144
27739SOL    HW283244   4.107  10.957   7.178
27740SOL     OW83245   5.398  10.193   6.840
27740SOL    HW183246   5.371  10.104   6.803
27740SOL    HW283247   5.399  10.261   6.767
27741SOL     OW83248   4.949   9.635   6.035
27741SOL    HW183249   5.014   9.561   6.024
27741SOL    HW283250   4.969   9.685   6.119
27742SOL     OW83251   4.318  10.055   6.238
27742SOL    HW183252   4.368  10.140   6.219
27742SOL    HW283253   4.230  10.057   6.190
27743SOL     OW83254   5.501   9.652   7.228
27743SOL    HW183255   5.484   9.683   7.134
27743SOL    HW283256   5.417   9.615   7.266
27744SOL     OW83257   5.454  10.244   7.103
27744SOL    HW183258   5.492  10.335   7.118
27744SOL    HW283259   5.446  10.227   7.004
27745SOL     OW83260   4.583  10.684   5.602
27745SOL    HW183261   4.537  10.699   5.690
27745SOL    HW283262   4.627  10.769   5.572
27746SOL     OW83263   4.385  11.100   6.539
27746SOL    HW183264   4.339  11.188   6.526
27746SOL    HW283265   4.484  11.112   6.532
27747SOL     OW83266   4.583  10.266   6.447
27747SOL    HW183267   4.637  10.197   6.495
27747SOL    HW283268   4.551  10.335   6.513
27748SOL     OW83269   4.807  10.294   5.673
27748SOL    HW183270   4.784  10.347   5.591
27748SOL    HW283271   4.888  10.238   5.654
27749SOL     OW83272   5.585  10.879   6.437
27749SOL    HW183273   5.514  10.867   6.367
27749SOL    HW283274   5.586  10.800   6.497
27750SOL     OW83275   3.945  10.624   7.430
27750SOL    HW183276   3.880  10.551   7.409
27750SOL    HW283277   3.949  10.638   7.528
27751SOL     OW83278   3.803  10.550   6.239
27751SOL    HW183279   3.802  10.503   6.327
27751SOL    HW283280   3.885  10.522   6.188
27752SOL     OW83281   4.396  10.701   7.210
27752SOL    HW183282   4.318  10.651   7.248
27752SOL    HW283283   4.393  10.796   7.241
27753SOL     OW83284   5.548   9.502   6.813
27753SOL    HW183285   5.544   9.412   6.857
27753SOL    HW283286   5.551   9.491   6.714
27754SOL     OW83287   4.152   9.734   6.106
27754SOL    HW183288   4.182   9.662   6.044
27754SOL    HW283289   4.113   9.694   6.189
27755SOL     OW83290   5.429  10.797   6.690
27755SOL    HW183291   5.336  10.772   6.663
27755SOL    HW283292   5.455  10.747   6.772
27756SOL     OW83293   4.041   9.857   6.866
27756SOL    HW183294   4.079   9.798   6.938
27756SOL    HW283295   4.081   9.831   6.778
27757SOL     OW83296   4.536  10.896   6.273
27757SOL    HW183297   4.568  10.906   6.179
27757SOL    HW283298   4.457  10.834   6.275
27758SOL     OW83299   5.148   9.524   6.698
27758SOL    HW183300   5.200   9.459   6.753
27758SOL    HW283301   5.099   9.587   6.759
27759SOL     OW83302   4.725   9.344   6.740
27759SOL    HW183303   4.662   9.272   6.709
27759SOL    HW283304   4.818   9.308   6.740
27760SOL     OW83305   4.494  10.640   5.887
27760SOL    HW183306   4.448  10.553   5.904
27760SOL    HW283307   4.585  10.637   5.928
27761SOL     OW83308   4.342  10.877   6.870
27761SOL    HW183309   4.337  10.959   6.927
27761SOL    HW283310   4.431  10.874   6.825
27762SOL     OW83311   5.076   9.362   5.754
27762SOL    HW183312   5.111   9.321   5.670
27762SOL    HW283313   4.986   9.324   5.774
27763SOL     OW83314   5.024   9.763   6.277
27763SOL    HW183315   4.965   9.843   6.281
27763SOL    HW283316   5.039   9.728   6.370
27764SOL     OW83317   5.317   9.531   6.468
27764SOL    HW183318   5.233   9.530   6.522
27764SOL    HW283319   5.319   9.614   6.412
27765SOL     OW83320   3.763  10.387   5.886
27765SOL    HW183321   3.862  10.376   5.877
27765SOL    HW283322   3.723  10.301   5.918
27766SOL     OW83323   4.599  10.956   5.923
27766SOL    HW183324   4.522  10.921   5.869
27766SOL    HW283325   4.567  11.027   5.985
27767SOL     OW83326   3.954   9.938   7.561
27767SOL    HW183327   3.861   9.936   7.598
27767SOL    HW283328   3.955   9.899   7.469
27768SOL     OW83329   3.949   9.585   8.444
27768SOL    HW183330   3.984   9.568   8.536
27768SOL    HW283331   3.861   9.540   8.432
27769SOL     OW83332   3.743   9.678   8.095
27769SOL    HW183333   3.661   9.721   8.134
27769SOL    HW283334   3.715   9.605   8.032
27770SOL     OW83335   4.293  10.585   8.613
27770SOL    HW183336   4.200  10.578   8.576
27770SOL    HW283337   4.304  10.674   8.657
27771SOL     OW83338   5.279  10.821   8.151
27771SOL    HW183339   5.222  10.805   8.232
27771SOL    HW283340   5.220  10.831   8.071
27772SOL     OW83341   4.859  10.013   8.165
27772SOL    HW183342   4.916  10.091   8.140
27772SOL    HW283343   4.799  10.039   8.241
27773SOL     OW83344   5.479   9.917   7.679
27773SOL    HW183345   5.467   9.904   7.580
27773SOL    HW283346   5.449   9.836   7.728
27774SOL     OW83347   4.492  10.454   8.471
27774SOL    HW183348   4.414  10.471   8.531
27774SOL    HW283349   4.526  10.541   8.435
27775SOL     OW83350   4.574  10.108   9.271
27775SOL    HW183351   4.570  10.184   9.336
27775SOL    HW283352   4.596  10.144   9.180
27776SOL     OW83353   4.409  10.322   8.113
27776SOL    HW183354   4.478  10.306   8.183
27776SOL    HW283355   4.336  10.379   8.151
27777SOL     OW83356   4.410  10.471   9.251
27777SOL    HW183357   4.470  10.550   9.265
27777SOL    HW283358   4.324  10.502   9.210
27778SOL     OW83359   4.059  10.745   8.509
27778SOL    HW183360   3.981  10.714   8.456
27778SOL    HW283361   4.117  10.803   8.452
27779SOL     OW83362   5.184  10.815   8.787
27779SOL    HW183363   5.208  10.909   8.813
27779SOL    HW283364   5.168  10.761   8.869
27780SOL     OW83365   4.162   9.702   8.947
27780SOL    HW183366   4.244   9.646   8.956
27780SOL    HW283367   4.081   9.644   8.951
27781SOL     OW83368   5.327   9.757   8.185
27781SOL    HW183369   5.253   9.803   8.135
27781SOL    HW283370   5.378   9.825   8.238
27782SOL     OW83371   3.955  11.023   7.931
27782SOL    HW183372   3.989  11.100   7.985
27782SOL    HW283373   3.999  11.023   7.841
27783SOL     OW83374   4.851  10.651   9.138
27783SOL    HW183375   4.898  10.651   9.226
27783SOL    HW283376   4.803  10.564   9.127
27784SOL     OW83377   3.954  10.744   7.986
27784SOL    HW183378   3.928  10.840   7.986
27784SOL    HW283379   3.883  10.690   8.031
27785SOL     OW83380   3.964  10.401   8.334
27785SOL    HW183381   3.978  10.317   8.386
27785SOL    HW283382   3.909  10.465   8.389
27786SOL     OW83383   4.344  11.096   8.887
27786SOL    HW183384   4.252  11.079   8.922
27786SOL    HW283385   4.372  11.188   8.913
27787SOL     OW83386   4.330  10.274   7.571
27787SOL    HW183387   4.337  10.358   7.517
27787SOL    HW283388   4.376  10.287   7.659
27788SOL     OW83389   5.318   9.424   8.928
27788SOL    HW183390   5.300   9.491   8.856
27788SOL    HW283391   5.315   9.470   9.017
27789SOL     OW83392   3.846   9.953   8.011
27789SOL    HW183393   3.801   9.865   8.028
27789SOL    HW283394   3.845  10.007   8.095
27790SOL     OW83395   5.566  11.077   7.807
27790SOL    HW183396   5.620  11.048   7.887
27790SOL    HW283397   5.596  11.167   7.778
27791SOL     OW83398   3.751  10.906   7.565
27791SOL    HW183399   3.732  10.810   7.586
27791SOL    HW283400   3.718  10.964   7.640
27792SOL     OW83401   5.413  10.232   8.060
27792SOL    HW183402   5.508  10.203   8.068
27792SOL    HW283403   5.405  10.297   7.985
27793SOL     OW83404   5.365  10.418   7.880
27793SOL    HW183405   5.451  10.420   7.828
27793SOL    HW283406   5.379  10.465   7.968
27794SOL     OW83407   3.837  10.047   9.045
27794SOL    HW183408   3.925  10.034   9.090
27794SOL    HW283409   3.824  10.144   9.023
27795SOL     OW83410   4.337  10.675   8.174
27795SOL    HW183411   4.288  10.588   8.183
27795SOL    HW283412   4.314  10.718   8.087
27796SOL     OW83413   5.017  10.538   8.871
27796SOL    HW183414   5.054  10.465   8.813
27796SOL    HW283415   5.069  10.543   8.956
27797SOL     OW83416   4.533   9.314   7.950
27797SOL    HW183417   4.573   9.405   7.941
27797SOL    HW283418   4.433   9.322   7.956
27798SOL     OW83419   3.921  10.286   8.712
27798SOL    HW183420   4.010  10.241   8.698
27798SOL    HW283421   3.848  10.221   8.693
27799SOL     OW83422   5.249  10.309   7.638
27799SOL    HW183423   5.186  10.233   7.651
27799SOL    HW283424   5.297  10.327   7.724
27800SOL     OW83425   4.911  11.102   9.064
27800SOL    HW183426   4.935  11.162   8.988
27800SOL    HW283427   4.918  11.007   9.034
27801SOL     OW83428   4.041   9.561   9.249
27801SOL    HW183429   4.112   9.632   9.255
27801SOL    HW283430   3.953   9.600   9.277
27802SOL     OW83431   5.190  10.727   8.401
27802SOL    HW183432   5.131  10.733   8.481
27802SOL    HW283433   5.175  10.639   8.355
27803SOL     OW83434   5.391  11.024   8.020
27803SOL    HW183435   5.350  11.001   7.932
27803SOL    HW283436   5.373  10.950   8.085
27804SOL     OW83437   4.322  10.039   7.718
27804SOL    HW183438   4.346  10.108   7.650
27804SOL    HW283439   4.244  10.072   7.772
27805SOL     OW83440   5.005   9.655   8.392
27805SOL    HW183441   4.919   9.605   8.379
27805SOL    HW283442   5.067   9.601   8.448
27806SOL     OW83443   4.531   9.915   8.913
27806SOL    HW183444   4.484   9.912   9.002
27806SOL    HW283445   4.480   9.860   8.847
27807SOL     OW83446   5.118   9.779   9.122
27807SOL    HW183447   5.098   9.822   9.210
27807SOL    HW283448   5.196   9.717   9.131
27808SOL     OW83449   4.697  10.200   9.020
27808SOL    HW183450   4.743  10.116   8.991
27808SOL    HW283451   4.641  10.234   8.945
27809SOL     OW83452   4.715   9.720   8.690
27809SOL    HW183453   4.638   9.754   8.744
27809SOL    HW283454   4.681   9.669   8.611
27810SOL     OW83455   4.765  10.011   7.877
27810SOL    HW183456   4.791  10.007   7.973
27810SOL    HW283457   4.680   9.960   7.863
27811SOL     OW83458   3.800  10.121   8.237
27811SOL    HW183459   3.899  10.109   8.246
27811SOL    HW283460   3.776  10.216   8.258
27812SOL     OW83461   3.854  11.131   9.019
27812SOL    HW183462   3.844  11.116   9.118
27812SOL    HW283463   3.768  11.167   8.983
27813SOL     OW83464   4.589   9.658   7.643
27813SOL    HW183465   4.648   9.721   7.594
27813SOL    HW283466   4.608   9.564   7.614
27814SOL     OW83467   5.443   9.895   9.279
27814SOL    HW183468   5.417   9.984   9.243
27814SOL    HW283469   5.441   9.827   9.206
27815SOL     OW83470   5.086  10.454   7.993
27815SOL    HW183471   5.169  10.425   7.945
27815SOL    HW283472   5.037  10.521   7.937
27816SOL     OW83473   4.274   9.506   8.333
27816SOL    HW183474   4.269   9.501   8.433
27816SOL    HW283475   4.276   9.602   8.304
27817SOL     OW83476   4.732  10.766   7.925
27817SOL    HW183477   4.686  10.838   7.873
27817SOL    HW283478   4.728  10.786   8.023
27818SOL     OW83479   4.075  11.111   8.301
27818SOL    HW183480   4.125  11.025   8.307
27818SOL    HW283481   4.140  11.188   8.298
27819SOL     OW83482   5.519  10.376   8.321
27819SOL    HW183483   5.457  10.361   8.245
27819SOL    HW283484   5.467  10.387   8.406
27820SOL     OW83485   4.951  10.860   8.954
27820SOL    HW183486   4.957  10.783   9.018
27820SOL    HW283487   4.899  10.834   8.874
27821SOL     OW83488   4.045  10.253   7.690
27821SOL    HW183489   4.127  10.292   7.648
27821SOL    HW283490   4.018  10.171   7.641
27822SOL     OW83491   5.182  10.045   8.176
27822SOL    HW183492   5.177   9.980   8.251
27822SOL    HW283493   5.262  10.104   8.189
27823SOL     OW83494   4.185  10.576   9.175
27823SOL    HW183495   4.135  10.577   9.089
27823SOL    HW283496   4.122  10.558   9.251
27824SOL     OW83497   4.835  11.086   7.685
27824SOL    HW183498   4.775  11.024   7.735
27824SOL    HW283499   4.866  11.042   7.600
27825SOL     OW83500   3.926   9.595   8.946
27825SOL    HW183501   3.846   9.655   8.933
27825SOL    HW283502   3.916   9.546   9.032
27826SOL     OW83503   5.356  10.687   7.529
27826SOL    HW183504   5.324  10.781   7.519
27826SOL    HW283505   5.280  10.624   7.517
27827SOL     OW83506   4.188  11.053   7.771
27827SOL    HW183507   4.221  11.092   7.857
27827SOL    HW283508   4.264  11.046   7.706
27828SOL     OW83509   5.124   9.417   7.874
27828SOL    HW183510   5.100   9.380   7.784
27828SOL    HW283511   5.223   9.433   7.878
27829SOL     OW83512   3.973  11.095   8.689
27829SOL    HW183513   4.030  11.030   8.739
27829SOL    HW283514   3.957  11.062   8.596
27830SOL     OW83515   4.664  11.008   8.352
27830SOL    HW183516   4.744  10.951   8.373
27830SOL    HW283517   4.615  10.968   8.275
27831SOL     OW83518   4.106  10.010   7.928
27831SOL    HW183519   4.151   9.920   7.925
27831SOL    HW283520   4.012   9.999   7.961
27832SOL     OW83521   5.271   9.532   9.177
27832SOL    HW183522   5.266   9.569   9.269
27832SOL    HW283523   5.199   9.463   9.165
27833SOL     OW83524   4.338   9.432   7.565
27833SOL    HW183525   4.436   9.410   7.572
27833SOL    HW283526   4.307   9.415   7.472
27834SOL     OW83527   4.505   9.574   9.197
27834SOL    HW183528   4.572   9.513   9.240
27834SOL    HW283529   4.432   9.593   9.262
27835SOL     OW83530   4.612  10.824   8.643
27835SOL    HW183531   4.589  10.799   8.549
27835SOL    HW283532   4.673  10.755   8.682
27836SOL     OW83533   5.075   9.900   8.881
27836SOL    HW183534   5.103   9.857   8.966
27836SOL    HW283535   5.100   9.996   8.882
27837SOL     OW83536   4.527  10.712   8.372
27837SOL    HW183537   4.617  10.726   8.330
27837SOL    HW283538   4.456  10.714   8.301
27838SOL     OW83539   4.646   9.813   8.347
27838SOL    HW183540   4.621   9.804   8.251
27838SOL    HW283541   4.694   9.731   8.378
27839SOL     OW83542   4.263   9.374   7.960
27839SOL    HW183543   4.182   9.375   8.018
27839SOL    HW283544   4.266   9.457   7.905
27840SOL     OW83545   5.158  10.498   7.489
27840SOL    HW183546   5.190  10.422   7.546
27840SOL    HW283547   5.066  10.525   7.519
27841SOL     OW83548   4.021   9.345   7.619
27841SOL    HW183549   4.070   9.429   7.598
27841SOL    HW283550   4.083   9.280   7.664
27842SOL     OW83551   4.659   9.546   7.928
27842SOL    HW183552   4.611   9.587   7.850
27842SOL    HW283553   4.758   9.544   7.909
27843SOL     OW83554   4.800   9.993   8.912
27843SOL    HW183555   4.720   9.932   8.915
27843SOL    HW283556   4.881   9.940   8.888
27844SOL     OW83557   4.951  10.880   8.241
27844SOL    HW183558   4.972  10.954   8.176
27844SOL    HW283559   5.019  10.880   8.314
27845SOL     OW83560   4.183  10.462   8.189
27845SOL    HW183561   4.112  10.435   8.254
27845SOL    HW283562   4.157  10.434   8.096
27846SOL     OW83563   4.995  11.107   8.039
27846SOL    HW183564   5.039  11.171   7.975
27846SOL    HW283565   4.945  11.159   8.109
27847SOL     OW83566   4.756   9.859   7.464
27847SOL    HW183567   4.715   9.941   7.425
27847SOL    HW283568   4.820   9.885   7.537
27848SOL     OW83569   3.802   9.866   8.834
27848SOL    HW183570   3.894   9.865   8.793
27848SOL    HW283571   3.796   9.940   8.901
27849SOL     OW83572   4.285   9.532   8.595
27849SOL    HW183573   4.323   9.448   8.632
27849SOL    HW283574   4.197   9.551   8.639
27850SOL     OW83575   4.590   9.764   8.090
27850SOL    HW183576   4.558   9.836   8.028
27850SOL    HW283577   4.614   9.683   8.037
27851SOL     OW83578   4.741   9.349   8.201
27851SOL    HW183579   4.669   9.354   8.132
27851SOL    HW283580   4.717   9.280   8.270
27852SOL     OW83581   5.153  10.483   8.315
27852SOL    HW183582   5.098  10.399   8.308
27852SOL    HW283583   5.179  10.512   8.223
27853SOL     OW83584   5.190   9.900   8.440
27853SOL    HW183585   5.160   9.805   8.447
27853SOL    HW283586   5.263   9.916   8.506
27854SOL     OW83587   5.581  10.143   7.825
27854SOL    HW183588   5.623  10.079   7.889
27854SOL    HW283589   5.543  10.092   7.747
27855SOL     OW83590   4.212  10.695   7.622
27855SOL    HW183591   4.125  10.680   7.669
27855SOL    HW283592   4.195  10.721   7.527
27856SOL     OW83593   5.388  10.590   8.105
27856SOL    HW183594   5.487  10.598   8.119
27856SOL    HW283595   5.343  10.674   8.136
27857SOL     OW83596   5.114   9.885   7.526
27857SOL    HW183597   5.060   9.864   7.607
27857SOL    HW283598   5.205   9.844   7.535
27858SOL     OW83599   4.251   9.566   7.776
27858SOL    HW183600   4.278   9.507   7.701
27858SOL    HW283601   4.251   9.661   7.745
27859SOL     OW83602   5.478  10.533   9.036
27859SOL    HW183603   5.569  10.494   9.023
27859SOL    HW283604   5.486  10.629   9.060
27860SOL     OW83605   4.788  10.657   8.788
27860SOL    HW183606   4.708  10.634   8.843
27860SOL    HW283607   4.871  10.631   8.837
27861SOL     OW83608   5.316  10.939   9.073
27861SOL    HW183609   5.343  10.973   8.983
27861SOL    HW283610   5.395  10.901   9.119
27862SOL     OW83611   4.835  10.505   8.548
27862SOL    HW183612   4.795  10.549   8.629
27862SOL    HW283613   4.794  10.542   8.465
27863SOL     OW83614   5.362  10.409   8.527
27863SOL    HW183615   5.367  10.490   8.586
27863SOL    HW283616   5.276  10.411   8.476
27864SOL     OW83617   4.639   9.399   8.850
27864SOL    HW183618   4.664   9.379   8.755
27864SOL    HW283619   4.711   9.455   8.892
27865SOL     OW83620   4.704  10.426   9.167
27865SOL    HW183621   4.605  10.432   9.177
27865SOL    HW283622   4.727  10.346   9.111
27866SOL     OW83623   4.429  10.360   7.816
27866SOL    HW183624   4.415  10.367   7.915
27866SOL    HW283625   4.513  10.309   7.798
27867SOL     OW83626   4.134  10.123   8.699
27867SOL    HW183627   4.220  10.135   8.749
27867SOL    HW283628   4.092  10.036   8.726
27868SOL     OW83629   4.998   9.696   8.710
27868SOL    HW183630   5.019   9.770   8.774
27868SOL    HW283631   4.909   9.713   8.667
27869SOL     OW83632   3.788  10.874   8.779
27869SOL    HW183633   3.742  10.956   8.745
27869SOL    HW283634   3.886  10.893   8.788
27870SOL     OW83635   4.091  10.410   7.949
27870SOL    HW183636   4.084  10.493   7.893
27870SOL    HW283637   4.095  10.330   7.889
27871SOL     OW83638   4.290   9.847   8.313
27871SOL    HW183639   4.302   9.913   8.239
27871SOL    HW283640   4.336   9.881   8.396
27872SOL     OW83641   4.976  10.658   7.836
27872SOL    HW183642   5.026  10.735   7.876
27872SOL    HW283643   4.881  10.660   7.868
27873SOL     OW83644   4.996  10.755   8.590
27873SOL    HW183645   5.043  10.768   8.677
27873SOL    HW283646   4.930  10.681   8.599
27874SOL     OW83647   5.306   9.949   7.920
27874SOL    HW183648   5.275  10.010   7.993
27874SOL    HW283649   5.356  10.001   7.851
27875SOL     OW83650   4.078  10.820   8.777
27875SOL    HW183651   4.057  10.776   8.690
27875SOL    HW283652   4.175  10.846   8.780
27876SOL     OW83653   4.126  10.061   9.046
27876SOL    HW183654   4.194  10.116   8.999
27876SOL    HW283655   4.166   9.973   9.073
27877SOL     OW83656   5.311  10.089   9.118
27877SOL    HW183657   5.219  10.127   9.113
27877SOL    HW283658   5.371  10.136   9.053
27878SOL     OW83659   4.737   9.415   9.218
27878SOL    HW183660   4.743   9.500   9.166
27878SOL    HW283661   4.769   9.339   9.161
27879SOL     OW83662   4.228   9.360   9.188
27879SOL    HW183663   4.186   9.303   9.118
27879SOL    HW283664   4.162   9.429   9.220
27880SOL     OW83665   4.297  10.180   8.477
27880SOL    HW183666   4.341  10.269   8.468
27880SOL    HW283667   4.234  10.180   8.554
27881SOL     OW83668   5.084  10.172   8.493
27881SOL    HW183669   5.009  10.172   8.427
27881SOL    HW283670   5.121  10.080   8.502
27882SOL     OW83671   4.933   9.835   7.723
27882SOL    HW183672   4.946   9.751   7.777
27882SOL    HW283673   4.904   9.909   7.783
27883SOL     OW83674   4.031   9.523   8.679
27883SOL    HW183675   4.008   9.560   8.769
27883SOL    HW283676   4.001   9.428   8.673
27884SOL     OW83677   3.761  10.620   8.730
27884SOL    HW183678   3.814  10.571   8.798
27884SOL    HW283679   3.783  10.718   8.735
27885SOL     OW83680   4.456   9.944   8.512
27885SOL    HW183681   4.515   9.918   8.436
27885SOL    HW283682   4.428  10.040   8.501
27886SOL     OW83683   5.452  10.245   9.302
27886SOL    HW183684   5.406  10.238   9.213
27886SOL    HW283685   5.390  10.289   9.368
27887SOL     OW83686   4.031   9.373   8.066
27887SOL    HW183687   4.020   9.467   8.099
27887SOL    HW283688   4.026   9.310   8.143
27888SOL     OW83689   5.346   9.677   7.822
27888SOL    HW183690   5.348   9.601   7.886
27888SOL    HW283691   5.298   9.754   7.862
27889SOL     OW83692   4.747  10.076   8.414
27889SOL    HW183693   4.762  10.097   8.510
27889SOL    HW283694   4.717   9.981   8.405
27890SOL     OW83695   4.704  10.883   9.148
27890SOL    HW183696   4.684  10.927   9.060
27890SOL    HW283697   4.743  10.792   9.132
27891SOL     OW83698   5.583  10.828   9.053
27891SOL    HW183699   5.597  10.855   8.958
27891SOL    HW283700   5.666  10.850   9.106
27892SOL     OW83701   4.074  10.208   9.252
27892SOL    HW183702   4.150  10.252   9.300
27892SOL    HW283703   4.109  10.161   9.170
27893SOL     OW83704   5.264   9.584   7.573
27893SOL    HW183705   5.203   9.509   7.596
27893SOL    HW283706   5.286   9.636   7.656
27894SOL     OW83707   5.027  10.148   7.490
27894SOL    HW183708   5.061  10.055   7.505
27894SOL    HW283709   5.045  10.175   7.395
27895SOL     OW83710   4.792  10.643   8.297
27895SOL    HW183711   4.799  10.559   8.242
27895SOL    HW283712   4.854  10.712   8.261
27896SOL     OW83713   4.043  10.120   8.397
27896SOL    HW183714   4.136  10.156   8.402
27896SOL    HW283715   4.037  10.035   8.449
27897SOL     OW83716   4.063   9.819   8.454
27897SOL    HW183717   4.011   9.736   8.437
27897SOL    HW283718   4.140   9.824   8.390
27898SOL     OW83719   4.862   9.690   9.126
27898SOL    HW183720   4.817   9.753   9.190
27898SOL    HW283721   4.955   9.721   9.109
27899SOL     OW83722   4.884   9.517   8.925
27899SOL    HW183723   4.884   9.581   9.002
27899SOL    HW283724   4.912   9.565   8.842
27900SOL     OW83725   3.732  10.636   7.648
27900SOL    HW183726   3.639  10.657   7.617
27900SOL    HW283727   3.742  10.537   7.661
27901SOL     OW83728   3.812  11.111   8.375
27901SOL    HW183729   3.770  11.025   8.348
27901SOL    HW283730   3.906  11.114   8.341
27902SOL     OW83731   4.228  10.878   8.358
27902SOL    HW183732   4.294  10.952   8.367
27902SOL    HW283733   4.272  10.799   8.316
27903SOL     OW83734   4.726  10.106   8.686
27903SOL    HW183735   4.767  10.074   8.772
27903SOL    HW283736   4.630  10.079   8.683
27904SOL     OW83737   3.764   9.854   8.562
27904SOL    HW183738   3.849   9.821   8.521
27904SOL    HW283739   3.777   9.869   8.660
27905SOL     OW83740   3.913   9.830   9.170
27905SOL    HW183741   3.972   9.790   9.100
27905SOL    HW283742   3.855   9.901   9.129
27906SOL     OW83743   5.093  10.260   9.108
27906SOL    HW183744   5.132  10.349   9.128
27906SOL    HW283745   5.103  10.240   9.011
27907SOL     OW83746   4.539   9.882   7.773
27907SOL    HW183747   4.546   9.793   7.727
27907SOL    HW283748   4.445   9.916   7.765
27908SOL     OW83749   5.381   9.914   8.654
27908SOL    HW183750   5.343   9.845   8.716
27908SOL    HW283751   5.463   9.878   8.610
27909SOL     OW83752   3.976  10.874   9.192
27909SOL    HW183753   3.946  10.931   9.268
27909SOL    HW283754   3.969  10.777   9.218
27910SOL     OW83755   4.395   9.774   8.717
27910SOL    HW183756   4.361   9.685   8.687
27910SOL    HW283757   4.421   9.828   8.637
27911SOL     OW83758   4.654  10.988   8.913
27911SOL    HW183759   4.630  10.970   8.818
27911SOL    HW283760   4.684  11.082   8.923
27912SOL     OW83761   4.197   9.810   7.639
27912SOL    HW183762   4.258   9.890   7.643
27912SOL    HW283763   4.102   9.841   7.646
27913SOL     OW83764   3.883  10.447   8.914
27913SOL    HW183765   3.905  10.386   8.990
27913SOL    HW283766   3.893  10.398   8.828
27914SOL     OW83767   5.071  10.369   8.682
27914SOL    HW183768   5.095  10.306   8.608
27914SOL    HW283769   4.981  10.409   8.664
27915SOL     OW83770   5.026  10.165   7.757
27915SOL    HW183771   4.940  10.134   7.799
27915SOL    HW283772   5.022  10.151   7.658
27916SOL     OW83773   5.483  11.057   8.602
27916SOL    HW183774   5.544  11.087   8.529
27916SOL    HW283775   5.445  10.968   8.580
27917SOL     OW83776   4.976  11.041   8.576
27917SOL    HW183777   5.060  11.046   8.522
27917SOL    HW283778   4.953  10.945   8.594
27918SOL     OW83779   3.807  10.568   8.470
27918SOL    HW183780   3.802  10.567   8.570
27918SOL    HW283781   3.724  10.527   8.432
27919SOL     OW83782   4.412  10.972   9.164
27919SOL    HW183783   4.356  11.053   9.173
27919SOL    HW283784   4.464  10.976   9.078
27920SOL     OW83785   5.450   9.445   7.971
27920SOL    HW183786   5.523   9.428   7.904
27920SOL    HW283787   5.419   9.358   8.009
27921SOL     OW83788   5.112  10.883   7.925
27921SOL    HW183789   5.179  10.895   7.851
27921SOL    HW283790   5.072  10.972   7.948
27922SOL     OW83791   3.854  11.104   9.299
27922SOL    HW183792   3.813  11.030   9.352
27922SOL    HW283793   3.918  11.155   9.357
27923SOL     OW83794   5.004  10.237   8.120
27923SOL    HW183795   5.064  10.156   8.122
27923SOL    HW283796   5.044  10.306   8.060
27924SOL     OW83797   4.554  10.583   8.870
27924SOL    HW183798   4.549  10.616   8.965
27924SOL    HW283799   4.468  10.602   8.824
27925SOL     OW83800   4.396  10.926   7.602
27925SOL    HW183801   4.405  10.936   7.503
27925SOL    HW283802   4.356  10.837   7.623
27926SOL     OW83803   5.374  11.030   8.842
27926SOL    HW183804   5.427  11.040   8.758
27926SOL    HW283805   5.347  11.120   8.876
27927SOL     OW83806   5.565   9.485   8.411
27927SOL    HW183807   5.604   9.400   8.375
27927SOL    HW283808   5.467   9.487   8.392
27928SOL     OW83809   3.987   9.636   8.168
27928SOL    HW183810   3.908   9.687   8.134
27928SOL    HW283811   3.978   9.621   8.266
27929SOL     OW83812   4.918  10.922   7.479
27929SOL    HW183813   4.924  10.829   7.516
27929SOL    HW283814   4.859  10.922   7.399
27930SOL     OW83815   4.546  10.312   8.820
27930SOL    HW183816   4.586  10.311   8.728
27930SOL    HW283817   4.556  10.404   8.860
27931SOL     OW83818   4.640  10.220   7.739
27931SOL    HW183819   4.703  10.258   7.671
27931SOL    HW283820   4.680  10.137   7.778
27932SOL     OW83821   5.228  10.917   7.492
27932SOL    HW183822   5.136  10.954   7.499
27932SOL    HW283823   5.266  10.937   7.402
27933SOL     OW83824   4.096  10.598   8.938
27933SOL    HW183825   4.083  10.691   8.904
27933SOL    HW283826   4.012  10.546   8.925
27934SOL     OW83827   5.338  10.602   8.737
27934SOL    HW183828   5.398  10.605   8.817
27934SOL    HW283829   5.263  10.666   8.750
27935SOL     OW83830   4.763  10.408   8.144
27935SOL    HW183831   4.693  10.361   8.198
27935SOL    HW283832   4.822  10.340   8.101
27936SOL     OW83833   4.738   9.546   8.419
27936SOL    HW183834   4.730   9.510   8.326
27936SOL    HW283835   4.736   9.470   8.484
27937SOL     OW83836   4.314  10.797   7.939
27937SOL    HW183837   4.356  10.739   7.869
27937SOL    HW283838   4.270  10.876   7.895
27938SOL     OW83839   5.433   9.695   8.829
27938SOL    HW183840   5.506   9.764   8.833
27938SOL    HW283841   5.461   9.620   8.770
27939SOL     OW83842   3.979  10.658   7.738
27939SOL    HW183843   3.883  10.659   7.711
27939SOL    HW283844   3.991  10.711   7.822
27940SOL     OW83845   3.829  10.323   9.174
27940SOL    HW183846   3.752  10.290   9.228
27940SOL    HW283847   3.914  10.293   9.216
27941SOL     OW83848   4.396   9.513   8.937
27941SOL    HW183849   4.486   9.497   8.897
27941SOL    HW283850   4.404   9.518   9.036
27942SOL     OW83851   3.799   9.655   7.481
27942SOL    HW183852   3.707   9.627   7.452
27942SOL    HW283853   3.830   9.732   7.425
27943SOL     OW83854   5.164  10.166   8.846
27943SOL    HW183855   5.107  10.218   8.783
27943SOL    HW283856   5.260  10.178   8.822
27944SOL     OW83857   3.796   9.476   7.766
27944SOL    HW183858   3.779   9.559   7.712
27944SOL    HW283859   3.886   9.439   7.744
27945SOL     OW83860   4.907  10.645   7.567
27945SOL    HW183861   4.808  10.634   7.569
27945SOL    HW283862   4.941  10.660   7.660
27946SOL     OW83863   4.337  10.152   8.879
27946SOL    HW183864   4.393  10.233   8.862
27946SOL    HW283865   4.396  10.072   8.882
27947SOL     OW83866   5.217  11.077   8.407
27947SOL    HW183867   5.250  11.141   8.338
27947SOL    HW283868   5.283  11.071   8.482
27948SOL     OW83869   4.440   9.875   9.156
27948SOL    HW183870   4.459   9.940   9.230
27948SOL    HW283871   4.500   9.795   9.165
27949SOL     OW83872   5.174  10.530   9.081
27949SOL    HW183873   5.165  10.520   9.180
27949SOL    HW283874   5.270  10.523   9.055
27950SOL     OW83875   4.114  11.051   9.008
27950SOL    HW183876   4.023  11.092   9.006
27950SOL    HW283877   4.107  10.957   9.040
27951SOL     OW83878   5.398  10.193   8.702
27951SOL    HW183879   5.371  10.104   8.665
27951SOL    HW283880   5.399  10.261   8.629
27952SOL     OW83881   4.949   9.635   7.897
27952SOL    HW183882   5.014   9.561   7.886
27952SOL    HW283883   4.969   9.685   7.981
27953SOL     OW83884   4.318  10.055   8.100
27953SOL    HW183885   4.368  10.140   8.081
27953SOL    HW283886   4.230  10.057   8.052
27954SOL     OW83887   5.501   9.652   9.090
27954SOL    HW183888   5.484   9.683   8.996
27954SOL    HW283889   5.417   9.615   9.128
27955SOL     OW83890   5.454  10.244   8.965
27955SOL    HW183891   5.492  10.335   8.980
27955SOL    HW283892   5.446  10.227   8.866
27956SOL     OW83893   4.583  10.684   7.464
27956SOL    HW183894   4.537  10.699   7.552
27956SOL    HW283895   4.627  10.769   7.434
27957SOL     OW83896   4.385  11.100   8.401
27957SOL    HW183897   4.339  11.188   8.388
27957SOL    HW283898   4.484  11.112   8.394
27958SOL     OW83899   4.583  10.266   8.309
27958SOL    HW183900   4.637  10.197   8.357
27958SOL    HW283901   4.551  10.335   8.375
27959SOL     OW83902   4.807  10.294   7.535
27959SOL    HW183903   4.784  10.347   7.453
27959SOL    HW283904   4.888  10.238   7.516
27960SOL     OW83905   5.585  10.879   8.299
27960SOL    HW183906   5.514  10.867   8.229
27960SOL    HW283907   5.586  10.800   8.359
27961SOL     OW83908   3.945  10.624   9.292
27961SOL    HW183909   3.880  10.551   9.271
27961SOL    HW283910   3.949  10.638   9.390
27962SOL     OW83911   3.803  10.550   8.101
27962SOL    HW183912   3.802  10.503   8.189
27962SOL    HW283913   3.885  10.522   8.050
27963SOL     OW83914   4.396  10.701   9.072
27963SOL    HW183915   4.318  10.651   9.110
27963SOL    HW283916   4.393  10.796   9.103
27964SOL     OW83917   5.548   9.502   8.675
27964SOL    HW183918   5.544   9.412   8.719
27964SOL    HW283919   5.551   9.491   8.576
27965SOL     OW83920   4.152   9.734   7.968
27965SOL    HW183921   4.182   9.662   7.906
27965SOL    HW283922   4.113   9.694   8.051
27966SOL     OW83923   5.429  10.797   8.552
27966SOL    HW183924   5.336  10.772   8.525
27966SOL    HW283925   5.455  10.747   8.634
27967SOL     OW83926   4.041   9.857   8.728
27967SOL    HW183927   4.079   9.798   8.800
27967SOL    HW283928   4.081   9.831   8.640
27968SOL     OW83929   4.536  10.896   8.135
27968SOL    HW183930   4.568  10.906   8.041
27968SOL    HW283931   4.457  10.834   8.137
27969SOL     OW83932   5.148   9.524   8.560
27969SOL    HW183933   5.200   9.459   8.615
27969SOL    HW283934   5.099   9.587   8.621
27970SOL     OW83935   4.725   9.344   8.602
27970SOL    HW183936   4.662   9.272   8.571
27970SOL    HW283937   4.818   9.308   8.602
27971SOL     OW83938   4.494  10.640   7.749
27971SOL    HW183939   4.448  10.553   7.766
27971SOL    HW283940   4.585  10.637   7.790
27972SOL     OW83941   4.342  10.877   8.732
27972SOL    HW183942   4.337  10.959   8.789
27972SOL    HW283943   4.431  10.874   8.687
27973SOL     OW83944   5.076   9.362   7.616
27973SOL    HW183945   5.111   9.321   7.532
27973SOL    HW283946   4.986   9.324   7.636
27974SOL     OW83947   5.024   9.763   8.139
27974SOL    HW183948   4.965   9.843   8.143
27974SOL    HW283949   5.039   9.728   8.232
27975SOL     OW83950   5.317   9.531   8.330
27975SOL    HW183951   5.233   9.530   8.384
27975SOL    HW283952   5.319   9.614   8.274
27976SOL     OW83953   3.763  10.387   7.748
27976SOL    HW183954   3.862  10.376   7.739
27976SOL    HW283955   3.723  10.301   7.780
27977SOL     OW83956   4.599  10.956   7.785
27977SOL    HW183957   4.522  10.921   7.731
27977SOL    HW283958   4.567  11.027   7.847
27978SOL     OW83959   3.954   9.938   9.423
27978SOL    HW183960   3.861   9.936   9.460
27978SOL    HW283961   3.955   9.899   9.331
27979SOL     OW83962   3.949   9.585  10.306
27979SOL    HW183963   3.984   9.568  10.398
27979SOL    HW283964   3.861   9.540  10.294
27980SOL     OW83965   3.743   9.678   9.957
27980SOL    HW183966   3.661   9.721   9.996
27980SOL    HW283967   3.715   9.605   9.894
27981SOL     OW83968   4.293  10.585  10.475
27981SOL    HW183969   4.200  10.578  10.438
27981SOL    HW283970   4.304  10.674  10.519
27982SOL     OW83971   5.279  10.821  10.013
27982SOL    HW183972   5.222  10.805  10.094
27982SOL    HW283973   5.220  10.831   9.933
27983SOL     OW83974   4.859  10.013  10.027
27983SOL    HW183975   4.916  10.091  10.002
27983SOL    HW283976   4.799  10.039  10.103
27984SOL     OW83977   5.479   9.917   9.541
27984SOL    HW183978   5.467   9.904   9.442
27984SOL    HW283979   5.449   9.836   9.590
27985SOL     OW83980   4.492  10.454  10.333
27985SOL    HW183981   4.414  10.471  10.393
27985SOL    HW283982   4.526  10.541  10.297
27986SOL     OW83983   4.574  10.108  11.133
27986SOL    HW183984   4.570  10.184  11.198
27986SOL    HW283985   4.596  10.144  11.042
27987SOL     OW83986   4.409  10.322   9.975
27987SOL    HW183987   4.478  10.306  10.045
27987SOL    HW283988   4.336  10.379  10.013
27988SOL     OW83989   4.410  10.471  11.113
27988SOL    HW183990   4.470  10.550  11.127
27988SOL    HW283991   4.324  10.502  11.072
27989SOL     OW83992   4.059  10.745  10.371
27989SOL    HW183993   3.981  10.714  10.318
27989SOL    HW283994   4.117  10.803  10.314
27990SOL     OW83995   5.184  10.815  10.649
27990SOL    HW183996   5.208  10.909  10.675
27990SOL    HW283997   5.168  10.761  10.731
27991SOL     OW83998   4.162   9.702  10.809
27991SOL    HW183999   4.244   9.646  10.818
27991SOL    HW284000   4.081   9.644  10.813
27992SOL     OW84001   5.327   9.757  10.047
27992SOL    HW184002   5.253   9.803   9.997
27992SOL    HW284003   5.378   9.825  10.100
27993SOL     OW84004   3.955  11.023   9.793
27993SOL    HW184005   3.989  11.100   9.847
27993SOL    HW284006   3.999  11.023   9.703
27994SOL     OW84007   4.851  10.651  11.000
27994SOL    HW184008   4.898  10.651  11.088
27994SOL    HW284009   4.803  10.564  10.989
27995SOL     OW84010   3.954  10.744   9.848
27995SOL    HW184011   3.928  10.840   9.848
27995SOL    HW284012   3.883  10.690   9.893
27996SOL     OW84013   3.964  10.401  10.196
27996SOL    HW184014   3.978  10.317  10.248
27996SOL    HW284015   3.909  10.465  10.251
27997SOL     OW84016   4.344  11.096  10.749
27997SOL    HW184017   4.252  11.079  10.784
27997SOL    HW284018   4.372  11.188  10.775
27998SOL     OW84019   4.330  10.274   9.433
27998SOL    HW184020   4.337  10.358   9.379
27998SOL    HW284021   4.376  10.287   9.521
27999SOL     OW84022   5.318   9.424  10.790
27999SOL    HW184023   5.300   9.491  10.718
27999SOL    HW284024   5.315   9.470  10.879
28000SOL     OW84025   3.846   9.953   9.873
28000SOL    HW184026   3.801   9.865   9.890
28000SOL    HW284027   3.845  10.007   9.957
28001SOL     OW84028   5.566  11.077   9.669
28001SOL    HW184029   5.620  11.048   9.749
28001SOL    HW284030   5.596  11.167   9.640
28002SOL     OW84031   3.751  10.906   9.427
28002SOL    HW184032   3.732  10.810   9.448
28002SOL    HW284033   3.718  10.964   9.502
28003SOL     OW84034   5.413  10.232   9.922
28003SOL    HW184035   5.508  10.203   9.930
28003SOL    HW284036   5.405  10.297   9.847
28004SOL     OW84037   5.365  10.418   9.742
28004SOL    HW184038   5.451  10.420   9.690
28004SOL    HW284039   5.379  10.465   9.830
28005SOL     OW84040   3.837  10.047  10.907
28005SOL    HW184041   3.925  10.034  10.952
28005SOL    HW284042   3.824  10.144  10.885
28006SOL     OW84043   4.337  10.675  10.036
28006SOL    HW184044   4.288  10.588  10.045
28006SOL    HW284045   4.314  10.718   9.949
28007SOL     OW84046   5.017  10.538  10.733
28007SOL    HW184047   5.054  10.465  10.675
28007SOL    HW284048   5.069  10.543  10.818
28008SOL     OW84049   4.533   9.314   9.812
28008SOL    HW184050   4.573   9.405   9.803
28008SOL    HW284051   4.433   9.322   9.818
28009SOL     OW84052   3.921  10.286  10.574
28009SOL    HW184053   4.010  10.241  10.560
28009SOL    HW284054   3.848  10.221  10.555
28010SOL     OW84055   5.249  10.309   9.500
28010SOL    HW184056   5.186  10.233   9.513
28010SOL    HW284057   5.297  10.327   9.586
28011SOL     OW84058   4.911  11.102  10.926
28011SOL    HW184059   4.935  11.162  10.850
28011SOL    HW284060   4.918  11.007  10.896
28012SOL     OW84061   4.041   9.561  11.111
28012SOL    HW184062   4.112   9.632  11.117
28012SOL    HW284063   3.953   9.600  11.139
28013SOL     OW84064   5.190  10.727  10.263
28013SOL    HW184065   5.131  10.733  10.343
28013SOL    HW284066   5.175  10.639  10.217
28014SOL     OW84067   5.391  11.024   9.882
28014SOL    HW184068   5.350  11.001   9.794
28014SOL    HW284069   5.373  10.950   9.947
28015SOL     OW84070   4.322  10.039   9.580
28015SOL    HW184071   4.346  10.108   9.512
28015SOL    HW284072   4.244  10.072   9.634
28016SOL     OW84073   5.005   9.655  10.254
28016SOL    HW184074   4.919   9.605  10.241
28016SOL    HW284075   5.067   9.601  10.310
28017SOL     OW84076   5.300  10.972   9.617
28017SOL    HW184077   5.389  11.018   9.620
28017SOL    HW284078   5.279  10.948   9.522
28018SOL     OW84079   4.531   9.915  10.775
28018SOL    HW184080   4.484   9.912  10.864
28018SOL    HW284081   4.480   9.860  10.709
28019SOL     OW84082   5.118   9.779  10.984
28019SOL    HW184083   5.098   9.822  11.072
28019SOL    HW284084   5.196   9.717  10.993
28020SOL     OW84085   4.697  10.200  10.882
28020SOL    HW184086   4.743  10.116  10.853
28020SOL    HW284087   4.641  10.234  10.807
28021SOL     OW84088   4.715   9.720  10.552
28021SOL    HW184089   4.638   9.754  10.606
28021SOL    HW284090   4.681   9.669  10.473
28022SOL     OW84091   4.765  10.011   9.739
28022SOL    HW184092   4.791  10.007   9.835
28022SOL    HW284093   4.680   9.960   9.725
28023SOL     OW84094   3.800  10.121  10.099
28023SOL    HW184095   3.899  10.109  10.108
28023SOL    HW284096   3.776  10.216  10.120
28024SOL     OW84097   3.854  11.131  10.881
28024SOL    HW184098   3.844  11.116  10.980
28024SOL    HW284099   3.768  11.167  10.845
28025SOL     OW84100   4.589   9.658   9.505
28025SOL    HW184101   4.648   9.721   9.456
28025SOL    HW284102   4.608   9.564   9.476
28026SOL     OW84103   5.443   9.895  11.141
28026SOL    HW184104   5.417   9.984  11.105
28026SOL    HW284105   5.441   9.827  11.068
28027SOL     OW84106   5.086  10.454   9.855
28027SOL    HW184107   5.169  10.425   9.807
28027SOL    HW284108   5.037  10.521   9.799
28028SOL     OW84109   4.274   9.506  10.195
28028SOL    HW184110   4.269   9.501  10.295
28028SOL    HW284111   4.276   9.602  10.166
28029SOL     OW84112   4.732  10.766   9.787
28029SOL    HW184113   4.686  10.838   9.735
28029SOL    HW284114   4.728  10.786   9.885
28030SOL     OW84115   4.075  11.111  10.163
28030SOL    HW184116   4.125  11.025  10.169
28030SOL    HW284117   4.140  11.188  10.160
28031SOL     OW84118   5.519  10.376  10.183
28031SOL    HW184119   5.457  10.361  10.107
28031SOL    HW284120   5.467  10.387  10.268
28032SOL     OW84121   4.951  10.860  10.816
28032SOL    HW184122   4.957  10.783  10.880
28032SOL    HW284123   4.899  10.834  10.736
28033SOL     OW84124   4.045  10.253   9.552
28033SOL    HW184125   4.127  10.292   9.510
28033SOL    HW284126   4.018  10.171   9.503
28034SOL     OW84127   5.182  10.045  10.038
28034SOL    HW184128   5.177   9.980  10.113
28034SOL    HW284129   5.262  10.104  10.051
28035SOL     OW84130   4.185  10.576  11.037
28035SOL    HW184131   4.135  10.577  10.951
28035SOL    HW284132   4.122  10.558  11.113
28036SOL     OW84133   4.835  11.086   9.547
28036SOL    HW184134   4.775  11.024   9.597
28036SOL    HW284135   4.866  11.042   9.462
28037SOL     OW84136   3.926   9.595  10.808
28037SOL    HW184137   3.846   9.655  10.795
28037SOL    HW284138   3.916   9.546  10.894
28038SOL     OW84139   5.356  10.687   9.391
28038SOL    HW184140   5.324  10.781   9.381
28038SOL    HW284141   5.280  10.624   9.379
28039SOL     OW84142   4.188  11.053   9.633
28039SOL    HW184143   4.221  11.092   9.719
28039SOL    HW284144   4.264  11.046   9.568
28040SOL     OW84145   5.124   9.417   9.736
28040SOL    HW184146   5.100   9.380   9.646
28040SOL    HW284147   5.223   9.433   9.740
28041SOL     OW84148   3.973  11.095  10.551
28041SOL    HW184149   4.030  11.030  10.601
28041SOL    HW284150   3.957  11.062  10.458
28042SOL     OW84151   4.664  11.008  10.214
28042SOL    HW184152   4.744  10.951  10.235
28042SOL    HW284153   4.615  10.968  10.137
28043SOL     OW84154   4.106  10.010   9.790
28043SOL    HW184155   4.151   9.920   9.787
28043SOL    HW284156   4.012   9.999   9.823
28044SOL     OW84157   5.271   9.532  11.039
28044SOL    HW184158   5.266   9.569  11.131
28044SOL    HW284159   5.199   9.463  11.027
28045SOL     OW84160   4.338   9.432   9.427
28045SOL    HW184161   4.436   9.410   9.434
28045SOL    HW284162   4.307   9.415   9.334
28046SOL     OW84163   4.505   9.574  11.059
28046SOL    HW184164   4.572   9.513  11.102
28046SOL    HW284165   4.432   9.593  11.124
28047SOL     OW84166   4.612  10.824  10.505
28047SOL    HW184167   4.589  10.799  10.411
28047SOL    HW284168   4.673  10.755  10.544
28048SOL     OW84169   5.075   9.900  10.743
28048SOL    HW184170   5.103   9.857  10.828
28048SOL    HW284171   5.100   9.996  10.744
28049SOL     OW84172   4.527  10.712  10.234
28049SOL    HW184173   4.617  10.726  10.192
28049SOL    HW284174   4.456  10.714  10.163
28050SOL     OW84175   4.646   9.813  10.209
28050SOL    HW184176   4.621   9.804  10.113
28050SOL    HW284177   4.694   9.731  10.240
28051SOL     OW84178   4.263   9.374   9.822
28051SOL    HW184179   4.182   9.375   9.880
28051SOL    HW284180   4.266   9.457   9.767
28052SOL     OW84181   5.158  10.498   9.351
28052SOL    HW184182   5.190  10.422   9.408
28052SOL    HW284183   5.066  10.525   9.381
28053SOL     OW84184   4.021   9.345   9.481
28053SOL    HW184185   4.070   9.429   9.460
28053SOL    HW284186   4.083   9.280   9.526
28054SOL     OW84187   4.659   9.546   9.790
28054SOL    HW184188   4.611   9.587   9.712
28054SOL    HW284189   4.758   9.544   9.771
28055SOL     OW84190   4.800   9.993  10.774
28055SOL    HW184191   4.720   9.932  10.777
28055SOL    HW284192   4.881   9.940  10.750
28056SOL     OW84193   4.951  10.880  10.103
28056SOL    HW184194   4.972  10.954  10.038
28056SOL    HW284195   5.019  10.880  10.176
28057SOL     OW84196   4.183  10.462  10.051
28057SOL    HW184197   4.112  10.435  10.116
28057SOL    HW284198   4.157  10.434   9.958
28058SOL     OW84199   4.995  11.107   9.901
28058SOL    HW184200   5.039  11.171   9.837
28058SOL    HW284201   4.945  11.159   9.971
28059SOL     OW84202   4.756   9.859   9.326
28059SOL    HW184203   4.715   9.941   9.287
28059SOL    HW284204   4.820   9.885   9.399
28060SOL     OW84205   3.802   9.866  10.696
28060SOL    HW184206   3.894   9.865  10.655
28060SOL    HW284207   3.796   9.940  10.763
28061SOL     OW84208   4.285   9.532  10.457
28061SOL    HW184209   4.323   9.448  10.494
28061SOL    HW284210   4.197   9.551  10.501
28062SOL     OW84211   4.590   9.764   9.952
28062SOL    HW184212   4.558   9.836   9.890
28062SOL    HW284213   4.614   9.683   9.899
28063SOL     OW84214   4.741   9.349  10.063
28063SOL    HW184215   4.669   9.354   9.994
28063SOL    HW284216   4.717   9.280  10.132
28064SOL     OW84217   5.153  10.483  10.177
28064SOL    HW184218   5.098  10.399  10.170
28064SOL    HW284219   5.179  10.512  10.085
28065SOL     OW84220   5.190   9.900  10.302
28065SOL    HW184221   5.160   9.805  10.309
28065SOL    HW284222   5.263   9.916  10.368
28066SOL     OW84223   5.581  10.143   9.687
28066SOL    HW184224   5.623  10.079   9.751
28066SOL    HW284225   5.543  10.092   9.609
28067SOL     OW84226   4.212  10.695   9.484
28067SOL    HW184227   4.125  10.680   9.531
28067SOL    HW284228   4.195  10.721   9.389
28068SOL     OW84229   5.388  10.590   9.967
28068SOL    HW184230   5.487  10.598   9.981
28068SOL    HW284231   5.343  10.674   9.998
28069SOL     OW84232   5.114   9.885   9.388
28069SOL    HW184233   5.060   9.864   9.469
28069SOL    HW284234   5.205   9.844   9.397
28070SOL     OW84235   4.251   9.566   9.638
28070SOL    HW184236   4.278   9.507   9.563
28070SOL    HW284237   4.251   9.661   9.607
28071SOL     OW84238   5.478  10.533  10.898
28071SOL    HW184239   5.569  10.494  10.885
28071SOL    HW284240   5.486  10.629  10.922
28072SOL     OW84241   4.788  10.657  10.650
28072SOL    HW184242   4.708  10.634  10.705
28072SOL    HW284243   4.871  10.631  10.699
28073SOL     OW84244   5.316  10.939  10.935
28073SOL    HW184245   5.343  10.973  10.845
28073SOL    HW284246   5.395  10.901  10.981
28074SOL     OW84247   4.835  10.505  10.410
28074SOL    HW184248   4.795  10.549  10.491
28074SOL    HW284249   4.794  10.542  10.327
28075SOL     OW84250   5.362  10.409  10.389
28075SOL    HW184251   5.367  10.490  10.448
28075SOL    HW284252   5.276  10.411  10.338
28076SOL     OW84253   4.639   9.399  10.712
28076SOL    HW184254   4.664   9.379  10.617
28076SOL    HW284255   4.711   9.455  10.754
28077SOL     OW84256   4.704  10.426  11.029
28077SOL    HW184257   4.605  10.432  11.039
28077SOL    HW284258   4.727  10.346  10.973
28078SOL     OW84259   4.429  10.360   9.678
28078SOL    HW184260   4.415  10.367   9.777
28078SOL    HW284261   4.513  10.309   9.660
28079SOL     OW84262   4.134  10.123  10.561
28079SOL    HW184263   4.220  10.135  10.611
28079SOL    HW284264   4.092  10.036  10.588
28080SOL     OW84265   4.998   9.696  10.572
28080SOL    HW184266   5.019   9.770  10.636
28080SOL    HW284267   4.909   9.713  10.529
28081SOL     OW84268   3.788  10.874  10.641
28081SOL    HW184269   3.742  10.956  10.607
28081SOL    HW284270   3.886  10.893  10.650
28082SOL     OW84271   4.091  10.410   9.811
28082SOL    HW184272   4.084  10.493   9.755
28082SOL    HW284273   4.095  10.330   9.751
28083SOL     OW84274   4.290   9.847  10.175
28083SOL    HW184275   4.302   9.913  10.101
28083SOL    HW284276   4.336   9.881  10.258
28084SOL     OW84277   4.976  10.658   9.698
28084SOL    HW184278   5.026  10.735   9.738
28084SOL    HW284279   4.881  10.660   9.730
28085SOL     OW84280   4.996  10.755  10.452
28085SOL    HW184281   5.043  10.768  10.539
28085SOL    HW284282   4.930  10.681  10.461
28086SOL     OW84283   5.306   9.949   9.782
28086SOL    HW184284   5.275  10.010   9.855
28086SOL    HW284285   5.356  10.001   9.713
28087SOL     OW84286   4.078  10.820  10.639
28087SOL    HW184287   4.057  10.776  10.552
28087SOL    HW284288   4.175  10.846  10.642
28088SOL     OW84289   4.126  10.061  10.908
28088SOL    HW184290   4.194  10.116  10.861
28088SOL    HW284291   4.166   9.973  10.935
28089SOL     OW84292   5.311  10.089  10.980
28089SOL    HW184293   5.219  10.127  10.975
28089SOL    HW284294   5.371  10.136  10.915
28090SOL     OW84295   4.737   9.415  11.080
28090SOL    HW184296   4.743   9.500  11.028
28090SOL    HW284297   4.769   9.339  11.023
28091SOL     OW84298   4.228   9.360  11.050
28091SOL    HW184299   4.186   9.303  10.980
28091SOL    HW284300   4.162   9.429  11.082
28092SOL     OW84301   4.297  10.180  10.339
28092SOL    HW184302   4.341  10.269  10.330
28092SOL    HW284303   4.234  10.180  10.416
28093SOL     OW84304   5.084  10.172  10.355
28093SOL    HW184305   5.009  10.172  10.289
28093SOL    HW284306   5.121  10.080  10.364
28094SOL     OW84307   4.933   9.835   9.585
28094SOL    HW184308   4.946   9.751   9.639
28094SOL    HW284309   4.904   9.909   9.645
28095SOL     OW84310   4.031   9.523  10.541
28095SOL    HW184311   4.008   9.560  10.631
28095SOL    HW284312   4.001   9.428  10.535
28096SOL     OW84313   3.761  10.620  10.592
28096SOL    HW184314   3.814  10.571  10.660
28096SOL    HW284315   3.783  10.718  10.597
28097SOL     OW84316   4.456   9.944  10.374
28097SOL    HW184317   4.515   9.918  10.298
28097SOL    HW284318   4.428  10.040  10.363
28098SOL     OW84319   5.452  10.245  11.164
28098SOL    HW184320   5.406  10.238  11.075
28098SOL    HW284321   5.390  10.289  11.230
28099SOL     OW84322   4.031   9.373   9.928
28099SOL    HW184323   4.020   9.467   9.961
28099SOL    HW284324   4.026   9.310  10.005
28100SOL     OW84325   5.346   9.677   9.684
28100SOL    HW184326   5.348   9.601   9.748
28100SOL    HW284327   5.298   9.754   9.724
28101SOL     OW84328   4.747  10.076  10.276
28101SOL    HW184329   4.762  10.097  10.372
28101SOL    HW284330   4.717   9.981  10.267
28102SOL     OW84331   4.704  10.883  11.010
28102SOL    HW184332   4.684  10.927  10.922
28102SOL    HW284333   4.743  10.792  10.994
28103SOL     OW84334   5.583  10.828  10.915
28103SOL    HW184335   5.597  10.855  10.820
28103SOL    HW284336   5.666  10.850  10.968
28104SOL     OW84337   4.074  10.208  11.114
28104SOL    HW184338   4.150  10.252  11.162
28104SOL    HW284339   4.109  10.161  11.032
28105SOL     OW84340   5.264   9.584   9.435
28105SOL    HW184341   5.203   9.509   9.458
28105SOL    HW284342   5.286   9.636   9.518
28106SOL     OW84343   5.027  10.148   9.352
28106SOL    HW184344   5.061  10.055   9.367
28106SOL    HW284345   5.045  10.175   9.257
28107SOL     OW84346   4.792  10.643  10.159
28107SOL    HW184347   4.799  10.559  10.104
28107SOL    HW284348   4.854  10.712  10.123
28108SOL     OW84349   4.043  10.120  10.259
28108SOL    HW184350   4.136  10.156  10.264
28108SOL    HW284351   4.037  10.035  10.311
28109SOL     OW84352   4.063   9.819  10.316
28109SOL    HW184353   4.011   9.736  10.299
28109SOL    HW284354   4.140   9.824  10.252
28110SOL     OW84355   4.862   9.690  10.988
28110SOL    HW184356   4.817   9.753  11.052
28110SOL    HW284357   4.955   9.721  10.971
28111SOL     OW84358   4.884   9.517  10.787
28111SOL    HW184359   4.884   9.581  10.864
28111SOL    HW284360   4.912   9.565  10.704
28112SOL     OW84361   3.732  10.636   9.510
28112SOL    HW184362   3.639  10.657   9.479
28112SOL    HW284363   3.742  10.537   9.523
28113SOL     OW84364   3.812  11.111  10.237
28113SOL    HW184365   3.770  11.025  10.210
28113SOL    HW284366   3.906  11.114  10.203
28114SOL     OW84367   4.228  10.878  10.220
28114SOL    HW184368   4.294  10.952  10.229
28114SOL    HW284369   4.272  10.799  10.178
28115SOL     OW84370   4.726  10.106  10.548
28115SOL    HW184371   4.767  10.074  10.634
28115SOL    HW284372   4.630  10.079  10.545
28116SOL     OW84373   3.764   9.854  10.424
28116SOL    HW184374   3.849   9.821  10.383
28116SOL    HW284375   3.777   9.869  10.522
28117SOL     OW84376   3.913   9.830  11.032
28117SOL    HW184377   3.972   9.790  10.962
28117SOL    HW284378   3.855   9.901  10.991
28118SOL     OW84379   5.093  10.260  10.970
28118SOL    HW184380   5.132  10.349  10.990
28118SOL    HW284381   5.103  10.240  10.873
28119SOL     OW84382   4.539   9.882   9.635
28119SOL    HW184383   4.546   9.793   9.589
28119SOL    HW284384   4.445   9.916   9.627
28120SOL     OW84385   5.381   9.914  10.516
28120SOL    HW184386   5.343   9.845  10.578
28120SOL    HW284387   5.463   9.878  10.472
28121SOL     OW84388   3.976  10.874  11.054
28121SOL    HW184389   3.946  10.931  11.130
28121SOL    HW284390   3.969  10.777  11.080
28122SOL     OW84391   4.395   9.774  10.579
28122SOL    HW184392   4.361   9.685  10.549
28122SOL    HW284393   4.421   9.828  10.499
28123SOL     OW84394   4.654  10.988  10.775
28123SOL    HW184395   4.630  10.970  10.680
28123SOL    HW284396   4.684  11.082  10.785
28124SOL     OW84397   4.197   9.810   9.501
28124SOL    HW184398   4.258   9.890   9.505
28124SOL    HW284399   4.102   9.841   9.508
28125SOL     OW84400   3.883  10.447  10.776
28125SOL    HW184401   3.905  10.386  10.852
28125SOL    HW284402   3.893  10.398  10.690
28126SOL     OW84403   5.071  10.369  10.544
28126SOL    HW184404   5.095  10.306  10.470
28126SOL    HW284405   4.981  10.409  10.526
28127SOL     OW84406   5.026  10.165   9.619
28127SOL    HW184407   4.940  10.134   9.661
28127SOL    HW284408   5.022  10.151   9.520
28128SOL     OW84409   5.483  11.057  10.464
28128SOL    HW184410   5.544  11.087  10.391
28128SOL    HW284411   5.445  10.968  10.442
28129SOL     OW84412   4.976  11.041  10.438
28129SOL    HW184413   5.060  11.046  10.384
28129SOL    HW284414   4.953  10.945  10.456
28130SOL     OW84415   3.807  10.568  10.332
28130SOL    HW184416   3.802  10.567  10.432
28130SOL    HW284417   3.724  10.527  10.294
28131SOL     OW84418   4.412  10.972  11.026
28131SOL    HW184419   4.356  11.053  11.035
28131SOL    HW284420   4.464  10.976  10.940
28132SOL     OW84421   5.450   9.445   9.833
28132SOL    HW184422   5.523   9.428   9.766
28132SOL    HW284423   5.419   9.358   9.871
28133SOL     OW84424   5.112  10.883   9.787
28133SOL    HW184425   5.179  10.895   9.713
28133SOL    HW284426   5.072  10.972   9.810
28134SOL     OW84427   3.854  11.104  11.161
28134SOL    HW184428   3.813  11.030  11.214
28134SOL    HW284429   3.918  11.155  11.219
28135SOL     OW84430   5.004  10.237   9.982
28135SOL    HW184431   5.064  10.156   9.984
28135SOL    HW284432   5.044  10.306   9.922
28136SOL     OW84433   4.554  10.583  10.732
28136SOL    HW184434   4.549  10.616  10.827
28136SOL    HW284435   4.468  10.602  10.686
28137SOL     OW84436   4.396  10.926   9.464
28137SOL    HW184437   4.405  10.936   9.365
28137SOL    HW284438   4.356  10.837   9.485
28138SOL     OW84439   5.374  11.030  10.704
28138SOL    HW184440   5.427  11.040  10.620
28138SOL    HW284441   5.347  11.120  10.738
28139SOL     OW84442   5.565   9.485  10.273
28139SOL    HW184443   5.604   9.400  10.237
28139SOL    HW284444   5.467   9.487  10.254
28140SOL     OW84445   3.987   9.636  10.030
28140SOL    HW184446   3.908   9.687   9.996
28140SOL    HW284447   3.978   9.621  10.128
28141SOL     OW84448   4.918  10.922   9.341
28141SOL    HW184449   4.924  10.829   9.378
28141SOL    HW284450   4.859  10.922   9.261
28142SOL     OW84451   4.546  10.312  10.682
28142SOL    HW184452   4.586  10.311  10.590
28142SOL    HW284453   4.556  10.404  10.722
28143SOL     OW84454   4.640  10.220   9.601
28143SOL    HW184455   4.703  10.258   9.533
28143SOL    HW284456   4.680  10.137   9.640
28144SOL     OW84457   5.228  10.917   9.354
28144SOL    HW184458   5.136  10.954   9.361
28144SOL    HW284459   5.266  10.937   9.264
28145SOL     OW84460   4.096  10.598  10.800
28145SOL    HW184461   4.083  10.691  10.766
28145SOL    HW284462   4.012  10.546  10.787
28146SOL     OW84463   5.338  10.602  10.599
28146SOL    HW184464   5.398  10.605  10.679
28146SOL    HW284465   5.263  10.666  10.612
28147SOL     OW84466   4.763  10.408  10.006
28147SOL    HW184467   4.693  10.361  10.060
28147SOL    HW284468   4.822  10.340   9.963
28148SOL     OW84469   4.738   9.546  10.281
28148SOL    HW184470   4.730   9.510  10.188
28148SOL    HW284471   4.736   9.470  10.346
28149SOL     OW84472   4.314  10.797   9.801
28149SOL    HW184473   4.356  10.739   9.731
28149SOL    HW284474   4.270  10.876   9.757
28150SOL     OW84475   5.433   9.695  10.691
28150SOL    HW184476   5.506   9.764  10.695
28150SOL    HW284477   5.461   9.620  10.632
28151SOL     OW84478   3.979  10.658   9.600
28151SOL    HW184479   3.883  10.659   9.573
28151SOL    HW284480   3.991  10.711   9.684
28152SOL     OW84481   3.829  10.323  11.036
28152SOL    HW184482   3.752  10.290  11.090
28152SOL    HW284483   3.914  10.293  11.078
28153SOL     OW84484   4.396   9.513  10.799
28153SOL    HW184485   4.486   9.497  10.759
28153SOL    HW284486   4.404   9.518  10.898
28154SOL     OW84487   3.799   9.655   9.343
28154SOL    HW184488   3.707   9.627   9.314
28154SOL    HW284489   3.830   9.732   9.287
28155SOL     OW84490   5.164  10.166  10.708
28155SOL    HW184491   5.107  10.218  10.645
28155SOL    HW284492   5.260  10.178  10.684
28156SOL     OW84493   3.796   9.476   9.628
28156SOL    HW184494   3.779   9.559   9.574
28156SOL    HW284495   3.886   9.439   9.606
28157SOL     OW84496   4.907  10.645   9.429
28157SOL    HW184497   4.808  10.634   9.431
28157SOL    HW284498   4.941  10.660   9.522
28158SOL     OW84499   4.337  10.152  10.741
28158SOL    HW184500   4.393  10.233  10.724
28158SOL    HW284501   4.396  10.072  10.744
28159SOL     OW84502   5.217  11.077  10.269
28159SOL    HW184503   5.250  11.141  10.200
28159SOL    HW284504   5.283  11.071  10.344
28160SOL     OW84505   4.440   9.875  11.018
28160SOL    HW184506   4.459   9.940  11.092
28160SOL    HW284507   4.500   9.795  11.027
28161SOL     OW84508   5.174  10.530  10.943
28161SOL    HW184509   5.165  10.520  11.042
28161SOL    HW284510   5.270  10.523  10.917
28162SOL     OW84511   4.114  11.051  10.870
28162SOL    HW184512   4.023  11.092  10.868
28162SOL    HW284513   4.107  10.957  10.902
28163SOL     OW84514   5.398  10.193  10.564
28163SOL    HW184515   5.371  10.104  10.527
28163SOL    HW284516   5.399  10.261  10.491
28164SOL     OW84517   4.949   9.635   9.759
28164SOL    HW184518   5.014   9.561   9.748
28164SOL    HW284519   4.969   9.685   9.843
28165SOL     OW84520   4.318  10.055   9.962
28165SOL    HW184521   4.368  10.140   9.943
28165SOL    HW284522   4.230  10.057   9.914
28166SOL     OW84523   5.501   9.652  10.952
28166SOL    HW184524   5.484   9.683  10.858
28166SOL    HW284525   5.417   9.615  10.990
28167SOL     OW84526   5.454  10.244  10.827
28167SOL    HW184527   5.492  10.335  10.842
28167SOL    HW284528   5.446  10.227  10.728
28168SOL     OW84529   4.583  10.684   9.326
28168SOL    HW184530   4.537  10.699   9.414
28168SOL    HW284531   4.627  10.769   9.296
28169SOL     OW84532   4.385  11.100  10.263
28169SOL    HW184533   4.339  11.188  10.250
28169SOL    HW284534   4.484  11.112  10.256
28170SOL     OW84535   4.583  10.266  10.171
28170SOL    HW184536   4.637  10.197  10.219
28170SOL    HW284537   4.551  10.335  10.237
28171SOL     OW84538   4.807  10.294   9.397
28171SOL    HW184539   4.784  10.347   9.315
28171SOL    HW284540   4.888  10.238   9.378
28172SOL     OW84541   5.585  10.879  10.161
28172SOL    HW184542   5.514  10.867  10.091
28172SOL    HW284543   5.586  10.800  10.221
28173SOL     OW84544   3.945  10.624  11.154
28173SOL    HW184545   3.880  10.551  11.133
28173SOL    HW284546   3.949  10.638  11.252
28174SOL     OW84547   3.803  10.550   9.963
28174SOL    HW184548   3.802  10.503  10.051
28174SOL    HW284549   3.885  10.522   9.912
28175SOL     OW84550   4.396  10.701  10.934
28175SOL    HW184551   4.318  10.651  10.972
28175SOL    HW284552   4.393  10.796  10.965
28176SOL     OW84553   5.548   9.502  10.537
28176SOL    HW184554   5.544   9.412  10.581
28176SOL    HW284555   5.551   9.491  10.438
28177SOL     OW84556   4.152   9.734   9.830
28177SOL    HW184557   4.182   9.662   9.768
28177SOL    HW284558   4.113   9.694   9.913
28178SOL     OW84559   5.429  10.797  10.414
28178SOL    HW184560   5.336  10.772  10.387
28178SOL    HW284561   5.455  10.747  10.496
28179SOL     OW84562   4.041   9.857  10.590
28179SOL    HW184563   4.079   9.798  10.662
28179SOL    HW284564   4.081   9.831  10.502
28180SOL     OW84565   4.536  10.896   9.997
28180SOL    HW184566   4.568  10.906   9.903
28180SOL    HW284567   4.457  10.834   9.999
28181SOL     OW84568   5.148   9.524  10.422
28181SOL    HW184569   5.200   9.459  10.477
28181SOL    HW284570   5.099   9.587  10.483
28182SOL     OW84571   4.725   9.344  10.464
28182SOL    HW184572   4.662   9.272  10.433
28182SOL    HW284573   4.818   9.308  10.464
28183SOL     OW84574   4.494  10.640   9.611
28183SOL    HW184575   4.448  10.553   9.628
28183SOL    HW284576   4.585  10.637   9.652
28184SOL     OW84577   4.342  10.877  10.594
28184SOL    HW184578   4.337  10.959  10.651
28184SOL    HW284579   4.431  10.874  10.549
28185SOL     OW84580   5.076   9.362   9.478
28185SOL    HW184581   5.111   9.321   9.394
28185SOL    HW284582   4.986   9.324   9.498
28186SOL     OW84583   5.024   9.763  10.001
28186SOL    HW184584   4.965   9.843  10.005
28186SOL    HW284585   5.039   9.728  10.094
28187SOL     OW84586   5.317   9.531  10.192
28187SOL    HW184587   5.233   9.530  10.246
28187SOL    HW284588   5.319   9.614  10.136
28188SOL     OW84589   3.763  10.387   9.610
28188SOL    HW184590   3.862  10.376   9.601
28188SOL    HW284591   3.723  10.301   9.642
28189SOL     OW84592   4.599  10.956   9.647
28189SOL    HW184593   4.522  10.921   9.593
28189SOL    HW284594   4.567  11.027   9.709
28190SOL     OW84595   3.954   9.938  11.285
28190SOL    HW184596   3.861   9.936  11.322
28190SOL    HW284597   3.955   9.899  11.193
28191SOL     OW84598   3.949   9.585  12.168
28191SOL    HW184599   3.984   9.568  12.260
28191SOL    HW284600   3.861   9.540  12.156
28192SOL     OW84601   3.743   9.678  11.819
28192SOL    HW184602   3.661   9.721  11.858
28192SOL    HW284603   3.715   9.605  11.756
28193SOL     OW84604   4.293  10.585  12.337
28193SOL    HW184605   4.200  10.578  12.300
28193SOL    HW284606   4.304  10.674  12.381
28194SOL     OW84607   5.279  10.821  11.875
28194SOL    HW184608   5.222  10.805  11.956
28194SOL    HW284609   5.220  10.831  11.795
28195SOL     OW84610   4.859  10.013  11.889
28195SOL    HW184611   4.916  10.091  11.864
28195SOL    HW284612   4.799  10.039  11.965
28196SOL     OW84613   5.479   9.917  11.403
28196SOL    HW184614   5.467   9.904  11.304
28196SOL    HW284615   5.449   9.836  11.452
28197SOL     OW84616   4.492  10.454  12.195
28197SOL    HW184617   4.414  10.471  12.255
28197SOL    HW284618   4.526  10.541  12.159
28198SOL     OW84619   4.409  10.322  11.837
28198SOL    HW184620   4.478  10.306  11.907
28198SOL    HW284621   4.336  10.379  11.875
28199SOL     OW84622   4.059  10.745  12.233
28199SOL    HW184623   3.981  10.714  12.180
28199SOL    HW284624   4.117  10.803  12.176
28200SOL     OW84625   5.184  10.815  12.511
28200SOL    HW184626   5.208  10.909  12.537
28200SOL    HW284627   5.168  10.761  12.593
28201SOL     OW84628   4.162   9.702  12.671
28201SOL    HW184629   4.244   9.646  12.680
28201SOL    HW284630   4.081   9.644  12.675
28202SOL     OW84631   5.327   9.757  11.909
28202SOL    HW184632   5.253   9.803  11.859
28202SOL    HW284633   5.378   9.825  11.962
28203SOL     OW84634   3.955  11.023  11.655
28203SOL    HW184635   3.989  11.100  11.709
28203SOL    HW284636   3.999  11.023  11.565
28204SOL     OW84637   3.954  10.744  11.710
28204SOL    HW184638   3.928  10.840  11.710
28204SOL    HW284639   3.883  10.690  11.755
28205SOL     OW84640   3.964  10.401  12.058
28205SOL    HW184641   3.978  10.317  12.110
28205SOL    HW284642   3.909  10.465  12.113
28206SOL     OW84643   4.344  11.096  12.611
28206SOL    HW184644   4.252  11.079  12.646
28206SOL    HW284645   4.372  11.188  12.637
28207SOL     OW84646   4.330  10.274  11.295
28207SOL    HW184647   4.337  10.358  11.241
28207SOL    HW284648   4.376  10.287  11.383
28208SOL     OW84649   5.318   9.424  12.652
28208SOL    HW184650   5.300   9.491  12.580
28208SOL    HW284651   5.315   9.470  12.741
28209SOL     OW84652   3.846   9.953  11.735
28209SOL    HW184653   3.801   9.865  11.752
28209SOL    HW284654   3.845  10.007  11.819
28210SOL     OW84655   5.566  11.077  11.531
28210SOL    HW184656   5.620  11.048  11.611
28210SOL    HW284657   5.596  11.167  11.502
28211SOL     OW84658   3.751  10.906  11.289
28211SOL    HW184659   3.732  10.810  11.310
28211SOL    HW284660   3.718  10.964  11.364
28212SOL     OW84661   5.413  10.232  11.784
28212SOL    HW184662   5.508  10.203  11.792
28212SOL    HW284663   5.405  10.297  11.709
28213SOL     OW84664   5.365  10.418  11.604
28213SOL    HW184665   5.451  10.420  11.552
28213SOL    HW284666   5.379  10.465  11.692
28214SOL     OW84667   4.337  10.675  11.898
28214SOL    HW184668   4.288  10.588  11.907
28214SOL    HW284669   4.314  10.718  11.811
28215SOL     OW84670   4.533   9.314  11.674
28215SOL    HW184671   4.573   9.405  11.665
28215SOL    HW284672   4.433   9.322  11.680
28216SOL     OW84673   3.921  10.286  12.436
28216SOL    HW184674   4.010  10.241  12.422
28216SOL    HW284675   3.848  10.221  12.417
28217SOL     OW84676   5.249  10.309  11.362
28217SOL    HW184677   5.186  10.233  11.375
28217SOL    HW284678   5.297  10.327  11.448
28218SOL     OW84679   4.041   9.561  12.973
28218SOL    HW184680   4.112   9.632  12.979
28218SOL    HW284681   3.953   9.600  13.001
28219SOL     OW84682   5.190  10.727  12.125
28219SOL    HW184683   5.131  10.733  12.205
28219SOL    HW284684   5.175  10.639  12.079
28220SOL     OW84685   5.391  11.024  11.744
28220SOL    HW184686   5.350  11.001  11.656
28220SOL    HW284687   5.373  10.950  11.809
28221SOL     OW84688   4.322  10.039  11.442
28221SOL    HW184689   4.346  10.108  11.374
28221SOL    HW284690   4.244  10.072  11.496
28222SOL     OW84691   5.005   9.655  12.116
28222SOL    HW184692   4.919   9.605  12.103
28222SOL    HW284693   5.067   9.601  12.172
28223SOL     OW84694   5.300  10.972  11.479
28223SOL    HW184695   5.389  11.018  11.482
28223SOL    HW284696   5.279  10.948  11.384
28224SOL     OW84697   4.531   9.915  12.637
28224SOL    HW184698   4.484   9.912  12.726
28224SOL    HW284699   4.480   9.860  12.571
28225SOL     OW84700   4.715   9.720  12.414
28225SOL    HW184701   4.638   9.754  12.468
28225SOL    HW284702   4.681   9.669  12.335
28226SOL     OW84703   4.765  10.011  11.601
28226SOL    HW184704   4.791  10.007  11.697
28226SOL    HW284705   4.680   9.960  11.587
28227SOL     OW84706   3.800  10.121  11.961
28227SOL    HW184707   3.899  10.109  11.970
28227SOL    HW284708   3.776  10.216  11.982
28228SOL     OW84709   3.854  11.131  12.743
28228SOL    HW184710   3.844  11.116  12.842
28228SOL    HW284711   3.768  11.167  12.707
28229SOL     OW84712   4.589   9.658  11.367
28229SOL    HW184713   4.648   9.721  11.318
28229SOL    HW284714   4.608   9.564  11.338
28230SOL     OW84715   5.086  10.454  11.717
28230SOL    HW184716   5.169  10.425  11.669
28230SOL    HW284717   5.037  10.521  11.661
28231SOL     OW84718   4.274   9.506  12.057
28231SOL    HW184719   4.269   9.501  12.157
28231SOL    HW284720   4.276   9.602  12.028
28232SOL     OW84721   4.732  10.766  11.649
28232SOL    HW184722   4.686  10.838  11.597
28232SOL    HW284723   4.728  10.786  11.747
28233SOL     OW84724   4.075  11.111  12.025
28233SOL    HW184725   4.125  11.025  12.031
28233SOL    HW284726   4.140  11.188  12.022
28234SOL     OW84727   5.519  10.376  12.045
28234SOL    HW184728   5.457  10.361  11.969
28234SOL    HW284729   5.467  10.387  12.130
28235SOL     OW84730   4.045  10.253  11.414
28235SOL    HW184731   4.127  10.292  11.372
28235SOL    HW284732   4.018  10.171  11.365
28236SOL     OW84733   5.182  10.045  11.900
28236SOL    HW184734   5.177   9.980  11.975
28236SOL    HW284735   5.262  10.104  11.913
28237SOL     OW84736   4.835  11.086  11.409
28237SOL    HW184737   4.775  11.024  11.459
28237SOL    HW284738   4.866  11.042  11.324
28238SOL     OW84739   3.926   9.595  12.670
28238SOL    HW184740   3.846   9.655  12.657
28238SOL    HW284741   3.916   9.546  12.756
28239SOL     OW84742   5.356  10.687  11.253
28239SOL    HW184743   5.324  10.781  11.243
28239SOL    HW284744   5.280  10.624  11.241
28240SOL     OW84745   4.188  11.053  11.495
28240SOL    HW184746   4.221  11.092  11.581
28240SOL    HW284747   4.264  11.046  11.430
28241SOL     OW84748   5.124   9.417  11.598
28241SOL    HW184749   5.100   9.380  11.508
28241SOL    HW284750   5.223   9.433  11.602
28242SOL     OW84751   3.973  11.095  12.413
28242SOL    HW184752   4.030  11.030  12.463
28242SOL    HW284753   3.957  11.062  12.320
28243SOL     OW84754   4.664  11.008  12.076
28243SOL    HW184755   4.744  10.951  12.097
28243SOL    HW284756   4.615  10.968  11.999
28244SOL     OW84757   4.106  10.010  11.652
28244SOL    HW184758   4.151   9.920  11.649
28244SOL    HW284759   4.012   9.999  11.685
28245SOL     OW84760   4.338   9.432  11.289
28245SOL    HW184761   4.436   9.410  11.296
28245SOL    HW284762   4.307   9.415  11.196
28246SOL     OW84763   4.612  10.824  12.367
28246SOL    HW184764   4.589  10.799  12.273
28246SOL    HW284765   4.673  10.755  12.406
28247SOL     OW84766   4.527  10.712  12.096
28247SOL    HW184767   4.617  10.726  12.054
28247SOL    HW284768   4.456  10.714  12.025
28248SOL     OW84769   4.646   9.813  12.071
28248SOL    HW184770   4.621   9.804  11.975
28248SOL    HW284771   4.694   9.731  12.102
28249SOL     OW84772   4.263   9.374  11.684
28249SOL    HW184773   4.182   9.375  11.742
28249SOL    HW284774   4.266   9.457  11.629
28250SOL     OW84775   5.158  10.498  11.213
28250SOL    HW184776   5.190  10.422  11.270
28250SOL    HW284777   5.066  10.525  11.243
28251SOL     OW84778   4.021   9.345  11.343
28251SOL    HW184779   4.070   9.429  11.322
28251SOL    HW284780   4.083   9.280  11.388
28252SOL     OW84781   4.659   9.546  11.652
28252SOL    HW184782   4.611   9.587  11.574
28252SOL    HW284783   4.758   9.544  11.633
28253SOL     OW84784   4.951  10.880  11.965
28253SOL    HW184785   4.972  10.954  11.900
28253SOL    HW284786   5.019  10.880  12.038
28254SOL     OW84787   4.183  10.462  11.913
28254SOL    HW184788   4.112  10.435  11.978
28254SOL    HW284789   4.157  10.434  11.820
28255SOL     OW84790   4.995  11.107  11.763
28255SOL    HW184791   5.039  11.171  11.699
28255SOL    HW284792   4.945  11.159  11.833
28256SOL     OW84793   4.756   9.859  11.188
28256SOL    HW184794   4.715   9.941  11.149
28256SOL    HW284795   4.820   9.885  11.261
28257SOL     OW84796   3.802   9.866  12.558
28257SOL    HW184797   3.894   9.865  12.517
28257SOL    HW284798   3.796   9.940  12.625
28258SOL     OW84799   4.285   9.532  12.319
28258SOL    HW184800   4.323   9.448  12.356
28258SOL    HW284801   4.197   9.551  12.363
28259SOL     OW84802   4.590   9.764  11.814
28259SOL    HW184803   4.558   9.836  11.752
28259SOL    HW284804   4.614   9.683  11.761
28260SOL     OW84805   4.741   9.349  11.925
28260SOL    HW184806   4.669   9.354  11.856
28260SOL    HW284807   4.717   9.280  11.994
28261SOL     OW84808   5.153  10.483  12.039
28261SOL    HW184809   5.098  10.399  12.032
28261SOL    HW284810   5.179  10.512  11.947
28262SOL     OW84811   5.190   9.900  12.164
28262SOL    HW184812   5.160   9.805  12.171
28262SOL    HW284813   5.263   9.916  12.230
28263SOL     OW84814   5.581  10.143  11.549
28263SOL    HW184815   5.623  10.079  11.613
28263SOL    HW284816   5.543  10.092  11.471
28264SOL     OW84817   4.212  10.695  11.346
28264SOL    HW184818   4.125  10.680  11.393
28264SOL    HW284819   4.195  10.721  11.251
28265SOL     OW84820   5.388  10.590  11.829
28265SOL    HW184821   5.487  10.598  11.843
28265SOL    HW284822   5.343  10.674  11.860
28266SOL     OW84823   5.114   9.885  11.250
28266SOL    HW184824   5.060   9.864  11.331
28266SOL    HW284825   5.205   9.844  11.259
28267SOL     OW84826   4.251   9.566  11.500
28267SOL    HW184827   4.278   9.507  11.425
28267SOL    HW284828   4.251   9.661  11.469
28268SOL     OW84829   4.788  10.657  12.512
28268SOL    HW184830   4.708  10.634  12.567
28268SOL    HW284831   4.871  10.631  12.561
28269SOL     OW84832   4.835  10.505  12.272
28269SOL    HW184833   4.795  10.549  12.353
28269SOL    HW284834   4.794  10.542  12.189
28270SOL     OW84835   5.362  10.409  12.251
28270SOL    HW184836   5.367  10.490  12.310
28270SOL    HW284837   5.276  10.411  12.200
28271SOL     OW84838   4.639   9.399  12.574
28271SOL    HW184839   4.664   9.379  12.479
28271SOL    HW284840   4.711   9.455  12.616
28272SOL     OW84841   4.429  10.360  11.540
28272SOL    HW184842   4.415  10.367  11.639
28272SOL    HW284843   4.513  10.309  11.522
28273SOL     OW84844   4.134  10.123  12.423
28273SOL    HW184845   4.220  10.135  12.473
28273SOL    HW284846   4.092  10.036  12.450
28274SOL     OW84847   4.998   9.696  12.434
28274SOL    HW184848   5.019   9.770  12.498
28274SOL    HW284849   4.909   9.713  12.391
28275SOL     OW84850   3.788  10.874  12.503
28275SOL    HW184851   3.742  10.956  12.469
28275SOL    HW284852   3.886  10.893  12.512
28276SOL     OW84853   4.091  10.410  11.673
28276SOL    HW184854   4.084  10.493  11.617
28276SOL    HW284855   4.095  10.330  11.613
28277SOL     OW84856   4.290   9.847  12.037
28277SOL    HW184857   4.302   9.913  11.963
28277SOL    HW284858   4.336   9.881  12.120
28278SOL     OW84859   4.976  10.658  11.560
28278SOL    HW184860   5.026  10.735  11.600
28278SOL    HW284861   4.881  10.660  11.592
28279SOL     OW84862   4.996  10.755  12.314
28279SOL    HW184863   5.043  10.768  12.401
28279SOL    HW284864   4.930  10.681  12.323
28280SOL     OW84865   5.306   9.949  11.644
28280SOL    HW184866   5.275  10.010  11.717
28280SOL    HW284867   5.356  10.001  11.575
28281SOL     OW84868   4.078  10.820  12.501
28281SOL    HW184869   4.057  10.776  12.414
28281SOL    HW284870   4.175  10.846  12.504
28282SOL     OW84871   4.126  10.061  12.770
28282SOL    HW184872   4.194  10.116  12.723
28282SOL    HW284873   4.166   9.973  12.797
28283SOL     OW84874   5.311  10.089  12.842
28283SOL    HW184875   5.219  10.127  12.837
28283SOL    HW284876   5.371  10.136  12.777
28284SOL     OW84877   4.297  10.180  12.201
28284SOL    HW184878   4.341  10.269  12.192
28284SOL    HW284879   4.234  10.180  12.278
28285SOL     OW84880   5.084  10.172  12.217
28285SOL    HW184881   5.009  10.172  12.151
28285SOL    HW284882   5.121  10.080  12.226
28286SOL     OW84883   4.933   9.835  11.447
28286SOL    HW184884   4.946   9.751  11.501
28286SOL    HW284885   4.904   9.909  11.507
28287SOL     OW84886   4.031   9.523  12.403
28287SOL    HW184887   4.008   9.560  12.493
28287SOL    HW284888   4.001   9.428  12.397
28288SOL     OW84889   3.761  10.620  12.454
28288SOL    HW184890   3.814  10.571  12.522
28288SOL    HW284891   3.783  10.718  12.459
28289SOL     OW84892   4.456   9.944  12.236
28289SOL    HW184893   4.515   9.918  12.160
28289SOL    HW284894   4.428  10.040  12.225
28290SOL     OW84895   4.031   9.373  11.790
28290SOL    HW184896   4.020   9.467  11.823
28290SOL    HW284897   4.026   9.310  11.867
28291SOL     OW84898   5.346   9.677  11.546
28291SOL    HW184899   5.348   9.601  11.610
28291SOL    HW284900   5.298   9.754  11.586
28292SOL     OW84901   4.747  10.076  12.138
28292SOL    HW184902   4.762  10.097  12.234
28292SOL    HW284903   4.717   9.981  12.129
28293SOL     OW84904   4.704  10.883  12.872
28293SOL    HW184905   4.684  10.927  12.784
28293SOL    HW284906   4.743  10.792  12.856
28294SOL     OW84907   5.264   9.584  11.297
28294SOL    HW184908   5.203   9.509  11.320
28294SOL    HW284909   5.286   9.636  11.380
28295SOL     OW84910   5.027  10.148  11.214
28295SOL    HW184911   5.061  10.055  11.229
28295SOL    HW284912   5.045  10.175  11.119
28296SOL     OW84913   4.792  10.643  12.021
28296SOL    HW184914   4.799  10.559  11.966
28296SOL    HW284915   4.854  10.712  11.985
28297SOL     OW84916   4.043  10.120  12.121
28297SOL    HW184917   4.136  10.156  12.126
28297SOL    HW284918   4.037  10.035  12.173
28298SOL     OW84919   4.063   9.819  12.178
28298SOL    HW184920   4.011   9.736  12.161
28298SOL    HW284921   4.140   9.824  12.114
28299SOL     OW84922   4.862   9.690  12.850
28299SOL    HW184923   4.817   9.753  12.914
28299SOL    HW284924   4.955   9.721  12.833
28300SOL     OW84925   4.884   9.517  12.649
28300SOL    HW184926   4.884   9.581  12.726
28300SOL    HW284927   4.912   9.565  12.566
28301SOL     OW84928   3.732  10.636  11.372
28301SOL    HW184929   3.639  10.657  11.341
28301SOL    HW284930   3.742  10.537  11.385
28302SOL     OW84931   3.812  11.111  12.099
28302SOL    HW184932   3.770  11.025  12.072
28302SOL    HW284933   3.906  11.114  12.065
28303SOL     OW84934   4.228  10.878  12.082
28303SOL    HW184935   4.294  10.952  12.091
28303SOL    HW284936   4.272  10.799  12.040
28304SOL     OW84937   4.726  10.106  12.410
28304SOL    HW184938   4.767  10.074  12.496
28304SOL    HW284939   4.630  10.079  12.407
28305SOL     OW84940   3.764   9.854  12.286
28305SOL    HW184941   3.849   9.821  12.245
28305SOL    HW284942   3.777   9.869  12.384
28306SOL     OW84943   4.539   9.882  11.497
28306SOL    HW184944   4.546   9.793  11.451
28306SOL    HW284945   4.445   9.916  11.489
28307SOL     OW84946   5.381   9.914  12.378
28307SOL    HW184947   5.343   9.845  12.440
28307SOL    HW284948   5.463   9.878  12.334
28308SOL     OW84949   4.395   9.774  12.441
28308SOL    HW184950   4.361   9.685  12.411
28308SOL    HW284951   4.421   9.828  12.361
28309SOL     OW84952   4.654  10.988  12.637
28309SOL    HW184953   4.630  10.970  12.542
28309SOL    HW284954   4.684  11.082  12.647
28310SOL     OW84955   4.197   9.810  11.363
28310SOL    HW184956   4.258   9.890  11.367
28310SOL    HW284957   4.102   9.841  11.370
28311SOL     OW84958   3.883  10.447  12.638
28311SOL    HW184959   3.905  10.386  12.714
28311SOL    HW284960   3.893  10.398  12.552
28312SOL     OW84961   5.071  10.369  12.406
28312SOL    HW184962   5.095  10.306  12.332
28312SOL    HW284963   4.981  10.409  12.388
28313SOL     OW84964   5.026  10.165  11.481
28313SOL    HW184965   4.940  10.134  11.523
28313SOL    HW284966   5.022  10.151  11.382
28314SOL     OW84967   5.483  11.057  12.326
28314SOL    HW184968   5.544  11.087  12.253
28314SOL    HW284969   5.445  10.968  12.304
28315SOL     OW84970   4.976  11.041  12.300
28315SOL    HW184971   5.060  11.046  12.246
28315SOL    HW284972   4.953  10.945  12.318
28316SOL     OW84973   3.807  10.568  12.194
28316SOL    HW184974   3.802  10.567  12.294
28316SOL    HW284975   3.724  10.527  12.156
28317SOL     OW84976   5.450   9.445  11.695
28317SOL    HW184977   5.523   9.428  11.628
28317SOL    HW284978   5.419   9.358  11.733
28318SOL     OW84979   5.112  10.883  11.649
28318SOL    HW184980   5.179  10.895  11.575
28318SOL    HW284981   5.072  10.972  11.672
28319SOL     OW84982   5.004  10.237  11.844
28319SOL    HW184983   5.064  10.156  11.846
28319SOL    HW284984   5.044  10.306  11.784
28320SOL     OW84985   4.396  10.926  11.326
28320SOL    HW184986   4.405  10.936  11.227
28320SOL    HW284987   4.356  10.837  11.347
28321SOL     OW84988   5.374  11.030  12.566
28321SOL    HW184989   5.427  11.040  12.482
28321SOL    HW284990   5.347  11.120  12.600
28322SOL     OW84991   5.565   9.485  12.135
28322SOL    HW184992   5.604   9.400  12.099
28322SOL    HW284993   5.467   9.487  12.116
28323SOL     OW84994   3.987   9.636  11.892
28323SOL    HW184995   3.908   9.687  11.858
28323SOL    HW284996   3.978   9.621  11.990
28324SOL     OW84997   4.918  10.922  11.203
28324SOL    HW184998   4.924  10.829  11.240
28324SOL    HW284999   4.859  10.922  11.123
28325SOL     OW85000   4.546  10.312  12.544
28325SOL    HW185001   4.586  10.311  12.452
28325SOL    HW285002   4.556  10.404  12.584
28326SOL     OW85003   4.640  10.220  11.463
28326SOL    HW185004   4.703  10.258  11.395
28326SOL    HW285005   4.680  10.137  11.502
28327SOL     OW85006   5.228  10.917  11.216
28327SOL    HW185007   5.136  10.954  11.223
28327SOL    HW285008   5.266  10.937  11.126
28328SOL     OW85009   4.096  10.598  12.662
28328SOL    HW185010   4.083  10.691  12.628
28328SOL    HW285011   4.012  10.546  12.649
28329SOL     OW85012   5.338  10.602  12.461
28329SOL    HW185013   5.398  10.605  12.541
28329SOL    HW285014   5.263  10.666  12.474
28330SOL     OW85015   4.763  10.408  11.868
28330SOL    HW185016   4.693  10.361  11.922
28330SOL    HW285017   4.822  10.340  11.825
28331SOL     OW85018   4.738   9.546  12.143
28331SOL    HW185019   4.730   9.510  12.050
28331SOL    HW285020   4.736   9.470  12.208
28332SOL     OW85021   4.314  10.797  11.663
28332SOL    HW185022   4.356  10.739  11.593
28332SOL    HW285023   4.270  10.876  11.619
28333SOL     OW85024   5.433   9.695  12.553
28333SOL    HW185025   5.506   9.764  12.557
28333SOL    HW285026   5.461   9.620  12.494
28334SOL     OW85027   3.979  10.658  11.462
28334SOL    HW185028   3.883  10.659  11.435
28334SOL    HW285029   3.991  10.711  11.546
28335SOL     OW85030   3.799   9.655  11.205
28335SOL    HW185031   3.707   9.627  11.176
28335SOL    HW285032   3.830   9.732  11.149
28336SOL     OW85033   5.164  10.166  12.570
28336SOL    HW185034   5.107  10.218  12.507
28336SOL    HW285035   5.260  10.178  12.546
28337SOL     OW85036   3.796   9.476  11.490
28337SOL    HW185037   3.779   9.559  11.436
28337SOL    HW285038   3.886   9.439  11.468
28338SOL     OW85039   4.907  10.645  11.291
28338SOL    HW185040   4.808  10.634  11.293
28338SOL    HW285041   4.941  10.660  11.384
28339SOL     OW85042   4.337  10.152  12.603
28339SOL    HW185043   4.393  10.233  12.586
28339SOL    HW285044   4.396  10.072  12.606
28340SOL     OW85045   5.217  11.077  12.131
28340SOL    HW185046   5.250  11.141  12.062
28340SOL    HW285047   5.283  11.071  12.206
28341SOL     OW85048   4.114  11.051  12.732
28341SOL    HW185049   4.023  11.092  12.730
28341SOL    HW285050   4.107  10.957  12.764
28342SOL     OW85051   5.398  10.193  12.426
28342SOL    HW185052   5.371  10.104  12.389
28342SOL    HW285053   5.399  10.261  12.353
28343SOL     OW85054   4.949   9.635  11.621
28343SOL    HW185055   5.014   9.561  11.610
28343SOL    HW285056   4.969   9.685  11.705
28344SOL     OW85057   4.318  10.055  11.824
28344SOL    HW185058   4.368  10.140  11.805
28344SOL    HW285059   4.230  10.057  11.776
28345SOL     OW85060   5.501   9.652  12.814
28345SOL    HW185061   5.484   9.683  12.720
28345SOL    HW285062   5.417   9.615  12.852
28346SOL     OW85063   5.454  10.244  12.689
28346SOL    HW185064   5.492  10.335  12.704
28346SOL    HW285065   5.446  10.227  12.590
28347SOL     OW85066   4.583  10.684  11.188
28347SOL    HW185067   4.537  10.699  11.276
28347SOL    HW285068   4.627  10.769  11.158
28348SOL     OW85069   4.385  11.100  12.125
28348SOL    HW185070   4.339  11.188  12.112
28348SOL    HW285071   4.484  11.112  12.118
28349SOL     OW85072   4.583  10.266  12.033
28349SOL    HW185073   4.637  10.197  12.081
28349SOL    HW285074   4.551  10.335  12.099
28350SOL     OW85075   4.807  10.294  11.259
28350SOL    HW185076   4.784  10.347  11.177
28350SOL    HW285077   4.888  10.238  11.240
28351SOL     OW85078   5.585  10.879  12.023
28351SOL    HW185079   5.514  10.867  11.953
28351SOL    HW285080   5.586  10.800  12.083
28352SOL     OW85081   3.803  10.550  11.825
28352SOL    HW185082   3.802  10.503  11.913
28352SOL    HW285083   3.885  10.522  11.774
28353SOL     OW85084   5.548   9.502  12.399
28353SOL    HW185085   5.544   9.412  12.443
28353SOL    HW285086   5.551   9.491  12.300
28354SOL     OW85087   5.429  10.797  12.276
28354SOL    HW185088   5.336  10.772  12.249
28354SOL    HW285089   5.455  10.747  12.358
28355SOL     OW85090   4.041   9.857  12.452
28355SOL    HW185091   4.079   9.798  12.524
28355SOL    HW285092   4.081   9.831  12.364
28356SOL     OW85093   4.536  10.896  11.859
28356SOL    HW185094   4.568  10.906  11.765
28356SOL    HW285095   4.457  10.834  11.861
28357SOL     OW85096   5.148   9.524  12.284
28357SOL    HW185097   5.200   9.459  12.339
28357SOL    HW285098   5.099   9.587  12.345
28358SOL     OW85099   4.725   9.344  12.326
28358SOL    HW185100   4.662   9.272  12.295
28358SOL    HW285101   4.818   9.308  12.326
28359SOL     OW85102   4.494  10.640  11.473
28359SOL    HW185103   4.448  10.553  11.490
28359SOL    HW285104   4.585  10.637  11.514
28360SOL     OW85105   4.342  10.877  12.456
28360SOL    HW185106   4.337  10.959  12.513
28360SOL    HW285107   4.431  10.874  12.411
28361SOL     OW85108   5.076   9.362  11.340
28361SOL    HW185109   5.111   9.321  11.256
28361SOL    HW285110   4.986   9.324  11.360
28362SOL     OW85111   5.024   9.763  11.863
28362SOL    HW185112   4.965   9.843  11.867
28362SOL    HW285113   5.039   9.728  11.956
28363SOL     OW85114   5.317   9.531  12.054
28363SOL    HW185115   5.233   9.530  12.108
28363SOL    HW285116   5.319   9.614  11.998
28364SOL     OW85117   3.763  10.387  11.472
28364SOL    HW185118   3.862  10.376  11.463
28364SOL    HW285119   3.723  10.301  11.504
28365SOL     OW85120   4.599  10.956  11.509
28365SOL    HW185121   4.522  10.921  11.455
28365SOL    HW285122   4.567  11.027  11.571
28366SOL     OW85123   3.954  11.800   0.113
28366SOL    HW185124   3.861  11.798   0.150
28366SOL    HW285125   3.955  11.761   0.021
28367SOL     OW85126   3.949  11.447   0.996
28367SOL    HW185127   3.984  11.430   1.088
28367SOL    HW285128   3.861  11.402   0.984
28368SOL     OW85129   3.743  11.540   0.647
28368SOL    HW185130   3.661  11.583   0.686
28368SOL    HW285131   3.715  11.467   0.584
28369SOL     OW85132   4.293  12.447   1.165
28369SOL    HW185133   4.200  12.440   1.128
28369SOL    HW285134   4.304  12.536   1.209
28370SOL     OW85135   5.279  12.683   0.703
28370SOL    HW185136   5.222  12.667   0.784
28370SOL    HW285137   5.220  12.693   0.623
28371SOL     OW85138   4.859  11.875   0.717
28371SOL    HW185139   4.916  11.953   0.692
28371SOL    HW285140   4.799  11.901   0.793
28372SOL     OW85141   5.479  11.779   0.231
28372SOL    HW185142   5.467  11.766   0.132
28372SOL    HW285143   5.449  11.698   0.280
28373SOL     OW85144   4.492  12.316   1.023
28373SOL    HW185145   4.414  12.333   1.083
28373SOL    HW285146   4.526  12.403   0.987
28374SOL     OW85147   4.574  11.970   1.823
28374SOL    HW185148   4.570  12.046   1.888
28374SOL    HW285149   4.596  12.006   1.732
28375SOL     OW85150   4.409  12.184   0.665
28375SOL    HW185151   4.478  12.168   0.735
28375SOL    HW285152   4.336  12.241   0.703
28376SOL     OW85153   4.410  12.333   1.803
28376SOL    HW185154   4.470  12.412   1.817
28376SOL    HW285155   4.324  12.364   1.762
28377SOL     OW85156   4.059  12.607   1.061
28377SOL    HW185157   3.981  12.576   1.008
28377SOL    HW285158   4.117  12.665   1.004
28378SOL     OW85159   5.184  12.677   1.339
28378SOL    HW185160   5.208  12.771   1.365
28378SOL    HW285161   5.168  12.623   1.421
28379SOL     OW85162   4.162  11.564   1.499
28379SOL    HW185163   4.244  11.508   1.508
28379SOL    HW285164   4.081  11.506   1.503
28380SOL     OW85165   5.327  11.619   0.737
28380SOL    HW185166   5.253  11.665   0.687
28380SOL    HW285167   5.378  11.687   0.790
28381SOL     OW85168   3.955  12.885   0.483
28381SOL    HW185169   3.989  12.962   0.537
28381SOL    HW285170   3.999  12.885   0.393
28382SOL     OW85171   4.851  12.513   1.690
28382SOL    HW185172   4.898  12.513   1.778
28382SOL    HW285173   4.803  12.426   1.679
28383SOL     OW85174   3.954  12.606   0.538
28383SOL    HW185175   3.928  12.702   0.538
28383SOL    HW285176   3.883  12.552   0.583
28384SOL     OW85177   3.964  12.263   0.886
28384SOL    HW185178   3.978  12.179   0.938
28384SOL    HW285179   3.909  12.327   0.941
28385SOL     OW85180   4.330  12.136   0.123
28385SOL    HW185181   4.337  12.220   0.069
28385SOL    HW285182   4.376  12.149   0.211
28386SOL     OW85183   5.318  11.286   1.480
28386SOL    HW185184   5.300  11.353   1.408
28386SOL    HW285185   5.315  11.332   1.569
28387SOL     OW85186   3.846  11.815   0.563
28387SOL    HW185187   3.801  11.727   0.580
28387SOL    HW285188   3.845  11.869   0.647
28388SOL     OW85189   3.751  12.768   0.117
28388SOL    HW185190   3.732  12.672   0.138
28388SOL    HW285191   3.718  12.826   0.192
28389SOL     OW85192   5.413  12.094   0.612
28389SOL    HW185193   5.508  12.065   0.620
28389SOL    HW285194   5.405  12.159   0.537
28390SOL     OW85195   5.365  12.280   0.432
28390SOL    HW185196   5.451  12.282   0.380
28390SOL    HW285197   5.379  12.327   0.520
28391SOL     OW85198   3.837  11.909   1.597
28391SOL    HW185199   3.925  11.896   1.642
28391SOL    HW285200   3.824  12.006   1.575
28392SOL     OW85201   4.337  12.537   0.726
28392SOL    HW185202   4.288  12.450   0.735
28392SOL    HW285203   4.314  12.580   0.639
28393SOL     OW85204   5.017  12.400   1.423
28393SOL    HW185205   5.054  12.327   1.365
28393SOL    HW285206   5.069  12.405   1.508
28394SOL     OW85207   4.533  11.176   0.502
28394SOL    HW185208   4.573  11.267   0.493
28394SOL    HW285209   4.433  11.184   0.508
28395SOL     OW85210   3.921  12.148   1.264
28395SOL    HW185211   4.010  12.103   1.250
28395SOL    HW285212   3.848  12.083   1.245
28396SOL     OW85213   5.249  12.171   0.190
28396SOL    HW185214   5.186  12.095   0.203
28396SOL    HW285215   5.297  12.189   0.276
28397SOL     OW85216   4.041  11.423   1.801
28397SOL    HW185217   4.112  11.494   1.807
28397SOL    HW285218   3.953  11.462   1.829
28398SOL     OW85219   5.190  12.589   0.953
28398SOL    HW185220   5.131  12.595   1.033
28398SOL    HW285221   5.175  12.501   0.907
28399SOL     OW85222   4.322  11.901   0.270
28399SOL    HW185223   4.346  11.970   0.202
28399SOL    HW285224   4.244  11.934   0.324
28400SOL     OW85225   5.005  11.517   0.944
28400SOL    HW185226   4.919  11.467   0.931
28400SOL    HW285227   5.067  11.463   1.000
28401SOL     OW85228   4.531  11.777   1.465
28401SOL    HW185229   4.484  11.774   1.554
28401SOL    HW285230   4.480  11.722   1.399
28402SOL     OW85231   5.118  11.641   1.674
28402SOL    HW185232   5.098  11.684   1.762
28402SOL    HW285233   5.196  11.579   1.683
28403SOL     OW85234   4.697  12.062   1.572
28403SOL    HW185235   4.743  11.978   1.543
28403SOL    HW285236   4.641  12.096   1.497
28404SOL     OW85237   4.715  11.582   1.242
28404SOL    HW185238   4.638  11.616   1.296
28404SOL    HW285239   4.681  11.531   1.163
28405SOL     OW85240   4.765  11.873   0.429
28405SOL    HW185241   4.791  11.869   0.525
28405SOL    HW285242   4.680  11.822   0.415
28406SOL     OW85243   3.800  11.983   0.789
28406SOL    HW185244   3.899  11.971   0.798
28406SOL    HW285245   3.776  12.078   0.810
28407SOL     OW85246   4.589  11.520   0.195
28407SOL    HW185247   4.648  11.583   0.146
28407SOL    HW285248   4.608  11.426   0.166
28408SOL     OW85249   5.443  11.757   1.831
28408SOL    HW185250   5.417  11.846   1.795
28408SOL    HW285251   5.441  11.689   1.758
28409SOL     OW85252   5.086  12.316   0.545
28409SOL    HW185253   5.169  12.287   0.497
28409SOL    HW285254   5.037  12.383   0.489
28410SOL     OW85255   4.274  11.368   0.885
28410SOL    HW185256   4.269  11.363   0.985
28410SOL    HW285257   4.276  11.464   0.856
28411SOL     OW85258   4.732  12.628   0.477
28411SOL    HW185259   4.686  12.700   0.425
28411SOL    HW285260   4.728  12.648   0.575
28412SOL     OW85261   5.519  12.238   0.873
28412SOL    HW185262   5.457  12.223   0.797
28412SOL    HW285263   5.467  12.249   0.958
28413SOL     OW85264   4.951  12.722   1.506
28413SOL    HW185265   4.957  12.645   1.570
28413SOL    HW285266   4.899  12.696   1.426
28414SOL     OW85267   4.045  12.115   0.242
28414SOL    HW185268   4.127  12.154   0.200
28414SOL    HW285269   4.018  12.033   0.193
28415SOL     OW85270   5.182  11.907   0.728
28415SOL    HW185271   5.177  11.842   0.803
28415SOL    HW285272   5.262  11.966   0.741
28416SOL     OW85273   4.185  12.438   1.727
28416SOL    HW185274   4.135  12.439   1.641
28416SOL    HW285275   4.122  12.420   1.803
28417SOL     OW85276   4.835  12.948   0.237
28417SOL    HW185277   4.775  12.886   0.287
28417SOL    HW285278   4.866  12.904   0.152
28418SOL     OW85279   3.926  11.457   1.498
28418SOL    HW185280   3.846  11.517   1.485
28418SOL    HW285281   3.916  11.408   1.584
28419SOL     OW85282   5.356  12.549   0.081
28419SOL    HW185283   5.324  12.643   0.071
28419SOL    HW285284   5.280  12.486   0.069
28420SOL     OW85285   5.124  11.279   0.426
28420SOL    HW185286   5.100  11.242   0.336
28420SOL    HW285287   5.223  11.295   0.430
28421SOL     OW85288   4.106  11.872   0.480
28421SOL    HW185289   4.151  11.782   0.477
28421SOL    HW285290   4.012  11.861   0.513
28422SOL     OW85291   5.271  11.394   1.729
28422SOL    HW185292   5.266  11.431   1.821
28422SOL    HW285293   5.199  11.325   1.717
28423SOL     OW85294   4.338  11.294   0.117
28423SOL    HW185295   4.436  11.272   0.124
28423SOL    HW285296   4.307  11.277   0.024
28424SOL     OW85297   4.505  11.436   1.749
28424SOL    HW185298   4.572  11.375   1.792
28424SOL    HW285299   4.432  11.455   1.814
28425SOL     OW85300   5.075  11.762   1.433
28425SOL    HW185301   5.103  11.719   1.518
28425SOL    HW285302   5.100  11.858   1.434
28426SOL     OW85303   4.527  12.574   0.924
28426SOL    HW185304   4.617  12.588   0.882
28426SOL    HW285305   4.456  12.576   0.853
28427SOL     OW85306   4.646  11.675   0.899
28427SOL    HW185307   4.621  11.666   0.803
28427SOL    HW285308   4.694  11.593   0.930
28428SOL     OW85309   4.263  11.236   0.512
28428SOL    HW185310   4.182  11.237   0.570
28428SOL    HW285311   4.266  11.319   0.457
28429SOL     OW85312   5.158  12.360   0.041
28429SOL    HW185313   5.190  12.284   0.098
28429SOL    HW285314   5.066  12.387   0.071
28430SOL     OW85315   4.021  11.207   0.171
28430SOL    HW185316   4.070  11.291   0.150
28430SOL    HW285317   4.083  11.142   0.216
28431SOL     OW85318   4.659  11.408   0.480
28431SOL    HW185319   4.611  11.449   0.402
28431SOL    HW285320   4.758  11.406   0.461
28432SOL     OW85321   4.800  11.855   1.464
28432SOL    HW185322   4.720  11.794   1.467
28432SOL    HW285323   4.881  11.802   1.440
28433SOL     OW85324   4.951  12.742   0.793
28433SOL    HW185325   4.972  12.816   0.728
28433SOL    HW285326   5.019  12.742   0.866
28434SOL     OW85327   4.183  12.324   0.741
28434SOL    HW185328   4.112  12.297   0.806
28434SOL    HW285329   4.157  12.296   0.648
28435SOL     OW85330   3.802  11.728   1.386
28435SOL    HW185331   3.894  11.727   1.345
28435SOL    HW285332   3.796  11.802   1.453
28436SOL     OW85333   4.285  11.394   1.147
28436SOL    HW185334   4.323  11.310   1.184
28436SOL    HW285335   4.197  11.413   1.191
28437SOL     OW85336   4.590  11.626   0.642
28437SOL    HW185337   4.558  11.698   0.580
28437SOL    HW285338   4.614  11.545   0.589
28438SOL     OW85339   4.741  11.211   0.753
28438SOL    HW185340   4.669  11.216   0.684
28438SOL    HW285341   4.717  11.142   0.822
28439SOL     OW85342   5.153  12.345   0.867
28439SOL    HW185343   5.098  12.261   0.860
28439SOL    HW285344   5.179  12.374   0.775
28440SOL     OW85345   5.190  11.762   0.992
28440SOL    HW185346   5.160  11.667   0.999
28440SOL    HW285347   5.263  11.778   1.058
28441SOL     OW85348   5.581  12.005   0.377
28441SOL    HW185349   5.623  11.941   0.441
28441SOL    HW285350   5.543  11.954   0.299
28442SOL     OW85351   4.212  12.557   0.174
28442SOL    HW185352   4.125  12.542   0.221
28442SOL    HW285353   4.195  12.583   0.079
28443SOL     OW85354   5.388  12.452   0.657
28443SOL    HW185355   5.487  12.460   0.671
28443SOL    HW285356   5.343  12.536   0.688
28444SOL     OW85357   5.114  11.747   0.078
28444SOL    HW185358   5.060  11.726   0.159
28444SOL    HW285359   5.205  11.706   0.087
28445SOL     OW85360   4.251  11.428   0.328
28445SOL    HW185361   4.278  11.369   0.253
28445SOL    HW285362   4.251  11.523   0.297
28446SOL     OW85363   5.478  12.395   1.588
28446SOL    HW185364   5.569  12.356   1.575
28446SOL    HW285365   5.486  12.491   1.612
28447SOL     OW85366   4.788  12.519   1.340
28447SOL    HW185367   4.708  12.496   1.395
28447SOL    HW285368   4.871  12.493   1.389
28448SOL     OW85369   4.835  12.367   1.100
28448SOL    HW185370   4.795  12.411   1.181
28448SOL    HW285371   4.794  12.404   1.017
28449SOL     OW85372   5.362  12.271   1.079
28449SOL    HW185373   5.367  12.352   1.138
28449SOL    HW285374   5.276  12.273   1.028
28450SOL     OW85375   4.639  11.261   1.402
28450SOL    HW185376   4.664  11.241   1.307
28450SOL    HW285377   4.711  11.317   1.444
28451SOL     OW85378   4.704  12.288   1.719
28451SOL    HW185379   4.605  12.294   1.729
28451SOL    HW285380   4.727  12.208   1.663
28452SOL     OW85381   4.429  12.222   0.368
28452SOL    HW185382   4.415  12.229   0.467
28452SOL    HW285383   4.513  12.171   0.350
28453SOL     OW85384   4.134  11.985   1.251
28453SOL    HW185385   4.220  11.997   1.301
28453SOL    HW285386   4.092  11.898   1.278
28454SOL     OW85387   4.998  11.558   1.262
28454SOL    HW185388   5.019  11.632   1.326
28454SOL    HW285389   4.909  11.575   1.219
28455SOL     OW85390   4.091  12.272   0.501
28455SOL    HW185391   4.084  12.355   0.445
28455SOL    HW285392   4.095  12.192   0.441
28456SOL     OW85393   4.290  11.709   0.865
28456SOL    HW185394   4.302  11.775   0.791
28456SOL    HW285395   4.336  11.743   0.948
28457SOL     OW85396   4.976  12.520   0.388
28457SOL    HW185397   5.026  12.597   0.428
28457SOL    HW285398   4.881  12.522   0.420
28458SOL     OW85399   4.996  12.617   1.142
28458SOL    HW185400   5.043  12.630   1.229
28458SOL    HW285401   4.930  12.543   1.151
28459SOL     OW85402   5.306  11.811   0.472
28459SOL    HW185403   5.275  11.872   0.545
28459SOL    HW285404   5.356  11.863   0.403
28460SOL     OW85405   4.078  12.682   1.329
28460SOL    HW185406   4.057  12.638   1.242
28460SOL    HW285407   4.175  12.708   1.332
28461SOL     OW85408   4.126  11.923   1.598
28461SOL    HW185409   4.194  11.978   1.551
28461SOL    HW285410   4.166  11.835   1.625
28462SOL     OW85411   5.311  11.951   1.670
28462SOL    HW185412   5.219  11.989   1.665
28462SOL    HW285413   5.371  11.998   1.605
28463SOL     OW85414   4.737  11.277   1.770
28463SOL    HW185415   4.743  11.362   1.718
28463SOL    HW285416   4.769  11.201   1.713
28464SOL     OW85417   4.228  11.222   1.740
28464SOL    HW185418   4.186  11.165   1.670
28464SOL    HW285419   4.162  11.291   1.772
28465SOL     OW85420   4.297  12.042   1.029
28465SOL    HW185421   4.341  12.131   1.020
28465SOL    HW285422   4.234  12.042   1.106
28466SOL     OW85423   5.084  12.034   1.045
28466SOL    HW185424   5.009  12.034   0.979
28466SOL    HW285425   5.121  11.942   1.054
28467SOL     OW85426   4.933  11.697   0.275
28467SOL    HW185427   4.946  11.613   0.329
28467SOL    HW285428   4.904  11.771   0.335
28468SOL     OW85429   4.031  11.385   1.231
28468SOL    HW185430   4.008  11.422   1.321
28468SOL    HW285431   4.001  11.290   1.225
28469SOL     OW85432   3.761  12.482   1.282
28469SOL    HW185433   3.814  12.433   1.350
28469SOL    HW285434   3.783  12.580   1.287
28470SOL     OW85435   4.456  11.806   1.064
28470SOL    HW185436   4.515  11.780   0.988
28470SOL    HW285437   4.428  11.902   1.053
28471SOL     OW85438   5.452  12.107   1.854
28471SOL    HW185439   5.406  12.100   1.765
28471SOL    HW285440   5.390  12.151   1.920
28472SOL     OW85441   4.031  11.235   0.618
28472SOL    HW185442   4.020  11.329   0.651
28472SOL    HW285443   4.026  11.172   0.695
28473SOL     OW85444   5.346  11.539   0.374
28473SOL    HW185445   5.348  11.463   0.438
28473SOL    HW285446   5.298  11.616   0.414
28474SOL     OW85447   4.747  11.938   0.966
28474SOL    HW185448   4.762  11.959   1.062
28474SOL    HW285449   4.717  11.843   0.957
28475SOL     OW85450   5.583  12.690   1.605
28475SOL    HW185451   5.597  12.717   1.510
28475SOL    HW285452   5.666  12.712   1.658
28476SOL     OW85453   4.074  12.070   1.804
28476SOL    HW185454   4.150  12.114   1.852
28476SOL    HW285455   4.109  12.023   1.722
28477SOL     OW85456   5.264  11.446   0.125
28477SOL    HW185457   5.203  11.371   0.148
28477SOL    HW285458   5.286  11.498   0.208
28478SOL     OW85459   5.027  12.010   0.042
28478SOL    HW185460   5.061  11.917   0.057
28478SOL    HW285461   5.045  12.037  -0.053
28479SOL     OW85462   4.792  12.505   0.849
28479SOL    HW185463   4.799  12.421   0.794
28479SOL    HW285464   4.854  12.574   0.813
28480SOL     OW85465   4.043  11.982   0.949
28480SOL    HW185466   4.136  12.018   0.954
28480SOL    HW285467   4.037  11.897   1.001
28481SOL     OW85468   4.063  11.681   1.006
28481SOL    HW185469   4.011  11.598   0.989
28481SOL    HW285470   4.140  11.686   0.942
28482SOL     OW85471   4.862  11.552   1.678
28482SOL    HW185472   4.817  11.615   1.742
28482SOL    HW285473   4.955  11.583   1.661
28483SOL     OW85474   4.884  11.379   1.477
28483SOL    HW185475   4.884  11.443   1.554
28483SOL    HW285476   4.912  11.427   1.394
28484SOL     OW85477   3.732  12.498   0.200
28484SOL    HW185478   3.639  12.519   0.169
28484SOL    HW285479   3.742  12.399   0.213
28485SOL     OW85480   4.726  11.968   1.238
28485SOL    HW185481   4.767  11.936   1.324
28485SOL    HW285482   4.630  11.941   1.235
28486SOL     OW85483   3.764  11.716   1.114
28486SOL    HW185484   3.849  11.683   1.073
28486SOL    HW285485   3.777  11.731   1.212
28487SOL     OW85486   3.913  11.692   1.722
28487SOL    HW185487   3.972  11.652   1.652
28487SOL    HW285488   3.855  11.763   1.681
28488SOL     OW85489   5.093  12.122   1.660
28488SOL    HW185490   5.132  12.211   1.680
28488SOL    HW285491   5.103  12.102   1.563
28489SOL     OW85492   4.539  11.744   0.325
28489SOL    HW185493   4.546  11.655   0.279
28489SOL    HW285494   4.445  11.778   0.317
28490SOL     OW85495   5.381  11.776   1.206
28490SOL    HW185496   5.343  11.707   1.268
28490SOL    HW285497   5.463  11.740   1.162
28491SOL     OW85498   3.976  12.736   1.744
28491SOL    HW185499   3.946  12.793   1.820
28491SOL    HW285500   3.969  12.639   1.770
28492SOL     OW85501   4.395  11.636   1.269
28492SOL    HW185502   4.361  11.547   1.239
28492SOL    HW285503   4.421  11.690   1.189
28493SOL     OW85504   4.197  11.672   0.191
28493SOL    HW185505   4.258  11.752   0.195
28493SOL    HW285506   4.102  11.703   0.198
28494SOL     OW85507   3.883  12.309   1.466
28494SOL    HW185508   3.905  12.248   1.542
28494SOL    HW285509   3.893  12.260   1.380
28495SOL     OW85510   5.071  12.231   1.234
28495SOL    HW185511   5.095  12.168   1.160
28495SOL    HW285512   4.981  12.271   1.216
28496SOL     OW85513   5.026  12.027   0.309
28496SOL    HW185514   4.940  11.996   0.351
28496SOL    HW285515   5.022  12.013   0.210
28497SOL     OW85516   3.807  12.430   1.022
28497SOL    HW185517   3.802  12.429   1.122
28497SOL    HW285518   3.724  12.389   0.984
28498SOL     OW85519   4.627  11.258   0.133
28498SOL    HW185520   4.678  11.259   0.047
28498SOL    HW285521   4.683  11.216   0.204
28499SOL     OW85522   5.450  11.307   0.523
28499SOL    HW185523   5.523  11.290   0.456
28499SOL    HW285524   5.419  11.220   0.561
28500SOL     OW85525   5.004  12.099   0.672
28500SOL    HW185526   5.064  12.018   0.674
28500SOL    HW285527   5.044  12.168   0.612
28501SOL     OW85528   4.554  12.445   1.422
28501SOL    HW185529   4.549  12.478   1.517
28501SOL    HW285530   4.468  12.464   1.376
28502SOL     OW85531   5.565  11.347   0.963
28502SOL    HW185532   5.604  11.262   0.927
28502SOL    HW285533   5.467  11.349   0.944
28503SOL     OW85534   3.987  11.498   0.720
28503SOL    HW185535   3.908  11.549   0.686
28503SOL    HW285536   3.978  11.483   0.818
28504SOL     OW85537   4.918  12.784   0.031
28504SOL    HW185538   4.924  12.691   0.068
28504SOL    HW285539   4.859  12.784  -0.049
28505SOL     OW85540   4.546  12.174   1.372
28505SOL    HW185541   4.586  12.173   1.280
28505SOL    HW285542   4.556  12.266   1.412
28506SOL     OW85543   4.640  12.082   0.291
28506SOL    HW185544   4.703  12.120   0.223
28506SOL    HW285545   4.680  11.999   0.330
28507SOL     OW85546   4.096  12.460   1.490
28507SOL    HW185547   4.083  12.553   1.456
28507SOL    HW285548   4.012  12.408   1.477
28508SOL     OW85549   5.338  12.464   1.289
28508SOL    HW185550   5.398  12.467   1.369
28508SOL    HW285551   5.263  12.528   1.302
28509SOL     OW85552   4.763  12.270   0.696
28509SOL    HW185553   4.693  12.223   0.750
28509SOL    HW285554   4.822  12.202   0.653
28510SOL     OW85555   4.738  11.408   0.971
28510SOL    HW185556   4.730  11.372   0.878
28510SOL    HW285557   4.736  11.332   1.036
28511SOL     OW85558   5.433  11.557   1.381
28511SOL    HW185559   5.506  11.626   1.385
28511SOL    HW285560   5.461  11.482   1.322
28512SOL     OW85561   3.979  12.520   0.290
28512SOL    HW185562   3.883  12.521   0.263
28512SOL    HW285563   3.991  12.573   0.374
28513SOL     OW85564   3.829  12.185   1.726
28513SOL    HW185565   3.752  12.152   1.780
28513SOL    HW285566   3.914  12.155   1.768
28514SOL     OW85567   4.396  11.375   1.489
28514SOL    HW185568   4.486  11.359   1.449
28514SOL    HW285569   4.404  11.380   1.588
28515SOL     OW85570   5.164  12.028   1.398
28515SOL    HW185571   5.107  12.080   1.335
28515SOL    HW285572   5.260  12.040   1.374
28516SOL     OW85573   3.796  11.338   0.318
28516SOL    HW185574   3.779  11.421   0.264
28516SOL    HW285575   3.886  11.301   0.296
28517SOL     OW85576   4.907  12.507   0.119
28517SOL    HW185577   4.808  12.496   0.121
28517SOL    HW285578   4.941  12.522   0.212
28518SOL     OW85579   4.337  12.014   1.431
28518SOL    HW185580   4.393  12.095   1.414
28518SOL    HW285581   4.396  11.934   1.434
28519SOL     OW85582   4.440  11.737   1.708
28519SOL    HW185583   4.459  11.802   1.782
28519SOL    HW285584   4.500  11.657   1.717
28520SOL     OW85585   5.174  12.392   1.633
28520SOL    HW185586   5.165  12.382   1.732
28520SOL    HW285587   5.270  12.385   1.607
28521SOL     OW85588   5.398  12.055   1.254
28521SOL    HW185589   5.371  11.966   1.217
28521SOL    HW285590   5.399  12.123   1.181
28522SOL     OW85591   4.949  11.497   0.449
28522SOL    HW185592   5.014  11.423   0.438
28522SOL    HW285593   4.969  11.547   0.533
28523SOL     OW85594   4.318  11.917   0.652
28523SOL    HW185595   4.368  12.002   0.633
28523SOL    HW285596   4.230  11.919   0.604
28524SOL     OW85597   5.501  11.514   1.642
28524SOL    HW185598   5.484  11.545   1.548
28524SOL    HW285599   5.417  11.477   1.680
28525SOL     OW85600   5.454  12.106   1.517
28525SOL    HW185601   5.492  12.197   1.532
28525SOL    HW285602   5.446  12.089   1.418
28526SOL     OW85603   4.583  12.546   0.016
28526SOL    HW185604   4.537  12.561   0.104
28526SOL    HW285605   4.627  12.631  -0.014
28527SOL     OW85606   4.583  12.128   0.861
28527SOL    HW185607   4.637  12.059   0.909
28527SOL    HW285608   4.551  12.197   0.927
28528SOL     OW85609   4.807  12.156   0.087
28528SOL    HW185610   4.784  12.209   0.005
28528SOL    HW285611   4.888  12.100   0.068
28529SOL     OW85612   3.945  12.486   1.844
28529SOL    HW185613   3.880  12.413   1.823
28529SOL    HW285614   3.949  12.500   1.942
28530SOL     OW85615   3.803  12.412   0.653
28530SOL    HW185616   3.802  12.365   0.741
28530SOL    HW285617   3.885  12.384   0.602
28531SOL     OW85618   4.396  12.563   1.624
28531SOL    HW185619   4.318  12.513   1.662
28531SOL    HW285620   4.393  12.658   1.655
28532SOL     OW85621   5.548  11.364   1.227
28532SOL    HW185622   5.544  11.274   1.271
28532SOL    HW285623   5.551  11.353   1.128
28533SOL     OW85624   4.152  11.596   0.520
28533SOL    HW185625   4.182  11.524   0.458
28533SOL    HW285626   4.113  11.556   0.603
28534SOL     OW85627   5.429  12.659   1.104
28534SOL    HW185628   5.336  12.634   1.077
28534SOL    HW285629   5.455  12.609   1.186
28535SOL     OW85630   4.041  11.719   1.280
28535SOL    HW185631   4.079  11.660   1.352
28535SOL    HW285632   4.081  11.693   1.192
28536SOL     OW85633   5.148  11.386   1.112
28536SOL    HW185634   5.200  11.321   1.167
28536SOL    HW285635   5.099  11.449   1.173
28537SOL     OW85636   4.725  11.206   1.154
28537SOL    HW185637   4.662  11.134   1.123
28537SOL    HW285638   4.818  11.170   1.154
28538SOL     OW85639   4.494  12.502   0.301
28538SOL    HW185640   4.448  12.415   0.318
28538SOL    HW285641   4.585  12.499   0.342
28539SOL     OW85642   4.342  12.739   1.284
28539SOL    HW185643   4.337  12.821   1.341
28539SOL    HW285644   4.431  12.736   1.239
28540SOL     OW85645   5.076  11.224   0.168
28540SOL    HW185646   5.111  11.183   0.084
28540SOL    HW285647   4.986  11.186   0.188
28541SOL     OW85648   5.024  11.625   0.691
28541SOL    HW185649   4.965  11.705   0.695
28541SOL    HW285650   5.039  11.590   0.784
28542SOL     OW85651   5.317  11.393   0.882
28542SOL    HW185652   5.233  11.392   0.936
28542SOL    HW285653   5.319  11.476   0.826
28543SOL     OW85654   3.763  12.249   0.300
28543SOL    HW185655   3.862  12.238   0.291
28543SOL    HW285656   3.723  12.163   0.332
28544SOL     OW85657   3.954  11.800   1.975
28544SOL    HW185658   3.861  11.798   2.012
28544SOL    HW285659   3.955  11.761   1.883
28545SOL     OW85660   3.949  11.447   2.858
28545SOL    HW185661   3.984  11.430   2.950
28545SOL    HW285662   3.861  11.402   2.846
28546SOL     OW85663   3.743  11.540   2.509
28546SOL    HW185664   3.661  11.583   2.548
28546SOL    HW285665   3.715  11.467   2.446
28547SOL     OW85666   4.293  12.447   3.027
28547SOL    HW185667   4.200  12.440   2.990
28547SOL    HW285668   4.304  12.536   3.071
28548SOL     OW85669   5.279  12.683   2.565
28548SOL    HW185670   5.222  12.667   2.646
28548SOL    HW285671   5.220  12.693   2.485
28549SOL     OW85672   4.859  11.875   2.579
28549SOL    HW185673   4.916  11.953   2.554
28549SOL    HW285674   4.799  11.901   2.655
28550SOL     OW85675   5.479  11.779   2.093
28550SOL    HW185676   5.467  11.766   1.994
28550SOL    HW285677   5.449  11.698   2.142
28551SOL     OW85678   4.492  12.316   2.885
28551SOL    HW185679   4.414  12.333   2.945
28551SOL    HW285680   4.526  12.403   2.849
28552SOL     OW85681   4.574  11.970   3.685
28552SOL    HW185682   4.570  12.046   3.750
28552SOL    HW285683   4.596  12.006   3.594
28553SOL     OW85684   4.409  12.184   2.527
28553SOL    HW185685   4.478  12.168   2.597
28553SOL    HW285686   4.336  12.241   2.565
28554SOL     OW85687   4.410  12.333   3.665
28554SOL    HW185688   4.470  12.412   3.679
28554SOL    HW285689   4.324  12.364   3.624
28555SOL     OW85690   4.059  12.607   2.923
28555SOL    HW185691   3.981  12.576   2.870
28555SOL    HW285692   4.117  12.665   2.866
28556SOL     OW85693   5.184  12.677   3.201
28556SOL    HW185694   5.208  12.771   3.227
28556SOL    HW285695   5.168  12.623   3.283
28557SOL     OW85696   4.162  11.564   3.361
28557SOL    HW185697   4.244  11.508   3.370
28557SOL    HW285698   4.081  11.506   3.365
28558SOL     OW85699   5.327  11.619   2.599
28558SOL    HW185700   5.253  11.665   2.549
28558SOL    HW285701   5.378  11.687   2.652
28559SOL     OW85702   3.955  12.885   2.345
28559SOL    HW185703   3.989  12.962   2.399
28559SOL    HW285704   3.999  12.885   2.255
28560SOL     OW85705   4.851  12.513   3.552
28560SOL    HW185706   4.898  12.513   3.640
28560SOL    HW285707   4.803  12.426   3.541
28561SOL     OW85708   3.954  12.606   2.400
28561SOL    HW185709   3.928  12.702   2.400
28561SOL    HW285710   3.883  12.552   2.445
28562SOL     OW85711   3.964  12.263   2.748
28562SOL    HW185712   3.978  12.179   2.800
28562SOL    HW285713   3.909  12.327   2.803
28563SOL     OW85714   4.330  12.136   1.985
28563SOL    HW185715   4.337  12.220   1.931
28563SOL    HW285716   4.376  12.149   2.073
28564SOL     OW85717   5.318  11.286   3.342
28564SOL    HW185718   5.300  11.353   3.270
28564SOL    HW285719   5.315  11.332   3.431
28565SOL     OW85720   3.846  11.815   2.425
28565SOL    HW185721   3.801  11.727   2.442
28565SOL    HW285722   3.845  11.869   2.509
28566SOL     OW85723   3.751  12.768   1.979
28566SOL    HW185724   3.732  12.672   2.000
28566SOL    HW285725   3.718  12.826   2.054
28567SOL     OW85726   5.413  12.094   2.474
28567SOL    HW185727   5.508  12.065   2.482
28567SOL    HW285728   5.405  12.159   2.399
28568SOL     OW85729   5.365  12.280   2.294
28568SOL    HW185730   5.451  12.282   2.242
28568SOL    HW285731   5.379  12.327   2.382
28569SOL     OW85732   3.837  11.909   3.459
28569SOL    HW185733   3.925  11.896   3.504
28569SOL    HW285734   3.824  12.006   3.437
28570SOL     OW85735   4.337  12.537   2.588
28570SOL    HW185736   4.288  12.450   2.597
28570SOL    HW285737   4.314  12.580   2.501
28571SOL     OW85738   5.017  12.400   3.285
28571SOL    HW185739   5.054  12.327   3.227
28571SOL    HW285740   5.069  12.405   3.370
28572SOL     OW85741   4.533  11.176   2.364
28572SOL    HW185742   4.573  11.267   2.355
28572SOL    HW285743   4.433  11.184   2.370
28573SOL     OW85744   3.921  12.148   3.126
28573SOL    HW185745   4.010  12.103   3.112
28573SOL    HW285746   3.848  12.083   3.107
28574SOL     OW85747   5.249  12.171   2.052
28574SOL    HW185748   5.186  12.095   2.065
28574SOL    HW285749   5.297  12.189   2.138
28575SOL     OW85750   4.041  11.423   3.663
28575SOL    HW185751   4.112  11.494   3.669
28575SOL    HW285752   3.953  11.462   3.691
28576SOL     OW85753   5.190  12.589   2.815
28576SOL    HW185754   5.131  12.595   2.895
28576SOL    HW285755   5.175  12.501   2.769
28577SOL     OW85756   4.322  11.901   2.132
28577SOL    HW185757   4.346  11.970   2.064
28577SOL    HW285758   4.244  11.934   2.186
28578SOL     OW85759   5.005  11.517   2.806
28578SOL    HW185760   4.919  11.467   2.793
28578SOL    HW285761   5.067  11.463   2.862
28579SOL     OW85762   4.531  11.777   3.327
28579SOL    HW185763   4.484  11.774   3.416
28579SOL    HW285764   4.480  11.722   3.261
28580SOL     OW85765   5.118  11.641   3.536
28580SOL    HW185766   5.098  11.684   3.624
28580SOL    HW285767   5.196  11.579   3.545
28581SOL     OW85768   4.697  12.062   3.434
28581SOL    HW185769   4.743  11.978   3.405
28581SOL    HW285770   4.641  12.096   3.359
28582SOL     OW85771   4.715  11.582   3.104
28582SOL    HW185772   4.638  11.616   3.158
28582SOL    HW285773   4.681  11.531   3.025
28583SOL     OW85774   4.765  11.873   2.291
28583SOL    HW185775   4.791  11.869   2.387
28583SOL    HW285776   4.680  11.822   2.277
28584SOL     OW85777   3.800  11.983   2.651
28584SOL    HW185778   3.899  11.971   2.660
28584SOL    HW285779   3.776  12.078   2.672
28585SOL     OW85780   4.589  11.520   2.057
28585SOL    HW185781   4.648  11.583   2.008
28585SOL    HW285782   4.608  11.426   2.028
28586SOL     OW85783   5.443  11.757   3.693
28586SOL    HW185784   5.417  11.846   3.657
28586SOL    HW285785   5.441  11.689   3.620
28587SOL     OW85786   5.086  12.316   2.407
28587SOL    HW185787   5.169  12.287   2.359
28587SOL    HW285788   5.037  12.383   2.351
28588SOL     OW85789   4.274  11.368   2.747
28588SOL    HW185790   4.269  11.363   2.847
28588SOL    HW285791   4.276  11.464   2.718
28589SOL     OW85792   4.732  12.628   2.339
28589SOL    HW185793   4.686  12.700   2.287
28589SOL    HW285794   4.728  12.648   2.437
28590SOL     OW85795   5.519  12.238   2.735
28590SOL    HW185796   5.457  12.223   2.659
28590SOL    HW285797   5.467  12.249   2.820
28591SOL     OW85798   4.951  12.722   3.368
28591SOL    HW185799   4.957  12.645   3.432
28591SOL    HW285800   4.899  12.696   3.288
28592SOL     OW85801   4.045  12.115   2.104
28592SOL    HW185802   4.127  12.154   2.062
28592SOL    HW285803   4.018  12.033   2.055
28593SOL     OW85804   5.182  11.907   2.590
28593SOL    HW185805   5.177  11.842   2.665
28593SOL    HW285806   5.262  11.966   2.603
28594SOL     OW85807   4.185  12.438   3.589
28594SOL    HW185808   4.135  12.439   3.503
28594SOL    HW285809   4.122  12.420   3.665
28595SOL     OW85810   4.835  12.948   2.099
28595SOL    HW185811   4.775  12.886   2.149
28595SOL    HW285812   4.866  12.904   2.014
28596SOL     OW85813   3.926  11.457   3.360
28596SOL    HW185814   3.846  11.517   3.347
28596SOL    HW285815   3.916  11.408   3.446
28597SOL     OW85816   5.356  12.549   1.943
28597SOL    HW185817   5.324  12.643   1.933
28597SOL    HW285818   5.280  12.486   1.931
28598SOL     OW85819   5.124  11.279   2.288
28598SOL    HW185820   5.100  11.242   2.198
28598SOL    HW285821   5.223  11.295   2.292
28599SOL     OW85822   4.106  11.872   2.342
28599SOL    HW185823   4.151  11.782   2.339
28599SOL    HW285824   4.012  11.861   2.375
28600SOL     OW85825   5.271  11.394   3.591
28600SOL    HW185826   5.266  11.431   3.683
28600SOL    HW285827   5.199  11.325   3.579
28601SOL     OW85828   4.338  11.294   1.979
28601SOL    HW185829   4.436  11.272   1.986
28601SOL    HW285830   4.307  11.277   1.886
28602SOL     OW85831   4.505  11.436   3.611
28602SOL    HW185832   4.572  11.375   3.654
28602SOL    HW285833   4.432  11.455   3.676
28603SOL     OW85834   5.075  11.762   3.295
28603SOL    HW185835   5.103  11.719   3.380
28603SOL    HW285836   5.100  11.858   3.296
28604SOL     OW85837   4.527  12.574   2.786
28604SOL    HW185838   4.617  12.588   2.744
28604SOL    HW285839   4.456  12.576   2.715
28605SOL     OW85840   4.646  11.675   2.761
28605SOL    HW185841   4.621  11.666   2.665
28605SOL    HW285842   4.694  11.593   2.792
28606SOL     OW85843   4.263  11.236   2.374
28606SOL    HW185844   4.182  11.237   2.432
28606SOL    HW285845   4.266  11.319   2.319
28607SOL     OW85846   5.158  12.360   1.903
28607SOL    HW185847   5.190  12.284   1.960
28607SOL    HW285848   5.066  12.387   1.933
28608SOL     OW85849   4.021  11.207   2.033
28608SOL    HW185850   4.070  11.291   2.012
28608SOL    HW285851   4.083  11.142   2.078
28609SOL     OW85852   4.659  11.408   2.342
28609SOL    HW185853   4.611  11.449   2.264
28609SOL    HW285854   4.758  11.406   2.323
28610SOL     OW85855   4.800  11.855   3.326
28610SOL    HW185856   4.720  11.794   3.329
28610SOL    HW285857   4.881  11.802   3.302
28611SOL     OW85858   4.951  12.742   2.655
28611SOL    HW185859   4.972  12.816   2.590
28611SOL    HW285860   5.019  12.742   2.728
28612SOL     OW85861   4.183  12.324   2.603
28612SOL    HW185862   4.112  12.297   2.668
28612SOL    HW285863   4.157  12.296   2.510
28613SOL     OW85864   4.756  11.721   1.878
28613SOL    HW185865   4.715  11.803   1.839
28613SOL    HW285866   4.820  11.747   1.951
28614SOL     OW85867   4.285  11.394   3.009
28614SOL    HW185868   4.323  11.310   3.046
28614SOL    HW285869   4.197  11.413   3.053
28615SOL     OW85870   4.590  11.626   2.504
28615SOL    HW185871   4.558  11.698   2.442
28615SOL    HW285872   4.614  11.545   2.451
28616SOL     OW85873   4.741  11.211   2.615
28616SOL    HW185874   4.669  11.216   2.546
28616SOL    HW285875   4.717  11.142   2.684
28617SOL     OW85876   5.153  12.345   2.729
28617SOL    HW185877   5.098  12.261   2.722
28617SOL    HW285878   5.179  12.374   2.637
28618SOL     OW85879   5.190  11.762   2.854
28618SOL    HW185880   5.160  11.667   2.861
28618SOL    HW285881   5.263  11.778   2.920
28619SOL     OW85882   5.581  12.005   2.239
28619SOL    HW185883   5.623  11.941   2.303
28619SOL    HW285884   5.543  11.954   2.161
28620SOL     OW85885   4.212  12.557   2.036
28620SOL    HW185886   4.125  12.542   2.083
28620SOL    HW285887   4.195  12.583   1.941
28621SOL     OW85888   5.388  12.452   2.519
28621SOL    HW185889   5.487  12.460   2.533
28621SOL    HW285890   5.343  12.536   2.550
28622SOL     OW85891   5.114  11.747   1.940
28622SOL    HW185892   5.060  11.726   2.021
28622SOL    HW285893   5.205  11.706   1.949
28623SOL     OW85894   4.251  11.428   2.190
28623SOL    HW185895   4.278  11.369   2.115
28623SOL    HW285896   4.251  11.523   2.159
28624SOL     OW85897   5.478  12.395   3.450
28624SOL    HW185898   5.569  12.356   3.437
28624SOL    HW285899   5.486  12.491   3.474
28625SOL     OW85900   4.788  12.519   3.202
28625SOL    HW185901   4.708  12.496   3.257
28625SOL    HW285902   4.871  12.493   3.251
28626SOL     OW85903   4.835  12.367   2.962
28626SOL    HW185904   4.795  12.411   3.043
28626SOL    HW285905   4.794  12.404   2.879
28627SOL     OW85906   5.362  12.271   2.941
28627SOL    HW185907   5.367  12.352   3.000
28627SOL    HW285908   5.276  12.273   2.890
28628SOL     OW85909   4.639  11.261   3.264
28628SOL    HW185910   4.664  11.241   3.169
28628SOL    HW285911   4.711  11.317   3.306
28629SOL     OW85912   4.704  12.288   3.581
28629SOL    HW185913   4.605  12.294   3.591
28629SOL    HW285914   4.727  12.208   3.525
28630SOL     OW85915   4.429  12.222   2.230
28630SOL    HW185916   4.415  12.229   2.329
28630SOL    HW285917   4.513  12.171   2.212
28631SOL     OW85918   4.134  11.985   3.113
28631SOL    HW185919   4.220  11.997   3.163
28631SOL    HW285920   4.092  11.898   3.140
28632SOL     OW85921   4.998  11.558   3.124
28632SOL    HW185922   5.019  11.632   3.188
28632SOL    HW285923   4.909  11.575   3.081
28633SOL     OW85924   4.091  12.272   2.363
28633SOL    HW185925   4.084  12.355   2.307
28633SOL    HW285926   4.095  12.192   2.303
28634SOL     OW85927   4.290  11.709   2.727
28634SOL    HW185928   4.302  11.775   2.653
28634SOL    HW285929   4.336  11.743   2.810
28635SOL     OW85930   4.976  12.520   2.250
28635SOL    HW185931   5.026  12.597   2.290
28635SOL    HW285932   4.881  12.522   2.282
28636SOL     OW85933   4.996  12.617   3.004
28636SOL    HW185934   5.043  12.630   3.091
28636SOL    HW285935   4.930  12.543   3.013
28637SOL     OW85936   5.306  11.811   2.334
28637SOL    HW185937   5.275  11.872   2.407
28637SOL    HW285938   5.356  11.863   2.265
28638SOL     OW85939   4.078  12.682   3.191
28638SOL    HW185940   4.057  12.638   3.104
28638SOL    HW285941   4.175  12.708   3.194
28639SOL     OW85942   4.126  11.923   3.460
28639SOL    HW185943   4.194  11.978   3.413
28639SOL    HW285944   4.166  11.835   3.487
28640SOL     OW85945   5.311  11.951   3.532
28640SOL    HW185946   5.219  11.989   3.527
28640SOL    HW285947   5.371  11.998   3.467
28641SOL     OW85948   4.737  11.277   3.632
28641SOL    HW185949   4.743  11.362   3.580
28641SOL    HW285950   4.769  11.201   3.575
28642SOL     OW85951   4.228  11.222   3.602
28642SOL    HW185952   4.186  11.165   3.532
28642SOL    HW285953   4.162  11.291   3.634
28643SOL     OW85954   4.297  12.042   2.891
28643SOL    HW185955   4.341  12.131   2.882
28643SOL    HW285956   4.234  12.042   2.968
28644SOL     OW85957   4.933  11.697   2.137
28644SOL    HW185958   4.946  11.613   2.191
28644SOL    HW285959   4.904  11.771   2.197
28645SOL     OW85960   4.031  11.385   3.093
28645SOL    HW185961   4.008  11.422   3.183
28645SOL    HW285962   4.001  11.290   3.087
28646SOL     OW85963   3.761  12.482   3.144
28646SOL    HW185964   3.814  12.433   3.212
28646SOL    HW285965   3.783  12.580   3.149
28647SOL     OW85966   4.456  11.806   2.926
28647SOL    HW185967   4.515  11.780   2.850
28647SOL    HW285968   4.428  11.902   2.915
28648SOL     OW85969   5.452  12.107   3.716
28648SOL    HW185970   5.406  12.100   3.627
28648SOL    HW285971   5.390  12.151   3.782
28649SOL     OW85972   4.031  11.235   2.480
28649SOL    HW185973   4.020  11.329   2.513
28649SOL    HW285974   4.026  11.172   2.557
28650SOL     OW85975   5.346  11.539   2.236
28650SOL    HW185976   5.348  11.463   2.300
28650SOL    HW285977   5.298  11.616   2.276
28651SOL     OW85978   4.747  11.938   2.828
28651SOL    HW185979   4.762  11.959   2.924
28651SOL    HW285980   4.717  11.843   2.819
28652SOL     OW85981   5.583  12.690   3.467
28652SOL    HW185982   5.597  12.717   3.372
28652SOL    HW285983   5.666  12.712   3.520
28653SOL     OW85984   4.074  12.070   3.666
28653SOL    HW185985   4.150  12.114   3.714
28653SOL    HW285986   4.109  12.023   3.584
28654SOL     OW85987   5.264  11.446   1.987
28654SOL    HW185988   5.203  11.371   2.010
28654SOL    HW285989   5.286  11.498   2.070
28655SOL     OW85990   5.027  12.010   1.904
28655SOL    HW185991   5.061  11.917   1.919
28655SOL    HW285992   5.045  12.037   1.809
28656SOL     OW85993   4.792  12.505   2.711
28656SOL    HW185994   4.799  12.421   2.656
28656SOL    HW285995   4.854  12.574   2.675
28657SOL     OW85996   4.043  11.982   2.811
28657SOL    HW185997   4.136  12.018   2.816
28657SOL    HW285998   4.037  11.897   2.863
28658SOL     OW85999   4.063  11.681   2.868
28658SOL    HW186000   4.011  11.598   2.851
28658SOL    HW286001   4.140  11.686   2.804
28659SOL     OW86002   4.862  11.552   3.540
28659SOL    HW186003   4.817  11.615   3.604
28659SOL    HW286004   4.955  11.583   3.523
28660SOL     OW86005   4.884  11.379   3.339
28660SOL    HW186006   4.884  11.443   3.416
28660SOL    HW286007   4.912  11.427   3.256
28661SOL     OW86008   3.732  12.498   2.062
28661SOL    HW186009   3.639  12.519   2.031
28661SOL    HW286010   3.742  12.399   2.075
28662SOL     OW86011   4.726  11.968   3.100
28662SOL    HW186012   4.767  11.936   3.186
28662SOL    HW286013   4.630  11.941   3.097
28663SOL     OW86014   3.764  11.716   2.976
28663SOL    HW186015   3.849  11.683   2.935
28663SOL    HW286016   3.777  11.731   3.074
28664SOL     OW86017   3.913  11.692   3.584
28664SOL    HW186018   3.972  11.652   3.514
28664SOL    HW286019   3.855  11.763   3.543
28665SOL     OW86020   5.093  12.122   3.522
28665SOL    HW186021   5.132  12.211   3.542
28665SOL    HW286022   5.103  12.102   3.425
28666SOL     OW86023   4.539  11.744   2.187
28666SOL    HW186024   4.546  11.655   2.141
28666SOL    HW286025   4.445  11.778   2.179
28667SOL     OW86026   5.381  11.776   3.068
28667SOL    HW186027   5.343  11.707   3.130
28667SOL    HW286028   5.463  11.740   3.024
28668SOL     OW86029   3.976  12.736   3.606
28668SOL    HW186030   3.946  12.793   3.682
28668SOL    HW286031   3.969  12.639   3.632
28669SOL     OW86032   4.395  11.636   3.131
28669SOL    HW186033   4.361  11.547   3.101
28669SOL    HW286034   4.421  11.690   3.051
28670SOL     OW86035   4.197  11.672   2.053
28670SOL    HW186036   4.258  11.752   2.057
28670SOL    HW286037   4.102  11.703   2.060
28671SOL     OW86038   3.883  12.309   3.328
28671SOL    HW186039   3.905  12.248   3.404
28671SOL    HW286040   3.893  12.260   3.242
28672SOL     OW86041   5.071  12.231   3.096
28672SOL    HW186042   5.095  12.168   3.022
28672SOL    HW286043   4.981  12.271   3.078
28673SOL     OW86044   5.026  12.027   2.171
28673SOL    HW186045   4.940  11.996   2.213
28673SOL    HW286046   5.022  12.013   2.072
28674SOL     OW86047   3.807  12.430   2.884
28674SOL    HW186048   3.802  12.429   2.984
28674SOL    HW286049   3.724  12.389   2.846
28675SOL     OW86050   5.450  11.307   2.385
28675SOL    HW186051   5.523  11.290   2.318
28675SOL    HW286052   5.419  11.220   2.423
28676SOL     OW86053   5.004  12.099   2.534
28676SOL    HW186054   5.064  12.018   2.536
28676SOL    HW286055   5.044  12.168   2.474
28677SOL     OW86056   4.554  12.445   3.284
28677SOL    HW186057   4.549  12.478   3.379
28677SOL    HW286058   4.468  12.464   3.238
28678SOL     OW86059   5.565  11.347   2.825
28678SOL    HW186060   5.604  11.262   2.789
28678SOL    HW286061   5.467  11.349   2.806
28679SOL     OW86062   3.987  11.498   2.582
28679SOL    HW186063   3.908  11.549   2.548
28679SOL    HW286064   3.978  11.483   2.680
28680SOL     OW86065   4.546  12.174   3.234
28680SOL    HW186066   4.586  12.173   3.142
28680SOL    HW286067   4.556  12.266   3.274
28681SOL     OW86068   4.640  12.082   2.153
28681SOL    HW186069   4.703  12.120   2.085
28681SOL    HW286070   4.680  11.999   2.192
28682SOL     OW86071   4.096  12.460   3.352
28682SOL    HW186072   4.083  12.553   3.318
28682SOL    HW286073   4.012  12.408   3.339
28683SOL     OW86074   5.338  12.464   3.151
28683SOL    HW186075   5.398  12.467   3.231
28683SOL    HW286076   5.263  12.528   3.164
28684SOL     OW86077   4.763  12.270   2.558
28684SOL    HW186078   4.693  12.223   2.612
28684SOL    HW286079   4.822  12.202   2.515
28685SOL     OW86080   4.738  11.408   2.833
28685SOL    HW186081   4.730  11.372   2.740
28685SOL    HW286082   4.736  11.332   2.898
28686SOL     OW86083   5.433  11.557   3.243
28686SOL    HW186084   5.506  11.626   3.247
28686SOL    HW286085   5.461  11.482   3.184
28687SOL     OW86086   3.979  12.520   2.152
28687SOL    HW186087   3.883  12.521   2.125
28687SOL    HW286088   3.991  12.573   2.236
28688SOL     OW86089   3.829  12.185   3.588
28688SOL    HW186090   3.752  12.152   3.642
28688SOL    HW286091   3.914  12.155   3.630
28689SOL     OW86092   4.396  11.375   3.351
28689SOL    HW186093   4.486  11.359   3.311
28689SOL    HW286094   4.404  11.380   3.450
28690SOL     OW86095   3.799  11.517   1.895
28690SOL    HW186096   3.707  11.489   1.866
28690SOL    HW286097   3.830  11.594   1.839
28691SOL     OW86098   5.164  12.028   3.260
28691SOL    HW186099   5.107  12.080   3.197
28691SOL    HW286100   5.260  12.040   3.236
28692SOL     OW86101   3.796  11.338   2.180
28692SOL    HW186102   3.779  11.421   2.126
28692SOL    HW286103   3.886  11.301   2.158
28693SOL     OW86104   4.907  12.507   1.981
28693SOL    HW186105   4.808  12.496   1.983
28693SOL    HW286106   4.941  12.522   2.074
28694SOL     OW86107   4.337  12.014   3.293
28694SOL    HW186108   4.393  12.095   3.276
28694SOL    HW286109   4.396  11.934   3.296
28695SOL     OW86110   4.440  11.737   3.570
28695SOL    HW186111   4.459  11.802   3.644
28695SOL    HW286112   4.500  11.657   3.579
28696SOL     OW86113   5.174  12.392   3.495
28696SOL    HW186114   5.165  12.382   3.594
28696SOL    HW286115   5.270  12.385   3.469
28697SOL     OW86116   5.398  12.055   3.116
28697SOL    HW186117   5.371  11.966   3.079
28697SOL    HW286118   5.399  12.123   3.043
28698SOL     OW86119   4.949  11.497   2.311
28698SOL    HW186120   5.014  11.423   2.300
28698SOL    HW286121   4.969  11.547   2.395
28699SOL     OW86122   4.318  11.917   2.514
28699SOL    HW186123   4.368  12.002   2.495
28699SOL    HW286124   4.230  11.919   2.466
28700SOL     OW86125   5.501  11.514   3.504
28700SOL    HW186126   5.484  11.545   3.410
28700SOL    HW286127   5.417  11.477   3.542
28701SOL     OW86128   5.454  12.106   3.379
28701SOL    HW186129   5.492  12.197   3.394
28701SOL    HW286130   5.446  12.089   3.280
28702SOL     OW86131   4.583  12.546   1.878
28702SOL    HW186132   4.537  12.561   1.966
28702SOL    HW286133   4.627  12.631   1.848
28703SOL     OW86134   4.583  12.128   2.723
28703SOL    HW186135   4.637  12.059   2.771
28703SOL    HW286136   4.551  12.197   2.789
28704SOL     OW86137   4.807  12.156   1.949
28704SOL    HW186138   4.784  12.209   1.867
28704SOL    HW286139   4.888  12.100   1.930
28705SOL     OW86140   3.945  12.486   3.706
28705SOL    HW186141   3.880  12.413   3.685
28705SOL    HW286142   3.949  12.500   3.804
28706SOL     OW86143   3.803  12.412   2.515
28706SOL    HW186144   3.802  12.365   2.603
28706SOL    HW286145   3.885  12.384   2.464
28707SOL     OW86146   4.396  12.563   3.486
28707SOL    HW186147   4.318  12.513   3.524
28707SOL    HW286148   4.393  12.658   3.517
28708SOL     OW86149   5.548  11.364   3.089
28708SOL    HW186150   5.544  11.274   3.133
28708SOL    HW286151   5.551  11.353   2.990
28709SOL     OW86152   4.152  11.596   2.382
28709SOL    HW186153   4.182  11.524   2.320
28709SOL    HW286154   4.113  11.556   2.465
28710SOL     OW86155   5.429  12.659   2.966
28710SOL    HW186156   5.336  12.634   2.939
28710SOL    HW286157   5.455  12.609   3.048
28711SOL     OW86158   4.041  11.719   3.142
28711SOL    HW186159   4.079  11.660   3.214
28711SOL    HW286160   4.081  11.693   3.054
28712SOL     OW86161   5.148  11.386   2.974
28712SOL    HW186162   5.200  11.321   3.029
28712SOL    HW286163   5.099  11.449   3.035
28713SOL     OW86164   4.725  11.206   3.016
28713SOL    HW186165   4.662  11.134   2.985
28713SOL    HW286166   4.818  11.170   3.016
28714SOL     OW86167   4.494  12.502   2.163
28714SOL    HW186168   4.448  12.415   2.180
28714SOL    HW286169   4.585  12.499   2.204
28715SOL     OW86170   4.342  12.739   3.146
28715SOL    HW186171   4.337  12.821   3.203
28715SOL    HW286172   4.431  12.736   3.101
28716SOL     OW86173   5.076  11.224   2.030
28716SOL    HW186174   5.111  11.183   1.946
28716SOL    HW286175   4.986  11.186   2.050
28717SOL     OW86176   5.024  11.625   2.553
28717SOL    HW186177   4.965  11.705   2.557
28717SOL    HW286178   5.039  11.590   2.646
28718SOL     OW86179   5.317  11.393   2.744
28718SOL    HW186180   5.233  11.392   2.798
28718SOL    HW286181   5.319  11.476   2.688
28719SOL     OW86182   3.763  12.249   2.162
28719SOL    HW186183   3.862  12.238   2.153
28719SOL    HW286184   3.723  12.163   2.194
28720SOL     OW86185   3.954  11.800   3.837
28720SOL    HW186186   3.861  11.798   3.874
28720SOL    HW286187   3.955  11.761   3.745
28721SOL     OW86188   3.949  11.447   4.720
28721SOL    HW186189   3.984  11.430   4.812
28721SOL    HW286190   3.861  11.402   4.708
28722SOL     OW86191   3.743  11.540   4.371
28722SOL    HW186192   3.661  11.583   4.410
28722SOL    HW286193   3.715  11.467   4.308
28723SOL     OW86194   4.293  12.447   4.889
28723SOL    HW186195   4.200  12.440   4.852
28723SOL    HW286196   4.304  12.536   4.933
28724SOL     OW86197   5.279  12.683   4.427
28724SOL    HW186198   5.222  12.667   4.508
28724SOL    HW286199   5.220  12.693   4.347
28725SOL     OW86200   4.859  11.875   4.441
28725SOL    HW186201   4.916  11.953   4.416
28725SOL    HW286202   4.799  11.901   4.517
28726SOL     OW86203   5.479  11.779   3.955
28726SOL    HW186204   5.467  11.766   3.856
28726SOL    HW286205   5.449  11.698   4.004
28727SOL     OW86206   4.492  12.316   4.747
28727SOL    HW186207   4.414  12.333   4.807
28727SOL    HW286208   4.526  12.403   4.711
28728SOL     OW86209   4.574  11.970   5.547
28728SOL    HW186210   4.570  12.046   5.612
28728SOL    HW286211   4.596  12.006   5.456
28729SOL     OW86212   4.409  12.184   4.389
28729SOL    HW186213   4.478  12.168   4.459
28729SOL    HW286214   4.336  12.241   4.427
28730SOL     OW86215   4.410  12.333   5.527
28730SOL    HW186216   4.470  12.412   5.541
28730SOL    HW286217   4.324  12.364   5.486
28731SOL     OW86218   4.059  12.607   4.785
28731SOL    HW186219   3.981  12.576   4.732
28731SOL    HW286220   4.117  12.665   4.728
28732SOL     OW86221   5.184  12.677   5.063
28732SOL    HW186222   5.208  12.771   5.089
28732SOL    HW286223   5.168  12.623   5.145
28733SOL     OW86224   4.162  11.564   5.223
28733SOL    HW186225   4.244  11.508   5.232
28733SOL    HW286226   4.081  11.506   5.227
28734SOL     OW86227   5.327  11.619   4.461
28734SOL    HW186228   5.253  11.665   4.411
28734SOL    HW286229   5.378  11.687   4.514
28735SOL     OW86230   3.955  12.885   4.207
28735SOL    HW186231   3.989  12.962   4.261
28735SOL    HW286232   3.999  12.885   4.117
28736SOL     OW86233   4.851  12.513   5.414
28736SOL    HW186234   4.898  12.513   5.502
28736SOL    HW286235   4.803  12.426   5.403
28737SOL     OW86236   3.954  12.606   4.262
28737SOL    HW186237   3.928  12.702   4.262
28737SOL    HW286238   3.883  12.552   4.307
28738SOL     OW86239   3.964  12.263   4.610
28738SOL    HW186240   3.978  12.179   4.662
28738SOL    HW286241   3.909  12.327   4.665
28739SOL     OW86242   4.330  12.136   3.847
28739SOL    HW186243   4.337  12.220   3.793
28739SOL    HW286244   4.376  12.149   3.935
28740SOL     OW86245   5.318  11.286   5.204
28740SOL    HW186246   5.300  11.353   5.132
28740SOL    HW286247   5.315  11.332   5.293
28741SOL     OW86248   3.846  11.815   4.287
28741SOL    HW186249   3.801  11.727   4.304
28741SOL    HW286250   3.845  11.869   4.371
28742SOL     OW86251   3.751  12.768   3.841
28742SOL    HW186252   3.732  12.672   3.862
28742SOL    HW286253   3.718  12.826   3.916
28743SOL     OW86254   5.413  12.094   4.336
28743SOL    HW186255   5.508  12.065   4.344
28743SOL    HW286256   5.405  12.159   4.261
28744SOL     OW86257   5.365  12.280   4.156
28744SOL    HW186258   5.451  12.282   4.104
28744SOL    HW286259   5.379  12.327   4.244
28745SOL     OW86260   3.837  11.909   5.321
28745SOL    HW186261   3.925  11.896   5.366
28745SOL    HW286262   3.824  12.006   5.299
28746SOL     OW86263   4.337  12.537   4.450
28746SOL    HW186264   4.288  12.450   4.459
28746SOL    HW286265   4.314  12.580   4.363
28747SOL     OW86266   5.017  12.400   5.147
28747SOL    HW186267   5.054  12.327   5.089
28747SOL    HW286268   5.069  12.405   5.232
28748SOL     OW86269   4.533  11.176   4.226
28748SOL    HW186270   4.573  11.267   4.217
28748SOL    HW286271   4.433  11.184   4.232
28749SOL     OW86272   3.921  12.148   4.988
28749SOL    HW186273   4.010  12.103   4.974
28749SOL    HW286274   3.848  12.083   4.969
28750SOL     OW86275   4.041  11.423   5.525
28750SOL    HW186276   4.112  11.494   5.531
28750SOL    HW286277   3.953  11.462   5.553
28751SOL     OW86278   5.190  12.589   4.677
28751SOL    HW186279   5.131  12.595   4.757
28751SOL    HW286280   5.175  12.501   4.631
28752SOL     OW86281   4.322  11.901   3.994
28752SOL    HW186282   4.346  11.970   3.926
28752SOL    HW286283   4.244  11.934   4.048
28753SOL     OW86284   5.005  11.517   4.668
28753SOL    HW186285   4.919  11.467   4.655
28753SOL    HW286286   5.067  11.463   4.724
28754SOL     OW86287   4.531  11.777   5.189
28754SOL    HW186288   4.484  11.774   5.278
28754SOL    HW286289   4.480  11.722   5.123
28755SOL     OW86290   5.118  11.641   5.398
28755SOL    HW186291   5.098  11.684   5.486
28755SOL    HW286292   5.196  11.579   5.407
28756SOL     OW86293   4.697  12.062   5.296
28756SOL    HW186294   4.743  11.978   5.267
28756SOL    HW286295   4.641  12.096   5.221
28757SOL     OW86296   4.715  11.582   4.966
28757SOL    HW186297   4.638  11.616   5.020
28757SOL    HW286298   4.681  11.531   4.887
28758SOL     OW86299   4.765  11.873   4.153
28758SOL    HW186300   4.791  11.869   4.249
28758SOL    HW286301   4.680  11.822   4.139
28759SOL     OW86302   3.800  11.983   4.513
28759SOL    HW186303   3.899  11.971   4.522
28759SOL    HW286304   3.776  12.078   4.534
28760SOL     OW86305   4.589  11.520   3.919
28760SOL    HW186306   4.648  11.583   3.870
28760SOL    HW286307   4.608  11.426   3.890
28761SOL     OW86308   5.443  11.757   5.555
28761SOL    HW186309   5.417  11.846   5.519
28761SOL    HW286310   5.441  11.689   5.482
28762SOL     OW86311   5.086  12.316   4.269
28762SOL    HW186312   5.169  12.287   4.221
28762SOL    HW286313   5.037  12.383   4.213
28763SOL     OW86314   4.274  11.368   4.609
28763SOL    HW186315   4.269  11.363   4.709
28763SOL    HW286316   4.276  11.464   4.580
28764SOL     OW86317   4.732  12.628   4.201
28764SOL    HW186318   4.686  12.700   4.149
28764SOL    HW286319   4.728  12.648   4.299
28765SOL     OW86320   5.519  12.238   4.597
28765SOL    HW186321   5.457  12.223   4.521
28765SOL    HW286322   5.467  12.249   4.682
28766SOL     OW86323   4.951  12.722   5.230
28766SOL    HW186324   4.957  12.645   5.294
28766SOL    HW286325   4.899  12.696   5.150
28767SOL     OW86326   4.045  12.115   3.966
28767SOL    HW186327   4.127  12.154   3.924
28767SOL    HW286328   4.018  12.033   3.917
28768SOL     OW86329   5.182  11.907   4.452
28768SOL    HW186330   5.177  11.842   4.527
28768SOL    HW286331   5.262  11.966   4.465
28769SOL     OW86332   4.185  12.438   5.451
28769SOL    HW186333   4.135  12.439   5.365
28769SOL    HW286334   4.122  12.420   5.527
28770SOL     OW86335   4.835  12.948   3.961
28770SOL    HW186336   4.775  12.886   4.011
28770SOL    HW286337   4.866  12.904   3.876
28771SOL     OW86338   3.926  11.457   5.222
28771SOL    HW186339   3.846  11.517   5.209
28771SOL    HW286340   3.916  11.408   5.308
28772SOL     OW86341   5.356  12.549   3.805
28772SOL    HW186342   5.324  12.643   3.795
28772SOL    HW286343   5.280  12.486   3.793
28773SOL     OW86344   5.124  11.279   4.150
28773SOL    HW186345   5.100  11.242   4.060
28773SOL    HW286346   5.223  11.295   4.154
28774SOL     OW86347   4.106  11.872   4.204
28774SOL    HW186348   4.151  11.782   4.201
28774SOL    HW286349   4.012  11.861   4.237
28775SOL     OW86350   5.271  11.394   5.453
28775SOL    HW186351   5.266  11.431   5.545
28775SOL    HW286352   5.199  11.325   5.441
28776SOL     OW86353   4.338  11.294   3.841
28776SOL    HW186354   4.436  11.272   3.848
28776SOL    HW286355   4.307  11.277   3.748
28777SOL     OW86356   4.505  11.436   5.473
28777SOL    HW186357   4.572  11.375   5.516
28777SOL    HW286358   4.432  11.455   5.538
28778SOL     OW86359   5.075  11.762   5.157
28778SOL    HW186360   5.103  11.719   5.242
28778SOL    HW286361   5.100  11.858   5.158
28779SOL     OW86362   4.527  12.574   4.648
28779SOL    HW186363   4.617  12.588   4.606
28779SOL    HW286364   4.456  12.576   4.577
28780SOL     OW86365   4.646  11.675   4.623
28780SOL    HW186366   4.621  11.666   4.527
28780SOL    HW286367   4.694  11.593   4.654
28781SOL     OW86368   4.263  11.236   4.236
28781SOL    HW186369   4.182  11.237   4.294
28781SOL    HW286370   4.266  11.319   4.181
28782SOL     OW86371   5.158  12.360   3.765
28782SOL    HW186372   5.190  12.284   3.822
28782SOL    HW286373   5.066  12.387   3.795
28783SOL     OW86374   4.021  11.207   3.895
28783SOL    HW186375   4.070  11.291   3.874
28783SOL    HW286376   4.083  11.142   3.940
28784SOL     OW86377   4.659  11.408   4.204
28784SOL    HW186378   4.611  11.449   4.126
28784SOL    HW286379   4.758  11.406   4.185
28785SOL     OW86380   4.800  11.855   5.188
28785SOL    HW186381   4.720  11.794   5.191
28785SOL    HW286382   4.881  11.802   5.164
28786SOL     OW86383   4.951  12.742   4.517
28786SOL    HW186384   4.972  12.816   4.452
28786SOL    HW286385   5.019  12.742   4.590
28787SOL     OW86386   4.183  12.324   4.465
28787SOL    HW186387   4.112  12.297   4.530
28787SOL    HW286388   4.157  12.296   4.372
28788SOL     OW86389   4.756  11.721   3.740
28788SOL    HW186390   4.715  11.803   3.701
28788SOL    HW286391   4.820  11.747   3.813
28789SOL     OW86392   3.802  11.728   5.110
28789SOL    HW186393   3.894  11.727   5.069
28789SOL    HW286394   3.796  11.802   5.177
28790SOL     OW86395   4.285  11.394   4.871
28790SOL    HW186396   4.323  11.310   4.908
28790SOL    HW286397   4.197  11.413   4.915
28791SOL     OW86398   4.590  11.626   4.366
28791SOL    HW186399   4.558  11.698   4.304
28791SOL    HW286400   4.614  11.545   4.313
28792SOL     OW86401   4.741  11.211   4.477
28792SOL    HW186402   4.669  11.216   4.408
28792SOL    HW286403   4.717  11.142   4.546
28793SOL     OW86404   5.153  12.345   4.591
28793SOL    HW186405   5.098  12.261   4.584
28793SOL    HW286406   5.179  12.374   4.499
28794SOL     OW86407   5.190  11.762   4.716
28794SOL    HW186408   5.160  11.667   4.723
28794SOL    HW286409   5.263  11.778   4.782
28795SOL     OW86410   5.581  12.005   4.101
28795SOL    HW186411   5.623  11.941   4.165
28795SOL    HW286412   5.543  11.954   4.023
28796SOL     OW86413   4.212  12.557   3.898
28796SOL    HW186414   4.125  12.542   3.945
28796SOL    HW286415   4.195  12.583   3.803
28797SOL     OW86416   5.388  12.452   4.381
28797SOL    HW186417   5.487  12.460   4.395
28797SOL    HW286418   5.343  12.536   4.412
28798SOL     OW86419   5.114  11.747   3.802
28798SOL    HW186420   5.060  11.726   3.883
28798SOL    HW286421   5.205  11.706   3.811
28799SOL     OW86422   4.251  11.428   4.052
28799SOL    HW186423   4.278  11.369   3.977
28799SOL    HW286424   4.251  11.523   4.021
28800SOL     OW86425   5.478  12.395   5.312
28800SOL    HW186426   5.569  12.356   5.299
28800SOL    HW286427   5.486  12.491   5.336
28801SOL     OW86428   4.788  12.519   5.064
28801SOL    HW186429   4.708  12.496   5.119
28801SOL    HW286430   4.871  12.493   5.113
28802SOL     OW86431   4.835  12.367   4.824
28802SOL    HW186432   4.795  12.411   4.905
28802SOL    HW286433   4.794  12.404   4.741
28803SOL     OW86434   5.362  12.271   4.803
28803SOL    HW186435   5.367  12.352   4.862
28803SOL    HW286436   5.276  12.273   4.752
28804SOL     OW86437   4.639  11.261   5.126
28804SOL    HW186438   4.664  11.241   5.031
28804SOL    HW286439   4.711  11.317   5.168
28805SOL     OW86440   4.704  12.288   5.443
28805SOL    HW186441   4.605  12.294   5.453
28805SOL    HW286442   4.727  12.208   5.387
28806SOL     OW86443   4.429  12.222   4.092
28806SOL    HW186444   4.415  12.229   4.191
28806SOL    HW286445   4.513  12.171   4.074
28807SOL     OW86446   4.134  11.985   4.975
28807SOL    HW186447   4.220  11.997   5.025
28807SOL    HW286448   4.092  11.898   5.002
28808SOL     OW86449   4.998  11.558   4.986
28808SOL    HW186450   5.019  11.632   5.050
28808SOL    HW286451   4.909  11.575   4.943
28809SOL     OW86452   4.091  12.272   4.225
28809SOL    HW186453   4.084  12.355   4.169
28809SOL    HW286454   4.095  12.192   4.165
28810SOL     OW86455   4.290  11.709   4.589
28810SOL    HW186456   4.302  11.775   4.515
28810SOL    HW286457   4.336  11.743   4.672
28811SOL     OW86458   4.976  12.520   4.112
28811SOL    HW186459   5.026  12.597   4.152
28811SOL    HW286460   4.881  12.522   4.144
28812SOL     OW86461   4.996  12.617   4.866
28812SOL    HW186462   5.043  12.630   4.953
28812SOL    HW286463   4.930  12.543   4.875
28813SOL     OW86464   5.306  11.811   4.196
28813SOL    HW186465   5.275  11.872   4.269
28813SOL    HW286466   5.356  11.863   4.127
28814SOL     OW86467   4.078  12.682   5.053
28814SOL    HW186468   4.057  12.638   4.966
28814SOL    HW286469   4.175  12.708   5.056
28815SOL     OW86470   4.126  11.923   5.322
28815SOL    HW186471   4.194  11.978   5.275
28815SOL    HW286472   4.166  11.835   5.349
28816SOL     OW86473   5.311  11.951   5.394
28816SOL    HW186474   5.219  11.989   5.389
28816SOL    HW286475   5.371  11.998   5.329
28817SOL     OW86476   4.737  11.277   5.494
28817SOL    HW186477   4.743  11.362   5.442
28817SOL    HW286478   4.769  11.201   5.437
28818SOL     OW86479   4.228  11.222   5.464
28818SOL    HW186480   4.186  11.165   5.394
28818SOL    HW286481   4.162  11.291   5.496
28819SOL     OW86482   4.297  12.042   4.753
28819SOL    HW186483   4.341  12.131   4.744
28819SOL    HW286484   4.234  12.042   4.830
28820SOL     OW86485   5.084  12.034   4.769
28820SOL    HW186486   5.009  12.034   4.703
28820SOL    HW286487   5.121  11.942   4.778
28821SOL     OW86488   4.933  11.697   3.999
28821SOL    HW186489   4.946  11.613   4.053
28821SOL    HW286490   4.904  11.771   4.059
28822SOL     OW86491   4.031  11.385   4.955
28822SOL    HW186492   4.008  11.422   5.045
28822SOL    HW286493   4.001  11.290   4.949
28823SOL     OW86494   3.761  12.482   5.006
28823SOL    HW186495   3.814  12.433   5.074
28823SOL    HW286496   3.783  12.580   5.011
28824SOL     OW86497   4.456  11.806   4.788
28824SOL    HW186498   4.515  11.780   4.712
28824SOL    HW286499   4.428  11.902   4.777
28825SOL     OW86500   5.452  12.107   5.578
28825SOL    HW186501   5.406  12.100   5.489
28825SOL    HW286502   5.390  12.151   5.644
28826SOL     OW86503   4.031  11.235   4.342
28826SOL    HW186504   4.020  11.329   4.375
28826SOL    HW286505   4.026  11.172   4.419
28827SOL     OW86506   5.346  11.539   4.098
28827SOL    HW186507   5.348  11.463   4.162
28827SOL    HW286508   5.298  11.616   4.138
28828SOL     OW86509   4.747  11.938   4.690
28828SOL    HW186510   4.762  11.959   4.786
28828SOL    HW286511   4.717  11.843   4.681
28829SOL     OW86512   5.583  12.690   5.329
28829SOL    HW186513   5.597  12.717   5.234
28829SOL    HW286514   5.666  12.712   5.382
28830SOL     OW86515   4.074  12.070   5.528
28830SOL    HW186516   4.150  12.114   5.576
28830SOL    HW286517   4.109  12.023   5.446
28831SOL     OW86518   5.264  11.446   3.849
28831SOL    HW186519   5.203  11.371   3.872
28831SOL    HW286520   5.286  11.498   3.932
28832SOL     OW86521   5.027  12.010   3.766
28832SOL    HW186522   5.061  11.917   3.781
28832SOL    HW286523   5.045  12.037   3.671
28833SOL     OW86524   4.792  12.505   4.573
28833SOL    HW186525   4.799  12.421   4.518
28833SOL    HW286526   4.854  12.574   4.537
28834SOL     OW86527   4.043  11.982   4.673
28834SOL    HW186528   4.136  12.018   4.678
28834SOL    HW286529   4.037  11.897   4.725
28835SOL     OW86530   4.063  11.681   4.730
28835SOL    HW186531   4.011  11.598   4.713
28835SOL    HW286532   4.140  11.686   4.666
28836SOL     OW86533   4.862  11.552   5.402
28836SOL    HW186534   4.817  11.615   5.466
28836SOL    HW286535   4.955  11.583   5.385
28837SOL     OW86536   4.884  11.379   5.201
28837SOL    HW186537   4.884  11.443   5.278
28837SOL    HW286538   4.912  11.427   5.118
28838SOL     OW86539   3.732  12.498   3.924
28838SOL    HW186540   3.639  12.519   3.893
28838SOL    HW286541   3.742  12.399   3.937
28839SOL     OW86542   4.726  11.968   4.962
28839SOL    HW186543   4.767  11.936   5.048
28839SOL    HW286544   4.630  11.941   4.959
28840SOL     OW86545   3.913  11.692   5.446
28840SOL    HW186546   3.972  11.652   5.376
28840SOL    HW286547   3.855  11.763   5.405
28841SOL     OW86548   5.093  12.122   5.384
28841SOL    HW186549   5.132  12.211   5.404
28841SOL    HW286550   5.103  12.102   5.287
28842SOL     OW86551   4.539  11.744   4.049
28842SOL    HW186552   4.546  11.655   4.003
28842SOL    HW286553   4.445  11.778   4.041
28843SOL     OW86554   5.381  11.776   4.930
28843SOL    HW186555   5.343  11.707   4.992
28843SOL    HW286556   5.463  11.740   4.886
28844SOL     OW86557   3.976  12.736   5.468
28844SOL    HW186558   3.946  12.793   5.544
28844SOL    HW286559   3.969  12.639   5.494
28845SOL     OW86560   4.395  11.636   4.993
28845SOL    HW186561   4.361  11.547   4.963
28845SOL    HW286562   4.421  11.690   4.913
28846SOL     OW86563   4.197  11.672   3.915
28846SOL    HW186564   4.258  11.752   3.919
28846SOL    HW286565   4.102  11.703   3.922
28847SOL     OW86566   3.883  12.309   5.190
28847SOL    HW186567   3.905  12.248   5.266
28847SOL    HW286568   3.893  12.260   5.104
28848SOL     OW86569   5.071  12.231   4.958
28848SOL    HW186570   5.095  12.168   4.884
28848SOL    HW286571   4.981  12.271   4.940
28849SOL     OW86572   5.026  12.027   4.033
28849SOL    HW186573   4.940  11.996   4.075
28849SOL    HW286574   5.022  12.013   3.934
28850SOL     OW86575   3.807  12.430   4.746
28850SOL    HW186576   3.802  12.429   4.846
28850SOL    HW286577   3.724  12.389   4.708
28851SOL     OW86578   5.450  11.307   4.247
28851SOL    HW186579   5.523  11.290   4.180
28851SOL    HW286580   5.419  11.220   4.285
28852SOL     OW86581   5.004  12.099   4.396
28852SOL    HW186582   5.064  12.018   4.398
28852SOL    HW286583   5.044  12.168   4.336
28853SOL     OW86584   4.554  12.445   5.146
28853SOL    HW186585   4.549  12.478   5.241
28853SOL    HW286586   4.468  12.464   5.100
28854SOL     OW86587   5.565  11.347   4.687
28854SOL    HW186588   5.604  11.262   4.651
28854SOL    HW286589   5.467  11.349   4.668
28855SOL     OW86590   3.987  11.498   4.444
28855SOL    HW186591   3.908  11.549   4.410
28855SOL    HW286592   3.978  11.483   4.542
28856SOL     OW86593   4.546  12.174   5.096
28856SOL    HW186594   4.586  12.173   5.004
28856SOL    HW286595   4.556  12.266   5.136
28857SOL     OW86596   4.640  12.082   4.015
28857SOL    HW186597   4.703  12.120   3.947
28857SOL    HW286598   4.680  11.999   4.054
28858SOL     OW86599   4.096  12.460   5.214
28858SOL    HW186600   4.083  12.553   5.180
28858SOL    HW286601   4.012  12.408   5.201
28859SOL     OW86602   5.338  12.464   5.013
28859SOL    HW186603   5.398  12.467   5.093
28859SOL    HW286604   5.263  12.528   5.026
28860SOL     OW86605   4.763  12.270   4.420
28860SOL    HW186606   4.693  12.223   4.474
28860SOL    HW286607   4.822  12.202   4.377
28861SOL     OW86608   4.738  11.408   4.695
28861SOL    HW186609   4.730  11.372   4.602
28861SOL    HW286610   4.736  11.332   4.760
28862SOL     OW86611   5.433  11.557   5.105
28862SOL    HW186612   5.506  11.626   5.109
28862SOL    HW286613   5.461  11.482   5.046
28863SOL     OW86614   3.979  12.520   4.014
28863SOL    HW186615   3.883  12.521   3.987
28863SOL    HW286616   3.991  12.573   4.098
28864SOL     OW86617   3.829  12.185   5.450
28864SOL    HW186618   3.752  12.152   5.504
28864SOL    HW286619   3.914  12.155   5.492
28865SOL     OW86620   4.396  11.375   5.213
28865SOL    HW186621   4.486  11.359   5.173
28865SOL    HW286622   4.404  11.380   5.312
28866SOL     OW86623   3.799  11.517   3.757
28866SOL    HW186624   3.707  11.489   3.728
28866SOL    HW286625   3.830  11.594   3.701
28867SOL     OW86626   5.164  12.028   5.122
28867SOL    HW186627   5.107  12.080   5.059
28867SOL    HW286628   5.260  12.040   5.098
28868SOL     OW86629   3.796  11.338   4.042
28868SOL    HW186630   3.779  11.421   3.988
28868SOL    HW286631   3.886  11.301   4.020
28869SOL     OW86632   4.907  12.507   3.843
28869SOL    HW186633   4.808  12.496   3.845
28869SOL    HW286634   4.941  12.522   3.936
28870SOL     OW86635   4.337  12.014   5.155
28870SOL    HW186636   4.393  12.095   5.138
28870SOL    HW286637   4.396  11.934   5.158
28871SOL     OW86638   4.440  11.737   5.432
28871SOL    HW186639   4.459  11.802   5.506
28871SOL    HW286640   4.500  11.657   5.441
28872SOL     OW86641   5.174  12.392   5.357
28872SOL    HW186642   5.165  12.382   5.456
28872SOL    HW286643   5.270  12.385   5.331
28873SOL     OW86644   5.398  12.055   4.978
28873SOL    HW186645   5.371  11.966   4.941
28873SOL    HW286646   5.399  12.123   4.905
28874SOL     OW86647   4.949  11.497   4.173
28874SOL    HW186648   5.014  11.423   4.162
28874SOL    HW286649   4.969  11.547   4.257
28875SOL     OW86650   4.318  11.917   4.376
28875SOL    HW186651   4.368  12.002   4.357
28875SOL    HW286652   4.230  11.919   4.328
28876SOL     OW86653   5.501  11.514   5.366
28876SOL    HW186654   5.484  11.545   5.272
28876SOL    HW286655   5.417  11.477   5.404
28877SOL     OW86656   5.454  12.106   5.241
28877SOL    HW186657   5.492  12.197   5.256
28877SOL    HW286658   5.446  12.089   5.142
28878SOL     OW86659   4.583  12.546   3.740
28878SOL    HW186660   4.537  12.561   3.828
28878SOL    HW286661   4.627  12.631   3.710
28879SOL     OW86662   4.583  12.128   4.585
28879SOL    HW186663   4.637  12.059   4.633
28879SOL    HW286664   4.551  12.197   4.651
28880SOL     OW86665   4.807  12.156   3.811
28880SOL    HW186666   4.784  12.209   3.729
28880SOL    HW286667   4.888  12.100   3.792
28881SOL     OW86668   3.945  12.486   5.568
28881SOL    HW186669   3.880  12.413   5.547
28881SOL    HW286670   3.949  12.500   5.666
28882SOL     OW86671   3.803  12.412   4.377
28882SOL    HW186672   3.802  12.365   4.465
28882SOL    HW286673   3.885  12.384   4.326
28883SOL     OW86674   4.396  12.563   5.348
28883SOL    HW186675   4.318  12.513   5.386
28883SOL    HW286676   4.393  12.658   5.379
28884SOL     OW86677   5.548  11.364   4.951
28884SOL    HW186678   5.544  11.274   4.995
28884SOL    HW286679   5.551  11.353   4.852
28885SOL     OW86680   4.152  11.596   4.244
28885SOL    HW186681   4.182  11.524   4.182
28885SOL    HW286682   4.113  11.556   4.327
28886SOL     OW86683   5.429  12.659   4.828
28886SOL    HW186684   5.336  12.634   4.801
28886SOL    HW286685   5.455  12.609   4.910
28887SOL     OW86686   4.041  11.719   5.004
28887SOL    HW186687   4.079  11.660   5.076
28887SOL    HW286688   4.081  11.693   4.916
28888SOL     OW86689   5.148  11.386   4.836
28888SOL    HW186690   5.200  11.321   4.891
28888SOL    HW286691   5.099  11.449   4.897
28889SOL     OW86692   4.725  11.206   4.878
28889SOL    HW186693   4.662  11.134   4.847
28889SOL    HW286694   4.818  11.170   4.878
28890SOL     OW86695   4.494  12.502   4.025
28890SOL    HW186696   4.448  12.415   4.042
28890SOL    HW286697   4.585  12.499   4.066
28891SOL     OW86698   4.342  12.739   5.008
28891SOL    HW186699   4.337  12.821   5.065
28891SOL    HW286700   4.431  12.736   4.963
28892SOL     OW86701   5.076  11.224   3.892
28892SOL    HW186702   5.111  11.183   3.808
28892SOL    HW286703   4.986  11.186   3.912
28893SOL     OW86704   5.024  11.625   4.415
28893SOL    HW186705   4.965  11.705   4.419
28893SOL    HW286706   5.039  11.590   4.508
28894SOL     OW86707   5.317  11.393   4.606
28894SOL    HW186708   5.233  11.392   4.660
28894SOL    HW286709   5.319  11.476   4.550
28895SOL     OW86710   3.763  12.249   4.024
28895SOL    HW186711   3.862  12.238   4.015
28895SOL    HW286712   3.723  12.163   4.056
28896SOL     OW86713   3.954  11.800   5.699
28896SOL    HW186714   3.861  11.798   5.736
28896SOL    HW286715   3.955  11.761   5.607
28897SOL     OW86716   3.949  11.447   6.582
28897SOL    HW186717   3.984  11.430   6.674
28897SOL    HW286718   3.861  11.402   6.570
28898SOL     OW86719   3.743  11.540   6.233
28898SOL    HW186720   3.661  11.583   6.272
28898SOL    HW286721   3.715  11.467   6.170
28899SOL     OW86722   4.293  12.447   6.751
28899SOL    HW186723   4.200  12.440   6.714
28899SOL    HW286724   4.304  12.536   6.795
28900SOL     OW86725   5.279  12.683   6.289
28900SOL    HW186726   5.222  12.667   6.370
28900SOL    HW286727   5.220  12.693   6.209
28901SOL     OW86728   4.859  11.875   6.303
28901SOL    HW186729   4.916  11.953   6.278
28901SOL    HW286730   4.799  11.901   6.379
28902SOL     OW86731   5.479  11.779   5.817
28902SOL    HW186732   5.467  11.766   5.718
28902SOL    HW286733   5.449  11.698   5.866
28903SOL     OW86734   4.492  12.316   6.609
28903SOL    HW186735   4.414  12.333   6.669
28903SOL    HW286736   4.526  12.403   6.573
28904SOL     OW86737   4.574  11.970   7.409
28904SOL    HW186738   4.570  12.046   7.474
28904SOL    HW286739   4.596  12.006   7.318
28905SOL     OW86740   4.409  12.184   6.251
28905SOL    HW186741   4.478  12.168   6.321
28905SOL    HW286742   4.336  12.241   6.289
28906SOL     OW86743   4.410  12.333   7.389
28906SOL    HW186744   4.470  12.412   7.403
28906SOL    HW286745   4.324  12.364   7.348
28907SOL     OW86746   4.059  12.607   6.647
28907SOL    HW186747   3.981  12.576   6.594
28907SOL    HW286748   4.117  12.665   6.590
28908SOL     OW86749   5.184  12.677   6.925
28908SOL    HW186750   5.208  12.771   6.951
28908SOL    HW286751   5.168  12.623   7.007
28909SOL     OW86752   4.162  11.564   7.085
28909SOL    HW186753   4.244  11.508   7.094
28909SOL    HW286754   4.081  11.506   7.089
28910SOL     OW86755   5.327  11.619   6.323
28910SOL    HW186756   5.253  11.665   6.273
28910SOL    HW286757   5.378  11.687   6.376
28911SOL     OW86758   3.955  12.885   6.069
28911SOL    HW186759   3.989  12.962   6.123
28911SOL    HW286760   3.999  12.885   5.979
28912SOL     OW86761   4.851  12.513   7.276
28912SOL    HW186762   4.898  12.513   7.364
28912SOL    HW286763   4.803  12.426   7.265
28913SOL     OW86764   3.954  12.606   6.124
28913SOL    HW186765   3.928  12.702   6.124
28913SOL    HW286766   3.883  12.552   6.169
28914SOL     OW86767   3.964  12.263   6.472
28914SOL    HW186768   3.978  12.179   6.524
28914SOL    HW286769   3.909  12.327   6.527
28915SOL     OW86770   4.330  12.136   5.709
28915SOL    HW186771   4.337  12.220   5.655
28915SOL    HW286772   4.376  12.149   5.797
28916SOL     OW86773   5.318  11.286   7.066
28916SOL    HW186774   5.300  11.353   6.994
28916SOL    HW286775   5.315  11.332   7.155
28917SOL     OW86776   3.846  11.815   6.149
28917SOL    HW186777   3.801  11.727   6.166
28917SOL    HW286778   3.845  11.869   6.233
28918SOL     OW86779   3.751  12.768   5.703
28918SOL    HW186780   3.732  12.672   5.724
28918SOL    HW286781   3.718  12.826   5.778
28919SOL     OW86782   5.413  12.094   6.198
28919SOL    HW186783   5.508  12.065   6.206
28919SOL    HW286784   5.405  12.159   6.123
28920SOL     OW86785   5.365  12.280   6.018
28920SOL    HW186786   5.451  12.282   5.966
28920SOL    HW286787   5.379  12.327   6.106
28921SOL     OW86788   3.837  11.909   7.183
28921SOL    HW186789   3.925  11.896   7.228
28921SOL    HW286790   3.824  12.006   7.161
28922SOL     OW86791   4.337  12.537   6.312
28922SOL    HW186792   4.288  12.450   6.321
28922SOL    HW286793   4.314  12.580   6.225
28923SOL     OW86794   5.017  12.400   7.009
28923SOL    HW186795   5.054  12.327   6.951
28923SOL    HW286796   5.069  12.405   7.094
28924SOL     OW86797   4.533  11.176   6.088
28924SOL    HW186798   4.573  11.267   6.079
28924SOL    HW286799   4.433  11.184   6.094
28925SOL     OW86800   3.921  12.148   6.850
28925SOL    HW186801   4.010  12.103   6.836
28925SOL    HW286802   3.848  12.083   6.831
28926SOL     OW86803   5.249  12.171   5.776
28926SOL    HW186804   5.186  12.095   5.789
28926SOL    HW286805   5.297  12.189   5.862
28927SOL     OW86806   4.041  11.423   7.387
28927SOL    HW186807   4.112  11.494   7.393
28927SOL    HW286808   3.953  11.462   7.415
28928SOL     OW86809   5.190  12.589   6.539
28928SOL    HW186810   5.131  12.595   6.619
28928SOL    HW286811   5.175  12.501   6.493
28929SOL     OW86812   4.322  11.901   5.856
28929SOL    HW186813   4.346  11.970   5.788
28929SOL    HW286814   4.244  11.934   5.910
28930SOL     OW86815   4.531  11.777   7.051
28930SOL    HW186816   4.484  11.774   7.140
28930SOL    HW286817   4.480  11.722   6.985
28931SOL     OW86818   5.118  11.641   7.260
28931SOL    HW186819   5.098  11.684   7.348
28931SOL    HW286820   5.196  11.579   7.269
28932SOL     OW86821   4.697  12.062   7.158
28932SOL    HW186822   4.743  11.978   7.129
28932SOL    HW286823   4.641  12.096   7.083
28933SOL     OW86824   4.715  11.582   6.828
28933SOL    HW186825   4.638  11.616   6.882
28933SOL    HW286826   4.681  11.531   6.749
28934SOL     OW86827   4.765  11.873   6.015
28934SOL    HW186828   4.791  11.869   6.111
28934SOL    HW286829   4.680  11.822   6.001
28935SOL     OW86830   3.800  11.983   6.375
28935SOL    HW186831   3.899  11.971   6.384
28935SOL    HW286832   3.776  12.078   6.396
28936SOL     OW86833   4.589  11.520   5.781
28936SOL    HW186834   4.648  11.583   5.732
28936SOL    HW286835   4.608  11.426   5.752
28937SOL     OW86836   5.443  11.757   7.417
28937SOL    HW186837   5.417  11.846   7.381
28937SOL    HW286838   5.441  11.689   7.344
28938SOL     OW86839   5.086  12.316   6.131
28938SOL    HW186840   5.169  12.287   6.083
28938SOL    HW286841   5.037  12.383   6.075
28939SOL     OW86842   4.274  11.368   6.471
28939SOL    HW186843   4.269  11.363   6.571
28939SOL    HW286844   4.276  11.464   6.442
28940SOL     OW86845   4.732  12.628   6.063
28940SOL    HW186846   4.686  12.700   6.011
28940SOL    HW286847   4.728  12.648   6.161
28941SOL     OW86848   5.519  12.238   6.459
28941SOL    HW186849   5.457  12.223   6.383
28941SOL    HW286850   5.467  12.249   6.544
28942SOL     OW86851   4.951  12.722   7.092
28942SOL    HW186852   4.957  12.645   7.156
28942SOL    HW286853   4.899  12.696   7.012
28943SOL     OW86854   4.045  12.115   5.828
28943SOL    HW186855   4.127  12.154   5.786
28943SOL    HW286856   4.018  12.033   5.779
28944SOL     OW86857   5.182  11.907   6.314
28944SOL    HW186858   5.177  11.842   6.389
28944SOL    HW286859   5.262  11.966   6.327
28945SOL     OW86860   4.185  12.438   7.313
28945SOL    HW186861   4.135  12.439   7.227
28945SOL    HW286862   4.122  12.420   7.389
28946SOL     OW86863   4.835  12.948   5.823
28946SOL    HW186864   4.775  12.886   5.873
28946SOL    HW286865   4.866  12.904   5.738
28947SOL     OW86866   3.926  11.457   7.084
28947SOL    HW186867   3.846  11.517   7.071
28947SOL    HW286868   3.916  11.408   7.170
28948SOL     OW86869   5.124  11.279   6.012
28948SOL    HW186870   5.100  11.242   5.922
28948SOL    HW286871   5.223  11.295   6.016
28949SOL     OW86872   4.106  11.872   6.066
28949SOL    HW186873   4.151  11.782   6.063
28949SOL    HW286874   4.012  11.861   6.099
28950SOL     OW86875   5.271  11.394   7.315
28950SOL    HW186876   5.266  11.431   7.407
28950SOL    HW286877   5.199  11.325   7.303
28951SOL     OW86878   4.338  11.294   5.703
28951SOL    HW186879   4.436  11.272   5.710
28951SOL    HW286880   4.307  11.277   5.610
28952SOL     OW86881   4.505  11.436   7.335
28952SOL    HW186882   4.572  11.375   7.378
28952SOL    HW286883   4.432  11.455   7.400
28953SOL     OW86884   5.075  11.762   7.019
28953SOL    HW186885   5.103  11.719   7.104
28953SOL    HW286886   5.100  11.858   7.020
28954SOL     OW86887   4.527  12.574   6.510
28954SOL    HW186888   4.617  12.588   6.468
28954SOL    HW286889   4.456  12.576   6.439
28955SOL     OW86890   4.646  11.675   6.485
28955SOL    HW186891   4.621  11.666   6.389
28955SOL    HW286892   4.694  11.593   6.516
28956SOL     OW86893   4.263  11.236   6.098
28956SOL    HW186894   4.182  11.237   6.156
28956SOL    HW286895   4.266  11.319   6.043
28957SOL     OW86896   5.158  12.360   5.627
28957SOL    HW186897   5.190  12.284   5.684
28957SOL    HW286898   5.066  12.387   5.657
28958SOL     OW86899   4.021  11.207   5.757
28958SOL    HW186900   4.070  11.291   5.736
28958SOL    HW286901   4.083  11.142   5.802
28959SOL     OW86902   4.659  11.408   6.066
28959SOL    HW186903   4.611  11.449   5.988
28959SOL    HW286904   4.758  11.406   6.047
28960SOL     OW86905   4.800  11.855   7.050
28960SOL    HW186906   4.720  11.794   7.053
28960SOL    HW286907   4.881  11.802   7.026
28961SOL     OW86908   4.951  12.742   6.379
28961SOL    HW186909   4.972  12.816   6.314
28961SOL    HW286910   5.019  12.742   6.452
28962SOL     OW86911   4.183  12.324   6.327
28962SOL    HW186912   4.112  12.297   6.392
28962SOL    HW286913   4.157  12.296   6.234
28963SOL     OW86914   4.756  11.721   5.602
28963SOL    HW186915   4.715  11.803   5.563
28963SOL    HW286916   4.820  11.747   5.675
28964SOL     OW86917   3.802  11.728   6.972
28964SOL    HW186918   3.894  11.727   6.931
28964SOL    HW286919   3.796  11.802   7.039
28965SOL     OW86920   4.285  11.394   6.733
28965SOL    HW186921   4.323  11.310   6.770
28965SOL    HW286922   4.197  11.413   6.777
28966SOL     OW86923   4.590  11.626   6.228
28966SOL    HW186924   4.558  11.698   6.166
28966SOL    HW286925   4.614  11.545   6.175
28967SOL     OW86926   4.741  11.211   6.339
28967SOL    HW186927   4.669  11.216   6.270
28967SOL    HW286928   4.717  11.142   6.408
28968SOL     OW86929   5.153  12.345   6.453
28968SOL    HW186930   5.098  12.261   6.446
28968SOL    HW286931   5.179  12.374   6.361
28969SOL     OW86932   5.190  11.762   6.578
28969SOL    HW186933   5.160  11.667   6.585
28969SOL    HW286934   5.263  11.778   6.644
28970SOL     OW86935   5.581  12.005   5.963
28970SOL    HW186936   5.623  11.941   6.027
28970SOL    HW286937   5.543  11.954   5.885
28971SOL     OW86938   4.212  12.557   5.760
28971SOL    HW186939   4.125  12.542   5.807
28971SOL    HW286940   4.195  12.583   5.665
28972SOL     OW86941   5.388  12.452   6.243
28972SOL    HW186942   5.487  12.460   6.257
28972SOL    HW286943   5.343  12.536   6.274
28973SOL     OW86944   5.114  11.747   5.664
28973SOL    HW186945   5.060  11.726   5.745
28973SOL    HW286946   5.205  11.706   5.673
28974SOL     OW86947   4.251  11.428   5.914
28974SOL    HW186948   4.278  11.369   5.839
28974SOL    HW286949   4.251  11.523   5.883
28975SOL     OW86950   5.478  12.395   7.174
28975SOL    HW186951   5.569  12.356   7.161
28975SOL    HW286952   5.486  12.491   7.198
28976SOL     OW86953   4.788  12.519   6.926
28976SOL    HW186954   4.708  12.496   6.981
28976SOL    HW286955   4.871  12.493   6.975
28977SOL     OW86956   4.835  12.367   6.686
28977SOL    HW186957   4.795  12.411   6.767
28977SOL    HW286958   4.794  12.404   6.603
28978SOL     OW86959   5.362  12.271   6.665
28978SOL    HW186960   5.367  12.352   6.724
28978SOL    HW286961   5.276  12.273   6.614
28979SOL     OW86962   4.639  11.261   6.988
28979SOL    HW186963   4.664  11.241   6.893
28979SOL    HW286964   4.711  11.317   7.030
28980SOL     OW86965   4.704  12.288   7.305
28980SOL    HW186966   4.605  12.294   7.315
28980SOL    HW286967   4.727  12.208   7.249
28981SOL     OW86968   4.429  12.222   5.954
28981SOL    HW186969   4.415  12.229   6.053
28981SOL    HW286970   4.513  12.171   5.936
28982SOL     OW86971   4.134  11.985   6.837
28982SOL    HW186972   4.220  11.997   6.887
28982SOL    HW286973   4.092  11.898   6.864
28983SOL     OW86974   4.998  11.558   6.848
28983SOL    HW186975   5.019  11.632   6.912
28983SOL    HW286976   4.909  11.575   6.805
28984SOL     OW86977   4.091  12.272   6.087
28984SOL    HW186978   4.084  12.355   6.031
28984SOL    HW286979   4.095  12.192   6.027
28985SOL     OW86980   4.290  11.709   6.451
28985SOL    HW186981   4.302  11.775   6.377
28985SOL    HW286982   4.336  11.743   6.534
28986SOL     OW86983   4.976  12.520   5.974
28986SOL    HW186984   5.026  12.597   6.014
28986SOL    HW286985   4.881  12.522   6.006
28987SOL     OW86986   4.996  12.617   6.728
28987SOL    HW186987   5.043  12.630   6.815
28987SOL    HW286988   4.930  12.543   6.737
28988SOL     OW86989   5.306  11.811   6.058
28988SOL    HW186990   5.275  11.872   6.131
28988SOL    HW286991   5.356  11.863   5.989
28989SOL     OW86992   4.078  12.682   6.915
28989SOL    HW186993   4.057  12.638   6.828
28989SOL    HW286994   4.175  12.708   6.918
28990SOL     OW86995   4.126  11.923   7.184
28990SOL    HW186996   4.194  11.978   7.137
28990SOL    HW286997   4.166  11.835   7.211
28991SOL     OW86998   5.311  11.951   7.256
28991SOL    HW186999   5.219  11.989   7.251
28991SOL    HW287000   5.371  11.998   7.191
28992SOL     OW87001   4.737  11.277   7.356
28992SOL    HW187002   4.743  11.362   7.304
28992SOL    HW287003   4.769  11.201   7.299
28993SOL     OW87004   4.228  11.222   7.326
28993SOL    HW187005   4.186  11.165   7.256
28993SOL    HW287006   4.162  11.291   7.358
28994SOL     OW87007   4.297  12.042   6.615
28994SOL    HW187008   4.341  12.131   6.606
28994SOL    HW287009   4.234  12.042   6.692
28995SOL     OW87010   5.084  12.034   6.631
28995SOL    HW187011   5.009  12.034   6.565
28995SOL    HW287012   5.121  11.942   6.640
28996SOL     OW87013   4.933  11.697   5.861
28996SOL    HW187014   4.946  11.613   5.915
28996SOL    HW287015   4.904  11.771   5.921
28997SOL     OW87016   4.031  11.385   6.817
28997SOL    HW187017   4.008  11.422   6.907
28997SOL    HW287018   4.001  11.290   6.811
28998SOL     OW87019   3.761  12.482   6.868
28998SOL    HW187020   3.814  12.433   6.936
28998SOL    HW287021   3.783  12.580   6.873
28999SOL     OW87022   4.456  11.806   6.650
28999SOL    HW187023   4.515  11.780   6.574
28999SOL    HW287024   4.428  11.902   6.639
29000SOL     OW87025   5.452  12.107   7.440
29000SOL    HW187026   5.406  12.100   7.351
29000SOL    HW287027   5.390  12.151   7.506
29001SOL     OW87028   4.031  11.235   6.204
29001SOL    HW187029   4.020  11.329   6.237
29001SOL    HW287030   4.026  11.172   6.281
29002SOL     OW87031   5.346  11.539   5.960
29002SOL    HW187032   5.348  11.463   6.024
29002SOL    HW287033   5.298  11.616   6.000
29003SOL     OW87034   4.747  11.938   6.552
29003SOL    HW187035   4.762  11.959   6.648
29003SOL    HW287036   4.717  11.843   6.543
29004SOL     OW87037   5.583  12.690   7.191
29004SOL    HW187038   5.597  12.717   7.096
29004SOL    HW287039   5.666  12.712   7.244
29005SOL     OW87040   4.074  12.070   7.390
29005SOL    HW187041   4.150  12.114   7.438
29005SOL    HW287042   4.109  12.023   7.308
29006SOL     OW87043   5.264  11.446   5.711
29006SOL    HW187044   5.203  11.371   5.734
29006SOL    HW287045   5.286  11.498   5.794
29007SOL     OW87046   5.027  12.010   5.628
29007SOL    HW187047   5.061  11.917   5.643
29007SOL    HW287048   5.045  12.037   5.533
29008SOL     OW87049   4.792  12.505   6.435
29008SOL    HW187050   4.799  12.421   6.380
29008SOL    HW287051   4.854  12.574   6.399
29009SOL     OW87052   4.043  11.982   6.535
29009SOL    HW187053   4.136  12.018   6.540
29009SOL    HW287054   4.037  11.897   6.587
29010SOL     OW87055   4.063  11.681   6.592
29010SOL    HW187056   4.011  11.598   6.575
29010SOL    HW287057   4.140  11.686   6.528
29011SOL     OW87058   4.862  11.552   7.264
29011SOL    HW187059   4.817  11.615   7.328
29011SOL    HW287060   4.955  11.583   7.247
29012SOL     OW87061   4.884  11.379   7.063
29012SOL    HW187062   4.884  11.443   7.140
29012SOL    HW287063   4.912  11.427   6.980
29013SOL     OW87064   3.732  12.498   5.786
29013SOL    HW187065   3.639  12.519   5.755
29013SOL    HW287066   3.742  12.399   5.799
29014SOL     OW87067   4.726  11.968   6.824
29014SOL    HW187068   4.767  11.936   6.910
29014SOL    HW287069   4.630  11.941   6.821
29015SOL     OW87070   3.764  11.716   6.700
29015SOL    HW187071   3.849  11.683   6.659
29015SOL    HW287072   3.777  11.731   6.798
29016SOL     OW87073   3.913  11.692   7.308
29016SOL    HW187074   3.972  11.652   7.238
29016SOL    HW287075   3.855  11.763   7.267
29017SOL     OW87076   5.093  12.122   7.246
29017SOL    HW187077   5.132  12.211   7.266
29017SOL    HW287078   5.103  12.102   7.149
29018SOL     OW87079   4.539  11.744   5.911
29018SOL    HW187080   4.546  11.655   5.865
29018SOL    HW287081   4.445  11.778   5.903
29019SOL     OW87082   5.381  11.776   6.792
29019SOL    HW187083   5.343  11.707   6.854
29019SOL    HW287084   5.463  11.740   6.748
29020SOL     OW87085   3.976  12.736   7.330
29020SOL    HW187086   3.946  12.793   7.406
29020SOL    HW287087   3.969  12.639   7.356
29021SOL     OW87088   4.395  11.636   6.855
29021SOL    HW187089   4.361  11.547   6.825
29021SOL    HW287090   4.421  11.690   6.775
29022SOL     OW87091   4.197  11.672   5.777
29022SOL    HW187092   4.258  11.752   5.781
29022SOL    HW287093   4.102  11.703   5.784
29023SOL     OW87094   3.883  12.309   7.052
29023SOL    HW187095   3.905  12.248   7.128
29023SOL    HW287096   3.893  12.260   6.966
29024SOL     OW87097   5.071  12.231   6.820
29024SOL    HW187098   5.095  12.168   6.746
29024SOL    HW287099   4.981  12.271   6.802
29025SOL     OW87100   5.026  12.027   5.895
29025SOL    HW187101   4.940  11.996   5.937
29025SOL    HW287102   5.022  12.013   5.796
29026SOL     OW87103   3.807  12.430   6.608
29026SOL    HW187104   3.802  12.429   6.708
29026SOL    HW287105   3.724  12.389   6.570
29027SOL     OW87106   5.450  11.307   6.109
29027SOL    HW187107   5.523  11.290   6.042
29027SOL    HW287108   5.419  11.220   6.147
29028SOL     OW87109   5.004  12.099   6.258
29028SOL    HW187110   5.064  12.018   6.260
29028SOL    HW287111   5.044  12.168   6.198
29029SOL     OW87112   4.554  12.445   7.008
29029SOL    HW187113   4.549  12.478   7.103
29029SOL    HW287114   4.468  12.464   6.962
29030SOL     OW87115   5.565  11.347   6.549
29030SOL    HW187116   5.604  11.262   6.513
29030SOL    HW287117   5.467  11.349   6.530
29031SOL     OW87118   3.987  11.498   6.306
29031SOL    HW187119   3.908  11.549   6.272
29031SOL    HW287120   3.978  11.483   6.404
29032SOL     OW87121   4.546  12.174   6.958
29032SOL    HW187122   4.586  12.173   6.866
29032SOL    HW287123   4.556  12.266   6.998
29033SOL     OW87124   4.640  12.082   5.877
29033SOL    HW187125   4.703  12.120   5.809
29033SOL    HW287126   4.680  11.999   5.916
29034SOL     OW87127   4.096  12.460   7.076
29034SOL    HW187128   4.083  12.553   7.042
29034SOL    HW287129   4.012  12.408   7.063
29035SOL     OW87130   5.338  12.464   6.875
29035SOL    HW187131   5.398  12.467   6.955
29035SOL    HW287132   5.263  12.528   6.888
29036SOL     OW87133   4.763  12.270   6.282
29036SOL    HW187134   4.693  12.223   6.336
29036SOL    HW287135   4.822  12.202   6.239
29037SOL     OW87136   4.738  11.408   6.557
29037SOL    HW187137   4.730  11.372   6.464
29037SOL    HW287138   4.736  11.332   6.622
29038SOL     OW87139   5.433  11.557   6.967
29038SOL    HW187140   5.506  11.626   6.971
29038SOL    HW287141   5.461  11.482   6.908
29039SOL     OW87142   3.979  12.520   5.876
29039SOL    HW187143   3.883  12.521   5.849
29039SOL    HW287144   3.991  12.573   5.960
29040SOL     OW87145   3.829  12.185   7.312
29040SOL    HW187146   3.752  12.152   7.366
29040SOL    HW287147   3.914  12.155   7.354
29041SOL     OW87148   4.396  11.375   7.075
29041SOL    HW187149   4.486  11.359   7.035
29041SOL    HW287150   4.404  11.380   7.174
29042SOL     OW87151   3.799  11.517   5.619
29042SOL    HW187152   3.707  11.489   5.590
29042SOL    HW287153   3.830  11.594   5.563
29043SOL     OW87154   5.164  12.028   6.984
29043SOL    HW187155   5.107  12.080   6.921
29043SOL    HW287156   5.260  12.040   6.960
29044SOL     OW87157   3.796  11.338   5.904
29044SOL    HW187158   3.779  11.421   5.850
29044SOL    HW287159   3.886  11.301   5.882
29045SOL     OW87160   4.907  12.507   5.705
29045SOL    HW187161   4.808  12.496   5.707
29045SOL    HW287162   4.941  12.522   5.798
29046SOL     OW87163   4.337  12.014   7.017
29046SOL    HW187164   4.393  12.095   7.000
29046SOL    HW287165   4.396  11.934   7.020
29047SOL     OW87166   4.440  11.737   7.294
29047SOL    HW187167   4.459  11.802   7.368
29047SOL    HW287168   4.500  11.657   7.303
29048SOL     OW87169   5.174  12.392   7.219
29048SOL    HW187170   5.165  12.382   7.318
29048SOL    HW287171   5.270  12.385   7.193
29049SOL     OW87172   5.398  12.055   6.840
29049SOL    HW187173   5.371  11.966   6.803
29049SOL    HW287174   5.399  12.123   6.767
29050SOL     OW87175   4.949  11.497   6.035
29050SOL    HW187176   5.014  11.423   6.024
29050SOL    HW287177   4.969  11.547   6.119
29051SOL     OW87178   4.318  11.917   6.238
29051SOL    HW187179   4.368  12.002   6.219
29051SOL    HW287180   4.230  11.919   6.190
29052SOL     OW87181   5.501  11.514   7.228
29052SOL    HW187182   5.484  11.545   7.134
29052SOL    HW287183   5.417  11.477   7.266
29053SOL     OW87184   5.454  12.106   7.103
29053SOL    HW187185   5.492  12.197   7.118
29053SOL    HW287186   5.446  12.089   7.004
29054SOL     OW87187   4.583  12.546   5.602
29054SOL    HW187188   4.537  12.561   5.690
29054SOL    HW287189   4.627  12.631   5.572
29055SOL     OW87190   4.583  12.128   6.447
29055SOL    HW187191   4.637  12.059   6.495
29055SOL    HW287192   4.551  12.197   6.513
29056SOL     OW87193   4.807  12.156   5.673
29056SOL    HW187194   4.784  12.209   5.591
29056SOL    HW287195   4.888  12.100   5.654
29057SOL     OW87196   3.945  12.486   7.430
29057SOL    HW187197   3.880  12.413   7.409
29057SOL    HW287198   3.949  12.500   7.528
29058SOL     OW87199   3.803  12.412   6.239
29058SOL    HW187200   3.802  12.365   6.327
29058SOL    HW287201   3.885  12.384   6.188
29059SOL     OW87202   4.396  12.563   7.210
29059SOL    HW187203   4.318  12.513   7.248
29059SOL    HW287204   4.393  12.658   7.241
29060SOL     OW87205   5.548  11.364   6.813
29060SOL    HW187206   5.544  11.274   6.857
29060SOL    HW287207   5.551  11.353   6.714
29061SOL     OW87208   4.152  11.596   6.106
29061SOL    HW187209   4.182  11.524   6.044
29061SOL    HW287210   4.113  11.556   6.189
29062SOL     OW87211   5.429  12.659   6.690
29062SOL    HW187212   5.336  12.634   6.663
29062SOL    HW287213   5.455  12.609   6.772
29063SOL     OW87214   4.041  11.719   6.866
29063SOL    HW187215   4.079  11.660   6.938
29063SOL    HW287216   4.081  11.693   6.778
29064SOL     OW87217   5.148  11.386   6.698
29064SOL    HW187218   5.200  11.321   6.753
29064SOL    HW287219   5.099  11.449   6.759
29065SOL     OW87220   4.725  11.206   6.740
29065SOL    HW187221   4.662  11.134   6.709
29065SOL    HW287222   4.818  11.170   6.740
29066SOL     OW87223   4.494  12.502   5.887
29066SOL    HW187224   4.448  12.415   5.904
29066SOL    HW287225   4.585  12.499   5.928
29067SOL     OW87226   4.342  12.739   6.870
29067SOL    HW187227   4.337  12.821   6.927
29067SOL    HW287228   4.431  12.736   6.825
29068SOL     OW87229   5.076  11.224   5.754
29068SOL    HW187230   5.111  11.183   5.670
29068SOL    HW287231   4.986  11.186   5.774
29069SOL     OW87232   5.024  11.625   6.277
29069SOL    HW187233   4.965  11.705   6.281
29069SOL    HW287234   5.039  11.590   6.370
29070SOL     OW87235   5.317  11.393   6.468
29070SOL    HW187236   5.233  11.392   6.522
29070SOL    HW287237   5.319  11.476   6.412
29071SOL     OW87238   3.763  12.249   5.886
29071SOL    HW187239   3.862  12.238   5.877
29071SOL    HW287240   3.723  12.163   5.918
29072SOL     OW87241   3.954  11.800   7.561
29072SOL    HW187242   3.861  11.798   7.598
29072SOL    HW287243   3.955  11.761   7.469
29073SOL     OW87244   3.949  11.447   8.444
29073SOL    HW187245   3.984  11.430   8.536
29073SOL    HW287246   3.861  11.402   8.432
29074SOL     OW87247   3.743  11.540   8.095
29074SOL    HW187248   3.661  11.583   8.134
29074SOL    HW287249   3.715  11.467   8.032
29075SOL     OW87250   4.293  12.447   8.613
29075SOL    HW187251   4.200  12.440   8.576
29075SOL    HW287252   4.304  12.536   8.657
29076SOL     OW87253   5.279  12.683   8.151
29076SOL    HW187254   5.222  12.667   8.232
29076SOL    HW287255   5.220  12.693   8.071
29077SOL     OW87256   4.859  11.875   8.165
29077SOL    HW187257   4.916  11.953   8.140
29077SOL    HW287258   4.799  11.901   8.241
29078SOL     OW87259   5.479  11.779   7.679
29078SOL    HW187260   5.467  11.766   7.580
29078SOL    HW287261   5.449  11.698   7.728
29079SOL     OW87262   4.492  12.316   8.471
29079SOL    HW187263   4.414  12.333   8.531
29079SOL    HW287264   4.526  12.403   8.435
29080SOL     OW87265   4.574  11.970   9.271
29080SOL    HW187266   4.570  12.046   9.336
29080SOL    HW287267   4.596  12.006   9.180
29081SOL     OW87268   4.409  12.184   8.113
29081SOL    HW187269   4.478  12.168   8.183
29081SOL    HW287270   4.336  12.241   8.151
29082SOL     OW87271   4.410  12.333   9.251
29082SOL    HW187272   4.470  12.412   9.265
29082SOL    HW287273   4.324  12.364   9.210
29083SOL     OW87274   4.059  12.607   8.509
29083SOL    HW187275   3.981  12.576   8.456
29083SOL    HW287276   4.117  12.665   8.452
29084SOL     OW87277   5.184  12.677   8.787
29084SOL    HW187278   5.208  12.771   8.813
29084SOL    HW287279   5.168  12.623   8.869
29085SOL     OW87280   4.162  11.564   8.947
29085SOL    HW187281   4.244  11.508   8.956
29085SOL    HW287282   4.081  11.506   8.951
29086SOL     OW87283   5.327  11.619   8.185
29086SOL    HW187284   5.253  11.665   8.135
29086SOL    HW287285   5.378  11.687   8.238
29087SOL     OW87286   3.955  12.885   7.931
29087SOL    HW187287   3.989  12.962   7.985
29087SOL    HW287288   3.999  12.885   7.841
29088SOL     OW87289   4.851  12.513   9.138
29088SOL    HW187290   4.898  12.513   9.226
29088SOL    HW287291   4.803  12.426   9.127
29089SOL     OW87292   3.954  12.606   7.986
29089SOL    HW187293   3.928  12.702   7.986
29089SOL    HW287294   3.883  12.552   8.031
29090SOL     OW87295   3.964  12.263   8.334
29090SOL    HW187296   3.978  12.179   8.386
29090SOL    HW287297   3.909  12.327   8.389
29091SOL     OW87298   4.330  12.136   7.571
29091SOL    HW187299   4.337  12.220   7.517
29091SOL    HW287300   4.376  12.149   7.659
29092SOL     OW87301   5.318  11.286   8.928
29092SOL    HW187302   5.300  11.353   8.856
29092SOL    HW287303   5.315  11.332   9.017
29093SOL     OW87304   3.846  11.815   8.011
29093SOL    HW187305   3.801  11.727   8.028
29093SOL    HW287306   3.845  11.869   8.095
29094SOL     OW87307   3.751  12.768   7.565
29094SOL    HW187308   3.732  12.672   7.586
29094SOL    HW287309   3.718  12.826   7.640
29095SOL     OW87310   5.413  12.094   8.060
29095SOL    HW187311   5.508  12.065   8.068
29095SOL    HW287312   5.405  12.159   7.985
29096SOL     OW87313   5.365  12.280   7.880
29096SOL    HW187314   5.451  12.282   7.828
29096SOL    HW287315   5.379  12.327   7.968
29097SOL     OW87316   3.837  11.909   9.045
29097SOL    HW187317   3.925  11.896   9.090
29097SOL    HW287318   3.824  12.006   9.023
29098SOL     OW87319   4.337  12.537   8.174
29098SOL    HW187320   4.288  12.450   8.183
29098SOL    HW287321   4.314  12.580   8.087
29099SOL     OW87322   5.017  12.400   8.871
29099SOL    HW187323   5.054  12.327   8.813
29099SOL    HW287324   5.069  12.405   8.956
29100SOL     OW87325   4.533  11.176   7.950
29100SOL    HW187326   4.573  11.267   7.941
29100SOL    HW287327   4.433  11.184   7.956
29101SOL     OW87328   3.921  12.148   8.712
29101SOL    HW187329   4.010  12.103   8.698
29101SOL    HW287330   3.848  12.083   8.693
29102SOL     OW87331   5.249  12.171   7.638
29102SOL    HW187332   5.186  12.095   7.651
29102SOL    HW287333   5.297  12.189   7.724
29103SOL     OW87334   4.041  11.423   9.249
29103SOL    HW187335   4.112  11.494   9.255
29103SOL    HW287336   3.953  11.462   9.277
29104SOL     OW87337   5.190  12.589   8.401
29104SOL    HW187338   5.131  12.595   8.481
29104SOL    HW287339   5.175  12.501   8.355
29105SOL     OW87340   4.322  11.901   7.718
29105SOL    HW187341   4.346  11.970   7.650
29105SOL    HW287342   4.244  11.934   7.772
29106SOL     OW87343   5.005  11.517   8.392
29106SOL    HW187344   4.919  11.467   8.379
29106SOL    HW287345   5.067  11.463   8.448
29107SOL     OW87346   4.531  11.777   8.913
29107SOL    HW187347   4.484  11.774   9.002
29107SOL    HW287348   4.480  11.722   8.847
29108SOL     OW87349   5.118  11.641   9.122
29108SOL    HW187350   5.098  11.684   9.210
29108SOL    HW287351   5.196  11.579   9.131
29109SOL     OW87352   4.715  11.582   8.690
29109SOL    HW187353   4.638  11.616   8.744
29109SOL    HW287354   4.681  11.531   8.611
29110SOL     OW87355   4.765  11.873   7.877
29110SOL    HW187356   4.791  11.869   7.973
29110SOL    HW287357   4.680  11.822   7.863
29111SOL     OW87358   3.800  11.983   8.237
29111SOL    HW187359   3.899  11.971   8.246
29111SOL    HW287360   3.776  12.078   8.258
29112SOL     OW87361   4.589  11.520   7.643
29112SOL    HW187362   4.648  11.583   7.594
29112SOL    HW287363   4.608  11.426   7.614
29113SOL     OW87364   5.443  11.757   9.279
29113SOL    HW187365   5.417  11.846   9.243
29113SOL    HW287366   5.441  11.689   9.206
29114SOL     OW87367   5.086  12.316   7.993
29114SOL    HW187368   5.169  12.287   7.945
29114SOL    HW287369   5.037  12.383   7.937
29115SOL     OW87370   4.274  11.368   8.333
29115SOL    HW187371   4.269  11.363   8.433
29115SOL    HW287372   4.276  11.464   8.304
29116SOL     OW87373   4.732  12.628   7.925
29116SOL    HW187374   4.686  12.700   7.873
29116SOL    HW287375   4.728  12.648   8.023
29117SOL     OW87376   5.519  12.238   8.321
29117SOL    HW187377   5.457  12.223   8.245
29117SOL    HW287378   5.467  12.249   8.406
29118SOL     OW87379   4.951  12.722   8.954
29118SOL    HW187380   4.957  12.645   9.018
29118SOL    HW287381   4.899  12.696   8.874
29119SOL     OW87382   4.045  12.115   7.690
29119SOL    HW187383   4.127  12.154   7.648
29119SOL    HW287384   4.018  12.033   7.641
29120SOL     OW87385   5.182  11.907   8.176
29120SOL    HW187386   5.177  11.842   8.251
29120SOL    HW287387   5.262  11.966   8.189
29121SOL     OW87388   4.185  12.438   9.175
29121SOL    HW187389   4.135  12.439   9.089
29121SOL    HW287390   4.122  12.420   9.251
29122SOL     OW87391   4.835  12.948   7.685
29122SOL    HW187392   4.775  12.886   7.735
29122SOL    HW287393   4.866  12.904   7.600
29123SOL     OW87394   3.926  11.457   8.946
29123SOL    HW187395   3.846  11.517   8.933
29123SOL    HW287396   3.916  11.408   9.032
29124SOL     OW87397   5.356  12.549   7.529
29124SOL    HW187398   5.324  12.643   7.519
29124SOL    HW287399   5.280  12.486   7.517
29125SOL     OW87400   5.124  11.279   7.874
29125SOL    HW187401   5.100  11.242   7.784
29125SOL    HW287402   5.223  11.295   7.878
29126SOL     OW87403   4.106  11.872   7.928
29126SOL    HW187404   4.151  11.782   7.925
29126SOL    HW287405   4.012  11.861   7.961
29127SOL     OW87406   5.271  11.394   9.177
29127SOL    HW187407   5.266  11.431   9.269
29127SOL    HW287408   5.199  11.325   9.165
29128SOL     OW87409   4.338  11.294   7.565
29128SOL    HW187410   4.436  11.272   7.572
29128SOL    HW287411   4.307  11.277   7.472
29129SOL     OW87412   4.505  11.436   9.197
29129SOL    HW187413   4.572  11.375   9.240
29129SOL    HW287414   4.432  11.455   9.262
29130SOL     OW87415   5.075  11.762   8.881
29130SOL    HW187416   5.103  11.719   8.966
29130SOL    HW287417   5.100  11.858   8.882
29131SOL     OW87418   4.527  12.574   8.372
29131SOL    HW187419   4.617  12.588   8.330
29131SOL    HW287420   4.456  12.576   8.301
29132SOL     OW87421   4.646  11.675   8.347
29132SOL    HW187422   4.621  11.666   8.251
29132SOL    HW287423   4.694  11.593   8.378
29133SOL     OW87424   4.263  11.236   7.960
29133SOL    HW187425   4.182  11.237   8.018
29133SOL    HW287426   4.266  11.319   7.905
29134SOL     OW87427   5.158  12.360   7.489
29134SOL    HW187428   5.190  12.284   7.546
29134SOL    HW287429   5.066  12.387   7.519
29135SOL     OW87430   4.021  11.207   7.619
29135SOL    HW187431   4.070  11.291   7.598
29135SOL    HW287432   4.083  11.142   7.664
29136SOL     OW87433   4.659  11.408   7.928
29136SOL    HW187434   4.611  11.449   7.850
29136SOL    HW287435   4.758  11.406   7.909
29137SOL     OW87436   4.800  11.855   8.912
29137SOL    HW187437   4.720  11.794   8.915
29137SOL    HW287438   4.881  11.802   8.888
29138SOL     OW87439   4.951  12.742   8.241
29138SOL    HW187440   4.972  12.816   8.176
29138SOL    HW287441   5.019  12.742   8.314
29139SOL     OW87442   4.183  12.324   8.189
29139SOL    HW187443   4.112  12.297   8.254
29139SOL    HW287444   4.157  12.296   8.096
29140SOL     OW87445   4.756  11.721   7.464
29140SOL    HW187446   4.715  11.803   7.425
29140SOL    HW287447   4.820  11.747   7.537
29141SOL     OW87448   3.802  11.728   8.834
29141SOL    HW187449   3.894  11.727   8.793
29141SOL    HW287450   3.796  11.802   8.901
29142SOL     OW87451   4.285  11.394   8.595
29142SOL    HW187452   4.323  11.310   8.632
29142SOL    HW287453   4.197  11.413   8.639
29143SOL     OW87454   4.590  11.626   8.090
29143SOL    HW187455   4.558  11.698   8.028
29143SOL    HW287456   4.614  11.545   8.037
29144SOL     OW87457   4.741  11.211   8.201
29144SOL    HW187458   4.669  11.216   8.132
29144SOL    HW287459   4.717  11.142   8.270
29145SOL     OW87460   5.153  12.345   8.315
29145SOL    HW187461   5.098  12.261   8.308
29145SOL    HW287462   5.179  12.374   8.223
29146SOL     OW87463   5.190  11.762   8.440
29146SOL    HW187464   5.160  11.667   8.447
29146SOL    HW287465   5.263  11.778   8.506
29147SOL     OW87466   5.581  12.005   7.825
29147SOL    HW187467   5.623  11.941   7.889
29147SOL    HW287468   5.543  11.954   7.747
29148SOL     OW87469   4.212  12.557   7.622
29148SOL    HW187470   4.125  12.542   7.669
29148SOL    HW287471   4.195  12.583   7.527
29149SOL     OW87472   5.388  12.452   8.105
29149SOL    HW187473   5.487  12.460   8.119
29149SOL    HW287474   5.343  12.536   8.136
29150SOL     OW87475   5.114  11.747   7.526
29150SOL    HW187476   5.060  11.726   7.607
29150SOL    HW287477   5.205  11.706   7.535
29151SOL     OW87478   4.251  11.428   7.776
29151SOL    HW187479   4.278  11.369   7.701
29151SOL    HW287480   4.251  11.523   7.745
29152SOL     OW87481   5.478  12.395   9.036
29152SOL    HW187482   5.569  12.356   9.023
29152SOL    HW287483   5.486  12.491   9.060
29153SOL     OW87484   4.788  12.519   8.788
29153SOL    HW187485   4.708  12.496   8.843
29153SOL    HW287486   4.871  12.493   8.837
29154SOL     OW87487   4.835  12.367   8.548
29154SOL    HW187488   4.795  12.411   8.629
29154SOL    HW287489   4.794  12.404   8.465
29155SOL     OW87490   5.362  12.271   8.527
29155SOL    HW187491   5.367  12.352   8.586
29155SOL    HW287492   5.276  12.273   8.476
29156SOL     OW87493   4.639  11.261   8.850
29156SOL    HW187494   4.664  11.241   8.755
29156SOL    HW287495   4.711  11.317   8.892
29157SOL     OW87496   4.704  12.288   9.167
29157SOL    HW187497   4.605  12.294   9.177
29157SOL    HW287498   4.727  12.208   9.111
29158SOL     OW87499   4.429  12.222   7.816
29158SOL    HW187500   4.415  12.229   7.915
29158SOL    HW287501   4.513  12.171   7.798
29159SOL     OW87502   4.134  11.985   8.699
29159SOL    HW187503   4.220  11.997   8.749
29159SOL    HW287504   4.092  11.898   8.726
29160SOL     OW87505   4.998  11.558   8.710
29160SOL    HW187506   5.019  11.632   8.774
29160SOL    HW287507   4.909  11.575   8.667
29161SOL     OW87508   4.091  12.272   7.949
29161SOL    HW187509   4.084  12.355   7.893
29161SOL    HW287510   4.095  12.192   7.889
29162SOL     OW87511   4.290  11.709   8.313
29162SOL    HW187512   4.302  11.775   8.239
29162SOL    HW287513   4.336  11.743   8.396
29163SOL     OW87514   4.976  12.520   7.836
29163SOL    HW187515   5.026  12.597   7.876
29163SOL    HW287516   4.881  12.522   7.868
29164SOL     OW87517   4.996  12.617   8.590
29164SOL    HW187518   5.043  12.630   8.677
29164SOL    HW287519   4.930  12.543   8.599
29165SOL     OW87520   5.306  11.811   7.920
29165SOL    HW187521   5.275  11.872   7.993
29165SOL    HW287522   5.356  11.863   7.851
29166SOL     OW87523   4.078  12.682   8.777
29166SOL    HW187524   4.057  12.638   8.690
29166SOL    HW287525   4.175  12.708   8.780
29167SOL     OW87526   4.126  11.923   9.046
29167SOL    HW187527   4.194  11.978   8.999
29167SOL    HW287528   4.166  11.835   9.073
29168SOL     OW87529   5.311  11.951   9.118
29168SOL    HW187530   5.219  11.989   9.113
29168SOL    HW287531   5.371  11.998   9.053
29169SOL     OW87532   4.737  11.277   9.218
29169SOL    HW187533   4.743  11.362   9.166
29169SOL    HW287534   4.769  11.201   9.161
29170SOL     OW87535   4.228  11.222   9.188
29170SOL    HW187536   4.186  11.165   9.118
29170SOL    HW287537   4.162  11.291   9.220
29171SOL     OW87538   4.297  12.042   8.477
29171SOL    HW187539   4.341  12.131   8.468
29171SOL    HW287540   4.234  12.042   8.554
29172SOL     OW87541   5.084  12.034   8.493
29172SOL    HW187542   5.009  12.034   8.427
29172SOL    HW287543   5.121  11.942   8.502
29173SOL     OW87544   4.933  11.697   7.723
29173SOL    HW187545   4.946  11.613   7.777
29173SOL    HW287546   4.904  11.771   7.783
29174SOL     OW87547   4.031  11.385   8.679
29174SOL    HW187548   4.008  11.422   8.769
29174SOL    HW287549   4.001  11.290   8.673
29175SOL     OW87550   3.761  12.482   8.730
29175SOL    HW187551   3.814  12.433   8.798
29175SOL    HW287552   3.783  12.580   8.735
29176SOL     OW87553   4.456  11.806   8.512
29176SOL    HW187554   4.515  11.780   8.436
29176SOL    HW287555   4.428  11.902   8.501
29177SOL     OW87556   5.452  12.107   9.302
29177SOL    HW187557   5.406  12.100   9.213
29177SOL    HW287558   5.390  12.151   9.368
29178SOL     OW87559   4.031  11.235   8.066
29178SOL    HW187560   4.020  11.329   8.099
29178SOL    HW287561   4.026  11.172   8.143
29179SOL     OW87562   5.346  11.539   7.822
29179SOL    HW187563   5.348  11.463   7.886
29179SOL    HW287564   5.298  11.616   7.862
29180SOL     OW87565   4.747  11.938   8.414
29180SOL    HW187566   4.762  11.959   8.510
29180SOL    HW287567   4.717  11.843   8.405
29181SOL     OW87568   5.583  12.690   9.053
29181SOL    HW187569   5.597  12.717   8.958
29181SOL    HW287570   5.666  12.712   9.106
29182SOL     OW87571   4.074  12.070   9.252
29182SOL    HW187572   4.150  12.114   9.300
29182SOL    HW287573   4.109  12.023   9.170
29183SOL     OW87574   5.264  11.446   7.573
29183SOL    HW187575   5.203  11.371   7.596
29183SOL    HW287576   5.286  11.498   7.656
29184SOL     OW87577   5.027  12.010   7.490
29184SOL    HW187578   5.061  11.917   7.505
29184SOL    HW287579   5.045  12.037   7.395
29185SOL     OW87580   4.792  12.505   8.297
29185SOL    HW187581   4.799  12.421   8.242
29185SOL    HW287582   4.854  12.574   8.261
29186SOL     OW87583   4.043  11.982   8.397
29186SOL    HW187584   4.136  12.018   8.402
29186SOL    HW287585   4.037  11.897   8.449
29187SOL     OW87586   4.063  11.681   8.454
29187SOL    HW187587   4.011  11.598   8.437
29187SOL    HW287588   4.140  11.686   8.390
29188SOL     OW87589   4.862  11.552   9.126
29188SOL    HW187590   4.817  11.615   9.190
29188SOL    HW287591   4.955  11.583   9.109
29189SOL     OW87592   4.884  11.379   8.925
29189SOL    HW187593   4.884  11.443   9.002
29189SOL    HW287594   4.912  11.427   8.842
29190SOL     OW87595   3.732  12.498   7.648
29190SOL    HW187596   3.639  12.519   7.617
29190SOL    HW287597   3.742  12.399   7.661
29191SOL     OW87598   4.726  11.968   8.686
29191SOL    HW187599   4.767  11.936   8.772
29191SOL    HW287600   4.630  11.941   8.683
29192SOL     OW87601   3.764  11.716   8.562
29192SOL    HW187602   3.849  11.683   8.521
29192SOL    HW287603   3.777  11.731   8.660
29193SOL     OW87604   3.913  11.692   9.170
29193SOL    HW187605   3.972  11.652   9.100
29193SOL    HW287606   3.855  11.763   9.129
29194SOL     OW87607   5.093  12.122   9.108
29194SOL    HW187608   5.132  12.211   9.128
29194SOL    HW287609   5.103  12.102   9.011
29195SOL     OW87610   4.539  11.744   7.773
29195SOL    HW187611   4.546  11.655   7.727
29195SOL    HW287612   4.445  11.778   7.765
29196SOL     OW87613   5.381  11.776   8.654
29196SOL    HW187614   5.343  11.707   8.716
29196SOL    HW287615   5.463  11.740   8.610
29197SOL     OW87616   3.976  12.736   9.192
29197SOL    HW187617   3.946  12.793   9.268
29197SOL    HW287618   3.969  12.639   9.218
29198SOL     OW87619   4.395  11.636   8.717
29198SOL    HW187620   4.361  11.547   8.687
29198SOL    HW287621   4.421  11.690   8.637
29199SOL     OW87622   4.197  11.672   7.639
29199SOL    HW187623   4.258  11.752   7.643
29199SOL    HW287624   4.102  11.703   7.646
29200SOL     OW87625   3.883  12.309   8.914
29200SOL    HW187626   3.905  12.248   8.990
29200SOL    HW287627   3.893  12.260   8.828
29201SOL     OW87628   5.071  12.231   8.682
29201SOL    HW187629   5.095  12.168   8.608
29201SOL    HW287630   4.981  12.271   8.664
29202SOL     OW87631   5.026  12.027   7.757
29202SOL    HW187632   4.940  11.996   7.799
29202SOL    HW287633   5.022  12.013   7.658
29203SOL     OW87634   3.807  12.430   8.470
29203SOL    HW187635   3.802  12.429   8.570
29203SOL    HW287636   3.724  12.389   8.432
29204SOL     OW87637   5.450  11.307   7.971
29204SOL    HW187638   5.523  11.290   7.904
29204SOL    HW287639   5.419  11.220   8.009
29205SOL     OW87640   5.004  12.099   8.120
29205SOL    HW187641   5.064  12.018   8.122
29205SOL    HW287642   5.044  12.168   8.060
29206SOL     OW87643   4.554  12.445   8.870
29206SOL    HW187644   4.549  12.478   8.965
29206SOL    HW287645   4.468  12.464   8.824
29207SOL     OW87646   5.565  11.347   8.411
29207SOL    HW187647   5.604  11.262   8.375
29207SOL    HW287648   5.467  11.349   8.392
29208SOL     OW87649   3.987  11.498   8.168
29208SOL    HW187650   3.908  11.549   8.134
29208SOL    HW287651   3.978  11.483   8.266
29209SOL     OW87652   4.546  12.174   8.820
29209SOL    HW187653   4.586  12.173   8.728
29209SOL    HW287654   4.556  12.266   8.860
29210SOL     OW87655   4.640  12.082   7.739
29210SOL    HW187656   4.703  12.120   7.671
29210SOL    HW287657   4.680  11.999   7.778
29211SOL     OW87658   4.096  12.460   8.938
29211SOL    HW187659   4.083  12.553   8.904
29211SOL    HW287660   4.012  12.408   8.925
29212SOL     OW87661   5.338  12.464   8.737
29212SOL    HW187662   5.398  12.467   8.817
29212SOL    HW287663   5.263  12.528   8.750
29213SOL     OW87664   4.763  12.270   8.144
29213SOL    HW187665   4.693  12.223   8.198
29213SOL    HW287666   4.822  12.202   8.101
29214SOL     OW87667   4.738  11.408   8.419
29214SOL    HW187668   4.730  11.372   8.326
29214SOL    HW287669   4.736  11.332   8.484
29215SOL     OW87670   5.433  11.557   8.829
29215SOL    HW187671   5.506  11.626   8.833
29215SOL    HW287672   5.461  11.482   8.770
29216SOL     OW87673   3.979  12.520   7.738
29216SOL    HW187674   3.883  12.521   7.711
29216SOL    HW287675   3.991  12.573   7.822
29217SOL     OW87676   3.829  12.185   9.174
29217SOL    HW187677   3.752  12.152   9.228
29217SOL    HW287678   3.914  12.155   9.216
29218SOL     OW87679   4.396  11.375   8.937
29218SOL    HW187680   4.486  11.359   8.897
29218SOL    HW287681   4.404  11.380   9.036
29219SOL     OW87682   3.799  11.517   7.481
29219SOL    HW187683   3.707  11.489   7.452
29219SOL    HW287684   3.830  11.594   7.425
29220SOL     OW87685   5.164  12.028   8.846
29220SOL    HW187686   5.107  12.080   8.783
29220SOL    HW287687   5.260  12.040   8.822
29221SOL     OW87688   3.796  11.338   7.766
29221SOL    HW187689   3.779  11.421   7.712
29221SOL    HW287690   3.886  11.301   7.744
29222SOL     OW87691   4.907  12.507   7.567
29222SOL    HW187692   4.808  12.496   7.569
29222SOL    HW287693   4.941  12.522   7.660
29223SOL     OW87694   4.337  12.014   8.879
29223SOL    HW187695   4.393  12.095   8.862
29223SOL    HW287696   4.396  11.934   8.882
29224SOL     OW87697   4.440  11.737   9.156
29224SOL    HW187698   4.459  11.802   9.230
29224SOL    HW287699   4.500  11.657   9.165
29225SOL     OW87700   5.174  12.392   9.081
29225SOL    HW187701   5.165  12.382   9.180
29225SOL    HW287702   5.270  12.385   9.055
29226SOL     OW87703   5.398  12.055   8.702
29226SOL    HW187704   5.371  11.966   8.665
29226SOL    HW287705   5.399  12.123   8.629
29227SOL     OW87706   4.949  11.497   7.897
29227SOL    HW187707   5.014  11.423   7.886
29227SOL    HW287708   4.969  11.547   7.981
29228SOL     OW87709   4.318  11.917   8.100
29228SOL    HW187710   4.368  12.002   8.081
29228SOL    HW287711   4.230  11.919   8.052
29229SOL     OW87712   5.501  11.514   9.090
29229SOL    HW187713   5.484  11.545   8.996
29229SOL    HW287714   5.417  11.477   9.128
29230SOL     OW87715   5.454  12.106   8.965
29230SOL    HW187716   5.492  12.197   8.980
29230SOL    HW287717   5.446  12.089   8.866
29231SOL     OW87718   4.583  12.546   7.464
29231SOL    HW187719   4.537  12.561   7.552
29231SOL    HW287720   4.627  12.631   7.434
29232SOL     OW87721   4.583  12.128   8.309
29232SOL    HW187722   4.637  12.059   8.357
29232SOL    HW287723   4.551  12.197   8.375
29233SOL     OW87724   4.807  12.156   7.535
29233SOL    HW187725   4.784  12.209   7.453
29233SOL    HW287726   4.888  12.100   7.516
29234SOL     OW87727   3.945  12.486   9.292
29234SOL    HW187728   3.880  12.413   9.271
29234SOL    HW287729   3.949  12.500   9.390
29235SOL     OW87730   3.803  12.412   8.101
29235SOL    HW187731   3.802  12.365   8.189
29235SOL    HW287732   3.885  12.384   8.050
29236SOL     OW87733   4.396  12.563   9.072
29236SOL    HW187734   4.318  12.513   9.110
29236SOL    HW287735   4.393  12.658   9.103
29237SOL     OW87736   5.548  11.364   8.675
29237SOL    HW187737   5.544  11.274   8.719
29237SOL    HW287738   5.551  11.353   8.576
29238SOL     OW87739   4.152  11.596   7.968
29238SOL    HW187740   4.182  11.524   7.906
29238SOL    HW287741   4.113  11.556   8.051
29239SOL     OW87742   5.429  12.659   8.552
29239SOL    HW187743   5.336  12.634   8.525
29239SOL    HW287744   5.455  12.609   8.634
29240SOL     OW87745   4.041  11.719   8.728
29240SOL    HW187746   4.079  11.660   8.800
29240SOL    HW287747   4.081  11.693   8.640
29241SOL     OW87748   5.148  11.386   8.560
29241SOL    HW187749   5.200  11.321   8.615
29241SOL    HW287750   5.099  11.449   8.621
29242SOL     OW87751   4.725  11.206   8.602
29242SOL    HW187752   4.662  11.134   8.571
29242SOL    HW287753   4.818  11.170   8.602
29243SOL     OW87754   4.494  12.502   7.749
29243SOL    HW187755   4.448  12.415   7.766
29243SOL    HW287756   4.585  12.499   7.790
29244SOL     OW87757   4.342  12.739   8.732
29244SOL    HW187758   4.337  12.821   8.789
29244SOL    HW287759   4.431  12.736   8.687
29245SOL     OW87760   5.076  11.224   7.616
29245SOL    HW187761   5.111  11.183   7.532
29245SOL    HW287762   4.986  11.186   7.636
29246SOL     OW87763   5.024  11.625   8.139
29246SOL    HW187764   4.965  11.705   8.143
29246SOL    HW287765   5.039  11.590   8.232
29247SOL     OW87766   5.317  11.393   8.330
29247SOL    HW187767   5.233  11.392   8.384
29247SOL    HW287768   5.319  11.476   8.274
29248SOL     OW87769   3.763  12.249   7.748
29248SOL    HW187770   3.862  12.238   7.739
29248SOL    HW287771   3.723  12.163   7.780
29249SOL     OW87772   3.954  11.800   9.423
29249SOL    HW187773   3.861  11.798   9.460
29249SOL    HW287774   3.955  11.761   9.331
29250SOL     OW87775   3.949  11.447  10.306
29250SOL    HW187776   3.984  11.430  10.398
29250SOL    HW287777   3.861  11.402  10.294
29251SOL     OW87778   3.743  11.540   9.957
29251SOL    HW187779   3.661  11.583   9.996
29251SOL    HW287780   3.715  11.467   9.894
29252SOL     OW87781   4.293  12.447  10.475
29252SOL    HW187782   4.200  12.440  10.438
29252SOL    HW287783   4.304  12.536  10.519
29253SOL     OW87784   5.279  12.683  10.013
29253SOL    HW187785   5.222  12.667  10.094
29253SOL    HW287786   5.220  12.693   9.933
29254SOL     OW87787   4.859  11.875  10.027
29254SOL    HW187788   4.916  11.953  10.002
29254SOL    HW287789   4.799  11.901  10.103
29255SOL     OW87790   5.479  11.779   9.541
29255SOL    HW187791   5.467  11.766   9.442
29255SOL    HW287792   5.449  11.698   9.590
29256SOL     OW87793   4.492  12.316  10.333
29256SOL    HW187794   4.414  12.333  10.393
29256SOL    HW287795   4.526  12.403  10.297
29257SOL     OW87796   4.574  11.970  11.133
29257SOL    HW187797   4.570  12.046  11.198
29257SOL    HW287798   4.596  12.006  11.042
29258SOL     OW87799   4.409  12.184   9.975
29258SOL    HW187800   4.478  12.168  10.045
29258SOL    HW287801   4.336  12.241  10.013
29259SOL     OW87802   4.410  12.333  11.113
29259SOL    HW187803   4.470  12.412  11.127
29259SOL    HW287804   4.324  12.364  11.072
29260SOL     OW87805   4.059  12.607  10.371
29260SOL    HW187806   3.981  12.576  10.318
29260SOL    HW287807   4.117  12.665  10.314
29261SOL     OW87808   5.184  12.677  10.649
29261SOL    HW187809   5.208  12.771  10.675
29261SOL    HW287810   5.168  12.623  10.731
29262SOL     OW87811   4.162  11.564  10.809
29262SOL    HW187812   4.244  11.508  10.818
29262SOL    HW287813   4.081  11.506  10.813
29263SOL     OW87814   5.327  11.619  10.047
29263SOL    HW187815   5.253  11.665   9.997
29263SOL    HW287816   5.378  11.687  10.100
29264SOL     OW87817   3.955  12.885   9.793
29264SOL    HW187818   3.989  12.962   9.847
29264SOL    HW287819   3.999  12.885   9.703
29265SOL     OW87820   4.851  12.513  11.000
29265SOL    HW187821   4.898  12.513  11.088
29265SOL    HW287822   4.803  12.426  10.989
29266SOL     OW87823   3.954  12.606   9.848
29266SOL    HW187824   3.928  12.702   9.848
29266SOL    HW287825   3.883  12.552   9.893
29267SOL     OW87826   3.964  12.263  10.196
29267SOL    HW187827   3.978  12.179  10.248
29267SOL    HW287828   3.909  12.327  10.251
29268SOL     OW87829   4.330  12.136   9.433
29268SOL    HW187830   4.337  12.220   9.379
29268SOL    HW287831   4.376  12.149   9.521
29269SOL     OW87832   5.318  11.286  10.790
29269SOL    HW187833   5.300  11.353  10.718
29269SOL    HW287834   5.315  11.332  10.879
29270SOL     OW87835   3.846  11.815   9.873
29270SOL    HW187836   3.801  11.727   9.890
29270SOL    HW287837   3.845  11.869   9.957
29271SOL     OW87838   3.751  12.768   9.427
29271SOL    HW187839   3.732  12.672   9.448
29271SOL    HW287840   3.718  12.826   9.502
29272SOL     OW87841   5.413  12.094   9.922
29272SOL    HW187842   5.508  12.065   9.930
29272SOL    HW287843   5.405  12.159   9.847
29273SOL     OW87844   3.837  11.909  10.907
29273SOL    HW187845   3.925  11.896  10.952
29273SOL    HW287846   3.824  12.006  10.885
29274SOL     OW87847   4.337  12.537  10.036
29274SOL    HW187848   4.288  12.450  10.045
29274SOL    HW287849   4.314  12.580   9.949
29275SOL     OW87850   5.017  12.400  10.733
29275SOL    HW187851   5.054  12.327  10.675
29275SOL    HW287852   5.069  12.405  10.818
29276SOL     OW87853   4.533  11.176   9.812
29276SOL    HW187854   4.573  11.267   9.803
29276SOL    HW287855   4.433  11.184   9.818
29277SOL     OW87856   3.921  12.148  10.574
29277SOL    HW187857   4.010  12.103  10.560
29277SOL    HW287858   3.848  12.083  10.555
29278SOL     OW87859   5.249  12.171   9.500
29278SOL    HW187860   5.186  12.095   9.513
29278SOL    HW287861   5.297  12.189   9.586
29279SOL     OW87862   4.041  11.423  11.111
29279SOL    HW187863   4.112  11.494  11.117
29279SOL    HW287864   3.953  11.462  11.139
29280SOL     OW87865   5.190  12.589  10.263
29280SOL    HW187866   5.131  12.595  10.343
29280SOL    HW287867   5.175  12.501  10.217
29281SOL     OW87868   4.322  11.901   9.580
29281SOL    HW187869   4.346  11.970   9.512
29281SOL    HW287870   4.244  11.934   9.634
29282SOL     OW87871   5.005  11.517  10.254
29282SOL    HW187872   4.919  11.467  10.241
29282SOL    HW287873   5.067  11.463  10.310
29283SOL     OW87874   4.531  11.777  10.775
29283SOL    HW187875   4.484  11.774  10.864
29283SOL    HW287876   4.480  11.722  10.709
29284SOL     OW87877   5.118  11.641  10.984
29284SOL    HW187878   5.098  11.684  11.072
29284SOL    HW287879   5.196  11.579  10.993
29285SOL     OW87880   4.697  12.062  10.882
29285SOL    HW187881   4.743  11.978  10.853
29285SOL    HW287882   4.641  12.096  10.807
29286SOL     OW87883   4.715  11.582  10.552
29286SOL    HW187884   4.638  11.616  10.606
29286SOL    HW287885   4.681  11.531  10.473
29287SOL     OW87886   4.765  11.873   9.739
29287SOL    HW187887   4.791  11.869   9.835
29287SOL    HW287888   4.680  11.822   9.725
29288SOL     OW87889   3.800  11.983  10.099
29288SOL    HW187890   3.899  11.971  10.108
29288SOL    HW287891   3.776  12.078  10.120
29289SOL     OW87892   4.589  11.520   9.505
29289SOL    HW187893   4.648  11.583   9.456
29289SOL    HW287894   4.608  11.426   9.476
29290SOL     OW87895   5.443  11.757  11.141
29290SOL    HW187896   5.417  11.846  11.105
29290SOL    HW287897   5.441  11.689  11.068
29291SOL     OW87898   5.086  12.316   9.855
29291SOL    HW187899   5.169  12.287   9.807
29291SOL    HW287900   5.037  12.383   9.799
29292SOL     OW87901   4.274  11.368  10.195
29292SOL    HW187902   4.269  11.363  10.295
29292SOL    HW287903   4.276  11.464  10.166
29293SOL     OW87904   4.732  12.628   9.787
29293SOL    HW187905   4.686  12.700   9.735
29293SOL    HW287906   4.728  12.648   9.885
29294SOL     OW87907   5.519  12.238  10.183
29294SOL    HW187908   5.457  12.223  10.107
29294SOL    HW287909   5.467  12.249  10.268
29295SOL     OW87910   4.951  12.722  10.816
29295SOL    HW187911   4.957  12.645  10.880
29295SOL    HW287912   4.899  12.696  10.736
29296SOL     OW87913   4.045  12.115   9.552
29296SOL    HW187914   4.127  12.154   9.510
29296SOL    HW287915   4.018  12.033   9.503
29297SOL     OW87916   5.182  11.907  10.038
29297SOL    HW187917   5.177  11.842  10.113
29297SOL    HW287918   5.262  11.966  10.051
29298SOL     OW87919   4.185  12.438  11.037
29298SOL    HW187920   4.135  12.439  10.951
29298SOL    HW287921   4.122  12.420  11.113
29299SOL     OW87922   4.835  12.948   9.547
29299SOL    HW187923   4.775  12.886   9.597
29299SOL    HW287924   4.866  12.904   9.462
29300SOL     OW87925   3.926  11.457  10.808
29300SOL    HW187926   3.846  11.517  10.795
29300SOL    HW287927   3.916  11.408  10.894
29301SOL     OW87928   5.356  12.549   9.391
29301SOL    HW187929   5.324  12.643   9.381
29301SOL    HW287930   5.280  12.486   9.379
29302SOL     OW87931   5.124  11.279   9.736
29302SOL    HW187932   5.100  11.242   9.646
29302SOL    HW287933   5.223  11.295   9.740
29303SOL     OW87934   4.106  11.872   9.790
29303SOL    HW187935   4.151  11.782   9.787
29303SOL    HW287936   4.012  11.861   9.823
29304SOL     OW87937   5.271  11.394  11.039
29304SOL    HW187938   5.266  11.431  11.131
29304SOL    HW287939   5.199  11.325  11.027
29305SOL     OW87940   4.338  11.294   9.427
29305SOL    HW187941   4.436  11.272   9.434
29305SOL    HW287942   4.307  11.277   9.334
29306SOL     OW87943   4.505  11.436  11.059
29306SOL    HW187944   4.572  11.375  11.102
29306SOL    HW287945   4.432  11.455  11.124
29307SOL     OW87946   5.075  11.762  10.743
29307SOL    HW187947   5.103  11.719  10.828
29307SOL    HW287948   5.100  11.858  10.744
29308SOL     OW87949   4.527  12.574  10.234
29308SOL    HW187950   4.617  12.588  10.192
29308SOL    HW287951   4.456  12.576  10.163
29309SOL     OW87952   4.646  11.675  10.209
29309SOL    HW187953   4.621  11.666  10.113
29309SOL    HW287954   4.694  11.593  10.240
29310SOL     OW87955   4.263  11.236   9.822
29310SOL    HW187956   4.182  11.237   9.880
29310SOL    HW287957   4.266  11.319   9.767
29311SOL     OW87958   5.158  12.360   9.351
29311SOL    HW187959   5.190  12.284   9.408
29311SOL    HW287960   5.066  12.387   9.381
29312SOL     OW87961   4.021  11.207   9.481
29312SOL    HW187962   4.070  11.291   9.460
29312SOL    HW287963   4.083  11.142   9.526
29313SOL     OW87964   4.659  11.408   9.790
29313SOL    HW187965   4.611  11.449   9.712
29313SOL    HW287966   4.758  11.406   9.771
29314SOL     OW87967   4.800  11.855  10.774
29314SOL    HW187968   4.720  11.794  10.777
29314SOL    HW287969   4.881  11.802  10.750
29315SOL     OW87970   4.951  12.742  10.103
29315SOL    HW187971   4.972  12.816  10.038
29315SOL    HW287972   5.019  12.742  10.176
29316SOL     OW87973   4.183  12.324  10.051
29316SOL    HW187974   4.112  12.297  10.116
29316SOL    HW287975   4.157  12.296   9.958
29317SOL     OW87976   4.756  11.721   9.326
29317SOL    HW187977   4.715  11.803   9.287
29317SOL    HW287978   4.820  11.747   9.399
29318SOL     OW87979   3.802  11.728  10.696
29318SOL    HW187980   3.894  11.727  10.655
29318SOL    HW287981   3.796  11.802  10.763
29319SOL     OW87982   4.285  11.394  10.457
29319SOL    HW187983   4.323  11.310  10.494
29319SOL    HW287984   4.197  11.413  10.501
29320SOL     OW87985   4.590  11.626   9.952
29320SOL    HW187986   4.558  11.698   9.890
29320SOL    HW287987   4.614  11.545   9.899
29321SOL     OW87988   4.741  11.211  10.063
29321SOL    HW187989   4.669  11.216   9.994
29321SOL    HW287990   4.717  11.142  10.132
29322SOL     OW87991   5.153  12.345  10.177
29322SOL    HW187992   5.098  12.261  10.170
29322SOL    HW287993   5.179  12.374  10.085
29323SOL     OW87994   5.190  11.762  10.302
29323SOL    HW187995   5.160  11.667  10.309
29323SOL    HW287996   5.263  11.778  10.368
29324SOL     OW87997   5.581  12.005   9.687
29324SOL    HW187998   5.623  11.941   9.751
29324SOL    HW287999   5.543  11.954   9.609
29325SOL     OW88000   4.212  12.557   9.484
29325SOL    HW188001   4.125  12.542   9.531
29325SOL    HW288002   4.195  12.583   9.389
29326SOL     OW88003   5.388  12.452   9.967
29326SOL    HW188004   5.487  12.460   9.981
29326SOL    HW288005   5.343  12.536   9.998
29327SOL     OW88006   5.114  11.747   9.388
29327SOL    HW188007   5.060  11.726   9.469
29327SOL    HW288008   5.205  11.706   9.397
29328SOL     OW88009   4.251  11.428   9.638
29328SOL    HW188010   4.278  11.369   9.563
29328SOL    HW288011   4.251  11.523   9.607
29329SOL     OW88012   5.478  12.395  10.898
29329SOL    HW188013   5.569  12.356  10.885
29329SOL    HW288014   5.486  12.491  10.922
29330SOL     OW88015   4.788  12.519  10.650
29330SOL    HW188016   4.708  12.496  10.705
29330SOL    HW288017   4.871  12.493  10.699
29331SOL     OW88018   4.835  12.367  10.410
29331SOL    HW188019   4.795  12.411  10.491
29331SOL    HW288020   4.794  12.404  10.327
29332SOL     OW88021   5.362  12.271  10.389
29332SOL    HW188022   5.367  12.352  10.448
29332SOL    HW288023   5.276  12.273  10.338
29333SOL     OW88024   4.639  11.261  10.712
29333SOL    HW188025   4.664  11.241  10.617
29333SOL    HW288026   4.711  11.317  10.754
29334SOL     OW88027   4.704  12.288  11.029
29334SOL    HW188028   4.605  12.294  11.039
29334SOL    HW288029   4.727  12.208  10.973
29335SOL     OW88030   4.429  12.222   9.678
29335SOL    HW188031   4.415  12.229   9.777
29335SOL    HW288032   4.513  12.171   9.660
29336SOL     OW88033   4.134  11.985  10.561
29336SOL    HW188034   4.220  11.997  10.611
29336SOL    HW288035   4.092  11.898  10.588
29337SOL     OW88036   4.998  11.558  10.572
29337SOL    HW188037   5.019  11.632  10.636
29337SOL    HW288038   4.909  11.575  10.529
29338SOL     OW88039   4.091  12.272   9.811
29338SOL    HW188040   4.084  12.355   9.755
29338SOL    HW288041   4.095  12.192   9.751
29339SOL     OW88042   4.290  11.709  10.175
29339SOL    HW188043   4.302  11.775  10.101
29339SOL    HW288044   4.336  11.743  10.258
29340SOL     OW88045   4.976  12.520   9.698
29340SOL    HW188046   5.026  12.597   9.738
29340SOL    HW288047   4.881  12.522   9.730
29341SOL     OW88048   4.996  12.617  10.452
29341SOL    HW188049   5.043  12.630  10.539
29341SOL    HW288050   4.930  12.543  10.461
29342SOL     OW88051   5.306  11.811   9.782
29342SOL    HW188052   5.275  11.872   9.855
29342SOL    HW288053   5.356  11.863   9.713
29343SOL     OW88054   4.078  12.682  10.639
29343SOL    HW188055   4.057  12.638  10.552
29343SOL    HW288056   4.175  12.708  10.642
29344SOL     OW88057   4.126  11.923  10.908
29344SOL    HW188058   4.194  11.978  10.861
29344SOL    HW288059   4.166  11.835  10.935
29345SOL     OW88060   5.311  11.951  10.980
29345SOL    HW188061   5.219  11.989  10.975
29345SOL    HW288062   5.371  11.998  10.915
29346SOL     OW88063   4.737  11.277  11.080
29346SOL    HW188064   4.743  11.362  11.028
29346SOL    HW288065   4.769  11.201  11.023
29347SOL     OW88066   4.228  11.222  11.050
29347SOL    HW188067   4.186  11.165  10.980
29347SOL    HW288068   4.162  11.291  11.082
29348SOL     OW88069   4.297  12.042  10.339
29348SOL    HW188070   4.341  12.131  10.330
29348SOL    HW288071   4.234  12.042  10.416
29349SOL     OW88072   5.084  12.034  10.355
29349SOL    HW188073   5.009  12.034  10.289
29349SOL    HW288074   5.121  11.942  10.364
29350SOL     OW88075   4.933  11.697   9.585
29350SOL    HW188076   4.946  11.613   9.639
29350SOL    HW288077   4.904  11.771   9.645
29351SOL     OW88078   4.031  11.385  10.541
29351SOL    HW188079   4.008  11.422  10.631
29351SOL    HW288080   4.001  11.290  10.535
29352SOL     OW88081   3.761  12.482  10.592
29352SOL    HW188082   3.814  12.433  10.660
29352SOL    HW288083   3.783  12.580  10.597
29353SOL     OW88084   4.456  11.806  10.374
29353SOL    HW188085   4.515  11.780  10.298
29353SOL    HW288086   4.428  11.902  10.363
29354SOL     OW88087   5.452  12.107  11.164
29354SOL    HW188088   5.406  12.100  11.075
29354SOL    HW288089   5.390  12.151  11.230
29355SOL     OW88090   4.031  11.235   9.928
29355SOL    HW188091   4.020  11.329   9.961
29355SOL    HW288092   4.026  11.172  10.005
29356SOL     OW88093   5.346  11.539   9.684
29356SOL    HW188094   5.348  11.463   9.748
29356SOL    HW288095   5.298  11.616   9.724
29357SOL     OW88096   4.747  11.938  10.276
29357SOL    HW188097   4.762  11.959  10.372
29357SOL    HW288098   4.717  11.843  10.267
29358SOL     OW88099   5.583  12.690  10.915
29358SOL    HW188100   5.597  12.717  10.820
29358SOL    HW288101   5.666  12.712  10.968
29359SOL     OW88102   4.074  12.070  11.114
29359SOL    HW188103   4.150  12.114  11.162
29359SOL    HW288104   4.109  12.023  11.032
29360SOL     OW88105   5.264  11.446   9.435
29360SOL    HW188106   5.203  11.371   9.458
29360SOL    HW288107   5.286  11.498   9.518
29361SOL     OW88108   5.027  12.010   9.352
29361SOL    HW188109   5.061  11.917   9.367
29361SOL    HW288110   5.045  12.037   9.257
29362SOL     OW88111   4.792  12.505  10.159
29362SOL    HW188112   4.799  12.421  10.104
29362SOL    HW288113   4.854  12.574  10.123
29363SOL     OW88114   4.043  11.982  10.259
29363SOL    HW188115   4.136  12.018  10.264
29363SOL    HW288116   4.037  11.897  10.311
29364SOL     OW88117   4.063  11.681  10.316
29364SOL    HW188118   4.011  11.598  10.299
29364SOL    HW288119   4.140  11.686  10.252
29365SOL     OW88120   4.862  11.552  10.988
29365SOL    HW188121   4.817  11.615  11.052
29365SOL    HW288122   4.955  11.583  10.971
29366SOL     OW88123   4.884  11.379  10.787
29366SOL    HW188124   4.884  11.443  10.864
29366SOL    HW288125   4.912  11.427  10.704
29367SOL     OW88126   3.732  12.498   9.510
29367SOL    HW188127   3.639  12.519   9.479
29367SOL    HW288128   3.742  12.399   9.523
29368SOL     OW88129   4.726  11.968  10.548
29368SOL    HW188130   4.767  11.936  10.634
29368SOL    HW288131   4.630  11.941  10.545
29369SOL     OW88132   3.764  11.716  10.424
29369SOL    HW188133   3.849  11.683  10.383
29369SOL    HW288134   3.777  11.731  10.522
29370SOL     OW88135   3.913  11.692  11.032
29370SOL    HW188136   3.972  11.652  10.962
29370SOL    HW288137   3.855  11.763  10.991
29371SOL     OW88138   5.093  12.122  10.970
29371SOL    HW188139   5.132  12.211  10.990
29371SOL    HW288140   5.103  12.102  10.873
29372SOL     OW88141   4.539  11.744   9.635
29372SOL    HW188142   4.546  11.655   9.589
29372SOL    HW288143   4.445  11.778   9.627
29373SOL     OW88144   5.381  11.776  10.516
29373SOL    HW188145   5.343  11.707  10.578
29373SOL    HW288146   5.463  11.740  10.472
29374SOL     OW88147   3.976  12.736  11.054
29374SOL    HW188148   3.946  12.793  11.130
29374SOL    HW288149   3.969  12.639  11.080
29375SOL     OW88150   4.395  11.636  10.579
29375SOL    HW188151   4.361  11.547  10.549
29375SOL    HW288152   4.421  11.690  10.499
29376SOL     OW88153   4.197  11.672   9.501
29376SOL    HW188154   4.258  11.752   9.505
29376SOL    HW288155   4.102  11.703   9.508
29377SOL     OW88156   3.883  12.309  10.776
29377SOL    HW188157   3.905  12.248  10.852
29377SOL    HW288158   3.893  12.260  10.690
29378SOL     OW88159   5.071  12.231  10.544
29378SOL    HW188160   5.095  12.168  10.470
29378SOL    HW288161   4.981  12.271  10.526
29379SOL     OW88162   5.026  12.027   9.619
29379SOL    HW188163   4.940  11.996   9.661
29379SOL    HW288164   5.022  12.013   9.520
29380SOL     OW88165   3.807  12.430  10.332
29380SOL    HW188166   3.802  12.429  10.432
29380SOL    HW288167   3.724  12.389  10.294
29381SOL     OW88168   5.450  11.307   9.833
29381SOL    HW188169   5.523  11.290   9.766
29381SOL    HW288170   5.419  11.220   9.871
29382SOL     OW88171   5.004  12.099   9.982
29382SOL    HW188172   5.064  12.018   9.984
29382SOL    HW288173   5.044  12.168   9.922
29383SOL     OW88174   4.554  12.445  10.732
29383SOL    HW188175   4.549  12.478  10.827
29383SOL    HW288176   4.468  12.464  10.686
29384SOL     OW88177   5.565  11.347  10.273
29384SOL    HW188178   5.604  11.262  10.237
29384SOL    HW288179   5.467  11.349  10.254
29385SOL     OW88180   3.987  11.498  10.030
29385SOL    HW188181   3.908  11.549   9.996
29385SOL    HW288182   3.978  11.483  10.128
29386SOL     OW88183   4.546  12.174  10.682
29386SOL    HW188184   4.586  12.173  10.590
29386SOL    HW288185   4.556  12.266  10.722
29387SOL     OW88186   4.640  12.082   9.601
29387SOL    HW188187   4.703  12.120   9.533
29387SOL    HW288188   4.680  11.999   9.640
29388SOL     OW88189   4.096  12.460  10.800
29388SOL    HW188190   4.083  12.553  10.766
29388SOL    HW288191   4.012  12.408  10.787
29389SOL     OW88192   5.338  12.464  10.599
29389SOL    HW188193   5.398  12.467  10.679
29389SOL    HW288194   5.263  12.528  10.612
29390SOL     OW88195   4.763  12.270  10.006
29390SOL    HW188196   4.693  12.223  10.060
29390SOL    HW288197   4.822  12.202   9.963
29391SOL     OW88198   4.738  11.408  10.281
29391SOL    HW188199   4.730  11.372  10.188
29391SOL    HW288200   4.736  11.332  10.346
29392SOL     OW88201   5.433  11.557  10.691
29392SOL    HW188202   5.506  11.626  10.695
29392SOL    HW288203   5.461  11.482  10.632
29393SOL     OW88204   3.979  12.520   9.600
29393SOL    HW188205   3.883  12.521   9.573
29393SOL    HW288206   3.991  12.573   9.684
29394SOL     OW88207   3.829  12.185  11.036
29394SOL    HW188208   3.752  12.152  11.090
29394SOL    HW288209   3.914  12.155  11.078
29395SOL     OW88210   4.396  11.375  10.799
29395SOL    HW188211   4.486  11.359  10.759
29395SOL    HW288212   4.404  11.380  10.898
29396SOL     OW88213   3.799  11.517   9.343
29396SOL    HW188214   3.707  11.489   9.314
29396SOL    HW288215   3.830  11.594   9.287
29397SOL     OW88216   5.164  12.028  10.708
29397SOL    HW188217   5.107  12.080  10.645
29397SOL    HW288218   5.260  12.040  10.684
29398SOL     OW88219   3.796  11.338   9.628
29398SOL    HW188220   3.779  11.421   9.574
29398SOL    HW288221   3.886  11.301   9.606
29399SOL     OW88222   4.907  12.507   9.429
29399SOL    HW188223   4.808  12.496   9.431
29399SOL    HW288224   4.941  12.522   9.522
29400SOL     OW88225   4.337  12.014  10.741
29400SOL    HW188226   4.393  12.095  10.724
29400SOL    HW288227   4.396  11.934  10.744
29401SOL     OW88228   4.440  11.737  11.018
29401SOL    HW188229   4.459  11.802  11.092
29401SOL    HW288230   4.500  11.657  11.027
29402SOL     OW88231   5.174  12.392  10.943
29402SOL    HW188232   5.165  12.382  11.042
29402SOL    HW288233   5.270  12.385  10.917
29403SOL     OW88234   5.398  12.055  10.564
29403SOL    HW188235   5.371  11.966  10.527
29403SOL    HW288236   5.399  12.123  10.491
29404SOL     OW88237   4.949  11.497   9.759
29404SOL    HW188238   5.014  11.423   9.748
29404SOL    HW288239   4.969  11.547   9.843
29405SOL     OW88240   4.318  11.917   9.962
29405SOL    HW188241   4.368  12.002   9.943
29405SOL    HW288242   4.230  11.919   9.914
29406SOL     OW88243   5.501  11.514  10.952
29406SOL    HW188244   5.484  11.545  10.858
29406SOL    HW288245   5.417  11.477  10.990
29407SOL     OW88246   5.454  12.106  10.827
29407SOL    HW188247   5.492  12.197  10.842
29407SOL    HW288248   5.446  12.089  10.728
29408SOL     OW88249   4.583  12.546   9.326
29408SOL    HW188250   4.537  12.561   9.414
29408SOL    HW288251   4.627  12.631   9.296
29409SOL     OW88252   4.583  12.128  10.171
29409SOL    HW188253   4.637  12.059  10.219
29409SOL    HW288254   4.551  12.197  10.237
29410SOL     OW88255   4.807  12.156   9.397
29410SOL    HW188256   4.784  12.209   9.315
29410SOL    HW288257   4.888  12.100   9.378
29411SOL     OW88258   3.945  12.486  11.154
29411SOL    HW188259   3.880  12.413  11.133
29411SOL    HW288260   3.949  12.500  11.252
29412SOL     OW88261   3.803  12.412   9.963
29412SOL    HW188262   3.802  12.365  10.051
29412SOL    HW288263   3.885  12.384   9.912
29413SOL     OW88264   4.396  12.563  10.934
29413SOL    HW188265   4.318  12.513  10.972
29413SOL    HW288266   4.393  12.658  10.965
29414SOL     OW88267   5.548  11.364  10.537
29414SOL    HW188268   5.544  11.274  10.581
29414SOL    HW288269   5.551  11.353  10.438
29415SOL     OW88270   4.152  11.596   9.830
29415SOL    HW188271   4.182  11.524   9.768
29415SOL    HW288272   4.113  11.556   9.913
29416SOL     OW88273   5.429  12.659  10.414
29416SOL    HW188274   5.336  12.634  10.387
29416SOL    HW288275   5.455  12.609  10.496
29417SOL     OW88276   4.041  11.719  10.590
29417SOL    HW188277   4.079  11.660  10.662
29417SOL    HW288278   4.081  11.693  10.502
29418SOL     OW88279   5.148  11.386  10.422
29418SOL    HW188280   5.200  11.321  10.477
29418SOL    HW288281   5.099  11.449  10.483
29419SOL     OW88282   4.725  11.206  10.464
29419SOL    HW188283   4.662  11.134  10.433
29419SOL    HW288284   4.818  11.170  10.464
29420SOL     OW88285   4.494  12.502   9.611
29420SOL    HW188286   4.448  12.415   9.628
29420SOL    HW288287   4.585  12.499   9.652
29421SOL     OW88288   4.342  12.739  10.594
29421SOL    HW188289   4.337  12.821  10.651
29421SOL    HW288290   4.431  12.736  10.549
29422SOL     OW88291   5.076  11.224   9.478
29422SOL    HW188292   5.111  11.183   9.394
29422SOL    HW288293   4.986  11.186   9.498
29423SOL     OW88294   5.024  11.625  10.001
29423SOL    HW188295   4.965  11.705  10.005
29423SOL    HW288296   5.039  11.590  10.094
29424SOL     OW88297   5.317  11.393  10.192
29424SOL    HW188298   5.233  11.392  10.246
29424SOL    HW288299   5.319  11.476  10.136
29425SOL     OW88300   3.763  12.249   9.610
29425SOL    HW188301   3.862  12.238   9.601
29425SOL    HW288302   3.723  12.163   9.642
29426SOL     OW88303   3.954  11.800  11.285
29426SOL    HW188304   3.861  11.798  11.322
29426SOL    HW288305   3.955  11.761  11.193
29427SOL     OW88306   3.949  11.447  12.168
29427SOL    HW188307   3.984  11.430  12.260
29427SOL    HW288308   3.861  11.402  12.156
29428SOL     OW88309   3.743  11.540  11.819
29428SOL    HW188310   3.661  11.583  11.858
29428SOL    HW288311   3.715  11.467  11.756
29429SOL     OW88312   4.293  12.447  12.337
29429SOL    HW188313   4.200  12.440  12.300
29429SOL    HW288314   4.304  12.536  12.381
29430SOL     OW88315   5.279  12.683  11.875
29430SOL    HW188316   5.222  12.667  11.956
29430SOL    HW288317   5.220  12.693  11.795
29431SOL     OW88318   4.859  11.875  11.889
29431SOL    HW188319   4.916  11.953  11.864
29431SOL    HW288320   4.799  11.901  11.965
29432SOL     OW88321   5.479  11.779  11.403
29432SOL    HW188322   5.467  11.766  11.304
29432SOL    HW288323   5.449  11.698  11.452
29433SOL     OW88324   4.492  12.316  12.195
29433SOL    HW188325   4.414  12.333  12.255
29433SOL    HW288326   4.526  12.403  12.159
29434SOL     OW88327   4.409  12.184  11.837
29434SOL    HW188328   4.478  12.168  11.907
29434SOL    HW288329   4.336  12.241  11.875
29435SOL     OW88330   4.059  12.607  12.233
29435SOL    HW188331   3.981  12.576  12.180
29435SOL    HW288332   4.117  12.665  12.176
29436SOL     OW88333   5.184  12.677  12.511
29436SOL    HW188334   5.208  12.771  12.537
29436SOL    HW288335   5.168  12.623  12.593
29437SOL     OW88336   4.162  11.564  12.671
29437SOL    HW188337   4.244  11.508  12.680
29437SOL    HW288338   4.081  11.506  12.675
29438SOL     OW88339   5.327  11.619  11.909
29438SOL    HW188340   5.253  11.665  11.859
29438SOL    HW288341   5.378  11.687  11.962
29439SOL     OW88342   3.955  12.885  11.655
29439SOL    HW188343   3.989  12.962  11.709
29439SOL    HW288344   3.999  12.885  11.565
29440SOL     OW88345   3.954  12.606  11.710
29440SOL    HW188346   3.928  12.702  11.710
29440SOL    HW288347   3.883  12.552  11.755
29441SOL     OW88348   3.964  12.263  12.058
29441SOL    HW188349   3.978  12.179  12.110
29441SOL    HW288350   3.909  12.327  12.113
29442SOL     OW88351   4.330  12.136  11.295
29442SOL    HW188352   4.337  12.220  11.241
29442SOL    HW288353   4.376  12.149  11.383
29443SOL     OW88354   5.318  11.286  12.652
29443SOL    HW188355   5.300  11.353  12.580
29443SOL    HW288356   5.315  11.332  12.741
29444SOL     OW88357   3.846  11.815  11.735
29444SOL    HW188358   3.801  11.727  11.752
29444SOL    HW288359   3.845  11.869  11.819
29445SOL     OW88360   3.751  12.768  11.289
29445SOL    HW188361   3.732  12.672  11.310
29445SOL    HW288362   3.718  12.826  11.364
29446SOL     OW88363   5.413  12.094  11.784
29446SOL    HW188364   5.508  12.065  11.792
29446SOL    HW288365   5.405  12.159  11.709
29447SOL     OW88366   5.365  12.280  11.604
29447SOL    HW188367   5.451  12.282  11.552
29447SOL    HW288368   5.379  12.327  11.692
29448SOL     OW88369   4.337  12.537  11.898
29448SOL    HW188370   4.288  12.450  11.907
29448SOL    HW288371   4.314  12.580  11.811
29449SOL     OW88372   4.533  11.176  11.674
29449SOL    HW188373   4.573  11.267  11.665
29449SOL    HW288374   4.433  11.184  11.680
29450SOL     OW88375   3.921  12.148  12.436
29450SOL    HW188376   4.010  12.103  12.422
29450SOL    HW288377   3.848  12.083  12.417
29451SOL     OW88378   5.249  12.171  11.362
29451SOL    HW188379   5.186  12.095  11.375
29451SOL    HW288380   5.297  12.189  11.448
29452SOL     OW88381   4.041  11.423  12.973
29452SOL    HW188382   4.112  11.494  12.979
29452SOL    HW288383   3.953  11.462  13.001
29453SOL     OW88384   5.190  12.589  12.125
29453SOL    HW188385   5.131  12.595  12.205
29453SOL    HW288386   5.175  12.501  12.079
29454SOL     OW88387   4.322  11.901  11.442
29454SOL    HW188388   4.346  11.970  11.374
29454SOL    HW288389   4.244  11.934  11.496
29455SOL     OW88390   5.005  11.517  12.116
29455SOL    HW188391   4.919  11.467  12.103
29455SOL    HW288392   5.067  11.463  12.172
29456SOL     OW88393   4.531  11.777  12.637
29456SOL    HW188394   4.484  11.774  12.726
29456SOL    HW288395   4.480  11.722  12.571
29457SOL     OW88396   4.715  11.582  12.414
29457SOL    HW188397   4.638  11.616  12.468
29457SOL    HW288398   4.681  11.531  12.335
29458SOL     OW88399   4.765  11.873  11.601
29458SOL    HW188400   4.791  11.869  11.697
29458SOL    HW288401   4.680  11.822  11.587
29459SOL     OW88402   3.800  11.983  11.961
29459SOL    HW188403   3.899  11.971  11.970
29459SOL    HW288404   3.776  12.078  11.982
29460SOL     OW88405   4.589  11.520  11.367
29460SOL    HW188406   4.648  11.583  11.318
29460SOL    HW288407   4.608  11.426  11.338
29461SOL     OW88408   5.086  12.316  11.717
29461SOL    HW188409   5.169  12.287  11.669
29461SOL    HW288410   5.037  12.383  11.661
29462SOL     OW88411   4.274  11.368  12.057
29462SOL    HW188412   4.269  11.363  12.157
29462SOL    HW288413   4.276  11.464  12.028
29463SOL     OW88414   4.732  12.628  11.649
29463SOL    HW188415   4.686  12.700  11.597
29463SOL    HW288416   4.728  12.648  11.747
29464SOL     OW88417   5.519  12.238  12.045
29464SOL    HW188418   5.457  12.223  11.969
29464SOL    HW288419   5.467  12.249  12.130
29465SOL     OW88420   4.045  12.115  11.414
29465SOL    HW188421   4.127  12.154  11.372
29465SOL    HW288422   4.018  12.033  11.365
29466SOL     OW88423   5.182  11.907  11.900
29466SOL    HW188424   5.177  11.842  11.975
29466SOL    HW288425   5.262  11.966  11.913
29467SOL     OW88426   4.835  12.948  11.409
29467SOL    HW188427   4.775  12.886  11.459
29467SOL    HW288428   4.866  12.904  11.324
29468SOL     OW88429   3.926  11.457  12.670
29468SOL    HW188430   3.846  11.517  12.657
29468SOL    HW288431   3.916  11.408  12.756
29469SOL     OW88432   5.356  12.549  11.253
29469SOL    HW188433   5.324  12.643  11.243
29469SOL    HW288434   5.280  12.486  11.241
29470SOL     OW88435   5.124  11.279  11.598
29470SOL    HW188436   5.100  11.242  11.508
29470SOL    HW288437   5.223  11.295  11.602
29471SOL     OW88438   4.106  11.872  11.652
29471SOL    HW188439   4.151  11.782  11.649
29471SOL    HW288440   4.012  11.861  11.685
29472SOL     OW88441   4.338  11.294  11.289
29472SOL    HW188442   4.436  11.272  11.296
29472SOL    HW288443   4.307  11.277  11.196
29473SOL     OW88444   4.527  12.574  12.096
29473SOL    HW188445   4.617  12.588  12.054
29473SOL    HW288446   4.456  12.576  12.025
29474SOL     OW88447   4.646  11.675  12.071
29474SOL    HW188448   4.621  11.666  11.975
29474SOL    HW288449   4.694  11.593  12.102
29475SOL     OW88450   4.263  11.236  11.684
29475SOL    HW188451   4.182  11.237  11.742
29475SOL    HW288452   4.266  11.319  11.629
29476SOL     OW88453   5.158  12.360  11.213
29476SOL    HW188454   5.190  12.284  11.270
29476SOL    HW288455   5.066  12.387  11.243
29477SOL     OW88456   4.021  11.207  11.343
29477SOL    HW188457   4.070  11.291  11.322
29477SOL    HW288458   4.083  11.142  11.388
29478SOL     OW88459   4.659  11.408  11.652
29478SOL    HW188460   4.611  11.449  11.574
29478SOL    HW288461   4.758  11.406  11.633
29479SOL     OW88462   4.951  12.742  11.965
29479SOL    HW188463   4.972  12.816  11.900
29479SOL    HW288464   5.019  12.742  12.038
29480SOL     OW88465   4.183  12.324  11.913
29480SOL    HW188466   4.112  12.297  11.978
29480SOL    HW288467   4.157  12.296  11.820
29481SOL     OW88468   4.756  11.721  11.188
29481SOL    HW188469   4.715  11.803  11.149
29481SOL    HW288470   4.820  11.747  11.261
29482SOL     OW88471   3.802  11.728  12.558
29482SOL    HW188472   3.894  11.727  12.517
29482SOL    HW288473   3.796  11.802  12.625
29483SOL     OW88474   4.285  11.394  12.319
29483SOL    HW188475   4.323  11.310  12.356
29483SOL    HW288476   4.197  11.413  12.363
29484SOL     OW88477   4.590  11.626  11.814
29484SOL    HW188478   4.558  11.698  11.752
29484SOL    HW288479   4.614  11.545  11.761
29485SOL     OW88480   4.741  11.211  11.925
29485SOL    HW188481   4.669  11.216  11.856
29485SOL    HW288482   4.717  11.142  11.994
29486SOL     OW88483   5.153  12.345  12.039
29486SOL    HW188484   5.098  12.261  12.032
29486SOL    HW288485   5.179  12.374  11.947
29487SOL     OW88486   5.190  11.762  12.164
29487SOL    HW188487   5.160  11.667  12.171
29487SOL    HW288488   5.263  11.778  12.230
29488SOL     OW88489   5.581  12.005  11.549
29488SOL    HW188490   5.623  11.941  11.613
29488SOL    HW288491   5.543  11.954  11.471
29489SOL     OW88492   4.212  12.557  11.346
29489SOL    HW188493   4.125  12.542  11.393
29489SOL    HW288494   4.195  12.583  11.251
29490SOL     OW88495   5.388  12.452  11.829
29490SOL    HW188496   5.487  12.460  11.843
29490SOL    HW288497   5.343  12.536  11.860
29491SOL     OW88498   5.114  11.747  11.250
29491SOL    HW188499   5.060  11.726  11.331
29491SOL    HW288500   5.205  11.706  11.259
29492SOL     OW88501   4.251  11.428  11.500
29492SOL    HW188502   4.278  11.369  11.425
29492SOL    HW288503   4.251  11.523  11.469
29493SOL     OW88504   4.788  12.519  12.512
29493SOL    HW188505   4.708  12.496  12.567
29493SOL    HW288506   4.871  12.493  12.561
29494SOL     OW88507   4.835  12.367  12.272
29494SOL    HW188508   4.795  12.411  12.353
29494SOL    HW288509   4.794  12.404  12.189
29495SOL     OW88510   5.362  12.271  12.251
29495SOL    HW188511   5.367  12.352  12.310
29495SOL    HW288512   5.276  12.273  12.200
29496SOL     OW88513   4.639  11.261  12.574
29496SOL    HW188514   4.664  11.241  12.479
29496SOL    HW288515   4.711  11.317  12.616
29497SOL     OW88516   4.429  12.222  11.540
29497SOL    HW188517   4.415  12.229  11.639
29497SOL    HW288518   4.513  12.171  11.522
29498SOL     OW88519   4.134  11.985  12.423
29498SOL    HW188520   4.220  11.997  12.473
29498SOL    HW288521   4.092  11.898  12.450
29499SOL     OW88522   4.998  11.558  12.434
29499SOL    HW188523   5.019  11.632  12.498
29499SOL    HW288524   4.909  11.575  12.391
29500SOL     OW88525   4.091  12.272  11.673
29500SOL    HW188526   4.084  12.355  11.617
29500SOL    HW288527   4.095  12.192  11.613
29501SOL     OW88528   4.290  11.709  12.037
29501SOL    HW188529   4.302  11.775  11.963
29501SOL    HW288530   4.336  11.743  12.120
29502SOL     OW88531   4.976  12.520  11.560
29502SOL    HW188532   5.026  12.597  11.600
29502SOL    HW288533   4.881  12.522  11.592
29503SOL     OW88534   4.996  12.617  12.314
29503SOL    HW188535   5.043  12.630  12.401
29503SOL    HW288536   4.930  12.543  12.323
29504SOL     OW88537   5.306  11.811  11.644
29504SOL    HW188538   5.275  11.872  11.717
29504SOL    HW288539   5.356  11.863  11.575
29505SOL     OW88540   4.078  12.682  12.501
29505SOL    HW188541   4.057  12.638  12.414
29505SOL    HW288542   4.175  12.708  12.504
29506SOL     OW88543   4.126  11.923  12.770
29506SOL    HW188544   4.194  11.978  12.723
29506SOL    HW288545   4.166  11.835  12.797
29507SOL     OW88546   5.311  11.951  12.842
29507SOL    HW188547   5.219  11.989  12.837
29507SOL    HW288548   5.371  11.998  12.777
29508SOL     OW88549   4.297  12.042  12.201
29508SOL    HW188550   4.341  12.131  12.192
29508SOL    HW288551   4.234  12.042  12.278
29509SOL     OW88552   5.084  12.034  12.217
29509SOL    HW188553   5.009  12.034  12.151
29509SOL    HW288554   5.121  11.942  12.226
29510SOL     OW88555   4.933  11.697  11.447
29510SOL    HW188556   4.946  11.613  11.501
29510SOL    HW288557   4.904  11.771  11.507
29511SOL     OW88558   4.031  11.385  12.403
29511SOL    HW188559   4.008  11.422  12.493
29511SOL    HW288560   4.001  11.290  12.397
29512SOL     OW88561   3.761  12.482  12.454
29512SOL    HW188562   3.814  12.433  12.522
29512SOL    HW288563   3.783  12.580  12.459
29513SOL     OW88564   4.456  11.806  12.236
29513SOL    HW188565   4.515  11.780  12.160
29513SOL    HW288566   4.428  11.902  12.225
29514SOL     OW88567   4.031  11.235  11.790
29514SOL    HW188568   4.020  11.329  11.823
29514SOL    HW288569   4.026  11.172  11.867
29515SOL     OW88570   5.346  11.539  11.546
29515SOL    HW188571   5.348  11.463  11.610
29515SOL    HW288572   5.298  11.616  11.586
29516SOL     OW88573   4.747  11.938  12.138
29516SOL    HW188574   4.762  11.959  12.234
29516SOL    HW288575   4.717  11.843  12.129
29517SOL     OW88576   5.264  11.446  11.297
29517SOL    HW188577   5.203  11.371  11.320
29517SOL    HW288578   5.286  11.498  11.380
29518SOL     OW88579   5.027  12.010  11.214
29518SOL    HW188580   5.061  11.917  11.229
29518SOL    HW288581   5.045  12.037  11.119
29519SOL     OW88582   4.792  12.505  12.021
29519SOL    HW188583   4.799  12.421  11.966
29519SOL    HW288584   4.854  12.574  11.985
29520SOL     OW88585   4.043  11.982  12.121
29520SOL    HW188586   4.136  12.018  12.126
29520SOL    HW288587   4.037  11.897  12.173
29521SOL     OW88588   4.063  11.681  12.178
29521SOL    HW188589   4.011  11.598  12.161
29521SOL    HW288590   4.140  11.686  12.114
29522SOL     OW88591   4.862  11.552  12.850
29522SOL    HW188592   4.817  11.615  12.914
29522SOL    HW288593   4.955  11.583  12.833
29523SOL     OW88594   4.884  11.379  12.649
29523SOL    HW188595   4.884  11.443  12.726
29523SOL    HW288596   4.912  11.427  12.566
29524SOL     OW88597   3.732  12.498  11.372
29524SOL    HW188598   3.639  12.519  11.341
29524SOL    HW288599   3.742  12.399  11.385
29525SOL     OW88600   4.726  11.968  12.410
29525SOL    HW188601   4.767  11.936  12.496
29525SOL    HW288602   4.630  11.941  12.407
29526SOL     OW88603   3.764  11.716  12.286
29526SOL    HW188604   3.849  11.683  12.245
29526SOL    HW288605   3.777  11.731  12.384
29527SOL     OW88606   4.539  11.744  11.497
29527SOL    HW188607   4.546  11.655  11.451
29527SOL    HW288608   4.445  11.778  11.489
29528SOL     OW88609   5.381  11.776  12.378
29528SOL    HW188610   5.343  11.707  12.440
29528SOL    HW288611   5.463  11.740  12.334
29529SOL     OW88612   4.395  11.636  12.441
29529SOL    HW188613   4.361  11.547  12.411
29529SOL    HW288614   4.421  11.690  12.361
29530SOL     OW88615   4.197  11.672  11.363
29530SOL    HW188616   4.258  11.752  11.367
29530SOL    HW288617   4.102  11.703  11.370
29531SOL     OW88618   3.883  12.309  12.638
29531SOL    HW188619   3.905  12.248  12.714
29531SOL    HW288620   3.893  12.260  12.552
29532SOL     OW88621   5.071  12.231  12.406
29532SOL    HW188622   5.095  12.168  12.332
29532SOL    HW288623   4.981  12.271  12.388
29533SOL     OW88624   5.026  12.027  11.481
29533SOL    HW188625   4.940  11.996  11.523
29533SOL    HW288626   5.022  12.013  11.382
29534SOL     OW88627   3.807  12.430  12.194
29534SOL    HW188628   3.802  12.429  12.294
29534SOL    HW288629   3.724  12.389  12.156
29535SOL     OW88630   5.450  11.307  11.695
29535SOL    HW188631   5.523  11.290  11.628
29535SOL    HW288632   5.419  11.220  11.733
29536SOL     OW88633   5.004  12.099  11.844
29536SOL    HW188634   5.064  12.018  11.846
29536SOL    HW288635   5.044  12.168  11.784
29537SOL     OW88636   5.565  11.347  12.135
29537SOL    HW188637   5.604  11.262  12.099
29537SOL    HW288638   5.467  11.349  12.116
29538SOL     OW88639   3.987  11.498  11.892
29538SOL    HW188640   3.908  11.549  11.858
29538SOL    HW288641   3.978  11.483  11.990
29539SOL     OW88642   4.546  12.174  12.544
29539SOL    HW188643   4.586  12.173  12.452
29539SOL    HW288644   4.556  12.266  12.584
29540SOL     OW88645   4.640  12.082  11.463
29540SOL    HW188646   4.703  12.120  11.395
29540SOL    HW288647   4.680  11.999  11.502
29541SOL     OW88648   4.096  12.460  12.662
29541SOL    HW188649   4.083  12.553  12.628
29541SOL    HW288650   4.012  12.408  12.649
29542SOL     OW88651   5.338  12.464  12.461
29542SOL    HW188652   5.398  12.467  12.541
29542SOL    HW288653   5.263  12.528  12.474
29543SOL     OW88654   4.763  12.270  11.868
29543SOL    HW188655   4.693  12.223  11.922
29543SOL    HW288656   4.822  12.202  11.825
29544SOL     OW88657   4.738  11.408  12.143
29544SOL    HW188658   4.730  11.372  12.050
29544SOL    HW288659   4.736  11.332  12.208
29545SOL     OW88660   5.433  11.557  12.553
29545SOL    HW188661   5.506  11.626  12.557
29545SOL    HW288662   5.461  11.482  12.494
29546SOL     OW88663   3.979  12.520  11.462
29546SOL    HW188664   3.883  12.521  11.435
29546SOL    HW288665   3.991  12.573  11.546
29547SOL     OW88666   3.799  11.517  11.205
29547SOL    HW188667   3.707  11.489  11.176
29547SOL    HW288668   3.830  11.594  11.149
29548SOL     OW88669   5.164  12.028  12.570
29548SOL    HW188670   5.107  12.080  12.507
29548SOL    HW288671   5.260  12.040  12.546
29549SOL     OW88672   3.796  11.338  11.490
29549SOL    HW188673   3.779  11.421  11.436
29549SOL    HW288674   3.886  11.301  11.468
29550SOL     OW88675   4.907  12.507  11.291
29550SOL    HW188676   4.808  12.496  11.293
29550SOL    HW288677   4.941  12.522  11.384
29551SOL     OW88678   4.337  12.014  12.603
29551SOL    HW188679   4.393  12.095  12.586
29551SOL    HW288680   4.396  11.934  12.606
29552SOL     OW88681   5.398  12.055  12.426
29552SOL    HW188682   5.371  11.966  12.389
29552SOL    HW288683   5.399  12.123  12.353
29553SOL     OW88684   4.949  11.497  11.621
29553SOL    HW188685   5.014  11.423  11.610
29553SOL    HW288686   4.969  11.547  11.705
29554SOL     OW88687   4.318  11.917  11.824
29554SOL    HW188688   4.368  12.002  11.805
29554SOL    HW288689   4.230  11.919  11.776
29555SOL     OW88690   5.501  11.514  12.814
29555SOL    HW188691   5.484  11.545  12.720
29555SOL    HW288692   5.417  11.477  12.852
29556SOL     OW88693   5.454  12.106  12.689
29556SOL    HW188694   5.492  12.197  12.704
29556SOL    HW288695   5.446  12.089  12.590
29557SOL     OW88696   4.583  12.546  11.188
29557SOL    HW188697   4.537  12.561  11.276
29557SOL    HW288698   4.627  12.631  11.158
29558SOL     OW88699   4.583  12.128  12.033
29558SOL    HW188700   4.637  12.059  12.081
29558SOL    HW288701   4.551  12.197  12.099
29559SOL     OW88702   4.807  12.156  11.259
29559SOL    HW188703   4.784  12.209  11.177
29559SOL    HW288704   4.888  12.100  11.240
29560SOL     OW88705   3.803  12.412  11.825
29560SOL    HW188706   3.802  12.365  11.913
29560SOL    HW288707   3.885  12.384  11.774
29561SOL     OW88708   5.548  11.364  12.399
29561SOL    HW188709   5.544  11.274  12.443
29561SOL    HW288710   5.551  11.353  12.300
29562SOL     OW88711   4.152  11.596  11.692
29562SOL    HW188712   4.182  11.524  11.630
29562SOL    HW288713   4.113  11.556  11.775
29563SOL     OW88714   5.429  12.659  12.276
29563SOL    HW188715   5.336  12.634  12.249
29563SOL    HW288716   5.455  12.609  12.358
29564SOL     OW88717   4.041  11.719  12.452
29564SOL    HW188718   4.079  11.660  12.524
29564SOL    HW288719   4.081  11.693  12.364
29565SOL     OW88720   5.148  11.386  12.284
29565SOL    HW188721   5.200  11.321  12.339
29565SOL    HW288722   5.099  11.449  12.345
29566SOL     OW88723   4.725  11.206  12.326
29566SOL    HW188724   4.662  11.134  12.295
29566SOL    HW288725   4.818  11.170  12.326
29567SOL     OW88726   4.494  12.502  11.473
29567SOL    HW188727   4.448  12.415  11.490
29567SOL    HW288728   4.585  12.499  11.514
29568SOL     OW88729   4.342  12.739  12.456
29568SOL    HW188730   4.337  12.821  12.513
29568SOL    HW288731   4.431  12.736  12.411
29569SOL     OW88732   5.076  11.224  11.340
29569SOL    HW188733   5.111  11.183  11.256
29569SOL    HW288734   4.986  11.186  11.360
29570SOL     OW88735   5.024  11.625  11.863
29570SOL    HW188736   4.965  11.705  11.867
29570SOL    HW288737   5.039  11.590  11.956
29571SOL     OW88738   5.317  11.393  12.054
29571SOL    HW188739   5.233  11.392  12.108
29571SOL    HW288740   5.319  11.476  11.998
29572SOL     OW88741   3.763  12.249  11.472
29572SOL    HW188742   3.862  12.238  11.463
29572SOL    HW288743   3.723  12.163  11.504
29573SOL     OW88744   5.816   0.628   0.113
29573SOL    HW188745   5.723   0.626   0.150
29573SOL    HW288746   5.817   0.589   0.021
29574SOL     OW88747   5.811   0.275   0.996
29574SOL    HW188748   5.846   0.258   1.088
29574SOL    HW288749   5.723   0.230   0.984
29575SOL     OW88750   5.605   0.368   0.647
29575SOL    HW188751   5.523   0.411   0.686
29575SOL    HW288752   5.577   0.295   0.584
29576SOL     OW88753   6.155   1.275   1.165
29576SOL    HW188754   6.062   1.268   1.128
29576SOL    HW288755   6.166   1.364   1.209
29577SOL     OW88756   7.141   1.511   0.703
29577SOL    HW188757   7.084   1.495   0.784
29577SOL    HW288758   7.082   1.521   0.623
29578SOL     OW88759   6.721   0.703   0.717
29578SOL    HW188760   6.778   0.781   0.692
29578SOL    HW288761   6.661   0.729   0.793
29579SOL     OW88762   7.341   0.607   0.231
29579SOL    HW188763   7.329   0.594   0.132
29579SOL    HW288764   7.311   0.526   0.280
29580SOL     OW88765   6.354   1.144   1.023
29580SOL    HW188766   6.276   1.161   1.083
29580SOL    HW288767   6.388   1.231   0.987
29581SOL     OW88768   6.436   0.798   1.823
29581SOL    HW188769   6.432   0.874   1.888
29581SOL    HW288770   6.458   0.834   1.732
29582SOL     OW88771   6.271   1.012   0.665
29582SOL    HW188772   6.340   0.996   0.735
29582SOL    HW288773   6.198   1.069   0.703
29583SOL     OW88774   6.272   1.161   1.803
29583SOL    HW188775   6.332   1.240   1.817
29583SOL    HW288776   6.186   1.192   1.762
29584SOL     OW88777   5.921   1.435   1.061
29584SOL    HW188778   5.843   1.404   1.008
29584SOL    HW288779   5.979   1.493   1.004
29585SOL     OW88780   7.046   1.505   1.339
29585SOL    HW188781   7.070   1.599   1.365
29585SOL    HW288782   7.030   1.451   1.421
29586SOL     OW88783   6.024   0.392   1.499
29586SOL    HW188784   6.106   0.336   1.508
29586SOL    HW288785   5.943   0.334   1.503
29587SOL     OW88786   7.189   0.447   0.737
29587SOL    HW188787   7.115   0.493   0.687
29587SOL    HW288788   7.240   0.515   0.790
29588SOL     OW88789   5.817   1.713   0.483
29588SOL    HW188790   5.851   1.790   0.537
29588SOL    HW288791   5.861   1.713   0.393
29589SOL     OW88792   6.713   1.341   1.690
29589SOL    HW188793   6.760   1.341   1.778
29589SOL    HW288794   6.665   1.254   1.679
29590SOL     OW88795   5.816   1.434   0.538
29590SOL    HW188796   5.790   1.530   0.538
29590SOL    HW288797   5.745   1.380   0.583
29591SOL     OW88798   5.826   1.091   0.886
29591SOL    HW188799   5.840   1.007   0.938
29591SOL    HW288800   5.771   1.155   0.941
29592SOL     OW88801   6.206   1.786   1.439
29592SOL    HW188802   6.114   1.769   1.474
29592SOL    HW288803   6.234   1.878   1.465
29593SOL     OW88804   6.192   0.964   0.123
29593SOL    HW188805   6.199   1.048   0.069
29593SOL    HW288806   6.238   0.977   0.211
29594SOL     OW88807   7.180   0.114   1.480
29594SOL    HW188808   7.162   0.181   1.408
29594SOL    HW288809   7.177   0.160   1.569
29595SOL     OW88810   5.708   0.643   0.563
29595SOL    HW188811   5.663   0.555   0.580
29595SOL    HW288812   5.707   0.697   0.647
29596SOL     OW88813   7.428   1.767   0.359
29596SOL    HW188814   7.482   1.738   0.439
29596SOL    HW288815   7.458   1.857   0.330
29597SOL     OW88816   5.613   1.596   0.117
29597SOL    HW188817   5.594   1.500   0.138
29597SOL    HW288818   5.580   1.654   0.192
29598SOL     OW88819   7.275   0.922   0.612
29598SOL    HW188820   7.370   0.893   0.620
29598SOL    HW288821   7.267   0.987   0.537
29599SOL     OW88822   7.227   1.108   0.432
29599SOL    HW188823   7.313   1.110   0.380
29599SOL    HW288824   7.241   1.155   0.520
29600SOL     OW88825   5.699   0.737   1.597
29600SOL    HW188826   5.787   0.724   1.642
29600SOL    HW288827   5.686   0.834   1.575
29601SOL     OW88828   6.199   1.365   0.726
29601SOL    HW188829   6.150   1.278   0.735
29601SOL    HW288830   6.176   1.408   0.639
29602SOL     OW88831   6.879   1.228   1.423
29602SOL    HW188832   6.916   1.155   1.365
29602SOL    HW288833   6.931   1.233   1.508
29603SOL     OW88834   6.395   0.004   0.502
29603SOL    HW188835   6.435   0.095   0.493
29603SOL    HW288836   6.295   0.012   0.508
29604SOL     OW88837   5.783   0.976   1.264
29604SOL    HW188838   5.872   0.931   1.250
29604SOL    HW288839   5.710   0.911   1.245
29605SOL     OW88840   7.111   0.999   0.190
29605SOL    HW188841   7.048   0.923   0.203
29605SOL    HW288842   7.159   1.017   0.276
29606SOL     OW88843   6.773   1.792   1.616
29606SOL    HW188844   6.797   1.852   1.540
29606SOL    HW288845   6.780   1.697   1.586
29607SOL     OW88846   5.903   0.251   1.801
29607SOL    HW188847   5.974   0.322   1.807
29607SOL    HW288848   5.815   0.290   1.829
29608SOL     OW88849   7.052   1.417   0.953
29608SOL    HW188850   6.993   1.423   1.033
29608SOL    HW288851   7.037   1.329   0.907
29609SOL     OW88852   7.253   1.714   0.572
29609SOL    HW188853   7.212   1.691   0.484
29609SOL    HW288854   7.235   1.640   0.637
29610SOL     OW88855   6.184   0.729   0.270
29610SOL    HW188856   6.208   0.798   0.202
29610SOL    HW288857   6.106   0.762   0.324
29611SOL     OW88858   6.867   0.345   0.944
29611SOL    HW188859   6.781   0.295   0.931
29611SOL    HW288860   6.929   0.291   1.000
29612SOL     OW88861   7.162   1.662   0.307
29612SOL    HW188862   7.251   1.708   0.310
29612SOL    HW288863   7.141   1.638   0.212
29613SOL     OW88864   6.393   0.605   1.465
29613SOL    HW188865   6.346   0.602   1.554
29613SOL    HW288866   6.342   0.550   1.399
29614SOL     OW88867   6.980   0.469   1.674
29614SOL    HW188868   6.960   0.512   1.762
29614SOL    HW288869   7.058   0.407   1.683
29615SOL     OW88870   6.559   0.890   1.572
29615SOL    HW188871   6.605   0.806   1.543
29615SOL    HW288872   6.503   0.924   1.497
29616SOL     OW88873   6.577   0.410   1.242
29616SOL    HW188874   6.500   0.444   1.296
29616SOL    HW288875   6.543   0.359   1.163
29617SOL     OW88876   6.627   0.701   0.429
29617SOL    HW188877   6.653   0.697   0.525
29617SOL    HW288878   6.542   0.650   0.415
29618SOL     OW88879   5.662   0.811   0.789
29618SOL    HW188880   5.761   0.799   0.798
29618SOL    HW288881   5.638   0.906   0.810
29619SOL     OW88882   6.451   0.348   0.195
29619SOL    HW188883   6.510   0.411   0.146
29619SOL    HW288884   6.470   0.254   0.166
29620SOL     OW88885   7.305   0.585   1.831
29620SOL    HW188886   7.279   0.674   1.795
29620SOL    HW288887   7.303   0.517   1.758
29621SOL     OW88888   6.948   1.144   0.545
29621SOL    HW188889   7.031   1.115   0.497
29621SOL    HW288890   6.899   1.211   0.489
29622SOL     OW88891   6.136   0.196   0.885
29622SOL    HW188892   6.131   0.191   0.985
29622SOL    HW288893   6.138   0.292   0.856
29623SOL     OW88894   6.594   1.456   0.477
29623SOL    HW188895   6.548   1.528   0.425
29623SOL    HW288896   6.590   1.476   0.575
29624SOL     OW88897   5.937   1.801   0.853
29624SOL    HW188898   5.987   1.715   0.859
29624SOL    HW288899   6.002   1.878   0.850
29625SOL     OW88900   7.381   1.066   0.873
29625SOL    HW188901   7.319   1.051   0.797
29625SOL    HW288902   7.329   1.077   0.958
29626SOL     OW88903   6.813   1.550   1.506
29626SOL    HW188904   6.819   1.473   1.570
29626SOL    HW288905   6.761   1.524   1.426
29627SOL     OW88906   5.907   0.943   0.242
29627SOL    HW188907   5.989   0.982   0.200
29627SOL    HW288908   5.880   0.861   0.193
29628SOL     OW88909   7.044   0.735   0.728
29628SOL    HW188910   7.039   0.670   0.803
29628SOL    HW288911   7.124   0.794   0.741
29629SOL     OW88912   6.047   1.266   1.727
29629SOL    HW188913   5.997   1.267   1.641
29629SOL    HW288914   5.984   1.248   1.803
29630SOL     OW88915   6.697   1.776   0.237
29630SOL    HW188916   6.637   1.714   0.287
29630SOL    HW288917   6.728   1.732   0.152
29631SOL     OW88918   5.788   0.285   1.498
29631SOL    HW188919   5.708   0.345   1.485
29631SOL    HW288920   5.778   0.236   1.584
29632SOL     OW88921   7.218   1.377   0.081
29632SOL    HW188922   7.186   1.471   0.071
29632SOL    HW288923   7.142   1.314   0.069
29633SOL     OW88924   6.050   1.743   0.323
29633SOL    HW188925   6.083   1.782   0.409
29633SOL    HW288926   6.126   1.736   0.258
29634SOL     OW88927   6.986   0.107   0.426
29634SOL    HW188928   6.962   0.070   0.336
29634SOL    HW288929   7.085   0.123   0.430
29635SOL     OW88930   5.835   1.785   1.241
29635SOL    HW188931   5.892   1.720   1.291
29635SOL    HW288932   5.819   1.752   1.148
29636SOL     OW88933   6.526   1.698   0.904
29636SOL    HW188934   6.606   1.641   0.925
29636SOL    HW288935   6.477   1.658   0.827
29637SOL     OW88936   5.968   0.700   0.480
29637SOL    HW188937   6.013   0.610   0.477
29637SOL    HW288938   5.874   0.689   0.513
29638SOL     OW88939   7.133   0.222   1.729
29638SOL    HW188940   7.128   0.259   1.821
29638SOL    HW288941   7.061   0.153   1.717
29639SOL     OW88942   6.200   0.122   0.117
29639SOL    HW188943   6.298   0.100   0.124
29639SOL    HW288944   6.169   0.105   0.024
29640SOL     OW88945   6.367   0.264   1.749
29640SOL    HW188946   6.434   0.203   1.792
29640SOL    HW288947   6.294   0.283   1.814
29641SOL     OW88948   6.474   1.514   1.195
29641SOL    HW188949   6.451   1.489   1.101
29641SOL    HW288950   6.535   1.445   1.234
29642SOL     OW88951   6.937   0.590   1.433
29642SOL    HW188952   6.965   0.547   1.518
29642SOL    HW288953   6.962   0.686   1.434
29643SOL     OW88954   6.389   1.402   0.924
29643SOL    HW188955   6.479   1.416   0.882
29643SOL    HW288956   6.318   1.404   0.853
29644SOL     OW88957   6.508   0.503   0.899
29644SOL    HW188958   6.483   0.494   0.803
29644SOL    HW288959   6.556   0.421   0.930
29645SOL     OW88960   6.125   0.064   0.512
29645SOL    HW188961   6.044   0.065   0.570
29645SOL    HW288962   6.128   0.147   0.457
29646SOL     OW88963   7.020   1.188   0.041
29646SOL    HW188964   7.052   1.112   0.098
29646SOL    HW288965   6.928   1.215   0.071
29647SOL     OW88966   5.883   0.035   0.171
29647SOL    HW188967   5.932   0.119   0.150
29647SOL    HW288968   5.945  -0.030   0.216
29648SOL     OW88969   6.662   0.683   1.464
29648SOL    HW188970   6.582   0.622   1.467
29648SOL    HW288971   6.743   0.630   1.440
29649SOL     OW88972   6.813   1.570   0.793
29649SOL    HW188973   6.834   1.644   0.728
29649SOL    HW288974   6.881   1.570   0.866
29650SOL     OW88975   6.045   1.152   0.741
29650SOL    HW188976   5.974   1.125   0.806
29650SOL    HW288977   6.019   1.124   0.648
29651SOL     OW88978   6.857   1.797   0.591
29651SOL    HW188979   6.901   1.861   0.527
29651SOL    HW288980   6.807   1.849   0.661
29652SOL     OW88981   6.618   0.549   0.016
29652SOL    HW188982   6.577   0.631  -0.023
29652SOL    HW288983   6.682   0.575   0.089
29653SOL     OW88984   5.664   0.556   1.386
29653SOL    HW188985   5.756   0.555   1.345
29653SOL    HW288986   5.658   0.630   1.453
29654SOL     OW88987   6.147   0.222   1.147
29654SOL    HW188988   6.185   0.138   1.184
29654SOL    HW288989   6.059   0.241   1.191
29655SOL     OW88990   6.452   0.454   0.642
29655SOL    HW188991   6.420   0.526   0.580
29655SOL    HW288992   6.476   0.373   0.589
29656SOL     OW88993   6.603   0.039   0.753
29656SOL    HW188994   6.531   0.044   0.684
29656SOL    HW288995   6.579  -0.030   0.822
29657SOL     OW88996   7.015   1.173   0.867
29657SOL    HW188997   6.960   1.089   0.860
29657SOL    HW288998   7.041   1.202   0.775
29658SOL     OW88999   7.052   0.590   0.992
29658SOL    HW189000   7.022   0.495   0.999
29658SOL    HW289001   7.125   0.606   1.058
29659SOL     OW89002   7.443   0.833   0.377
29659SOL    HW189003   7.485   0.769   0.441
29659SOL    HW289004   7.405   0.782   0.299
29660SOL     OW89005   6.074   1.385   0.174
29660SOL    HW189006   5.987   1.370   0.221
29660SOL    HW289007   6.057   1.411   0.079
29661SOL     OW89008   7.250   1.280   0.657
29661SOL    HW189009   7.349   1.288   0.671
29661SOL    HW289010   7.205   1.364   0.688
29662SOL     OW89011   6.976   0.575   0.078
29662SOL    HW189012   6.922   0.554   0.159
29662SOL    HW289013   7.067   0.534   0.087
29663SOL     OW89014   6.113   0.256   0.328
29663SOL    HW189015   6.140   0.197   0.253
29663SOL    HW289016   6.113   0.351   0.297
29664SOL     OW89017   7.340   1.223   1.588
29664SOL    HW189018   7.431   1.184   1.575
29664SOL    HW289019   7.348   1.319   1.612
29665SOL     OW89020   6.650   1.347   1.340
29665SOL    HW189021   6.570   1.324   1.395
29665SOL    HW289022   6.733   1.321   1.389
29666SOL     OW89023   7.178   1.629   1.625
29666SOL    HW189024   7.205   1.663   1.535
29666SOL    HW289025   7.257   1.591   1.671
29667SOL     OW89026   6.697   1.195   1.100
29667SOL    HW189027   6.657   1.239   1.181
29667SOL    HW289028   6.656   1.232   1.017
29668SOL     OW89029   7.224   1.099   1.079
29668SOL    HW189030   7.229   1.180   1.138
29668SOL    HW289031   7.138   1.101   1.028
29669SOL     OW89032   6.501   0.089   1.402
29669SOL    HW189033   6.526   0.069   1.307
29669SOL    HW289034   6.573   0.145   1.444
29670SOL     OW89035   6.566   1.116   1.719
29670SOL    HW189036   6.467   1.122   1.729
29670SOL    HW289037   6.589   1.036   1.663
29671SOL     OW89038   6.291   1.050   0.368
29671SOL    HW189039   6.277   1.057   0.467
29671SOL    HW289040   6.375   0.999   0.350
29672SOL     OW89041   5.996   0.813   1.251
29672SOL    HW189042   6.082   0.825   1.301
29672SOL    HW289043   5.954   0.726   1.278
29673SOL     OW89044   6.860   0.386   1.262
29673SOL    HW189045   6.881   0.460   1.326
29673SOL    HW289046   6.771   0.403   1.219
29674SOL     OW89047   5.650   1.564   1.331
29674SOL    HW189048   5.604   1.646   1.297
29674SOL    HW289049   5.748   1.583   1.340
29675SOL     OW89050   5.953   1.100   0.501
29675SOL    HW189051   5.946   1.183   0.445
29675SOL    HW289052   5.957   1.020   0.441
29676SOL     OW89053   6.152   0.537   0.865
29676SOL    HW189054   6.164   0.603   0.791
29676SOL    HW289055   6.198   0.571   0.948
29677SOL     OW89056   6.838   1.348   0.388
29677SOL    HW189057   6.888   1.425   0.428
29677SOL    HW289058   6.743   1.350   0.420
29678SOL     OW89059   6.858   1.445   1.142
29678SOL    HW189060   6.905   1.458   1.229
29678SOL    HW289061   6.792   1.371   1.151
29679SOL     OW89062   7.168   0.639   0.472
29679SOL    HW189063   7.137   0.700   0.545
29679SOL    HW289064   7.218   0.691   0.403
29680SOL     OW89065   5.940   1.510   1.329
29680SOL    HW189066   5.919   1.466   1.242
29680SOL    HW289067   6.037   1.536   1.332
29681SOL     OW89068   5.988   0.751   1.598
29681SOL    HW189069   6.056   0.806   1.551
29681SOL    HW289070   6.028   0.663   1.625
29682SOL     OW89071   7.173   0.779   1.670
29682SOL    HW189072   7.081   0.817   1.665
29682SOL    HW289073   7.233   0.826   1.605
29683SOL     OW89074   6.599   0.105   1.770
29683SOL    HW189075   6.605   0.190   1.718
29683SOL    HW289076   6.631   0.029   1.713
29684SOL     OW89077   6.090   0.050   1.740
29684SOL    HW189078   6.048  -0.007   1.670
29684SOL    HW289079   6.024   0.119   1.772
29685SOL     OW89080   6.159   0.870   1.029
29685SOL    HW189081   6.203   0.959   1.020
29685SOL    HW289082   6.096   0.870   1.106
29686SOL     OW89083   6.946   0.862   1.045
29686SOL    HW189084   6.871   0.862   0.979
29686SOL    HW289085   6.983   0.770   1.054
29687SOL     OW89086   6.795   0.525   0.275
29687SOL    HW189087   6.808   0.441   0.329
29687SOL    HW289088   6.766   0.599   0.335
29688SOL     OW89089   5.893   0.213   1.231
29688SOL    HW189090   5.870   0.250   1.321
29688SOL    HW289091   5.863   0.118   1.225
29689SOL     OW89092   5.623   1.310   1.282
29689SOL    HW189093   5.676   1.261   1.350
29689SOL    HW289094   5.645   1.408   1.287
29690SOL     OW89095   6.318   0.634   1.064
29690SOL    HW189096   6.377   0.608   0.988
29690SOL    HW289097   6.290   0.730   1.053
29691SOL     OW89098   7.314   0.935   1.854
29691SOL    HW189099   7.268   0.928   1.765
29691SOL    HW289100   7.252   0.979   1.920
29692SOL     OW89101   5.893   0.063   0.618
29692SOL    HW189102   5.882   0.157   0.651
29692SOL    HW289103   5.888   0.000   0.695
29693SOL     OW89104   7.208   0.367   0.374
29693SOL    HW189105   7.210   0.291   0.438
29693SOL    HW289106   7.160   0.444   0.414
29694SOL     OW89107   6.609   0.766   0.966
29694SOL    HW189108   6.624   0.787   1.062
29694SOL    HW289109   6.579   0.671   0.957
29695SOL     OW89110   6.566   1.573   1.700
29695SOL    HW189111   6.546   1.617   1.612
29695SOL    HW289112   6.605   1.482   1.684
29696SOL     OW89113   7.445   1.518   1.605
29696SOL    HW189114   7.459   1.545   1.510
29696SOL    HW289115   7.528   1.540   1.658
29697SOL     OW89116   5.936   0.898   1.804
29697SOL    HW189117   6.012   0.942   1.852
29697SOL    HW289118   5.971   0.851   1.722
29698SOL     OW89119   7.126   0.274   0.125
29698SOL    HW189120   7.065   0.199   0.148
29698SOL    HW289121   7.148   0.326   0.208
29699SOL     OW89122   6.889   0.838   0.042
29699SOL    HW189123   6.923   0.745   0.057
29699SOL    HW289124   6.907   0.865  -0.053
29700SOL     OW89125   6.654   1.333   0.849
29700SOL    HW189126   6.661   1.249   0.794
29700SOL    HW289127   6.716   1.402   0.813
29701SOL     OW89128   5.905   0.810   0.949
29701SOL    HW189129   5.998   0.846   0.954
29701SOL    HW289130   5.899   0.725   1.001
29702SOL     OW89131   5.925   0.509   1.006
29702SOL    HW189132   5.873   0.426   0.989
29702SOL    HW289133   6.002   0.514   0.942
29703SOL     OW89134   6.724   0.380   1.678
29703SOL    HW189135   6.679   0.443   1.742
29703SOL    HW289136   6.817   0.411   1.661
29704SOL     OW89137   6.746   0.207   1.477
29704SOL    HW189138   6.746   0.271   1.554
29704SOL    HW289139   6.774   0.255   1.394
29705SOL     OW89140   5.594   1.326   0.200
29705SOL    HW189141   5.501   1.347   0.169
29705SOL    HW289142   5.604   1.227   0.213
29706SOL     OW89143   5.674   1.801   0.927
29706SOL    HW189144   5.632   1.715   0.900
29706SOL    HW289145   5.768   1.804   0.893
29707SOL     OW89146   6.090   1.568   0.910
29707SOL    HW189147   6.156   1.642   0.919
29707SOL    HW289148   6.134   1.489   0.868
29708SOL     OW89149   6.588   0.796   1.238
29708SOL    HW189150   6.629   0.764   1.324
29708SOL    HW289151   6.492   0.769   1.235
29709SOL     OW89152   5.626   0.544   1.114
29709SOL    HW189153   5.711   0.511   1.073
29709SOL    HW289154   5.639   0.559   1.212
29710SOL     OW89155   5.775   0.520   1.722
29710SOL    HW189156   5.834   0.480   1.652
29710SOL    HW289157   5.717   0.591   1.681
29711SOL     OW89158   6.955   0.950   1.660
29711SOL    HW189159   6.994   1.039   1.680
29711SOL    HW289160   6.965   0.930   1.563
29712SOL     OW89161   6.401   0.572   0.325
29712SOL    HW189162   6.408   0.483   0.279
29712SOL    HW289163   6.307   0.606   0.317
29713SOL     OW89164   7.243   0.604   1.206
29713SOL    HW189165   7.205   0.535   1.268
29713SOL    HW289166   7.325   0.568   1.162
29714SOL     OW89167   5.838   1.564   1.744
29714SOL    HW189168   5.808   1.621   1.820
29714SOL    HW289169   5.831   1.467   1.770
29715SOL     OW89170   6.257   0.464   1.269
29715SOL    HW189171   6.223   0.375   1.239
29715SOL    HW289172   6.283   0.518   1.189
29716SOL     OW89173   6.516   1.678   1.465
29716SOL    HW189174   6.492   1.660   1.370
29716SOL    HW289175   6.546   1.772   1.475
29717SOL     OW89176   6.059   0.500   0.191
29717SOL    HW189177   6.120   0.580   0.195
29717SOL    HW289178   5.964   0.531   0.198
29718SOL     OW89179   5.745   1.137   1.466
29718SOL    HW189180   5.767   1.076   1.542
29718SOL    HW289181   5.755   1.088   1.380
29719SOL     OW89182   6.933   1.059   1.234
29719SOL    HW189183   6.957   0.996   1.160
29719SOL    HW289184   6.843   1.099   1.216
29720SOL     OW89185   6.888   0.855   0.309
29720SOL    HW189186   6.802   0.824   0.351
29720SOL    HW289187   6.884   0.841   0.210
29721SOL     OW89188   7.345   1.747   1.154
29721SOL    HW189189   7.406   1.777   1.081
29721SOL    HW289190   7.307   1.658   1.132
29722SOL     OW89191   6.838   1.731   1.128
29722SOL    HW189192   6.922   1.736   1.074
29722SOL    HW289193   6.815   1.635   1.146
29723SOL     OW89194   5.669   1.258   1.022
29723SOL    HW189195   5.664   1.257   1.122
29723SOL    HW289196   5.586   1.217   0.984
29724SOL     OW89197   6.274   1.662   1.716
29724SOL    HW189198   6.218   1.743   1.725
29724SOL    HW289199   6.326   1.666   1.630
29725SOL     OW89200   6.489   0.086   0.133
29725SOL    HW189201   6.540   0.087   0.047
29725SOL    HW289202   6.545   0.044   0.204
29726SOL     OW89203   7.312   0.135   0.523
29726SOL    HW189204   7.385   0.118   0.456
29726SOL    HW289205   7.281   0.048   0.561
29727SOL     OW89206   6.974   1.573   0.477
29727SOL    HW189207   7.041   1.585   0.403
29727SOL    HW289208   6.934   1.662   0.500
29728SOL     OW89209   5.716   1.794   1.851
29728SOL    HW189210   5.675   1.720   1.904
29728SOL    HW289211   5.780   1.845   1.909
29729SOL     OW89212   6.866   0.927   0.672
29729SOL    HW189213   6.926   0.846   0.674
29729SOL    HW289214   6.906   0.996   0.612
29730SOL     OW89215   6.416   1.273   1.422
29730SOL    HW189216   6.411   1.306   1.517
29730SOL    HW289217   6.330   1.292   1.376
29731SOL     OW89218   6.258   1.616   0.154
29731SOL    HW189219   6.267   1.626   0.055
29731SOL    HW289220   6.218   1.527   0.175
29732SOL     OW89221   7.236   1.720   1.394
29732SOL    HW189222   7.289   1.730   1.310
29732SOL    HW289223   7.209   1.810   1.428
29733SOL     OW89224   7.427   0.175   0.963
29733SOL    HW189225   7.466   0.090   0.927
29733SOL    HW289226   7.329   0.177   0.944
29734SOL     OW89227   5.849   0.326   0.720
29734SOL    HW189228   5.770   0.377   0.686
29734SOL    HW289229   5.840   0.311   0.818
29735SOL     OW89230   6.780   1.612   0.031
29735SOL    HW189231   6.786   1.519   0.068
29735SOL    HW289232   6.721   1.612  -0.049
29736SOL     OW89233   6.502   0.910   0.291
29736SOL    HW189234   6.565   0.948   0.223
29736SOL    HW289235   6.542   0.827   0.330
29737SOL     OW89236   7.090   1.607   0.044
29737SOL    HW189237   6.998   1.644   0.051
29737SOL    HW289238   7.128   1.627  -0.046
29738SOL     OW89239   5.958   1.288   1.490
29738SOL    HW189240   5.945   1.381   1.456
29738SOL    HW289241   5.874   1.236   1.477
29739SOL     OW89242   7.200   1.292   1.289
29739SOL    HW189243   7.260   1.295   1.369
29739SOL    HW289244   7.125   1.356   1.302
29740SOL     OW89245   6.625   1.098   0.696
29740SOL    HW189246   6.555   1.051   0.750
29740SOL    HW289247   6.684   1.030   0.653
29741SOL     OW89248   6.600   0.236   0.971
29741SOL    HW189249   6.592   0.200   0.878
29741SOL    HW289250   6.598   0.160   1.036
29742SOL     OW89251   6.176   1.487   0.491
29742SOL    HW189252   6.218   1.429   0.421
29742SOL    HW289253   6.132   1.566   0.447
29743SOL     OW89254   7.295   0.385   1.381
29743SOL    HW189255   7.368   0.454   1.385
29743SOL    HW289256   7.323   0.310   1.322
29744SOL     OW89257   5.841   1.348   0.290
29744SOL    HW189258   5.745   1.349   0.263
29744SOL    HW289259   5.853   1.401   0.374
29745SOL     OW89260   5.691   1.013   1.726
29745SOL    HW189261   5.614   0.980   1.780
29745SOL    HW289262   5.776   0.983   1.768
29746SOL     OW89263   6.258   0.203   1.489
29746SOL    HW189264   6.348   0.187   1.449
29746SOL    HW289265   6.266   0.208   1.588
29747SOL     OW89266   7.026   0.856   1.398
29747SOL    HW189267   6.969   0.908   1.335
29747SOL    HW289268   7.122   0.868   1.374
29748SOL     OW89269   5.658   0.166   0.318
29748SOL    HW189270   5.641   0.249   0.264
29748SOL    HW289271   5.748   0.129   0.296
29749SOL     OW89272   6.769   1.335   0.119
29749SOL    HW189273   6.670   1.324   0.121
29749SOL    HW289274   6.803   1.350   0.212
29750SOL     OW89275   6.199   0.842   1.431
29750SOL    HW189276   6.255   0.923   1.414
29750SOL    HW289277   6.258   0.762   1.434
29751SOL     OW89278   7.079   1.767   0.959
29751SOL    HW189279   7.112   1.831   0.890
29751SOL    HW289280   7.145   1.761   1.034
29752SOL     OW89281   6.302   0.565   1.708
29752SOL    HW189282   6.321   0.630   1.782
29752SOL    HW289283   6.362   0.485   1.717
29753SOL     OW89284   7.036   1.220   1.633
29753SOL    HW189285   7.027   1.210   1.732
29753SOL    HW289286   7.132   1.213   1.607
29754SOL     OW89287   5.976   1.741   1.560
29754SOL    HW189288   5.885   1.782   1.558
29754SOL    HW289289   5.969   1.647   1.592
29755SOL     OW89290   7.260   0.883   1.254
29755SOL    HW189291   7.233   0.794   1.217
29755SOL    HW289292   7.261   0.951   1.181
29756SOL     OW89293   6.811   0.325   0.449
29756SOL    HW189294   6.876   0.251   0.438
29756SOL    HW289295   6.831   0.375   0.533
29757SOL     OW89296   6.180   0.745   0.652
29757SOL    HW189297   6.230   0.830   0.633
29757SOL    HW289298   6.092   0.747   0.604
29758SOL     OW89299   7.363   0.342   1.642
29758SOL    HW189300   7.346   0.373   1.548
29758SOL    HW289301   7.279   0.305   1.680
29759SOL     OW89302   7.316   0.934   1.517
29759SOL    HW189303   7.354   1.025   1.532
29759SOL    HW289304   7.308   0.917   1.418
29760SOL     OW89305   6.445   1.374   0.016
29760SOL    HW189306   6.399   1.389   0.104
29760SOL    HW289307   6.489   1.459  -0.014
29761SOL     OW89308   6.247   1.790   0.953
29761SOL    HW189309   6.201   1.878   0.940
29761SOL    HW289310   6.346   1.802   0.946
29762SOL     OW89311   6.445   0.956   0.861
29762SOL    HW189312   6.499   0.887   0.909
29762SOL    HW289313   6.413   1.025   0.927
29763SOL     OW89314   6.669   0.984   0.087
29763SOL    HW189315   6.646   1.037   0.005
29763SOL    HW289316   6.750   0.928   0.068
29764SOL     OW89317   7.447   1.569   0.851
29764SOL    HW189318   7.376   1.557   0.781
29764SOL    HW289319   7.448   1.490   0.911
29765SOL     OW89320   5.807   1.314   1.844
29765SOL    HW189321   5.742   1.241   1.823
29765SOL    HW289322   5.811   1.328   1.942
29766SOL     OW89323   5.665   1.240   0.653
29766SOL    HW189324   5.664   1.193   0.741
29766SOL    HW289325   5.747   1.212   0.602
29767SOL     OW89326   6.258   1.391   1.624
29767SOL    HW189327   6.180   1.341   1.662
29767SOL    HW289328   6.255   1.486   1.655
29768SOL     OW89329   7.410   0.192   1.227
29768SOL    HW189330   7.406   0.102   1.271
29768SOL    HW289331   7.413   0.181   1.128
29769SOL     OW89332   6.014   0.424   0.520
29769SOL    HW189333   6.044   0.352   0.458
29769SOL    HW289334   5.975   0.384   0.603
29770SOL     OW89335   7.291   1.487   1.104
29770SOL    HW189336   7.198   1.462   1.077
29770SOL    HW289337   7.317   1.437   1.186
29771SOL     OW89338   5.903   0.547   1.280
29771SOL    HW189339   5.941   0.488   1.352
29771SOL    HW289340   5.943   0.521   1.192
29772SOL     OW89341   6.398   1.586   0.687
29772SOL    HW189342   6.430   1.596   0.593
29772SOL    HW289343   6.319   1.524   0.689
29773SOL     OW89344   7.010   0.214   1.112
29773SOL    HW189345   7.062   0.149   1.167
29773SOL    HW289346   6.961   0.277   1.173
29774SOL     OW89347   6.587   0.034   1.154
29774SOL    HW189348   6.524  -0.038   1.123
29774SOL    HW289349   6.680  -0.002   1.154
29775SOL     OW89350   6.356   1.330   0.301
29775SOL    HW189351   6.310   1.243   0.318
29775SOL    HW289352   6.447   1.327   0.342
29776SOL     OW89353   6.204   1.567   1.284
29776SOL    HW189354   6.199   1.649   1.341
29776SOL    HW289355   6.293   1.564   1.239
29777SOL     OW89356   6.938   0.052   0.168
29777SOL    HW189357   6.973   0.011   0.084
29777SOL    HW289358   6.848   0.014   0.188
29778SOL     OW89359   6.886   0.453   0.691
29778SOL    HW189360   6.827   0.533   0.695
29778SOL    HW289361   6.901   0.418   0.784
29779SOL     OW89362   7.179   0.221   0.882
29779SOL    HW189363   7.095   0.220   0.936
29779SOL    HW289364   7.181   0.304   0.826
29780SOL     OW89365   5.625   1.077   0.300
29780SOL    HW189366   5.724   1.066   0.291
29780SOL    HW289367   5.585   0.991   0.332
29781SOL     OW89368   6.461   1.646   0.337
29781SOL    HW189369   6.384   1.611   0.283
29781SOL    HW289370   6.429   1.717   0.399
29782SOL     OW89371   5.816   0.628   1.975
29782SOL    HW189372   5.723   0.626   2.012
29782SOL    HW289373   5.817   0.589   1.883
29783SOL     OW89374   5.811   0.275   2.858
29783SOL    HW189375   5.846   0.258   2.950
29783SOL    HW289376   5.723   0.230   2.846
29784SOL     OW89377   5.605   0.368   2.509
29784SOL    HW189378   5.523   0.411   2.548
29784SOL    HW289379   5.577   0.295   2.446
29785SOL     OW89380   6.155   1.275   3.027
29785SOL    HW189381   6.062   1.268   2.990
29785SOL    HW289382   6.166   1.364   3.071
29786SOL     OW89383   7.141   1.511   2.565
29786SOL    HW189384   7.084   1.495   2.646
29786SOL    HW289385   7.082   1.521   2.485
29787SOL     OW89386   6.721   0.703   2.579
29787SOL    HW189387   6.778   0.781   2.554
29787SOL    HW289388   6.661   0.729   2.655
29788SOL     OW89389   7.341   0.607   2.093
29788SOL    HW189390   7.329   0.594   1.994
29788SOL    HW289391   7.311   0.526   2.142
29789SOL     OW89392   6.354   1.144   2.885
29789SOL    HW189393   6.276   1.161   2.945
29789SOL    HW289394   6.388   1.231   2.849
29790SOL     OW89395   6.436   0.798   3.685
29790SOL    HW189396   6.432   0.874   3.750
29790SOL    HW289397   6.458   0.834   3.594
29791SOL     OW89398   6.271   1.012   2.527
29791SOL    HW189399   6.340   0.996   2.597
29791SOL    HW289400   6.198   1.069   2.565
29792SOL     OW89401   6.272   1.161   3.665
29792SOL    HW189402   6.332   1.240   3.679
29792SOL    HW289403   6.186   1.192   3.624
29793SOL     OW89404   5.921   1.435   2.923
29793SOL    HW189405   5.843   1.404   2.870
29793SOL    HW289406   5.979   1.493   2.866
29794SOL     OW89407   7.046   1.505   3.201
29794SOL    HW189408   7.070   1.599   3.227
29794SOL    HW289409   7.030   1.451   3.283
29795SOL     OW89410   6.024   0.392   3.361
29795SOL    HW189411   6.106   0.336   3.370
29795SOL    HW289412   5.943   0.334   3.365
29796SOL     OW89413   7.189   0.447   2.599
29796SOL    HW189414   7.115   0.493   2.549
29796SOL    HW289415   7.240   0.515   2.652
29797SOL     OW89416   5.817   1.713   2.345
29797SOL    HW189417   5.851   1.790   2.399
29797SOL    HW289418   5.861   1.713   2.255
29798SOL     OW89419   6.713   1.341   3.552
29798SOL    HW189420   6.760   1.341   3.640
29798SOL    HW289421   6.665   1.254   3.541
29799SOL     OW89422   5.816   1.434   2.400
29799SOL    HW189423   5.790   1.530   2.400
29799SOL    HW289424   5.745   1.380   2.445
29800SOL     OW89425   5.826   1.091   2.748
29800SOL    HW189426   5.840   1.007   2.800
29800SOL    HW289427   5.771   1.155   2.803
29801SOL     OW89428   6.206   1.786   3.301
29801SOL    HW189429   6.114   1.769   3.336
29801SOL    HW289430   6.234   1.878   3.327
29802SOL     OW89431   6.192   0.964   1.985
29802SOL    HW189432   6.199   1.048   1.931
29802SOL    HW289433   6.238   0.977   2.073
29803SOL     OW89434   7.180   0.114   3.342
29803SOL    HW189435   7.162   0.181   3.270
29803SOL    HW289436   7.177   0.160   3.431
29804SOL     OW89437   5.708   0.643   2.425
29804SOL    HW189438   5.663   0.555   2.442
29804SOL    HW289439   5.707   0.697   2.509
29805SOL     OW89440   7.428   1.767   2.221
29805SOL    HW189441   7.482   1.738   2.301
29805SOL    HW289442   7.458   1.857   2.192
29806SOL     OW89443   5.613   1.596   1.979
29806SOL    HW189444   5.594   1.500   2.000
29806SOL    HW289445   5.580   1.654   2.054
29807SOL     OW89446   7.275   0.922   2.474
29807SOL    HW189447   7.370   0.893   2.482
29807SOL    HW289448   7.267   0.987   2.399
29808SOL     OW89449   7.227   1.108   2.294
29808SOL    HW189450   7.313   1.110   2.242
29808SOL    HW289451   7.241   1.155   2.382
29809SOL     OW89452   5.699   0.737   3.459
29809SOL    HW189453   5.787   0.724   3.504
29809SOL    HW289454   5.686   0.834   3.437
29810SOL     OW89455   6.199   1.365   2.588
29810SOL    HW189456   6.150   1.278   2.597
29810SOL    HW289457   6.176   1.408   2.501
29811SOL     OW89458   6.879   1.228   3.285
29811SOL    HW189459   6.916   1.155   3.227
29811SOL    HW289460   6.931   1.233   3.370
29812SOL     OW89461   6.395   0.004   2.364
29812SOL    HW189462   6.435   0.095   2.355
29812SOL    HW289463   6.295   0.012   2.370
29813SOL     OW89464   5.783   0.976   3.126
29813SOL    HW189465   5.872   0.931   3.112
29813SOL    HW289466   5.710   0.911   3.107
29814SOL     OW89467   7.111   0.999   2.052
29814SOL    HW189468   7.048   0.923   2.065
29814SOL    HW289469   7.159   1.017   2.138
29815SOL     OW89470   6.773   1.792   3.478
29815SOL    HW189471   6.797   1.852   3.402
29815SOL    HW289472   6.780   1.697   3.448
29816SOL     OW89473   5.903   0.251   3.663
29816SOL    HW189474   5.974   0.322   3.669
29816SOL    HW289475   5.815   0.290   3.691
29817SOL     OW89476   7.052   1.417   2.815
29817SOL    HW189477   6.993   1.423   2.895
29817SOL    HW289478   7.037   1.329   2.769
29818SOL     OW89479   7.253   1.714   2.434
29818SOL    HW189480   7.212   1.691   2.346
29818SOL    HW289481   7.235   1.640   2.499
29819SOL     OW89482   6.184   0.729   2.132
29819SOL    HW189483   6.208   0.798   2.064
29819SOL    HW289484   6.106   0.762   2.186
29820SOL     OW89485   6.867   0.345   2.806
29820SOL    HW189486   6.781   0.295   2.793
29820SOL    HW289487   6.929   0.291   2.862
29821SOL     OW89488   7.162   1.662   2.169
29821SOL    HW189489   7.251   1.708   2.172
29821SOL    HW289490   7.141   1.638   2.074
29822SOL     OW89491   6.393   0.605   3.327
29822SOL    HW189492   6.346   0.602   3.416
29822SOL    HW289493   6.342   0.550   3.261
29823SOL     OW89494   6.980   0.469   3.536
29823SOL    HW189495   6.960   0.512   3.624
29823SOL    HW289496   7.058   0.407   3.545
29824SOL     OW89497   6.559   0.890   3.434
29824SOL    HW189498   6.605   0.806   3.405
29824SOL    HW289499   6.503   0.924   3.359
29825SOL     OW89500   6.577   0.410   3.104
29825SOL    HW189501   6.500   0.444   3.158
29825SOL    HW289502   6.543   0.359   3.025
29826SOL     OW89503   6.627   0.701   2.291
29826SOL    HW189504   6.653   0.697   2.387
29826SOL    HW289505   6.542   0.650   2.277
29827SOL     OW89506   5.662   0.811   2.651
29827SOL    HW189507   5.761   0.799   2.660
29827SOL    HW289508   5.638   0.906   2.672
29828SOL     OW89509   5.716   1.821   3.433
29828SOL    HW189510   5.706   1.806   3.532
29828SOL    HW289511   5.630   1.857   3.397
29829SOL     OW89512   6.451   0.348   2.057
29829SOL    HW189513   6.510   0.411   2.008
29829SOL    HW289514   6.470   0.254   2.028
29830SOL     OW89515   7.305   0.585   3.693
29830SOL    HW189516   7.279   0.674   3.657
29830SOL    HW289517   7.303   0.517   3.620
29831SOL     OW89518   6.948   1.144   2.407
29831SOL    HW189519   7.031   1.115   2.359
29831SOL    HW289520   6.899   1.211   2.351
29832SOL     OW89521   6.136   0.196   2.747
29832SOL    HW189522   6.131   0.191   2.847
29832SOL    HW289523   6.138   0.292   2.718
29833SOL     OW89524   6.594   1.456   2.339
29833SOL    HW189525   6.548   1.528   2.287
29833SOL    HW289526   6.590   1.476   2.437
29834SOL     OW89527   5.937   1.801   2.715
29834SOL    HW189528   5.987   1.715   2.721
29834SOL    HW289529   6.002   1.878   2.712
29835SOL     OW89530   7.381   1.066   2.735
29835SOL    HW189531   7.319   1.051   2.659
29835SOL    HW289532   7.329   1.077   2.820
29836SOL     OW89533   6.813   1.550   3.368
29836SOL    HW189534   6.819   1.473   3.432
29836SOL    HW289535   6.761   1.524   3.288
29837SOL     OW89536   5.907   0.943   2.104
29837SOL    HW189537   5.989   0.982   2.062
29837SOL    HW289538   5.880   0.861   2.055
29838SOL     OW89539   7.044   0.735   2.590
29838SOL    HW189540   7.039   0.670   2.665
29838SOL    HW289541   7.124   0.794   2.603
29839SOL     OW89542   6.047   1.266   3.589
29839SOL    HW189543   5.997   1.267   3.503
29839SOL    HW289544   5.984   1.248   3.665
29840SOL     OW89545   6.697   1.776   2.099
29840SOL    HW189546   6.637   1.714   2.149
29840SOL    HW289547   6.728   1.732   2.014
29841SOL     OW89548   5.788   0.285   3.360
29841SOL    HW189549   5.708   0.345   3.347
29841SOL    HW289550   5.778   0.236   3.446
29842SOL     OW89551   7.218   1.377   1.943
29842SOL    HW189552   7.186   1.471   1.933
29842SOL    HW289553   7.142   1.314   1.931
29843SOL     OW89554   6.050   1.743   2.185
29843SOL    HW189555   6.083   1.782   2.271
29843SOL    HW289556   6.126   1.736   2.120
29844SOL     OW89557   6.986   0.107   2.288
29844SOL    HW189558   6.962   0.070   2.198
29844SOL    HW289559   7.085   0.123   2.292
29845SOL     OW89560   5.835   1.785   3.103
29845SOL    HW189561   5.892   1.720   3.153
29845SOL    HW289562   5.819   1.752   3.010
29846SOL     OW89563   6.526   1.698   2.766
29846SOL    HW189564   6.606   1.641   2.787
29846SOL    HW289565   6.477   1.658   2.689
29847SOL     OW89566   5.968   0.700   2.342
29847SOL    HW189567   6.013   0.610   2.339
29847SOL    HW289568   5.874   0.689   2.375
29848SOL     OW89569   7.133   0.222   3.591
29848SOL    HW189570   7.128   0.259   3.683
29848SOL    HW289571   7.061   0.153   3.579
29849SOL     OW89572   6.200   0.122   1.979
29849SOL    HW189573   6.298   0.100   1.986
29849SOL    HW289574   6.169   0.105   1.886
29850SOL     OW89575   6.367   0.264   3.611
29850SOL    HW189576   6.434   0.203   3.654
29850SOL    HW289577   6.294   0.283   3.676
29851SOL     OW89578   6.474   1.514   3.057
29851SOL    HW189579   6.451   1.489   2.963
29851SOL    HW289580   6.535   1.445   3.096
29852SOL     OW89581   6.937   0.590   3.295
29852SOL    HW189582   6.965   0.547   3.380
29852SOL    HW289583   6.962   0.686   3.296
29853SOL     OW89584   6.389   1.402   2.786
29853SOL    HW189585   6.479   1.416   2.744
29853SOL    HW289586   6.318   1.404   2.715
29854SOL     OW89587   6.508   0.503   2.761
29854SOL    HW189588   6.483   0.494   2.665
29854SOL    HW289589   6.556   0.421   2.792
29855SOL     OW89590   6.125   0.064   2.374
29855SOL    HW189591   6.044   0.065   2.432
29855SOL    HW289592   6.128   0.147   2.319
29856SOL     OW89593   7.020   1.188   1.903
29856SOL    HW189594   7.052   1.112   1.960
29856SOL    HW289595   6.928   1.215   1.933
29857SOL     OW89596   5.883   0.035   2.033
29857SOL    HW189597   5.932   0.119   2.012
29857SOL    HW289598   5.945  -0.030   2.078
29858SOL     OW89599   6.521   0.236   2.342
29858SOL    HW189600   6.473   0.277   2.264
29858SOL    HW289601   6.620   0.234   2.323
29859SOL     OW89602   6.662   0.683   3.326
29859SOL    HW189603   6.582   0.622   3.329
29859SOL    HW289604   6.743   0.630   3.302
29860SOL     OW89605   6.813   1.570   2.655
29860SOL    HW189606   6.834   1.644   2.590
29860SOL    HW289607   6.881   1.570   2.728
29861SOL     OW89608   6.045   1.152   2.603
29861SOL    HW189609   5.974   1.125   2.668
29861SOL    HW289610   6.019   1.124   2.510
29862SOL     OW89611   6.857   1.797   2.453
29862SOL    HW189612   6.901   1.861   2.389
29862SOL    HW289613   6.807   1.849   2.523
29863SOL     OW89614   6.618   0.549   1.878
29863SOL    HW189615   6.577   0.631   1.839
29863SOL    HW289616   6.682   0.575   1.951
29864SOL     OW89617   5.664   0.556   3.248
29864SOL    HW189618   5.756   0.555   3.207
29864SOL    HW289619   5.658   0.630   3.315
29865SOL     OW89620   6.147   0.222   3.009
29865SOL    HW189621   6.185   0.138   3.046
29865SOL    HW289622   6.059   0.241   3.053
29866SOL     OW89623   6.452   0.454   2.504
29866SOL    HW189624   6.420   0.526   2.442
29866SOL    HW289625   6.476   0.373   2.451
29867SOL     OW89626   6.603   0.039   2.615
29867SOL    HW189627   6.531   0.044   2.546
29867SOL    HW289628   6.579  -0.030   2.684
29868SOL     OW89629   7.015   1.173   2.729
29868SOL    HW189630   6.960   1.089   2.722
29868SOL    HW289631   7.041   1.202   2.637
29869SOL     OW89632   7.052   0.590   2.854
29869SOL    HW189633   7.022   0.495   2.861
29869SOL    HW289634   7.125   0.606   2.920
29870SOL     OW89635   7.443   0.833   2.239
29870SOL    HW189636   7.485   0.769   2.303
29870SOL    HW289637   7.405   0.782   2.161
29871SOL     OW89638   6.074   1.385   2.036
29871SOL    HW189639   5.987   1.370   2.083
29871SOL    HW289640   6.057   1.411   1.941
29872SOL     OW89641   7.250   1.280   2.519
29872SOL    HW189642   7.349   1.288   2.533
29872SOL    HW289643   7.205   1.364   2.550
29873SOL     OW89644   6.976   0.575   1.940
29873SOL    HW189645   6.922   0.554   2.021
29873SOL    HW289646   7.067   0.534   1.949
29874SOL     OW89647   6.113   0.256   2.190
29874SOL    HW189648   6.140   0.197   2.115
29874SOL    HW289649   6.113   0.351   2.159
29875SOL     OW89650   7.340   1.223   3.450
29875SOL    HW189651   7.431   1.184   3.437
29875SOL    HW289652   7.348   1.319   3.474
29876SOL     OW89653   6.650   1.347   3.202
29876SOL    HW189654   6.570   1.324   3.257
29876SOL    HW289655   6.733   1.321   3.251
29877SOL     OW89656   7.178   1.629   3.487
29877SOL    HW189657   7.205   1.663   3.397
29877SOL    HW289658   7.257   1.591   3.533
29878SOL     OW89659   6.697   1.195   2.962
29878SOL    HW189660   6.657   1.239   3.043
29878SOL    HW289661   6.656   1.232   2.879
29879SOL     OW89662   7.224   1.099   2.941
29879SOL    HW189663   7.229   1.180   3.000
29879SOL    HW289664   7.138   1.101   2.890
29880SOL     OW89665   6.501   0.089   3.264
29880SOL    HW189666   6.526   0.069   3.169
29880SOL    HW289667   6.573   0.145   3.306
29881SOL     OW89668   6.566   1.116   3.581
29881SOL    HW189669   6.467   1.122   3.591
29881SOL    HW289670   6.589   1.036   3.525
29882SOL     OW89671   6.291   1.050   2.230
29882SOL    HW189672   6.277   1.057   2.329
29882SOL    HW289673   6.375   0.999   2.212
29883SOL     OW89674   5.996   0.813   3.113
29883SOL    HW189675   6.082   0.825   3.163
29883SOL    HW289676   5.954   0.726   3.140
29884SOL     OW89677   6.860   0.386   3.124
29884SOL    HW189678   6.881   0.460   3.188
29884SOL    HW289679   6.771   0.403   3.081
29885SOL     OW89680   5.650   1.564   3.193
29885SOL    HW189681   5.604   1.646   3.159
29885SOL    HW289682   5.748   1.583   3.202
29886SOL     OW89683   5.953   1.100   2.363
29886SOL    HW189684   5.946   1.183   2.307
29886SOL    HW289685   5.957   1.020   2.303
29887SOL     OW89686   6.152   0.537   2.727
29887SOL    HW189687   6.164   0.603   2.653
29887SOL    HW289688   6.198   0.571   2.810
29888SOL     OW89689   6.838   1.348   2.250
29888SOL    HW189690   6.888   1.425   2.290
29888SOL    HW289691   6.743   1.350   2.282
29889SOL     OW89692   6.858   1.445   3.004
29889SOL    HW189693   6.905   1.458   3.091
29889SOL    HW289694   6.792   1.371   3.013
29890SOL     OW89695   7.168   0.639   2.334
29890SOL    HW189696   7.137   0.700   2.407
29890SOL    HW289697   7.218   0.691   2.265
29891SOL     OW89698   5.940   1.510   3.191
29891SOL    HW189699   5.919   1.466   3.104
29891SOL    HW289700   6.037   1.536   3.194
29892SOL     OW89701   5.988   0.751   3.460
29892SOL    HW189702   6.056   0.806   3.413
29892SOL    HW289703   6.028   0.663   3.487
29893SOL     OW89704   7.173   0.779   3.532
29893SOL    HW189705   7.081   0.817   3.527
29893SOL    HW289706   7.233   0.826   3.467
29894SOL     OW89707   6.599   0.105   3.632
29894SOL    HW189708   6.605   0.190   3.580
29894SOL    HW289709   6.631   0.029   3.575
29895SOL     OW89710   6.090   0.050   3.602
29895SOL    HW189711   6.048  -0.007   3.532
29895SOL    HW289712   6.024   0.119   3.634
29896SOL     OW89713   6.159   0.870   2.891
29896SOL    HW189714   6.203   0.959   2.882
29896SOL    HW289715   6.096   0.870   2.968
29897SOL     OW89716   6.946   0.862   2.907
29897SOL    HW189717   6.871   0.862   2.841
29897SOL    HW289718   6.983   0.770   2.916
29898SOL     OW89719   6.795   0.525   2.137
29898SOL    HW189720   6.808   0.441   2.191
29898SOL    HW289721   6.766   0.599   2.197
29899SOL     OW89722   5.893   0.213   3.093
29899SOL    HW189723   5.870   0.250   3.183
29899SOL    HW289724   5.863   0.118   3.087
29900SOL     OW89725   5.623   1.310   3.144
29900SOL    HW189726   5.676   1.261   3.212
29900SOL    HW289727   5.645   1.408   3.149
29901SOL     OW89728   6.318   0.634   2.926
29901SOL    HW189729   6.377   0.608   2.850
29901SOL    HW289730   6.290   0.730   2.915
29902SOL     OW89731   7.314   0.935   3.716
29902SOL    HW189732   7.268   0.928   3.627
29902SOL    HW289733   7.252   0.979   3.782
29903SOL     OW89734   5.893   0.063   2.480
29903SOL    HW189735   5.882   0.157   2.513
29903SOL    HW289736   5.888   0.000   2.557
29904SOL     OW89737   7.208   0.367   2.236
29904SOL    HW189738   7.210   0.291   2.300
29904SOL    HW289739   7.160   0.444   2.276
29905SOL     OW89740   6.609   0.766   2.828
29905SOL    HW189741   6.624   0.787   2.924
29905SOL    HW289742   6.579   0.671   2.819
29906SOL     OW89743   6.566   1.573   3.562
29906SOL    HW189744   6.546   1.617   3.474
29906SOL    HW289745   6.605   1.482   3.546
29907SOL     OW89746   7.445   1.518   3.467
29907SOL    HW189747   7.459   1.545   3.372
29907SOL    HW289748   7.528   1.540   3.520
29908SOL     OW89749   5.936   0.898   3.666
29908SOL    HW189750   6.012   0.942   3.714
29908SOL    HW289751   5.971   0.851   3.584
29909SOL     OW89752   7.126   0.274   1.987
29909SOL    HW189753   7.065   0.199   2.010
29909SOL    HW289754   7.148   0.326   2.070
29910SOL     OW89755   6.889   0.838   1.904
29910SOL    HW189756   6.923   0.745   1.919
29910SOL    HW289757   6.907   0.865   1.809
29911SOL     OW89758   6.654   1.333   2.711
29911SOL    HW189759   6.661   1.249   2.656
29911SOL    HW289760   6.716   1.402   2.675
29912SOL     OW89761   5.905   0.810   2.811
29912SOL    HW189762   5.998   0.846   2.816
29912SOL    HW289763   5.899   0.725   2.863
29913SOL     OW89764   5.925   0.509   2.868
29913SOL    HW189765   5.873   0.426   2.851
29913SOL    HW289766   6.002   0.514   2.804
29914SOL     OW89767   6.724   0.380   3.540
29914SOL    HW189768   6.679   0.443   3.604
29914SOL    HW289769   6.817   0.411   3.523
29915SOL     OW89770   6.746   0.207   3.339
29915SOL    HW189771   6.746   0.271   3.416
29915SOL    HW289772   6.774   0.255   3.256
29916SOL     OW89773   5.594   1.326   2.062
29916SOL    HW189774   5.501   1.347   2.031
29916SOL    HW289775   5.604   1.227   2.075
29917SOL     OW89776   5.674   1.801   2.789
29917SOL    HW189777   5.632   1.715   2.762
29917SOL    HW289778   5.768   1.804   2.755
29918SOL     OW89779   6.090   1.568   2.772
29918SOL    HW189780   6.156   1.642   2.781
29918SOL    HW289781   6.134   1.489   2.730
29919SOL     OW89782   6.588   0.796   3.100
29919SOL    HW189783   6.629   0.764   3.186
29919SOL    HW289784   6.492   0.769   3.097
29920SOL     OW89785   5.626   0.544   2.976
29920SOL    HW189786   5.711   0.511   2.935
29920SOL    HW289787   5.639   0.559   3.074
29921SOL     OW89788   5.775   0.520   3.584
29921SOL    HW189789   5.834   0.480   3.514
29921SOL    HW289790   5.717   0.591   3.543
29922SOL     OW89791   6.955   0.950   3.522
29922SOL    HW189792   6.994   1.039   3.542
29922SOL    HW289793   6.965   0.930   3.425
29923SOL     OW89794   6.401   0.572   2.187
29923SOL    HW189795   6.408   0.483   2.141
29923SOL    HW289796   6.307   0.606   2.179
29924SOL     OW89797   7.243   0.604   3.068
29924SOL    HW189798   7.205   0.535   3.130
29924SOL    HW289799   7.325   0.568   3.024
29925SOL     OW89800   5.838   1.564   3.606
29925SOL    HW189801   5.808   1.621   3.682
29925SOL    HW289802   5.831   1.467   3.632
29926SOL     OW89803   6.257   0.464   3.131
29926SOL    HW189804   6.223   0.375   3.101
29926SOL    HW289805   6.283   0.518   3.051
29927SOL     OW89806   6.516   1.678   3.327
29927SOL    HW189807   6.492   1.660   3.232
29927SOL    HW289808   6.546   1.772   3.337
29928SOL     OW89809   6.059   0.500   2.053
29928SOL    HW189810   6.120   0.580   2.057
29928SOL    HW289811   5.964   0.531   2.060
29929SOL     OW89812   5.745   1.137   3.328
29929SOL    HW189813   5.767   1.076   3.404
29929SOL    HW289814   5.755   1.088   3.242
29930SOL     OW89815   6.933   1.059   3.096
29930SOL    HW189816   6.957   0.996   3.022
29930SOL    HW289817   6.843   1.099   3.078
29931SOL     OW89818   6.888   0.855   2.171
29931SOL    HW189819   6.802   0.824   2.213
29931SOL    HW289820   6.884   0.841   2.072
29932SOL     OW89821   7.345   1.747   3.016
29932SOL    HW189822   7.406   1.777   2.943
29932SOL    HW289823   7.307   1.658   2.994
29933SOL     OW89824   6.838   1.731   2.990
29933SOL    HW189825   6.922   1.736   2.936
29933SOL    HW289826   6.815   1.635   3.008
29934SOL     OW89827   5.669   1.258   2.884
29934SOL    HW189828   5.664   1.257   2.984
29934SOL    HW289829   5.586   1.217   2.846
29935SOL     OW89830   6.274   1.662   3.578
29935SOL    HW189831   6.218   1.743   3.587
29935SOL    HW289832   6.326   1.666   3.492
29936SOL     OW89833   7.312   0.135   2.385
29936SOL    HW189834   7.385   0.118   2.318
29936SOL    HW289835   7.281   0.048   2.423
29937SOL     OW89836   6.974   1.573   2.339
29937SOL    HW189837   7.041   1.585   2.265
29937SOL    HW289838   6.934   1.662   2.362
29938SOL     OW89839   5.716   1.794   3.713
29938SOL    HW189840   5.675   1.720   3.766
29938SOL    HW289841   5.780   1.845   3.771
29939SOL     OW89842   6.866   0.927   2.534
29939SOL    HW189843   6.926   0.846   2.536
29939SOL    HW289844   6.906   0.996   2.474
29940SOL     OW89845   6.416   1.273   3.284
29940SOL    HW189846   6.411   1.306   3.379
29940SOL    HW289847   6.330   1.292   3.238
29941SOL     OW89848   6.258   1.616   2.016
29941SOL    HW189849   6.267   1.626   1.917
29941SOL    HW289850   6.218   1.527   2.037
29942SOL     OW89851   7.236   1.720   3.256
29942SOL    HW189852   7.289   1.730   3.172
29942SOL    HW289853   7.209   1.810   3.290
29943SOL     OW89854   7.427   0.175   2.825
29943SOL    HW189855   7.466   0.090   2.789
29943SOL    HW289856   7.329   0.177   2.806
29944SOL     OW89857   5.849   0.326   2.582
29944SOL    HW189858   5.770   0.377   2.548
29944SOL    HW289859   5.840   0.311   2.680
29945SOL     OW89860   6.780   1.612   1.893
29945SOL    HW189861   6.786   1.519   1.930
29945SOL    HW289862   6.721   1.612   1.813
29946SOL     OW89863   6.408   1.002   3.234
29946SOL    HW189864   6.448   1.001   3.142
29946SOL    HW289865   6.418   1.094   3.274
29947SOL     OW89866   6.502   0.910   2.153
29947SOL    HW189867   6.565   0.948   2.085
29947SOL    HW289868   6.542   0.827   2.192
29948SOL     OW89869   7.090   1.607   1.906
29948SOL    HW189870   6.998   1.644   1.913
29948SOL    HW289871   7.128   1.627   1.816
29949SOL     OW89872   5.958   1.288   3.352
29949SOL    HW189873   5.945   1.381   3.318
29949SOL    HW289874   5.874   1.236   3.339
29950SOL     OW89875   7.200   1.292   3.151
29950SOL    HW189876   7.260   1.295   3.231
29950SOL    HW289877   7.125   1.356   3.164
29951SOL     OW89878   6.625   1.098   2.558
29951SOL    HW189879   6.555   1.051   2.612
29951SOL    HW289880   6.684   1.030   2.515
29952SOL     OW89881   6.600   0.236   2.833
29952SOL    HW189882   6.592   0.200   2.740
29952SOL    HW289883   6.598   0.160   2.898
29953SOL     OW89884   6.176   1.487   2.353
29953SOL    HW189885   6.218   1.429   2.283
29953SOL    HW289886   6.132   1.566   2.309
29954SOL     OW89887   7.295   0.385   3.243
29954SOL    HW189888   7.368   0.454   3.247
29954SOL    HW289889   7.323   0.310   3.184
29955SOL     OW89890   5.841   1.348   2.152
29955SOL    HW189891   5.745   1.349   2.125
29955SOL    HW289892   5.853   1.401   2.236
29956SOL     OW89893   5.691   1.013   3.588
29956SOL    HW189894   5.614   0.980   3.642
29956SOL    HW289895   5.776   0.983   3.630
29957SOL     OW89896   6.258   0.203   3.351
29957SOL    HW189897   6.348   0.187   3.311
29957SOL    HW289898   6.266   0.208   3.450
29958SOL     OW89899   5.661   0.345   1.895
29958SOL    HW189900   5.569   0.317   1.866
29958SOL    HW289901   5.692   0.422   1.839
29959SOL     OW89902   7.026   0.856   3.260
29959SOL    HW189903   6.969   0.908   3.197
29959SOL    HW289904   7.122   0.868   3.236
29960SOL     OW89905   5.658   0.166   2.180
29960SOL    HW189906   5.641   0.249   2.126
29960SOL    HW289907   5.748   0.129   2.158
29961SOL     OW89908   6.769   1.335   1.981
29961SOL    HW189909   6.670   1.324   1.983
29961SOL    HW289910   6.803   1.350   2.074
29962SOL     OW89911   6.199   0.842   3.293
29962SOL    HW189912   6.255   0.923   3.276
29962SOL    HW289913   6.258   0.762   3.296
29963SOL     OW89914   7.079   1.767   2.821
29963SOL    HW189915   7.112   1.831   2.752
29963SOL    HW289916   7.145   1.761   2.896
29964SOL     OW89917   6.302   0.565   3.570
29964SOL    HW189918   6.321   0.630   3.644
29964SOL    HW289919   6.362   0.485   3.579
29965SOL     OW89920   7.036   1.220   3.495
29965SOL    HW189921   7.027   1.210   3.594
29965SOL    HW289922   7.132   1.213   3.469
29966SOL     OW89923   5.976   1.741   3.422
29966SOL    HW189924   5.885   1.782   3.420
29966SOL    HW289925   5.969   1.647   3.454
29967SOL     OW89926   7.260   0.883   3.116
29967SOL    HW189927   7.233   0.794   3.079
29967SOL    HW289928   7.261   0.951   3.043
29968SOL     OW89929   6.811   0.325   2.311
29968SOL    HW189930   6.876   0.251   2.300
29968SOL    HW289931   6.831   0.375   2.395
29969SOL     OW89932   6.180   0.745   2.514
29969SOL    HW189933   6.230   0.830   2.495
29969SOL    HW289934   6.092   0.747   2.466
29970SOL     OW89935   7.363   0.342   3.504
29970SOL    HW189936   7.346   0.373   3.410
29970SOL    HW289937   7.279   0.305   3.542
29971SOL     OW89938   7.316   0.934   3.379
29971SOL    HW189939   7.354   1.025   3.394
29971SOL    HW289940   7.308   0.917   3.280
29972SOL     OW89941   6.445   1.374   1.878
29972SOL    HW189942   6.399   1.389   1.966
29972SOL    HW289943   6.489   1.459   1.848
29973SOL     OW89944   6.247   1.790   2.815
29973SOL    HW189945   6.201   1.878   2.802
29973SOL    HW289946   6.346   1.802   2.808
29974SOL     OW89947   6.445   0.956   2.723
29974SOL    HW189948   6.499   0.887   2.771
29974SOL    HW289949   6.413   1.025   2.789
29975SOL     OW89950   6.669   0.984   1.949
29975SOL    HW189951   6.646   1.037   1.867
29975SOL    HW289952   6.750   0.928   1.930
29976SOL     OW89953   7.447   1.569   2.713
29976SOL    HW189954   7.376   1.557   2.643
29976SOL    HW289955   7.448   1.490   2.773
29977SOL     OW89956   5.807   1.314   3.706
29977SOL    HW189957   5.742   1.241   3.685
29977SOL    HW289958   5.811   1.328   3.804
29978SOL     OW89959   5.665   1.240   2.515
29978SOL    HW189960   5.664   1.193   2.603
29978SOL    HW289961   5.747   1.212   2.464
29979SOL     OW89962   6.258   1.391   3.486
29979SOL    HW189963   6.180   1.341   3.524
29979SOL    HW289964   6.255   1.486   3.517
29980SOL     OW89965   7.410   0.192   3.089
29980SOL    HW189966   7.406   0.102   3.133
29980SOL    HW289967   7.413   0.181   2.990
29981SOL     OW89968   6.014   0.424   2.382
29981SOL    HW189969   6.044   0.352   2.320
29981SOL    HW289970   5.975   0.384   2.465
29982SOL     OW89971   7.291   1.487   2.966
29982SOL    HW189972   7.198   1.462   2.939
29982SOL    HW289973   7.317   1.437   3.048
29983SOL     OW89974   5.903   0.547   3.142
29983SOL    HW189975   5.941   0.488   3.214
29983SOL    HW289976   5.943   0.521   3.054
29984SOL     OW89977   6.398   1.586   2.549
29984SOL    HW189978   6.430   1.596   2.455
29984SOL    HW289979   6.319   1.524   2.551
29985SOL     OW89980   7.010   0.214   2.974
29985SOL    HW189981   7.062   0.149   3.029
29985SOL    HW289982   6.961   0.277   3.035
29986SOL     OW89983   6.587   0.034   3.016
29986SOL    HW189984   6.524  -0.038   2.985
29986SOL    HW289985   6.680  -0.002   3.016
29987SOL     OW89986   6.356   1.330   2.163
29987SOL    HW189987   6.310   1.243   2.180
29987SOL    HW289988   6.447   1.327   2.204
29988SOL     OW89989   6.204   1.567   3.146
29988SOL    HW189990   6.199   1.649   3.203
29988SOL    HW289991   6.293   1.564   3.101
29989SOL     OW89992   6.938   0.052   2.030
29989SOL    HW189993   6.973   0.011   1.946
29989SOL    HW289994   6.848   0.014   2.050
29990SOL     OW89995   6.886   0.453   2.553
29990SOL    HW189996   6.827   0.533   2.557
29990SOL    HW289997   6.901   0.418   2.646
29991SOL     OW89998   7.179   0.221   2.744
29991SOL    HW189999   7.095   0.220   2.798
29991SOL    HW290000   7.181   0.304   2.688
29992SOL     OW90001   5.625   1.077   2.162
29992SOL    HW190002   5.724   1.066   2.153
29992SOL    HW290003   5.585   0.991   2.194
29993SOL     OW90004   6.461   1.646   2.199
29993SOL    HW190005   6.384   1.611   2.145
29993SOL    HW290006   6.429   1.717   2.261
29994SOL     OW90007   5.816   0.628   3.837
29994SOL    HW190008   5.723   0.626   3.874
29994SOL    HW290009   5.817   0.589   3.745
29995SOL     OW90010   5.811   0.275   4.720
29995SOL    HW190011   5.846   0.258   4.812
29995SOL    HW290012   5.723   0.230   4.708
29996SOL     OW90013   5.605   0.368   4.371
29996SOL    HW190014   5.523   0.411   4.410
29996SOL    HW290015   5.577   0.295   4.308
29997SOL     OW90016   6.155   1.275   4.889
29997SOL    HW190017   6.062   1.268   4.852
29997SOL    HW290018   6.166   1.364   4.933
29998SOL     OW90019   7.141   1.511   4.427
29998SOL    HW190020   7.084   1.495   4.508
29998SOL    HW290021   7.082   1.521   4.347
29999SOL     OW90022   6.721   0.703   4.441
29999SOL    HW190023   6.778   0.781   4.416
29999SOL    HW290024   6.661   0.729   4.517
30000SOL     OW90025   7.341   0.607   3.955
30000SOL    HW190026   7.329   0.594   3.856
30000SOL    HW290027   7.311   0.526   4.004
30001SOL     OW90028   6.354   1.144   4.747
30001SOL    HW190029   6.276   1.161   4.807
30001SOL    HW290030   6.388   1.231   4.711
30002SOL     OW90031   6.436   0.798   5.547
30002SOL    HW190032   6.432   0.874   5.612
30002SOL    HW290033   6.458   0.834   5.456
30003SOL     OW90034   6.271   1.012   4.389
30003SOL    HW190035   6.340   0.996   4.459
30003SOL    HW290036   6.198   1.069   4.427
30004SOL     OW90037   6.272   1.161   5.527
30004SOL    HW190038   6.332   1.240   5.541
30004SOL    HW290039   6.186   1.192   5.486
30005SOL     OW90040   5.921   1.435   4.785
30005SOL    HW190041   5.843   1.404   4.732
30005SOL    HW290042   5.979   1.493   4.728
30006SOL     OW90043   7.046   1.505   5.063
30006SOL    HW190044   7.070   1.599   5.089
30006SOL    HW290045   7.030   1.451   5.145
30007SOL     OW90046   6.024   0.392   5.223
30007SOL    HW190047   6.106   0.336   5.232
30007SOL    HW290048   5.943   0.334   5.227
30008SOL     OW90049   7.189   0.447   4.461
30008SOL    HW190050   7.115   0.493   4.411
30008SOL    HW290051   7.240   0.515   4.514
30009SOL     OW90052   5.817   1.713   4.207
30009SOL    HW190053   5.851   1.790   4.261
30009SOL    HW290054   5.861   1.713   4.117
30010SOL     OW90055   6.713   1.341   5.414
30010SOL    HW190056   6.760   1.341   5.502
30010SOL    HW290057   6.665   1.254   5.403
30011SOL     OW90058   5.816   1.434   4.262
30011SOL    HW190059   5.790   1.530   4.262
30011SOL    HW290060   5.745   1.380   4.307
30012SOL     OW90061   5.826   1.091   4.610
30012SOL    HW190062   5.840   1.007   4.662
30012SOL    HW290063   5.771   1.155   4.665
30013SOL     OW90064   6.206   1.786   5.163
30013SOL    HW190065   6.114   1.769   5.198
30013SOL    HW290066   6.234   1.878   5.189
30014SOL     OW90067   6.192   0.964   3.847
30014SOL    HW190068   6.199   1.048   3.793
30014SOL    HW290069   6.238   0.977   3.935
30015SOL     OW90070   7.180   0.114   5.204
30015SOL    HW190071   7.162   0.181   5.132
30015SOL    HW290072   7.177   0.160   5.293
30016SOL     OW90073   5.708   0.643   4.287
30016SOL    HW190074   5.663   0.555   4.304
30016SOL    HW290075   5.707   0.697   4.371
30017SOL     OW90076   7.428   1.767   4.083
30017SOL    HW190077   7.482   1.738   4.163
30017SOL    HW290078   7.458   1.857   4.054
30018SOL     OW90079   5.613   1.596   3.841
30018SOL    HW190080   5.594   1.500   3.862
30018SOL    HW290081   5.580   1.654   3.916
30019SOL     OW90082   7.275   0.922   4.336
30019SOL    HW190083   7.370   0.893   4.344
30019SOL    HW290084   7.267   0.987   4.261
30020SOL     OW90085   7.227   1.108   4.156
30020SOL    HW190086   7.313   1.110   4.104
30020SOL    HW290087   7.241   1.155   4.244
30021SOL     OW90088   5.699   0.737   5.321
30021SOL    HW190089   5.787   0.724   5.366
30021SOL    HW290090   5.686   0.834   5.299
30022SOL     OW90091   6.879   1.228   5.147
30022SOL    HW190092   6.916   1.155   5.089
30022SOL    HW290093   6.931   1.233   5.232
30023SOL     OW90094   6.395   0.004   4.226
30023SOL    HW190095   6.435   0.095   4.217
30023SOL    HW290096   6.295   0.012   4.232
30024SOL     OW90097   5.783   0.976   4.988
30024SOL    HW190098   5.872   0.931   4.974
30024SOL    HW290099   5.710   0.911   4.969
30025SOL     OW90100   7.111   0.999   3.914
30025SOL    HW190101   7.048   0.923   3.927
30025SOL    HW290102   7.159   1.017   4.000
30026SOL     OW90103   6.773   1.792   5.340
30026SOL    HW190104   6.797   1.852   5.264
30026SOL    HW290105   6.780   1.697   5.310
30027SOL     OW90106   5.903   0.251   5.525
30027SOL    HW190107   5.974   0.322   5.531
30027SOL    HW290108   5.815   0.290   5.553
30028SOL     OW90109   7.052   1.417   4.677
30028SOL    HW190110   6.993   1.423   4.757
30028SOL    HW290111   7.037   1.329   4.631
30029SOL     OW90112   7.253   1.714   4.296
30029SOL    HW190113   7.212   1.691   4.208
30029SOL    HW290114   7.235   1.640   4.361
30030SOL     OW90115   6.184   0.729   3.994
30030SOL    HW190116   6.208   0.798   3.926
30030SOL    HW290117   6.106   0.762   4.048
30031SOL     OW90118   6.867   0.345   4.668
30031SOL    HW190119   6.781   0.295   4.655
30031SOL    HW290120   6.929   0.291   4.724
30032SOL     OW90121   7.162   1.662   4.031
30032SOL    HW190122   7.251   1.708   4.034
30032SOL    HW290123   7.141   1.638   3.936
30033SOL     OW90124   6.393   0.605   5.189
30033SOL    HW190125   6.346   0.602   5.278
30033SOL    HW290126   6.342   0.550   5.123
30034SOL     OW90127   6.980   0.469   5.398
30034SOL    HW190128   6.960   0.512   5.486
30034SOL    HW290129   7.058   0.407   5.407
30035SOL     OW90130   6.559   0.890   5.296
30035SOL    HW190131   6.605   0.806   5.267
30035SOL    HW290132   6.503   0.924   5.221
30036SOL     OW90133   6.577   0.410   4.966
30036SOL    HW190134   6.500   0.444   5.020
30036SOL    HW290135   6.543   0.359   4.887
30037SOL     OW90136   6.627   0.701   4.153
30037SOL    HW190137   6.653   0.697   4.249
30037SOL    HW290138   6.542   0.650   4.139
30038SOL     OW90139   5.662   0.811   4.513
30038SOL    HW190140   5.761   0.799   4.522
30038SOL    HW290141   5.638   0.906   4.534
30039SOL     OW90142   5.716   1.821   5.295
30039SOL    HW190143   5.706   1.806   5.394
30039SOL    HW290144   5.630   1.857   5.259
30040SOL     OW90145   6.451   0.348   3.919
30040SOL    HW190146   6.510   0.411   3.870
30040SOL    HW290147   6.470   0.254   3.890
30041SOL     OW90148   7.305   0.585   5.555
30041SOL    HW190149   7.279   0.674   5.519
30041SOL    HW290150   7.303   0.517   5.482
30042SOL     OW90151   6.948   1.144   4.269
30042SOL    HW190152   7.031   1.115   4.221
30042SOL    HW290153   6.899   1.211   4.213
30043SOL     OW90154   6.136   0.196   4.609
30043SOL    HW190155   6.131   0.191   4.709
30043SOL    HW290156   6.138   0.292   4.580
30044SOL     OW90157   6.594   1.456   4.201
30044SOL    HW190158   6.548   1.528   4.149
30044SOL    HW290159   6.590   1.476   4.299
30045SOL     OW90160   5.937   1.801   4.577
30045SOL    HW190161   5.987   1.715   4.583
30045SOL    HW290162   6.002   1.878   4.574
30046SOL     OW90163   7.381   1.066   4.597
30046SOL    HW190164   7.319   1.051   4.521
30046SOL    HW290165   7.329   1.077   4.682
30047SOL     OW90166   6.813   1.550   5.230
30047SOL    HW190167   6.819   1.473   5.294
30047SOL    HW290168   6.761   1.524   5.150
30048SOL     OW90169   5.907   0.943   3.966
30048SOL    HW190170   5.989   0.982   3.924
30048SOL    HW290171   5.880   0.861   3.917
30049SOL     OW90172   7.044   0.735   4.452
30049SOL    HW190173   7.039   0.670   4.527
30049SOL    HW290174   7.124   0.794   4.465
30050SOL     OW90175   6.047   1.266   5.451
30050SOL    HW190176   5.997   1.267   5.365
30050SOL    HW290177   5.984   1.248   5.527
30051SOL     OW90178   6.697   1.776   3.961
30051SOL    HW190179   6.637   1.714   4.011
30051SOL    HW290180   6.728   1.732   3.876
30052SOL     OW90181   5.788   0.285   5.222
30052SOL    HW190182   5.708   0.345   5.209
30052SOL    HW290183   5.778   0.236   5.308
30053SOL     OW90184   7.218   1.377   3.805
30053SOL    HW190185   7.186   1.471   3.795
30053SOL    HW290186   7.142   1.314   3.793
30054SOL     OW90187   6.050   1.743   4.047
30054SOL    HW190188   6.083   1.782   4.133
30054SOL    HW290189   6.126   1.736   3.982
30055SOL     OW90190   6.986   0.107   4.150
30055SOL    HW190191   6.962   0.070   4.060
30055SOL    HW290192   7.085   0.123   4.154
30056SOL     OW90193   5.835   1.785   4.965
30056SOL    HW190194   5.892   1.720   5.015
30056SOL    HW290195   5.819   1.752   4.872
30057SOL     OW90196   6.526   1.698   4.628
30057SOL    HW190197   6.606   1.641   4.649
30057SOL    HW290198   6.477   1.658   4.551
30058SOL     OW90199   5.968   0.700   4.204
30058SOL    HW190200   6.013   0.610   4.201
30058SOL    HW290201   5.874   0.689   4.237
30059SOL     OW90202   7.133   0.222   5.453
30059SOL    HW190203   7.128   0.259   5.545
30059SOL    HW290204   7.061   0.153   5.441
30060SOL     OW90205   6.200   0.122   3.841
30060SOL    HW190206   6.298   0.100   3.848
30060SOL    HW290207   6.169   0.105   3.748
30061SOL     OW90208   6.367   0.264   5.473
30061SOL    HW190209   6.434   0.203   5.516
30061SOL    HW290210   6.294   0.283   5.538
30062SOL     OW90211   6.474   1.514   4.919
30062SOL    HW190212   6.451   1.489   4.825
30062SOL    HW290213   6.535   1.445   4.958
30063SOL     OW90214   6.937   0.590   5.157
30063SOL    HW190215   6.965   0.547   5.242
30063SOL    HW290216   6.962   0.686   5.158
30064SOL     OW90217   6.389   1.402   4.648
30064SOL    HW190218   6.479   1.416   4.606
30064SOL    HW290219   6.318   1.404   4.577
30065SOL     OW90220   6.508   0.503   4.623
30065SOL    HW190221   6.483   0.494   4.527
30065SOL    HW290222   6.556   0.421   4.654
30066SOL     OW90223   6.125   0.064   4.236
30066SOL    HW190224   6.044   0.065   4.294
30066SOL    HW290225   6.128   0.147   4.181
30067SOL     OW90226   7.020   1.188   3.765
30067SOL    HW190227   7.052   1.112   3.822
30067SOL    HW290228   6.928   1.215   3.795
30068SOL     OW90229   5.883   0.035   3.895
30068SOL    HW190230   5.932   0.119   3.874
30068SOL    HW290231   5.945  -0.030   3.940
30069SOL     OW90232   6.521   0.236   4.204
30069SOL    HW190233   6.473   0.277   4.126
30069SOL    HW290234   6.620   0.234   4.185
30070SOL     OW90235   6.662   0.683   5.188
30070SOL    HW190236   6.582   0.622   5.191
30070SOL    HW290237   6.743   0.630   5.164
30071SOL     OW90238   6.813   1.570   4.517
30071SOL    HW190239   6.834   1.644   4.452
30071SOL    HW290240   6.881   1.570   4.590
30072SOL     OW90241   6.045   1.152   4.465
30072SOL    HW190242   5.974   1.125   4.530
30072SOL    HW290243   6.019   1.124   4.372
30073SOL     OW90244   6.857   1.797   4.315
30073SOL    HW190245   6.901   1.861   4.251
30073SOL    HW290246   6.807   1.849   4.385
30074SOL     OW90247   6.618   0.549   3.740
30074SOL    HW190248   6.577   0.631   3.701
30074SOL    HW290249   6.682   0.575   3.813
30075SOL     OW90250   5.664   0.556   5.110
30075SOL    HW190251   5.756   0.555   5.069
30075SOL    HW290252   5.658   0.630   5.177
30076SOL     OW90253   6.147   0.222   4.871
30076SOL    HW190254   6.185   0.138   4.908
30076SOL    HW290255   6.059   0.241   4.915
30077SOL     OW90256   6.452   0.454   4.366
30077SOL    HW190257   6.420   0.526   4.304
30077SOL    HW290258   6.476   0.373   4.313
30078SOL     OW90259   6.603   0.039   4.477
30078SOL    HW190260   6.531   0.044   4.408
30078SOL    HW290261   6.579  -0.030   4.546
30079SOL     OW90262   7.015   1.173   4.591
30079SOL    HW190263   6.960   1.089   4.584
30079SOL    HW290264   7.041   1.202   4.499
30080SOL     OW90265   7.052   0.590   4.716
30080SOL    HW190266   7.022   0.495   4.723
30080SOL    HW290267   7.125   0.606   4.782
30081SOL     OW90268   7.443   0.833   4.101
30081SOL    HW190269   7.485   0.769   4.165
30081SOL    HW290270   7.405   0.782   4.023
30082SOL     OW90271   6.074   1.385   3.898
30082SOL    HW190272   5.987   1.370   3.945
30082SOL    HW290273   6.057   1.411   3.803
30083SOL     OW90274   7.250   1.280   4.381
30083SOL    HW190275   7.349   1.288   4.395
30083SOL    HW290276   7.205   1.364   4.412
30084SOL     OW90277   6.976   0.575   3.802
30084SOL    HW190278   6.922   0.554   3.883
30084SOL    HW290279   7.067   0.534   3.811
30085SOL     OW90280   6.113   0.256   4.052
30085SOL    HW190281   6.140   0.197   3.977
30085SOL    HW290282   6.113   0.351   4.021
30086SOL     OW90283   7.340   1.223   5.312
30086SOL    HW190284   7.431   1.184   5.299
30086SOL    HW290285   7.348   1.319   5.336
30087SOL     OW90286   6.650   1.347   5.064
30087SOL    HW190287   6.570   1.324   5.119
30087SOL    HW290288   6.733   1.321   5.113
30088SOL     OW90289   7.178   1.629   5.349
30088SOL    HW190290   7.205   1.663   5.259
30088SOL    HW290291   7.257   1.591   5.395
30089SOL     OW90292   6.697   1.195   4.824
30089SOL    HW190293   6.657   1.239   4.905
30089SOL    HW290294   6.656   1.232   4.741
30090SOL     OW90295   7.224   1.099   4.803
30090SOL    HW190296   7.229   1.180   4.862
30090SOL    HW290297   7.138   1.101   4.752
30091SOL     OW90298   6.501   0.089   5.126
30091SOL    HW190299   6.526   0.069   5.031
30091SOL    HW290300   6.573   0.145   5.168
30092SOL     OW90301   6.566   1.116   5.443
30092SOL    HW190302   6.467   1.122   5.453
30092SOL    HW290303   6.589   1.036   5.387
30093SOL     OW90304   6.291   1.050   4.092
30093SOL    HW190305   6.277   1.057   4.191
30093SOL    HW290306   6.375   0.999   4.074
30094SOL     OW90307   5.996   0.813   4.975
30094SOL    HW190308   6.082   0.825   5.025
30094SOL    HW290309   5.954   0.726   5.002
30095SOL     OW90310   6.860   0.386   4.986
30095SOL    HW190311   6.881   0.460   5.050
30095SOL    HW290312   6.771   0.403   4.943
30096SOL     OW90313   5.650   1.564   5.055
30096SOL    HW190314   5.604   1.646   5.021
30096SOL    HW290315   5.748   1.583   5.064
30097SOL     OW90316   5.953   1.100   4.225
30097SOL    HW190317   5.946   1.183   4.169
30097SOL    HW290318   5.957   1.020   4.165
30098SOL     OW90319   6.152   0.537   4.589
30098SOL    HW190320   6.164   0.603   4.515
30098SOL    HW290321   6.198   0.571   4.672
30099SOL     OW90322   6.838   1.348   4.112
30099SOL    HW190323   6.888   1.425   4.152
30099SOL    HW290324   6.743   1.350   4.144
30100SOL     OW90325   6.858   1.445   4.866
30100SOL    HW190326   6.905   1.458   4.953
30100SOL    HW290327   6.792   1.371   4.875
30101SOL     OW90328   7.168   0.639   4.196
30101SOL    HW190329   7.137   0.700   4.269
30101SOL    HW290330   7.218   0.691   4.127
30102SOL     OW90331   5.940   1.510   5.053
30102SOL    HW190332   5.919   1.466   4.966
30102SOL    HW290333   6.037   1.536   5.056
30103SOL     OW90334   5.988   0.751   5.322
30103SOL    HW190335   6.056   0.806   5.275
30103SOL    HW290336   6.028   0.663   5.349
30104SOL     OW90337   7.173   0.779   5.394
30104SOL    HW190338   7.081   0.817   5.389
30104SOL    HW290339   7.233   0.826   5.329
30105SOL     OW90340   6.599   0.105   5.494
30105SOL    HW190341   6.605   0.190   5.442
30105SOL    HW290342   6.631   0.029   5.437
30106SOL     OW90343   6.090   0.050   5.464
30106SOL    HW190344   6.048  -0.007   5.394
30106SOL    HW290345   6.024   0.119   5.496
30107SOL     OW90346   6.159   0.870   4.753
30107SOL    HW190347   6.203   0.959   4.744
30107SOL    HW290348   6.096   0.870   4.830
30108SOL     OW90349   6.946   0.862   4.769
30108SOL    HW190350   6.871   0.862   4.703
30108SOL    HW290351   6.983   0.770   4.778
30109SOL     OW90352   6.795   0.525   3.999
30109SOL    HW190353   6.808   0.441   4.053
30109SOL    HW290354   6.766   0.599   4.059
30110SOL     OW90355   5.893   0.213   4.955
30110SOL    HW190356   5.870   0.250   5.045
30110SOL    HW290357   5.863   0.118   4.949
30111SOL     OW90358   5.623   1.310   5.006
30111SOL    HW190359   5.676   1.261   5.074
30111SOL    HW290360   5.645   1.408   5.011
30112SOL     OW90361   6.318   0.634   4.788
30112SOL    HW190362   6.377   0.608   4.712
30112SOL    HW290363   6.290   0.730   4.777
30113SOL     OW90364   7.314   0.935   5.578
30113SOL    HW190365   7.268   0.928   5.489
30113SOL    HW290366   7.252   0.979   5.644
30114SOL     OW90367   5.893   0.063   4.342
30114SOL    HW190368   5.882   0.157   4.375
30114SOL    HW290369   5.888   0.000   4.419
30115SOL     OW90370   7.208   0.367   4.098
30115SOL    HW190371   7.210   0.291   4.162
30115SOL    HW290372   7.160   0.444   4.138
30116SOL     OW90373   6.609   0.766   4.690
30116SOL    HW190374   6.624   0.787   4.786
30116SOL    HW290375   6.579   0.671   4.681
30117SOL     OW90376   6.566   1.573   5.424
30117SOL    HW190377   6.546   1.617   5.336
30117SOL    HW290378   6.605   1.482   5.408
30118SOL     OW90379   7.445   1.518   5.329
30118SOL    HW190380   7.459   1.545   5.234
30118SOL    HW290381   7.528   1.540   5.382
30119SOL     OW90382   5.936   0.898   5.528
30119SOL    HW190383   6.012   0.942   5.576
30119SOL    HW290384   5.971   0.851   5.446
30120SOL     OW90385   7.126   0.274   3.849
30120SOL    HW190386   7.065   0.199   3.872
30120SOL    HW290387   7.148   0.326   3.932
30121SOL     OW90388   6.889   0.838   3.766
30121SOL    HW190389   6.923   0.745   3.781
30121SOL    HW290390   6.907   0.865   3.671
30122SOL     OW90391   6.654   1.333   4.573
30122SOL    HW190392   6.661   1.249   4.518
30122SOL    HW290393   6.716   1.402   4.537
30123SOL     OW90394   5.905   0.810   4.673
30123SOL    HW190395   5.998   0.846   4.678
30123SOL    HW290396   5.899   0.725   4.725
30124SOL     OW90397   5.925   0.509   4.730
30124SOL    HW190398   5.873   0.426   4.713
30124SOL    HW290399   6.002   0.514   4.666
30125SOL     OW90400   6.724   0.380   5.402
30125SOL    HW190401   6.679   0.443   5.466
30125SOL    HW290402   6.817   0.411   5.385
30126SOL     OW90403   6.746   0.207   5.201
30126SOL    HW190404   6.746   0.271   5.278
30126SOL    HW290405   6.774   0.255   5.118
30127SOL     OW90406   5.594   1.326   3.924
30127SOL    HW190407   5.501   1.347   3.893
30127SOL    HW290408   5.604   1.227   3.937
30128SOL     OW90409   5.674   1.801   4.651
30128SOL    HW190410   5.632   1.715   4.624
30128SOL    HW290411   5.768   1.804   4.617
30129SOL     OW90412   6.090   1.568   4.634
30129SOL    HW190413   6.156   1.642   4.643
30129SOL    HW290414   6.134   1.489   4.592
30130SOL     OW90415   6.588   0.796   4.962
30130SOL    HW190416   6.629   0.764   5.048
30130SOL    HW290417   6.492   0.769   4.959
30131SOL     OW90418   5.626   0.544   4.838
30131SOL    HW190419   5.711   0.511   4.797
30131SOL    HW290420   5.639   0.559   4.936
30132SOL     OW90421   5.775   0.520   5.446
30132SOL    HW190422   5.834   0.480   5.376
30132SOL    HW290423   5.717   0.591   5.405
30133SOL     OW90424   6.955   0.950   5.384
30133SOL    HW190425   6.994   1.039   5.404
30133SOL    HW290426   6.965   0.930   5.287
30134SOL     OW90427   6.401   0.572   4.049
30134SOL    HW190428   6.408   0.483   4.003
30134SOL    HW290429   6.307   0.606   4.041
30135SOL     OW90430   7.243   0.604   4.930
30135SOL    HW190431   7.205   0.535   4.992
30135SOL    HW290432   7.325   0.568   4.886
30136SOL     OW90433   5.838   1.564   5.468
30136SOL    HW190434   5.808   1.621   5.544
30136SOL    HW290435   5.831   1.467   5.494
30137SOL     OW90436   6.257   0.464   4.993
30137SOL    HW190437   6.223   0.375   4.963
30137SOL    HW290438   6.283   0.518   4.913
30138SOL     OW90439   6.516   1.678   5.189
30138SOL    HW190440   6.492   1.660   5.094
30138SOL    HW290441   6.546   1.772   5.199
30139SOL     OW90442   6.059   0.500   3.915
30139SOL    HW190443   6.120   0.580   3.919
30139SOL    HW290444   5.964   0.531   3.922
30140SOL     OW90445   5.745   1.137   5.190
30140SOL    HW190446   5.767   1.076   5.266
30140SOL    HW290447   5.755   1.088   5.104
30141SOL     OW90448   6.933   1.059   4.958
30141SOL    HW190449   6.957   0.996   4.884
30141SOL    HW290450   6.843   1.099   4.940
30142SOL     OW90451   6.888   0.855   4.033
30142SOL    HW190452   6.802   0.824   4.075
30142SOL    HW290453   6.884   0.841   3.934
30143SOL     OW90454   7.345   1.747   4.878
30143SOL    HW190455   7.406   1.777   4.805
30143SOL    HW290456   7.307   1.658   4.856
30144SOL     OW90457   6.838   1.731   4.852
30144SOL    HW190458   6.922   1.736   4.798
30144SOL    HW290459   6.815   1.635   4.870
30145SOL     OW90460   5.669   1.258   4.746
30145SOL    HW190461   5.664   1.257   4.846
30145SOL    HW290462   5.586   1.217   4.708
30146SOL     OW90463   6.274   1.662   5.440
30146SOL    HW190464   6.218   1.743   5.449
30146SOL    HW290465   6.326   1.666   5.354
30147SOL     OW90466   7.312   0.135   4.247
30147SOL    HW190467   7.385   0.118   4.180
30147SOL    HW290468   7.281   0.048   4.285
30148SOL     OW90469   6.974   1.573   4.201
30148SOL    HW190470   7.041   1.585   4.127
30148SOL    HW290471   6.934   1.662   4.224
30149SOL     OW90472   5.716   1.794   5.575
30149SOL    HW190473   5.675   1.720   5.628
30149SOL    HW290474   5.780   1.845   5.633
30150SOL     OW90475   6.866   0.927   4.396
30150SOL    HW190476   6.926   0.846   4.398
30150SOL    HW290477   6.906   0.996   4.336
30151SOL     OW90478   6.416   1.273   5.146
30151SOL    HW190479   6.411   1.306   5.241
30151SOL    HW290480   6.330   1.292   5.100
30152SOL     OW90481   6.258   1.616   3.878
30152SOL    HW190482   6.267   1.626   3.779
30152SOL    HW290483   6.218   1.527   3.899
30153SOL     OW90484   7.236   1.720   5.118
30153SOL    HW190485   7.289   1.730   5.034
30153SOL    HW290486   7.209   1.810   5.152
30154SOL     OW90487   7.427   0.175   4.687
30154SOL    HW190488   7.466   0.090   4.651
30154SOL    HW290489   7.329   0.177   4.668
30155SOL     OW90490   5.849   0.326   4.444
30155SOL    HW190491   5.770   0.377   4.410
30155SOL    HW290492   5.840   0.311   4.542
30156SOL     OW90493   6.780   1.612   3.755
30156SOL    HW190494   6.786   1.519   3.792
30156SOL    HW290495   6.721   1.612   3.675
30157SOL     OW90496   6.408   1.002   5.096
30157SOL    HW190497   6.448   1.001   5.004
30157SOL    HW290498   6.418   1.094   5.136
30158SOL     OW90499   6.502   0.910   4.015
30158SOL    HW190500   6.565   0.948   3.947
30158SOL    HW290501   6.542   0.827   4.054
30159SOL     OW90502   7.090   1.607   3.768
30159SOL    HW190503   6.998   1.644   3.775
30159SOL    HW290504   7.128   1.627   3.678
30160SOL     OW90505   5.958   1.288   5.214
30160SOL    HW190506   5.945   1.381   5.180
30160SOL    HW290507   5.874   1.236   5.201
30161SOL     OW90508   7.200   1.292   5.013
30161SOL    HW190509   7.260   1.295   5.093
30161SOL    HW290510   7.125   1.356   5.026
30162SOL     OW90511   6.625   1.098   4.420
30162SOL    HW190512   6.555   1.051   4.474
30162SOL    HW290513   6.684   1.030   4.377
30163SOL     OW90514   6.600   0.236   4.695
30163SOL    HW190515   6.592   0.200   4.602
30163SOL    HW290516   6.598   0.160   4.760
30164SOL     OW90517   6.176   1.487   4.215
30164SOL    HW190518   6.218   1.429   4.145
30164SOL    HW290519   6.132   1.566   4.171
30165SOL     OW90520   7.295   0.385   5.105
30165SOL    HW190521   7.368   0.454   5.109
30165SOL    HW290522   7.323   0.310   5.046
30166SOL     OW90523   5.841   1.348   4.014
30166SOL    HW190524   5.745   1.349   3.987
30166SOL    HW290525   5.853   1.401   4.098
30167SOL     OW90526   5.691   1.013   5.450
30167SOL    HW190527   5.614   0.980   5.504
30167SOL    HW290528   5.776   0.983   5.492
30168SOL     OW90529   6.258   0.203   5.213
30168SOL    HW190530   6.348   0.187   5.173
30168SOL    HW290531   6.266   0.208   5.312
30169SOL     OW90532   5.661   0.345   3.757
30169SOL    HW190533   5.569   0.317   3.728
30169SOL    HW290534   5.692   0.422   3.701
30170SOL     OW90535   7.026   0.856   5.122
30170SOL    HW190536   6.969   0.908   5.059
30170SOL    HW290537   7.122   0.868   5.098
30171SOL     OW90538   5.658   0.166   4.042
30171SOL    HW190539   5.641   0.249   3.988
30171SOL    HW290540   5.748   0.129   4.020
30172SOL     OW90541   6.769   1.335   3.843
30172SOL    HW190542   6.670   1.324   3.845
30172SOL    HW290543   6.803   1.350   3.936
30173SOL     OW90544   6.199   0.842   5.155
30173SOL    HW190545   6.255   0.923   5.138
30173SOL    HW290546   6.258   0.762   5.158
30174SOL     OW90547   7.079   1.767   4.683
30174SOL    HW190548   7.112   1.831   4.614
30174SOL    HW290549   7.145   1.761   4.758
30175SOL     OW90550   6.302   0.565   5.432
30175SOL    HW190551   6.321   0.630   5.506
30175SOL    HW290552   6.362   0.485   5.441
30176SOL     OW90553   7.036   1.220   5.357
30176SOL    HW190554   7.027   1.210   5.456
30176SOL    HW290555   7.132   1.213   5.331
30177SOL     OW90556   5.976   1.741   5.284
30177SOL    HW190557   5.885   1.782   5.282
30177SOL    HW290558   5.969   1.647   5.316
30178SOL     OW90559   7.260   0.883   4.978
30178SOL    HW190560   7.233   0.794   4.941
30178SOL    HW290561   7.261   0.951   4.905
30179SOL     OW90562   6.811   0.325   4.173
30179SOL    HW190563   6.876   0.251   4.162
30179SOL    HW290564   6.831   0.375   4.257
30180SOL     OW90565   6.180   0.745   4.376
30180SOL    HW190566   6.230   0.830   4.357
30180SOL    HW290567   6.092   0.747   4.328
30181SOL     OW90568   7.363   0.342   5.366
30181SOL    HW190569   7.346   0.373   5.272
30181SOL    HW290570   7.279   0.305   5.404
30182SOL     OW90571   7.316   0.934   5.241
30182SOL    HW190572   7.354   1.025   5.256
30182SOL    HW290573   7.308   0.917   5.142
30183SOL     OW90574   6.445   1.374   3.740
30183SOL    HW190575   6.399   1.389   3.828
30183SOL    HW290576   6.489   1.459   3.710
30184SOL     OW90577   6.247   1.790   4.677
30184SOL    HW190578   6.201   1.878   4.664
30184SOL    HW290579   6.346   1.802   4.670
30185SOL     OW90580   6.445   0.956   4.585
30185SOL    HW190581   6.499   0.887   4.633
30185SOL    HW290582   6.413   1.025   4.651
30186SOL     OW90583   6.669   0.984   3.811
30186SOL    HW190584   6.646   1.037   3.729
30186SOL    HW290585   6.750   0.928   3.792
30187SOL     OW90586   7.447   1.569   4.575
30187SOL    HW190587   7.376   1.557   4.505
30187SOL    HW290588   7.448   1.490   4.635
30188SOL     OW90589   5.807   1.314   5.568
30188SOL    HW190590   5.742   1.241   5.547
30188SOL    HW290591   5.811   1.328   5.666
30189SOL     OW90592   5.665   1.240   4.377
30189SOL    HW190593   5.664   1.193   4.465
30189SOL    HW290594   5.747   1.212   4.326
30190SOL     OW90595   6.258   1.391   5.348
30190SOL    HW190596   6.180   1.341   5.386
30190SOL    HW290597   6.255   1.486   5.379
30191SOL     OW90598   7.410   0.192   4.951
30191SOL    HW190599   7.406   0.102   4.995
30191SOL    HW290600   7.413   0.181   4.852
30192SOL     OW90601   6.014   0.424   4.244
30192SOL    HW190602   6.044   0.352   4.182
30192SOL    HW290603   5.975   0.384   4.327
30193SOL     OW90604   7.291   1.487   4.828
30193SOL    HW190605   7.198   1.462   4.801
30193SOL    HW290606   7.317   1.437   4.910
30194SOL     OW90607   5.903   0.547   5.004
30194SOL    HW190608   5.941   0.488   5.076
30194SOL    HW290609   5.943   0.521   4.916
30195SOL     OW90610   6.398   1.586   4.411
30195SOL    HW190611   6.430   1.596   4.317
30195SOL    HW290612   6.319   1.524   4.413
30196SOL     OW90613   7.010   0.214   4.836
30196SOL    HW190614   7.062   0.149   4.891
30196SOL    HW290615   6.961   0.277   4.897
30197SOL     OW90616   6.587   0.034   4.878
30197SOL    HW190617   6.524  -0.038   4.847
30197SOL    HW290618   6.680  -0.002   4.878
30198SOL     OW90619   6.356   1.330   4.025
30198SOL    HW190620   6.310   1.243   4.042
30198SOL    HW290621   6.447   1.327   4.066
30199SOL     OW90622   6.204   1.567   5.008
30199SOL    HW190623   6.199   1.649   5.065
30199SOL    HW290624   6.293   1.564   4.963
30200SOL     OW90625   6.938   0.052   3.892
30200SOL    HW190626   6.973   0.011   3.808
30200SOL    HW290627   6.848   0.014   3.912
30201SOL     OW90628   6.886   0.453   4.415
30201SOL    HW190629   6.827   0.533   4.419
30201SOL    HW290630   6.901   0.418   4.508
30202SOL     OW90631   7.179   0.221   4.606
30202SOL    HW190632   7.095   0.220   4.660
30202SOL    HW290633   7.181   0.304   4.550
30203SOL     OW90634   5.625   1.077   4.024
30203SOL    HW190635   5.724   1.066   4.015
30203SOL    HW290636   5.585   0.991   4.056
30204SOL     OW90637   6.461   1.646   4.061
30204SOL    HW190638   6.384   1.611   4.007
30204SOL    HW290639   6.429   1.717   4.123
30205SOL     OW90640   5.816   0.628   5.699
30205SOL    HW190641   5.723   0.626   5.736
30205SOL    HW290642   5.817   0.589   5.607
30206SOL     OW90643   5.811   0.275   6.582
30206SOL    HW190644   5.846   0.258   6.674
30206SOL    HW290645   5.723   0.230   6.570
30207SOL     OW90646   5.605   0.368   6.233
30207SOL    HW190647   5.523   0.411   6.272
30207SOL    HW290648   5.577   0.295   6.170
30208SOL     OW90649   6.155   1.275   6.751
30208SOL    HW190650   6.062   1.268   6.714
30208SOL    HW290651   6.166   1.364   6.795
30209SOL     OW90652   7.141   1.511   6.289
30209SOL    HW190653   7.084   1.495   6.370
30209SOL    HW290654   7.082   1.521   6.209
30210SOL     OW90655   6.721   0.703   6.303
30210SOL    HW190656   6.778   0.781   6.278
30210SOL    HW290657   6.661   0.729   6.379
30211SOL     OW90658   7.341   0.607   5.817
30211SOL    HW190659   7.329   0.594   5.718
30211SOL    HW290660   7.311   0.526   5.866
30212SOL     OW90661   6.354   1.144   6.609
30212SOL    HW190662   6.276   1.161   6.669
30212SOL    HW290663   6.388   1.231   6.573
30213SOL     OW90664   6.436   0.798   7.409
30213SOL    HW190665   6.432   0.874   7.474
30213SOL    HW290666   6.458   0.834   7.318
30214SOL     OW90667   6.271   1.012   6.251
30214SOL    HW190668   6.340   0.996   6.321
30214SOL    HW290669   6.198   1.069   6.289
30215SOL     OW90670   6.272   1.161   7.389
30215SOL    HW190671   6.332   1.240   7.403
30215SOL    HW290672   6.186   1.192   7.348
30216SOL     OW90673   5.921   1.435   6.647
30216SOL    HW190674   5.843   1.404   6.594
30216SOL    HW290675   5.979   1.493   6.590
30217SOL     OW90676   7.046   1.505   6.925
30217SOL    HW190677   7.070   1.599   6.951
30217SOL    HW290678   7.030   1.451   7.007
30218SOL     OW90679   6.024   0.392   7.085
30218SOL    HW190680   6.106   0.336   7.094
30218SOL    HW290681   5.943   0.334   7.089
30219SOL     OW90682   7.189   0.447   6.323
30219SOL    HW190683   7.115   0.493   6.273
30219SOL    HW290684   7.240   0.515   6.376
30220SOL     OW90685   5.817   1.713   6.069
30220SOL    HW190686   5.851   1.790   6.123
30220SOL    HW290687   5.861   1.713   5.979
30221SOL     OW90688   6.713   1.341   7.276
30221SOL    HW190689   6.760   1.341   7.364
30221SOL    HW290690   6.665   1.254   7.265
30222SOL     OW90691   5.816   1.434   6.124
30222SOL    HW190692   5.790   1.530   6.124
30222SOL    HW290693   5.745   1.380   6.169
30223SOL     OW90694   5.826   1.091   6.472
30223SOL    HW190695   5.840   1.007   6.524
30223SOL    HW290696   5.771   1.155   6.527
30224SOL     OW90697   6.206   1.786   7.025
30224SOL    HW190698   6.114   1.769   7.060
30224SOL    HW290699   6.234   1.878   7.051
30225SOL     OW90700   6.192   0.964   5.709
30225SOL    HW190701   6.199   1.048   5.655
30225SOL    HW290702   6.238   0.977   5.797
30226SOL     OW90703   7.180   0.114   7.066
30226SOL    HW190704   7.162   0.181   6.994
30226SOL    HW290705   7.177   0.160   7.155
30227SOL     OW90706   5.708   0.643   6.149
30227SOL    HW190707   5.663   0.555   6.166
30227SOL    HW290708   5.707   0.697   6.233
30228SOL     OW90709   7.428   1.767   5.945
30228SOL    HW190710   7.482   1.738   6.025
30228SOL    HW290711   7.458   1.857   5.916
30229SOL     OW90712   5.613   1.596   5.703
30229SOL    HW190713   5.594   1.500   5.724
30229SOL    HW290714   5.580   1.654   5.778
30230SOL     OW90715   7.275   0.922   6.198
30230SOL    HW190716   7.370   0.893   6.206
30230SOL    HW290717   7.267   0.987   6.123
30231SOL     OW90718   7.227   1.108   6.018
30231SOL    HW190719   7.313   1.110   5.966
30231SOL    HW290720   7.241   1.155   6.106
30232SOL     OW90721   5.699   0.737   7.183
30232SOL    HW190722   5.787   0.724   7.228
30232SOL    HW290723   5.686   0.834   7.161
30233SOL     OW90724   6.199   1.365   6.312
30233SOL    HW190725   6.150   1.278   6.321
30233SOL    HW290726   6.176   1.408   6.225
30234SOL     OW90727   6.879   1.228   7.009
30234SOL    HW190728   6.916   1.155   6.951
30234SOL    HW290729   6.931   1.233   7.094
30235SOL     OW90730   6.395   0.004   6.088
30235SOL    HW190731   6.435   0.095   6.079
30235SOL    HW290732   6.295   0.012   6.094
30236SOL     OW90733   5.783   0.976   6.850
30236SOL    HW190734   5.872   0.931   6.836
30236SOL    HW290735   5.710   0.911   6.831
30237SOL     OW90736   7.111   0.999   5.776
30237SOL    HW190737   7.048   0.923   5.789
30237SOL    HW290738   7.159   1.017   5.862
30238SOL     OW90739   6.773   1.792   7.202
30238SOL    HW190740   6.797   1.852   7.126
30238SOL    HW290741   6.780   1.697   7.172
30239SOL     OW90742   5.903   0.251   7.387
30239SOL    HW190743   5.974   0.322   7.393
30239SOL    HW290744   5.815   0.290   7.415
30240SOL     OW90745   7.052   1.417   6.539
30240SOL    HW190746   6.993   1.423   6.619
30240SOL    HW290747   7.037   1.329   6.493
30241SOL     OW90748   7.253   1.714   6.158
30241SOL    HW190749   7.212   1.691   6.070
30241SOL    HW290750   7.235   1.640   6.223
30242SOL     OW90751   6.184   0.729   5.856
30242SOL    HW190752   6.208   0.798   5.788
30242SOL    HW290753   6.106   0.762   5.910
30243SOL     OW90754   6.867   0.345   6.530
30243SOL    HW190755   6.781   0.295   6.517
30243SOL    HW290756   6.929   0.291   6.586
30244SOL     OW90757   7.162   1.662   5.893
30244SOL    HW190758   7.251   1.708   5.896
30244SOL    HW290759   7.141   1.638   5.798
30245SOL     OW90760   6.393   0.605   7.051
30245SOL    HW190761   6.346   0.602   7.140
30245SOL    HW290762   6.342   0.550   6.985
30246SOL     OW90763   6.980   0.469   7.260
30246SOL    HW190764   6.960   0.512   7.348
30246SOL    HW290765   7.058   0.407   7.269
30247SOL     OW90766   6.559   0.890   7.158
30247SOL    HW190767   6.605   0.806   7.129
30247SOL    HW290768   6.503   0.924   7.083
30248SOL     OW90769   6.577   0.410   6.828
30248SOL    HW190770   6.500   0.444   6.882
30248SOL    HW290771   6.543   0.359   6.749
30249SOL     OW90772   6.627   0.701   6.015
30249SOL    HW190773   6.653   0.697   6.111
30249SOL    HW290774   6.542   0.650   6.001
30250SOL     OW90775   5.662   0.811   6.375
30250SOL    HW190776   5.761   0.799   6.384
30250SOL    HW290777   5.638   0.906   6.396
30251SOL     OW90778   5.716   1.821   7.157
30251SOL    HW190779   5.706   1.806   7.256
30251SOL    HW290780   5.630   1.857   7.121
30252SOL     OW90781   6.451   0.348   5.781
30252SOL    HW190782   6.510   0.411   5.732
30252SOL    HW290783   6.470   0.254   5.752
30253SOL     OW90784   7.305   0.585   7.417
30253SOL    HW190785   7.279   0.674   7.381
30253SOL    HW290786   7.303   0.517   7.344
30254SOL     OW90787   6.948   1.144   6.131
30254SOL    HW190788   7.031   1.115   6.083
30254SOL    HW290789   6.899   1.211   6.075
30255SOL     OW90790   6.136   0.196   6.471
30255SOL    HW190791   6.131   0.191   6.571
30255SOL    HW290792   6.138   0.292   6.442
30256SOL     OW90793   6.594   1.456   6.063
30256SOL    HW190794   6.548   1.528   6.011
30256SOL    HW290795   6.590   1.476   6.161
30257SOL     OW90796   5.937   1.801   6.439
30257SOL    HW190797   5.987   1.715   6.445
30257SOL    HW290798   6.002   1.878   6.436
30258SOL     OW90799   7.381   1.066   6.459
30258SOL    HW190800   7.319   1.051   6.383
30258SOL    HW290801   7.329   1.077   6.544
30259SOL     OW90802   6.813   1.550   7.092
30259SOL    HW190803   6.819   1.473   7.156
30259SOL    HW290804   6.761   1.524   7.012
30260SOL     OW90805   5.907   0.943   5.828
30260SOL    HW190806   5.989   0.982   5.786
30260SOL    HW290807   5.880   0.861   5.779
30261SOL     OW90808   7.044   0.735   6.314
30261SOL    HW190809   7.039   0.670   6.389
30261SOL    HW290810   7.124   0.794   6.327
30262SOL     OW90811   6.047   1.266   7.313
30262SOL    HW190812   5.997   1.267   7.227
30262SOL    HW290813   5.984   1.248   7.389
30263SOL     OW90814   6.697   1.776   5.823
30263SOL    HW190815   6.637   1.714   5.873
30263SOL    HW290816   6.728   1.732   5.738
30264SOL     OW90817   5.788   0.285   7.084
30264SOL    HW190818   5.708   0.345   7.071
30264SOL    HW290819   5.778   0.236   7.170
30265SOL     OW90820   7.218   1.377   5.667
30265SOL    HW190821   7.186   1.471   5.657
30265SOL    HW290822   7.142   1.314   5.655
30266SOL     OW90823   6.050   1.743   5.909
30266SOL    HW190824   6.083   1.782   5.995
30266SOL    HW290825   6.126   1.736   5.844
30267SOL     OW90826   6.986   0.107   6.012
30267SOL    HW190827   6.962   0.070   5.922
30267SOL    HW290828   7.085   0.123   6.016
30268SOL     OW90829   5.835   1.785   6.827
30268SOL    HW190830   5.892   1.720   6.877
30268SOL    HW290831   5.819   1.752   6.734
30269SOL     OW90832   6.526   1.698   6.490
30269SOL    HW190833   6.606   1.641   6.511
30269SOL    HW290834   6.477   1.658   6.413
30270SOL     OW90835   5.968   0.700   6.066
30270SOL    HW190836   6.013   0.610   6.063
30270SOL    HW290837   5.874   0.689   6.099
30271SOL     OW90838   7.133   0.222   7.315
30271SOL    HW190839   7.128   0.259   7.407
30271SOL    HW290840   7.061   0.153   7.303
30272SOL     OW90841   6.200   0.122   5.703
30272SOL    HW190842   6.298   0.100   5.710
30272SOL    HW290843   6.169   0.105   5.610
30273SOL     OW90844   6.367   0.264   7.335
30273SOL    HW190845   6.434   0.203   7.378
30273SOL    HW290846   6.294   0.283   7.400
30274SOL     OW90847   6.474   1.514   6.781
30274SOL    HW190848   6.451   1.489   6.687
30274SOL    HW290849   6.535   1.445   6.820
30275SOL     OW90850   6.937   0.590   7.019
30275SOL    HW190851   6.965   0.547   7.104
30275SOL    HW290852   6.962   0.686   7.020
30276SOL     OW90853   6.389   1.402   6.510
30276SOL    HW190854   6.479   1.416   6.468
30276SOL    HW290855   6.318   1.404   6.439
30277SOL     OW90856   6.508   0.503   6.485
30277SOL    HW190857   6.483   0.494   6.389
30277SOL    HW290858   6.556   0.421   6.516
30278SOL     OW90859   6.125   0.064   6.098
30278SOL    HW190860   6.044   0.065   6.156
30278SOL    HW290861   6.128   0.147   6.043
30279SOL     OW90862   7.020   1.188   5.627
30279SOL    HW190863   7.052   1.112   5.684
30279SOL    HW290864   6.928   1.215   5.657
30280SOL     OW90865   5.883   0.035   5.757
30280SOL    HW190866   5.932   0.119   5.736
30280SOL    HW290867   5.945  -0.030   5.802
30281SOL     OW90868   6.521   0.236   6.066
30281SOL    HW190869   6.473   0.277   5.988
30281SOL    HW290870   6.620   0.234   6.047
30282SOL     OW90871   6.662   0.683   7.050
30282SOL    HW190872   6.582   0.622   7.053
30282SOL    HW290873   6.743   0.630   7.026
30283SOL     OW90874   6.813   1.570   6.379
30283SOL    HW190875   6.834   1.644   6.314
30283SOL    HW290876   6.881   1.570   6.452
30284SOL     OW90877   6.045   1.152   6.327
30284SOL    HW190878   5.974   1.125   6.392
30284SOL    HW290879   6.019   1.124   6.234
30285SOL     OW90880   6.857   1.797   6.177
30285SOL    HW190881   6.901   1.861   6.113
30285SOL    HW290882   6.807   1.849   6.247
30286SOL     OW90883   6.618   0.549   5.602
30286SOL    HW190884   6.577   0.631   5.563
30286SOL    HW290885   6.682   0.575   5.675
30287SOL     OW90886   5.664   0.556   6.972
30287SOL    HW190887   5.756   0.555   6.931
30287SOL    HW290888   5.658   0.630   7.039
30288SOL     OW90889   6.147   0.222   6.733
30288SOL    HW190890   6.185   0.138   6.770
30288SOL    HW290891   6.059   0.241   6.777
30289SOL     OW90892   6.452   0.454   6.228
30289SOL    HW190893   6.420   0.526   6.166
30289SOL    HW290894   6.476   0.373   6.175
30290SOL     OW90895   6.603   0.039   6.339
30290SOL    HW190896   6.531   0.044   6.270
30290SOL    HW290897   6.579  -0.030   6.408
30291SOL     OW90898   7.015   1.173   6.453
30291SOL    HW190899   6.960   1.089   6.446
30291SOL    HW290900   7.041   1.202   6.361
30292SOL     OW90901   7.052   0.590   6.578
30292SOL    HW190902   7.022   0.495   6.585
30292SOL    HW290903   7.125   0.606   6.644
30293SOL     OW90904   7.443   0.833   5.963
30293SOL    HW190905   7.485   0.769   6.027
30293SOL    HW290906   7.405   0.782   5.885
30294SOL     OW90907   6.074   1.385   5.760
30294SOL    HW190908   5.987   1.370   5.807
30294SOL    HW290909   6.057   1.411   5.665
30295SOL     OW90910   7.250   1.280   6.243
30295SOL    HW190911   7.349   1.288   6.257
30295SOL    HW290912   7.205   1.364   6.274
30296SOL     OW90913   6.976   0.575   5.664
30296SOL    HW190914   6.922   0.554   5.745
30296SOL    HW290915   7.067   0.534   5.673
30297SOL     OW90916   6.113   0.256   5.914
30297SOL    HW190917   6.140   0.197   5.839
30297SOL    HW290918   6.113   0.351   5.883
30298SOL     OW90919   7.340   1.223   7.174
30298SOL    HW190920   7.431   1.184   7.161
30298SOL    HW290921   7.348   1.319   7.198
30299SOL     OW90922   6.650   1.347   6.926
30299SOL    HW190923   6.570   1.324   6.981
30299SOL    HW290924   6.733   1.321   6.975
30300SOL     OW90925   7.178   1.629   7.211
30300SOL    HW190926   7.205   1.663   7.121
30300SOL    HW290927   7.257   1.591   7.257
30301SOL     OW90928   6.697   1.195   6.686
30301SOL    HW190929   6.657   1.239   6.767
30301SOL    HW290930   6.656   1.232   6.603
30302SOL     OW90931   7.224   1.099   6.665
30302SOL    HW190932   7.229   1.180   6.724
30302SOL    HW290933   7.138   1.101   6.614
30303SOL     OW90934   6.501   0.089   6.988
30303SOL    HW190935   6.526   0.069   6.893
30303SOL    HW290936   6.573   0.145   7.030
30304SOL     OW90937   6.566   1.116   7.305
30304SOL    HW190938   6.467   1.122   7.315
30304SOL    HW290939   6.589   1.036   7.249
30305SOL     OW90940   6.291   1.050   5.954
30305SOL    HW190941   6.277   1.057   6.053
30305SOL    HW290942   6.375   0.999   5.936
30306SOL     OW90943   5.996   0.813   6.837
30306SOL    HW190944   6.082   0.825   6.887
30306SOL    HW290945   5.954   0.726   6.864
30307SOL     OW90946   6.860   0.386   6.848
30307SOL    HW190947   6.881   0.460   6.912
30307SOL    HW290948   6.771   0.403   6.805
30308SOL     OW90949   5.650   1.564   6.917
30308SOL    HW190950   5.604   1.646   6.883
30308SOL    HW290951   5.748   1.583   6.926
30309SOL     OW90952   5.953   1.100   6.087
30309SOL    HW190953   5.946   1.183   6.031
30309SOL    HW290954   5.957   1.020   6.027
30310SOL     OW90955   6.152   0.537   6.451
30310SOL    HW190956   6.164   0.603   6.377
30310SOL    HW290957   6.198   0.571   6.534
30311SOL     OW90958   6.838   1.348   5.974
30311SOL    HW190959   6.888   1.425   6.014
30311SOL    HW290960   6.743   1.350   6.006
30312SOL     OW90961   6.858   1.445   6.728
30312SOL    HW190962   6.905   1.458   6.815
30312SOL    HW290963   6.792   1.371   6.737
30313SOL     OW90964   7.168   0.639   6.058
30313SOL    HW190965   7.137   0.700   6.131
30313SOL    HW290966   7.218   0.691   5.989
30314SOL     OW90967   5.940   1.510   6.915
30314SOL    HW190968   5.919   1.466   6.828
30314SOL    HW290969   6.037   1.536   6.918
30315SOL     OW90970   5.988   0.751   7.184
30315SOL    HW190971   6.056   0.806   7.137
30315SOL    HW290972   6.028   0.663   7.211
30316SOL     OW90973   7.173   0.779   7.256
30316SOL    HW190974   7.081   0.817   7.251
30316SOL    HW290975   7.233   0.826   7.191
30317SOL     OW90976   6.599   0.105   7.356
30317SOL    HW190977   6.605   0.190   7.304
30317SOL    HW290978   6.631   0.029   7.299
30318SOL     OW90979   6.090   0.050   7.326
30318SOL    HW190980   6.048  -0.007   7.256
30318SOL    HW290981   6.024   0.119   7.358
30319SOL     OW90982   6.159   0.870   6.615
30319SOL    HW190983   6.203   0.959   6.606
30319SOL    HW290984   6.096   0.870   6.692
30320SOL     OW90985   6.946   0.862   6.631
30320SOL    HW190986   6.871   0.862   6.565
30320SOL    HW290987   6.983   0.770   6.640
30321SOL     OW90988   6.795   0.525   5.861
30321SOL    HW190989   6.808   0.441   5.915
30321SOL    HW290990   6.766   0.599   5.921
30322SOL     OW90991   5.893   0.213   6.817
30322SOL    HW190992   5.870   0.250   6.907
30322SOL    HW290993   5.863   0.118   6.811
30323SOL     OW90994   5.623   1.310   6.868
30323SOL    HW190995   5.676   1.261   6.936
30323SOL    HW290996   5.645   1.408   6.873
30324SOL     OW90997   6.318   0.634   6.650
30324SOL    HW190998   6.377   0.608   6.574
30324SOL    HW290999   6.290   0.730   6.639
30325SOL     OW91000   7.314   0.935   7.440
30325SOL    HW191001   7.268   0.928   7.351
30325SOL    HW291002   7.252   0.979   7.506
30326SOL     OW91003   5.893   0.063   6.204
30326SOL    HW191004   5.882   0.157   6.237
30326SOL    HW291005   5.888   0.000   6.281
30327SOL     OW91006   7.208   0.367   5.960
30327SOL    HW191007   7.210   0.291   6.024
30327SOL    HW291008   7.160   0.444   6.000
30328SOL     OW91009   6.609   0.766   6.552
30328SOL    HW191010   6.624   0.787   6.648
30328SOL    HW291011   6.579   0.671   6.543
30329SOL     OW91012   6.566   1.573   7.286
30329SOL    HW191013   6.546   1.617   7.198
30329SOL    HW291014   6.605   1.482   7.270
30330SOL     OW91015   7.445   1.518   7.191
30330SOL    HW191016   7.459   1.545   7.096
30330SOL    HW291017   7.528   1.540   7.244
30331SOL     OW91018   5.936   0.898   7.390
30331SOL    HW191019   6.012   0.942   7.438
30331SOL    HW291020   5.971   0.851   7.308
30332SOL     OW91021   7.126   0.274   5.711
30332SOL    HW191022   7.065   0.199   5.734
30332SOL    HW291023   7.148   0.326   5.794
30333SOL     OW91024   6.889   0.838   5.628
30333SOL    HW191025   6.923   0.745   5.643
30333SOL    HW291026   6.907   0.865   5.533
30334SOL     OW91027   6.654   1.333   6.435
30334SOL    HW191028   6.661   1.249   6.380
30334SOL    HW291029   6.716   1.402   6.399
30335SOL     OW91030   5.905   0.810   6.535
30335SOL    HW191031   5.998   0.846   6.540
30335SOL    HW291032   5.899   0.725   6.587
30336SOL     OW91033   5.925   0.509   6.592
30336SOL    HW191034   5.873   0.426   6.575
30336SOL    HW291035   6.002   0.514   6.528
30337SOL     OW91036   6.724   0.380   7.264
30337SOL    HW191037   6.679   0.443   7.328
30337SOL    HW291038   6.817   0.411   7.247
30338SOL     OW91039   6.746   0.207   7.063
30338SOL    HW191040   6.746   0.271   7.140
30338SOL    HW291041   6.774   0.255   6.980
30339SOL     OW91042   5.594   1.326   5.786
30339SOL    HW191043   5.501   1.347   5.755
30339SOL    HW291044   5.604   1.227   5.799
30340SOL     OW91045   5.674   1.801   6.513
30340SOL    HW191046   5.632   1.715   6.486
30340SOL    HW291047   5.768   1.804   6.479
30341SOL     OW91048   6.090   1.568   6.496
30341SOL    HW191049   6.156   1.642   6.505
30341SOL    HW291050   6.134   1.489   6.454
30342SOL     OW91051   6.588   0.796   6.824
30342SOL    HW191052   6.629   0.764   6.910
30342SOL    HW291053   6.492   0.769   6.821
30343SOL     OW91054   5.626   0.544   6.700
30343SOL    HW191055   5.711   0.511   6.659
30343SOL    HW291056   5.639   0.559   6.798
30344SOL     OW91057   5.775   0.520   7.308
30344SOL    HW191058   5.834   0.480   7.238
30344SOL    HW291059   5.717   0.591   7.267
30345SOL     OW91060   6.955   0.950   7.246
30345SOL    HW191061   6.994   1.039   7.266
30345SOL    HW291062   6.965   0.930   7.149
30346SOL     OW91063   6.401   0.572   5.911
30346SOL    HW191064   6.408   0.483   5.865
30346SOL    HW291065   6.307   0.606   5.903
30347SOL     OW91066   7.243   0.604   6.792
30347SOL    HW191067   7.205   0.535   6.854
30347SOL    HW291068   7.325   0.568   6.748
30348SOL     OW91069   5.838   1.564   7.330
30348SOL    HW191070   5.808   1.621   7.406
30348SOL    HW291071   5.831   1.467   7.356
30349SOL     OW91072   6.257   0.464   6.855
30349SOL    HW191073   6.223   0.375   6.825
30349SOL    HW291074   6.283   0.518   6.775
30350SOL     OW91075   6.516   1.678   7.051
30350SOL    HW191076   6.492   1.660   6.956
30350SOL    HW291077   6.546   1.772   7.061
30351SOL     OW91078   6.059   0.500   5.777
30351SOL    HW191079   6.120   0.580   5.781
30351SOL    HW291080   5.964   0.531   5.784
30352SOL     OW91081   5.745   1.137   7.052
30352SOL    HW191082   5.767   1.076   7.128
30352SOL    HW291083   5.755   1.088   6.966
30353SOL     OW91084   6.933   1.059   6.820
30353SOL    HW191085   6.957   0.996   6.746
30353SOL    HW291086   6.843   1.099   6.802
30354SOL     OW91087   6.888   0.855   5.895
30354SOL    HW191088   6.802   0.824   5.937
30354SOL    HW291089   6.884   0.841   5.796
30355SOL     OW91090   7.345   1.747   6.740
30355SOL    HW191091   7.406   1.777   6.667
30355SOL    HW291092   7.307   1.658   6.718
30356SOL     OW91093   6.838   1.731   6.714
30356SOL    HW191094   6.922   1.736   6.660
30356SOL    HW291095   6.815   1.635   6.732
30357SOL     OW91096   5.669   1.258   6.608
30357SOL    HW191097   5.664   1.257   6.708
30357SOL    HW291098   5.586   1.217   6.570
30358SOL     OW91099   6.274   1.662   7.302
30358SOL    HW191100   6.218   1.743   7.311
30358SOL    HW291101   6.326   1.666   7.216
30359SOL     OW91102   7.312   0.135   6.109
30359SOL    HW191103   7.385   0.118   6.042
30359SOL    HW291104   7.281   0.048   6.147
30360SOL     OW91105   6.974   1.573   6.063
30360SOL    HW191106   7.041   1.585   5.989
30360SOL    HW291107   6.934   1.662   6.086
30361SOL     OW91108   5.716   1.794   7.437
30361SOL    HW191109   5.675   1.720   7.490
30361SOL    HW291110   5.780   1.845   7.495
30362SOL     OW91111   6.866   0.927   6.258
30362SOL    HW191112   6.926   0.846   6.260
30362SOL    HW291113   6.906   0.996   6.198
30363SOL     OW91114   6.416   1.273   7.008
30363SOL    HW191115   6.411   1.306   7.103
30363SOL    HW291116   6.330   1.292   6.962
30364SOL     OW91117   6.258   1.616   5.740
30364SOL    HW191118   6.267   1.626   5.641
30364SOL    HW291119   6.218   1.527   5.761
30365SOL     OW91120   7.236   1.720   6.980
30365SOL    HW191121   7.289   1.730   6.896
30365SOL    HW291122   7.209   1.810   7.014
30366SOL     OW91123   7.427   0.175   6.549
30366SOL    HW191124   7.466   0.090   6.513
30366SOL    HW291125   7.329   0.177   6.530
30367SOL     OW91126   5.849   0.326   6.306
30367SOL    HW191127   5.770   0.377   6.272
30367SOL    HW291128   5.840   0.311   6.404
30368SOL     OW91129   6.780   1.612   5.617
30368SOL    HW191130   6.786   1.519   5.654
30368SOL    HW291131   6.721   1.612   5.537
30369SOL     OW91132   6.408   1.002   6.958
30369SOL    HW191133   6.448   1.001   6.866
30369SOL    HW291134   6.418   1.094   6.998
30370SOL     OW91135   6.502   0.910   5.877
30370SOL    HW191136   6.565   0.948   5.809
30370SOL    HW291137   6.542   0.827   5.916
30371SOL     OW91138   7.090   1.607   5.630
30371SOL    HW191139   6.998   1.644   5.637
30371SOL    HW291140   7.128   1.627   5.540
30372SOL     OW91141   5.958   1.288   7.076
30372SOL    HW191142   5.945   1.381   7.042
30372SOL    HW291143   5.874   1.236   7.063
30373SOL     OW91144   7.200   1.292   6.875
30373SOL    HW191145   7.260   1.295   6.955
30373SOL    HW291146   7.125   1.356   6.888
30374SOL     OW91147   6.625   1.098   6.282
30374SOL    HW191148   6.555   1.051   6.336
30374SOL    HW291149   6.684   1.030   6.239
30375SOL     OW91150   6.600   0.236   6.557
30375SOL    HW191151   6.592   0.200   6.464
30375SOL    HW291152   6.598   0.160   6.622
30376SOL     OW91153   6.176   1.487   6.077
30376SOL    HW191154   6.218   1.429   6.007
30376SOL    HW291155   6.132   1.566   6.033
30377SOL     OW91156   7.295   0.385   6.967
30377SOL    HW191157   7.368   0.454   6.971
30377SOL    HW291158   7.323   0.310   6.908
30378SOL     OW91159   5.841   1.348   5.876
30378SOL    HW191160   5.745   1.349   5.849
30378SOL    HW291161   5.853   1.401   5.960
30379SOL     OW91162   5.691   1.013   7.312
30379SOL    HW191163   5.614   0.980   7.366
30379SOL    HW291164   5.776   0.983   7.354
30380SOL     OW91165   6.258   0.203   7.075
30380SOL    HW191166   6.348   0.187   7.035
30380SOL    HW291167   6.266   0.208   7.174
30381SOL     OW91168   5.661   0.345   5.619
30381SOL    HW191169   5.569   0.317   5.590
30381SOL    HW291170   5.692   0.422   5.563
30382SOL     OW91171   7.026   0.856   6.984
30382SOL    HW191172   6.969   0.908   6.921
30382SOL    HW291173   7.122   0.868   6.960
30383SOL     OW91174   5.658   0.166   5.904
30383SOL    HW191175   5.641   0.249   5.850
30383SOL    HW291176   5.748   0.129   5.882
30384SOL     OW91177   6.769   1.335   5.705
30384SOL    HW191178   6.670   1.324   5.707
30384SOL    HW291179   6.803   1.350   5.798
30385SOL     OW91180   6.199   0.842   7.017
30385SOL    HW191181   6.255   0.923   7.000
30385SOL    HW291182   6.258   0.762   7.020
30386SOL     OW91183   7.079   1.767   6.545
30386SOL    HW191184   7.112   1.831   6.476
30386SOL    HW291185   7.145   1.761   6.620
30387SOL     OW91186   6.302   0.565   7.294
30387SOL    HW191187   6.321   0.630   7.368
30387SOL    HW291188   6.362   0.485   7.303
30388SOL     OW91189   7.036   1.220   7.219
30388SOL    HW191190   7.027   1.210   7.318
30388SOL    HW291191   7.132   1.213   7.193
30389SOL     OW91192   5.976   1.741   7.146
30389SOL    HW191193   5.885   1.782   7.144
30389SOL    HW291194   5.969   1.647   7.178
30390SOL     OW91195   7.260   0.883   6.840
30390SOL    HW191196   7.233   0.794   6.803
30390SOL    HW291197   7.261   0.951   6.767
30391SOL     OW91198   6.811   0.325   6.035
30391SOL    HW191199   6.876   0.251   6.024
30391SOL    HW291200   6.831   0.375   6.119
30392SOL     OW91201   6.180   0.745   6.238
30392SOL    HW191202   6.230   0.830   6.219
30392SOL    HW291203   6.092   0.747   6.190
30393SOL     OW91204   7.363   0.342   7.228
30393SOL    HW191205   7.346   0.373   7.134
30393SOL    HW291206   7.279   0.305   7.266
30394SOL     OW91207   7.316   0.934   7.103
30394SOL    HW191208   7.354   1.025   7.118
30394SOL    HW291209   7.308   0.917   7.004
30395SOL     OW91210   6.445   1.374   5.602
30395SOL    HW191211   6.399   1.389   5.690
30395SOL    HW291212   6.489   1.459   5.572
30396SOL     OW91213   6.247   1.790   6.539
30396SOL    HW191214   6.201   1.878   6.526
30396SOL    HW291215   6.346   1.802   6.532
30397SOL     OW91216   6.445   0.956   6.447
30397SOL    HW191217   6.499   0.887   6.495
30397SOL    HW291218   6.413   1.025   6.513
30398SOL     OW91219   6.669   0.984   5.673
30398SOL    HW191220   6.646   1.037   5.591
30398SOL    HW291221   6.750   0.928   5.654
30399SOL     OW91222   7.447   1.569   6.437
30399SOL    HW191223   7.376   1.557   6.367
30399SOL    HW291224   7.448   1.490   6.497
30400SOL     OW91225   5.807   1.314   7.430
30400SOL    HW191226   5.742   1.241   7.409
30400SOL    HW291227   5.811   1.328   7.528
30401SOL     OW91228   5.665   1.240   6.239
30401SOL    HW191229   5.664   1.193   6.327
30401SOL    HW291230   5.747   1.212   6.188
30402SOL     OW91231   6.258   1.391   7.210
30402SOL    HW191232   6.180   1.341   7.248
30402SOL    HW291233   6.255   1.486   7.241
30403SOL     OW91234   7.410   0.192   6.813
30403SOL    HW191235   7.406   0.102   6.857
30403SOL    HW291236   7.413   0.181   6.714
30404SOL     OW91237   6.014   0.424   6.106
30404SOL    HW191238   6.044   0.352   6.044
30404SOL    HW291239   5.975   0.384   6.189
30405SOL     OW91240   7.291   1.487   6.690
30405SOL    HW191241   7.198   1.462   6.663
30405SOL    HW291242   7.317   1.437   6.772
30406SOL     OW91243   5.903   0.547   6.866
30406SOL    HW191244   5.941   0.488   6.938
30406SOL    HW291245   5.943   0.521   6.778
30407SOL     OW91246   6.398   1.586   6.273
30407SOL    HW191247   6.430   1.596   6.179
30407SOL    HW291248   6.319   1.524   6.275
30408SOL     OW91249   7.010   0.214   6.698
30408SOL    HW191250   7.062   0.149   6.753
30408SOL    HW291251   6.961   0.277   6.759
30409SOL     OW91252   6.587   0.034   6.740
30409SOL    HW191253   6.524  -0.038   6.709
30409SOL    HW291254   6.680  -0.002   6.740
30410SOL     OW91255   6.356   1.330   5.887
30410SOL    HW191256   6.310   1.243   5.904
30410SOL    HW291257   6.447   1.327   5.928
30411SOL     OW91258   6.204   1.567   6.870
30411SOL    HW191259   6.199   1.649   6.927
30411SOL    HW291260   6.293   1.564   6.825
30412SOL     OW91261   6.938   0.052   5.754
30412SOL    HW191262   6.973   0.011   5.670
30412SOL    HW291263   6.848   0.014   5.774
30413SOL     OW91264   6.886   0.453   6.277
30413SOL    HW191265   6.827   0.533   6.281
30413SOL    HW291266   6.901   0.418   6.370
30414SOL     OW91267   7.179   0.221   6.468
30414SOL    HW191268   7.095   0.220   6.522
30414SOL    HW291269   7.181   0.304   6.412
30415SOL     OW91270   5.625   1.077   5.886
30415SOL    HW191271   5.724   1.066   5.877
30415SOL    HW291272   5.585   0.991   5.918
30416SOL     OW91273   6.461   1.646   5.923
30416SOL    HW191274   6.384   1.611   5.869
30416SOL    HW291275   6.429   1.717   5.985
30417SOL     OW91276   5.816   0.628   7.561
30417SOL    HW191277   5.723   0.626   7.598
30417SOL    HW291278   5.817   0.589   7.469
30418SOL     OW91279   5.811   0.275   8.444
30418SOL    HW191280   5.846   0.258   8.536
30418SOL    HW291281   5.723   0.230   8.432
30419SOL     OW91282   5.605   0.368   8.095
30419SOL    HW191283   5.523   0.411   8.134
30419SOL    HW291284   5.577   0.295   8.032
30420SOL     OW91285   6.155   1.275   8.613
30420SOL    HW191286   6.062   1.268   8.576
30420SOL    HW291287   6.166   1.364   8.657
30421SOL     OW91288   7.141   1.511   8.151
30421SOL    HW191289   7.084   1.495   8.232
30421SOL    HW291290   7.082   1.521   8.071
30422SOL     OW91291   6.721   0.703   8.165
30422SOL    HW191292   6.778   0.781   8.140
30422SOL    HW291293   6.661   0.729   8.241
30423SOL     OW91294   7.341   0.607   7.679
30423SOL    HW191295   7.329   0.594   7.580
30423SOL    HW291296   7.311   0.526   7.728
30424SOL     OW91297   6.354   1.144   8.471
30424SOL    HW191298   6.276   1.161   8.531
30424SOL    HW291299   6.388   1.231   8.435
30425SOL     OW91300   6.436   0.798   9.271
30425SOL    HW191301   6.432   0.874   9.336
30425SOL    HW291302   6.458   0.834   9.180
30426SOL     OW91303   6.271   1.012   8.113
30426SOL    HW191304   6.340   0.996   8.183
30426SOL    HW291305   6.198   1.069   8.151
30427SOL     OW91306   6.272   1.161   9.251
30427SOL    HW191307   6.332   1.240   9.265
30427SOL    HW291308   6.186   1.192   9.210
30428SOL     OW91309   5.921   1.435   8.509
30428SOL    HW191310   5.843   1.404   8.456
30428SOL    HW291311   5.979   1.493   8.452
30429SOL     OW91312   7.046   1.505   8.787
30429SOL    HW191313   7.070   1.599   8.813
30429SOL    HW291314   7.030   1.451   8.869
30430SOL     OW91315   6.024   0.392   8.947
30430SOL    HW191316   6.106   0.336   8.956
30430SOL    HW291317   5.943   0.334   8.951
30431SOL     OW91318   7.189   0.447   8.185
30431SOL    HW191319   7.115   0.493   8.135
30431SOL    HW291320   7.240   0.515   8.238
30432SOL     OW91321   5.817   1.713   7.931
30432SOL    HW191322   5.851   1.790   7.985
30432SOL    HW291323   5.861   1.713   7.841
30433SOL     OW91324   6.713   1.341   9.138
30433SOL    HW191325   6.760   1.341   9.226
30433SOL    HW291326   6.665   1.254   9.127
30434SOL     OW91327   5.816   1.434   7.986
30434SOL    HW191328   5.790   1.530   7.986
30434SOL    HW291329   5.745   1.380   8.031
30435SOL     OW91330   5.826   1.091   8.334
30435SOL    HW191331   5.840   1.007   8.386
30435SOL    HW291332   5.771   1.155   8.389
30436SOL     OW91333   6.206   1.786   8.887
30436SOL    HW191334   6.114   1.769   8.922
30436SOL    HW291335   6.234   1.878   8.913
30437SOL     OW91336   6.192   0.964   7.571
30437SOL    HW191337   6.199   1.048   7.517
30437SOL    HW291338   6.238   0.977   7.659
30438SOL     OW91339   7.180   0.114   8.928
30438SOL    HW191340   7.162   0.181   8.856
30438SOL    HW291341   7.177   0.160   9.017
30439SOL     OW91342   5.708   0.643   8.011
30439SOL    HW191343   5.663   0.555   8.028
30439SOL    HW291344   5.707   0.697   8.095
30440SOL     OW91345   7.428   1.767   7.807
30440SOL    HW191346   7.482   1.738   7.887
30440SOL    HW291347   7.458   1.857   7.778
30441SOL     OW91348   5.613   1.596   7.565
30441SOL    HW191349   5.594   1.500   7.586
30441SOL    HW291350   5.580   1.654   7.640
30442SOL     OW91351   7.275   0.922   8.060
30442SOL    HW191352   7.370   0.893   8.068
30442SOL    HW291353   7.267   0.987   7.985
30443SOL     OW91354   7.227   1.108   7.880
30443SOL    HW191355   7.313   1.110   7.828
30443SOL    HW291356   7.241   1.155   7.968
30444SOL     OW91357   5.699   0.737   9.045
30444SOL    HW191358   5.787   0.724   9.090
30444SOL    HW291359   5.686   0.834   9.023
30445SOL     OW91360   6.199   1.365   8.174
30445SOL    HW191361   6.150   1.278   8.183
30445SOL    HW291362   6.176   1.408   8.087
30446SOL     OW91363   6.879   1.228   8.871
30446SOL    HW191364   6.916   1.155   8.813
30446SOL    HW291365   6.931   1.233   8.956
30447SOL     OW91366   6.395   0.004   7.950
30447SOL    HW191367   6.435   0.095   7.941
30447SOL    HW291368   6.295   0.012   7.956
30448SOL     OW91369   5.783   0.976   8.712
30448SOL    HW191370   5.872   0.931   8.698
30448SOL    HW291371   5.710   0.911   8.693
30449SOL     OW91372   7.111   0.999   7.638
30449SOL    HW191373   7.048   0.923   7.651
30449SOL    HW291374   7.159   1.017   7.724
30450SOL     OW91375   6.773   1.792   9.064
30450SOL    HW191376   6.797   1.852   8.988
30450SOL    HW291377   6.780   1.697   9.034
30451SOL     OW91378   5.903   0.251   9.249
30451SOL    HW191379   5.974   0.322   9.255
30451SOL    HW291380   5.815   0.290   9.277
30452SOL     OW91381   7.052   1.417   8.401
30452SOL    HW191382   6.993   1.423   8.481
30452SOL    HW291383   7.037   1.329   8.355
30453SOL     OW91384   7.253   1.714   8.020
30453SOL    HW191385   7.212   1.691   7.932
30453SOL    HW291386   7.235   1.640   8.085
30454SOL     OW91387   6.184   0.729   7.718
30454SOL    HW191388   6.208   0.798   7.650
30454SOL    HW291389   6.106   0.762   7.772
30455SOL     OW91390   6.867   0.345   8.392
30455SOL    HW191391   6.781   0.295   8.379
30455SOL    HW291392   6.929   0.291   8.448
30456SOL     OW91393   7.162   1.662   7.755
30456SOL    HW191394   7.251   1.708   7.758
30456SOL    HW291395   7.141   1.638   7.660
30457SOL     OW91396   6.393   0.605   8.913
30457SOL    HW191397   6.346   0.602   9.002
30457SOL    HW291398   6.342   0.550   8.847
30458SOL     OW91399   6.980   0.469   9.122
30458SOL    HW191400   6.960   0.512   9.210
30458SOL    HW291401   7.058   0.407   9.131
30459SOL     OW91402   6.559   0.890   9.020
30459SOL    HW191403   6.605   0.806   8.991
30459SOL    HW291404   6.503   0.924   8.945
30460SOL     OW91405   6.577   0.410   8.690
30460SOL    HW191406   6.500   0.444   8.744
30460SOL    HW291407   6.543   0.359   8.611
30461SOL     OW91408   6.627   0.701   7.877
30461SOL    HW191409   6.653   0.697   7.973
30461SOL    HW291410   6.542   0.650   7.863
30462SOL     OW91411   5.662   0.811   8.237
30462SOL    HW191412   5.761   0.799   8.246
30462SOL    HW291413   5.638   0.906   8.258
30463SOL     OW91414   5.716   1.821   9.019
30463SOL    HW191415   5.706   1.806   9.118
30463SOL    HW291416   5.630   1.857   8.983
30464SOL     OW91417   6.451   0.348   7.643
30464SOL    HW191418   6.510   0.411   7.594
30464SOL    HW291419   6.470   0.254   7.614
30465SOL     OW91420   7.305   0.585   9.279
30465SOL    HW191421   7.279   0.674   9.243
30465SOL    HW291422   7.303   0.517   9.206
30466SOL     OW91423   6.948   1.144   7.993
30466SOL    HW191424   7.031   1.115   7.945
30466SOL    HW291425   6.899   1.211   7.937
30467SOL     OW91426   6.136   0.196   8.333
30467SOL    HW191427   6.131   0.191   8.433
30467SOL    HW291428   6.138   0.292   8.304
30468SOL     OW91429   6.594   1.456   7.925
30468SOL    HW191430   6.548   1.528   7.873
30468SOL    HW291431   6.590   1.476   8.023
30469SOL     OW91432   5.937   1.801   8.301
30469SOL    HW191433   5.987   1.715   8.307
30469SOL    HW291434   6.002   1.878   8.298
30470SOL     OW91435   7.381   1.066   8.321
30470SOL    HW191436   7.319   1.051   8.245
30470SOL    HW291437   7.329   1.077   8.406
30471SOL     OW91438   6.813   1.550   8.954
30471SOL    HW191439   6.819   1.473   9.018
30471SOL    HW291440   6.761   1.524   8.874
30472SOL     OW91441   5.907   0.943   7.690
30472SOL    HW191442   5.989   0.982   7.648
30472SOL    HW291443   5.880   0.861   7.641
30473SOL     OW91444   7.044   0.735   8.176
30473SOL    HW191445   7.039   0.670   8.251
30473SOL    HW291446   7.124   0.794   8.189
30474SOL     OW91447   6.047   1.266   9.175
30474SOL    HW191448   5.997   1.267   9.089
30474SOL    HW291449   5.984   1.248   9.251
30475SOL     OW91450   6.697   1.776   7.685
30475SOL    HW191451   6.637   1.714   7.735
30475SOL    HW291452   6.728   1.732   7.600
30476SOL     OW91453   5.788   0.285   8.946
30476SOL    HW191454   5.708   0.345   8.933
30476SOL    HW291455   5.778   0.236   9.032
30477SOL     OW91456   7.218   1.377   7.529
30477SOL    HW191457   7.186   1.471   7.519
30477SOL    HW291458   7.142   1.314   7.517
30478SOL     OW91459   6.050   1.743   7.771
30478SOL    HW191460   6.083   1.782   7.857
30478SOL    HW291461   6.126   1.736   7.706
30479SOL     OW91462   6.986   0.107   7.874
30479SOL    HW191463   6.962   0.070   7.784
30479SOL    HW291464   7.085   0.123   7.878
30480SOL     OW91465   5.835   1.785   8.689
30480SOL    HW191466   5.892   1.720   8.739
30480SOL    HW291467   5.819   1.752   8.596
30481SOL     OW91468   6.526   1.698   8.352
30481SOL    HW191469   6.606   1.641   8.373
30481SOL    HW291470   6.477   1.658   8.275
30482SOL     OW91471   5.968   0.700   7.928
30482SOL    HW191472   6.013   0.610   7.925
30482SOL    HW291473   5.874   0.689   7.961
30483SOL     OW91474   7.133   0.222   9.177
30483SOL    HW191475   7.128   0.259   9.269
30483SOL    HW291476   7.061   0.153   9.165
30484SOL     OW91477   6.200   0.122   7.565
30484SOL    HW191478   6.298   0.100   7.572
30484SOL    HW291479   6.169   0.105   7.472
30485SOL     OW91480   6.367   0.264   9.197
30485SOL    HW191481   6.434   0.203   9.240
30485SOL    HW291482   6.294   0.283   9.262
30486SOL     OW91483   6.474   1.514   8.643
30486SOL    HW191484   6.451   1.489   8.549
30486SOL    HW291485   6.535   1.445   8.682
30487SOL     OW91486   6.937   0.590   8.881
30487SOL    HW191487   6.965   0.547   8.966
30487SOL    HW291488   6.962   0.686   8.882
30488SOL     OW91489   6.389   1.402   8.372
30488SOL    HW191490   6.479   1.416   8.330
30488SOL    HW291491   6.318   1.404   8.301
30489SOL     OW91492   6.508   0.503   8.347
30489SOL    HW191493   6.483   0.494   8.251
30489SOL    HW291494   6.556   0.421   8.378
30490SOL     OW91495   6.125   0.064   7.960
30490SOL    HW191496   6.044   0.065   8.018
30490SOL    HW291497   6.128   0.147   7.905
30491SOL     OW91498   7.020   1.188   7.489
30491SOL    HW191499   7.052   1.112   7.546
30491SOL    HW291500   6.928   1.215   7.519
30492SOL     OW91501   5.883   0.035   7.619
30492SOL    HW191502   5.932   0.119   7.598
30492SOL    HW291503   5.945  -0.030   7.664
30493SOL     OW91504   6.521   0.236   7.928
30493SOL    HW191505   6.473   0.277   7.850
30493SOL    HW291506   6.620   0.234   7.909
30494SOL     OW91507   6.813   1.570   8.241
30494SOL    HW191508   6.834   1.644   8.176
30494SOL    HW291509   6.881   1.570   8.314
30495SOL     OW91510   6.045   1.152   8.189
30495SOL    HW191511   5.974   1.125   8.254
30495SOL    HW291512   6.019   1.124   8.096
30496SOL     OW91513   6.857   1.797   8.039
30496SOL    HW191514   6.901   1.861   7.975
30496SOL    HW291515   6.807   1.849   8.109
30497SOL     OW91516   6.618   0.549   7.464
30497SOL    HW191517   6.577   0.631   7.425
30497SOL    HW291518   6.682   0.575   7.537
30498SOL     OW91519   5.664   0.556   8.834
30498SOL    HW191520   5.756   0.555   8.793
30498SOL    HW291521   5.658   0.630   8.901
30499SOL     OW91522   6.147   0.222   8.595
30499SOL    HW191523   6.185   0.138   8.632
30499SOL    HW291524   6.059   0.241   8.639
30500SOL     OW91525   6.452   0.454   8.090
30500SOL    HW191526   6.420   0.526   8.028
30500SOL    HW291527   6.476   0.373   8.037
30501SOL     OW91528   6.603   0.039   8.201
30501SOL    HW191529   6.531   0.044   8.132
30501SOL    HW291530   6.579  -0.030   8.270
30502SOL     OW91531   7.015   1.173   8.315
30502SOL    HW191532   6.960   1.089   8.308
30502SOL    HW291533   7.041   1.202   8.223
30503SOL     OW91534   7.052   0.590   8.440
30503SOL    HW191535   7.022   0.495   8.447
30503SOL    HW291536   7.125   0.606   8.506
30504SOL     OW91537   7.443   0.833   7.825
30504SOL    HW191538   7.485   0.769   7.889
30504SOL    HW291539   7.405   0.782   7.747
30505SOL     OW91540   6.074   1.385   7.622
30505SOL    HW191541   5.987   1.370   7.669
30505SOL    HW291542   6.057   1.411   7.527
30506SOL     OW91543   7.250   1.280   8.105
30506SOL    HW191544   7.349   1.288   8.119
30506SOL    HW291545   7.205   1.364   8.136
30507SOL     OW91546   6.976   0.575   7.526
30507SOL    HW191547   6.922   0.554   7.607
30507SOL    HW291548   7.067   0.534   7.535
30508SOL     OW91549   6.113   0.256   7.776
30508SOL    HW191550   6.140   0.197   7.701
30508SOL    HW291551   6.113   0.351   7.745
30509SOL     OW91552   7.340   1.223   9.036
30509SOL    HW191553   7.431   1.184   9.023
30509SOL    HW291554   7.348   1.319   9.060
30510SOL     OW91555   6.650   1.347   8.788
30510SOL    HW191556   6.570   1.324   8.843
30510SOL    HW291557   6.733   1.321   8.837
30511SOL     OW91558   7.178   1.629   9.073
30511SOL    HW191559   7.205   1.663   8.983
30511SOL    HW291560   7.257   1.591   9.119
30512SOL     OW91561   6.697   1.195   8.548
30512SOL    HW191562   6.657   1.239   8.629
30512SOL    HW291563   6.656   1.232   8.465
30513SOL     OW91564   7.224   1.099   8.527
30513SOL    HW191565   7.229   1.180   8.586
30513SOL    HW291566   7.138   1.101   8.476
30514SOL     OW91567   6.501   0.089   8.850
30514SOL    HW191568   6.526   0.069   8.755
30514SOL    HW291569   6.573   0.145   8.892
30515SOL     OW91570   6.566   1.116   9.167
30515SOL    HW191571   6.467   1.122   9.177
30515SOL    HW291572   6.589   1.036   9.111
30516SOL     OW91573   6.291   1.050   7.816
30516SOL    HW191574   6.277   1.057   7.915
30516SOL    HW291575   6.375   0.999   7.798
30517SOL     OW91576   5.996   0.813   8.699
30517SOL    HW191577   6.082   0.825   8.749
30517SOL    HW291578   5.954   0.726   8.726
30518SOL     OW91579   6.860   0.386   8.710
30518SOL    HW191580   6.881   0.460   8.774
30518SOL    HW291581   6.771   0.403   8.667
30519SOL     OW91582   5.650   1.564   8.779
30519SOL    HW191583   5.604   1.646   8.745
30519SOL    HW291584   5.748   1.583   8.788
30520SOL     OW91585   5.953   1.100   7.949
30520SOL    HW191586   5.946   1.183   7.893
30520SOL    HW291587   5.957   1.020   7.889
30521SOL     OW91588   6.152   0.537   8.313
30521SOL    HW191589   6.164   0.603   8.239
30521SOL    HW291590   6.198   0.571   8.396
30522SOL     OW91591   6.838   1.348   7.836
30522SOL    HW191592   6.888   1.425   7.876
30522SOL    HW291593   6.743   1.350   7.868
30523SOL     OW91594   6.858   1.445   8.590
30523SOL    HW191595   6.905   1.458   8.677
30523SOL    HW291596   6.792   1.371   8.599
30524SOL     OW91597   7.168   0.639   7.920
30524SOL    HW191598   7.137   0.700   7.993
30524SOL    HW291599   7.218   0.691   7.851
30525SOL     OW91600   5.940   1.510   8.777
30525SOL    HW191601   5.919   1.466   8.690
30525SOL    HW291602   6.037   1.536   8.780
30526SOL     OW91603   5.988   0.751   9.046
30526SOL    HW191604   6.056   0.806   8.999
30526SOL    HW291605   6.028   0.663   9.073
30527SOL     OW91606   7.173   0.779   9.118
30527SOL    HW191607   7.081   0.817   9.113
30527SOL    HW291608   7.233   0.826   9.053
30528SOL     OW91609   6.599   0.105   9.218
30528SOL    HW191610   6.605   0.190   9.166
30528SOL    HW291611   6.631   0.029   9.161
30529SOL     OW91612   6.090   0.050   9.188
30529SOL    HW191613   6.048  -0.007   9.118
30529SOL    HW291614   6.024   0.119   9.220
30530SOL     OW91615   6.159   0.870   8.477
30530SOL    HW191616   6.203   0.959   8.468
30530SOL    HW291617   6.096   0.870   8.554
30531SOL     OW91618   6.946   0.862   8.493
30531SOL    HW191619   6.871   0.862   8.427
30531SOL    HW291620   6.983   0.770   8.502
30532SOL     OW91621   6.795   0.525   7.723
30532SOL    HW191622   6.808   0.441   7.777
30532SOL    HW291623   6.766   0.599   7.783
30533SOL     OW91624   5.893   0.213   8.679
30533SOL    HW191625   5.870   0.250   8.769
30533SOL    HW291626   5.863   0.118   8.673
30534SOL     OW91627   5.623   1.310   8.730
30534SOL    HW191628   5.676   1.261   8.798
30534SOL    HW291629   5.645   1.408   8.735
30535SOL     OW91630   6.318   0.634   8.512
30535SOL    HW191631   6.377   0.608   8.436
30535SOL    HW291632   6.290   0.730   8.501
30536SOL     OW91633   7.314   0.935   9.302
30536SOL    HW191634   7.268   0.928   9.213
30536SOL    HW291635   7.252   0.979   9.368
30537SOL     OW91636   5.893   0.063   8.066
30537SOL    HW191637   5.882   0.157   8.099
30537SOL    HW291638   5.888   0.000   8.143
30538SOL     OW91639   7.208   0.367   7.822
30538SOL    HW191640   7.210   0.291   7.886
30538SOL    HW291641   7.160   0.444   7.862
30539SOL     OW91642   6.609   0.766   8.414
30539SOL    HW191643   6.624   0.787   8.510
30539SOL    HW291644   6.579   0.671   8.405
30540SOL     OW91645   6.566   1.573   9.148
30540SOL    HW191646   6.546   1.617   9.060
30540SOL    HW291647   6.605   1.482   9.132
30541SOL     OW91648   7.445   1.518   9.053
30541SOL    HW191649   7.459   1.545   8.958
30541SOL    HW291650   7.528   1.540   9.106
30542SOL     OW91651   5.936   0.898   9.252
30542SOL    HW191652   6.012   0.942   9.300
30542SOL    HW291653   5.971   0.851   9.170
30543SOL     OW91654   7.126   0.274   7.573
30543SOL    HW191655   7.065   0.199   7.596
30543SOL    HW291656   7.148   0.326   7.656
30544SOL     OW91657   6.889   0.838   7.490
30544SOL    HW191658   6.923   0.745   7.505
30544SOL    HW291659   6.907   0.865   7.395
30545SOL     OW91660   6.654   1.333   8.297
30545SOL    HW191661   6.661   1.249   8.242
30545SOL    HW291662   6.716   1.402   8.261
30546SOL     OW91663   5.905   0.810   8.397
30546SOL    HW191664   5.998   0.846   8.402
30546SOL    HW291665   5.899   0.725   8.449
30547SOL     OW91666   5.925   0.509   8.454
30547SOL    HW191667   5.873   0.426   8.437
30547SOL    HW291668   6.002   0.514   8.390
30548SOL     OW91669   6.724   0.380   9.126
30548SOL    HW191670   6.679   0.443   9.190
30548SOL    HW291671   6.817   0.411   9.109
30549SOL     OW91672   6.746   0.207   8.925
30549SOL    HW191673   6.746   0.271   9.002
30549SOL    HW291674   6.774   0.255   8.842
30550SOL     OW91675   5.594   1.326   7.648
30550SOL    HW191676   5.501   1.347   7.617
30550SOL    HW291677   5.604   1.227   7.661
30551SOL     OW91678   5.674   1.801   8.375
30551SOL    HW191679   5.632   1.715   8.348
30551SOL    HW291680   5.768   1.804   8.341
30552SOL     OW91681   6.090   1.568   8.358
30552SOL    HW191682   6.156   1.642   8.367
30552SOL    HW291683   6.134   1.489   8.316
30553SOL     OW91684   6.588   0.796   8.686
30553SOL    HW191685   6.629   0.764   8.772
30553SOL    HW291686   6.492   0.769   8.683
30554SOL     OW91687   5.626   0.544   8.562
30554SOL    HW191688   5.711   0.511   8.521
30554SOL    HW291689   5.639   0.559   8.660
30555SOL     OW91690   5.775   0.520   9.170
30555SOL    HW191691   5.834   0.480   9.100
30555SOL    HW291692   5.717   0.591   9.129
30556SOL     OW91693   6.955   0.950   9.108
30556SOL    HW191694   6.994   1.039   9.128
30556SOL    HW291695   6.965   0.930   9.011
30557SOL     OW91696   6.401   0.572   7.773
30557SOL    HW191697   6.408   0.483   7.727
30557SOL    HW291698   6.307   0.606   7.765
30558SOL     OW91699   7.243   0.604   8.654
30558SOL    HW191700   7.205   0.535   8.716
30558SOL    HW291701   7.325   0.568   8.610
30559SOL     OW91702   5.838   1.564   9.192
30559SOL    HW191703   5.808   1.621   9.268
30559SOL    HW291704   5.831   1.467   9.218
30560SOL     OW91705   6.257   0.464   8.717
30560SOL    HW191706   6.223   0.375   8.687
30560SOL    HW291707   6.283   0.518   8.637
30561SOL     OW91708   6.516   1.678   8.913
30561SOL    HW191709   6.492   1.660   8.818
30561SOL    HW291710   6.546   1.772   8.923
30562SOL     OW91711   6.059   0.500   7.639
30562SOL    HW191712   6.120   0.580   7.643
30562SOL    HW291713   5.964   0.531   7.646
30563SOL     OW91714   5.745   1.137   8.914
30563SOL    HW191715   5.767   1.076   8.990
30563SOL    HW291716   5.755   1.088   8.828
30564SOL     OW91717   6.933   1.059   8.682
30564SOL    HW191718   6.957   0.996   8.608
30564SOL    HW291719   6.843   1.099   8.664
30565SOL     OW91720   6.888   0.855   7.757
30565SOL    HW191721   6.802   0.824   7.799
30565SOL    HW291722   6.884   0.841   7.658
30566SOL     OW91723   7.345   1.747   8.602
30566SOL    HW191724   7.406   1.777   8.529
30566SOL    HW291725   7.307   1.658   8.580
30567SOL     OW91726   6.838   1.731   8.576
30567SOL    HW191727   6.922   1.736   8.522
30567SOL    HW291728   6.815   1.635   8.594
30568SOL     OW91729   5.669   1.258   8.470
30568SOL    HW191730   5.664   1.257   8.570
30568SOL    HW291731   5.586   1.217   8.432
30569SOL     OW91732   6.274   1.662   9.164
30569SOL    HW191733   6.218   1.743   9.173
30569SOL    HW291734   6.326   1.666   9.078
30570SOL     OW91735   7.312   0.135   7.971
30570SOL    HW191736   7.385   0.118   7.904
30570SOL    HW291737   7.281   0.048   8.009
30571SOL     OW91738   6.974   1.573   7.925
30571SOL    HW191739   7.041   1.585   7.851
30571SOL    HW291740   6.934   1.662   7.948
30572SOL     OW91741   5.716   1.794   9.299
30572SOL    HW191742   5.675   1.720   9.352
30572SOL    HW291743   5.780   1.845   9.357
30573SOL     OW91744   6.866   0.927   8.120
30573SOL    HW191745   6.926   0.846   8.122
30573SOL    HW291746   6.906   0.996   8.060
30574SOL     OW91747   6.416   1.273   8.870
30574SOL    HW191748   6.411   1.306   8.965
30574SOL    HW291749   6.330   1.292   8.824
30575SOL     OW91750   6.258   1.616   7.602
30575SOL    HW191751   6.267   1.626   7.503
30575SOL    HW291752   6.218   1.527   7.623
30576SOL     OW91753   7.236   1.720   8.842
30576SOL    HW191754   7.289   1.730   8.758
30576SOL    HW291755   7.209   1.810   8.876
30577SOL     OW91756   7.427   0.175   8.411
30577SOL    HW191757   7.466   0.090   8.375
30577SOL    HW291758   7.329   0.177   8.392
30578SOL     OW91759   5.849   0.326   8.168
30578SOL    HW191760   5.770   0.377   8.134
30578SOL    HW291761   5.840   0.311   8.266
30579SOL     OW91762   6.780   1.612   7.479
30579SOL    HW191763   6.786   1.519   7.516
30579SOL    HW291764   6.721   1.612   7.399
30580SOL     OW91765   6.408   1.002   8.820
30580SOL    HW191766   6.448   1.001   8.728
30580SOL    HW291767   6.418   1.094   8.860
30581SOL     OW91768   6.502   0.910   7.739
30581SOL    HW191769   6.565   0.948   7.671
30581SOL    HW291770   6.542   0.827   7.778
30582SOL     OW91771   7.090   1.607   7.492
30582SOL    HW191772   6.998   1.644   7.499
30582SOL    HW291773   7.128   1.627   7.402
30583SOL     OW91774   5.958   1.288   8.938
30583SOL    HW191775   5.945   1.381   8.904
30583SOL    HW291776   5.874   1.236   8.925
30584SOL     OW91777   7.200   1.292   8.737
30584SOL    HW191778   7.260   1.295   8.817
30584SOL    HW291779   7.125   1.356   8.750
30585SOL     OW91780   6.625   1.098   8.144
30585SOL    HW191781   6.555   1.051   8.198
30585SOL    HW291782   6.684   1.030   8.101
30586SOL     OW91783   6.600   0.236   8.419
30586SOL    HW191784   6.592   0.200   8.326
30586SOL    HW291785   6.598   0.160   8.484
30587SOL     OW91786   6.176   1.487   7.939
30587SOL    HW191787   6.218   1.429   7.869
30587SOL    HW291788   6.132   1.566   7.895
30588SOL     OW91789   7.295   0.385   8.829
30588SOL    HW191790   7.368   0.454   8.833
30588SOL    HW291791   7.323   0.310   8.770
30589SOL     OW91792   5.841   1.348   7.738
30589SOL    HW191793   5.745   1.349   7.711
30589SOL    HW291794   5.853   1.401   7.822
30590SOL     OW91795   5.691   1.013   9.174
30590SOL    HW191796   5.614   0.980   9.228
30590SOL    HW291797   5.776   0.983   9.216
30591SOL     OW91798   6.258   0.203   8.937
30591SOL    HW191799   6.348   0.187   8.897
30591SOL    HW291800   6.266   0.208   9.036
30592SOL     OW91801   5.661   0.345   7.481
30592SOL    HW191802   5.569   0.317   7.452
30592SOL    HW291803   5.692   0.422   7.425
30593SOL     OW91804   7.026   0.856   8.846
30593SOL    HW191805   6.969   0.908   8.783
30593SOL    HW291806   7.122   0.868   8.822
30594SOL     OW91807   5.658   0.166   7.766
30594SOL    HW191808   5.641   0.249   7.712
30594SOL    HW291809   5.748   0.129   7.744
30595SOL     OW91810   6.769   1.335   7.567
30595SOL    HW191811   6.670   1.324   7.569
30595SOL    HW291812   6.803   1.350   7.660
30596SOL     OW91813   6.199   0.842   8.879
30596SOL    HW191814   6.255   0.923   8.862
30596SOL    HW291815   6.258   0.762   8.882
30597SOL     OW91816   7.079   1.767   8.407
30597SOL    HW191817   7.112   1.831   8.338
30597SOL    HW291818   7.145   1.761   8.482
30598SOL     OW91819   6.302   0.565   9.156
30598SOL    HW191820   6.321   0.630   9.230
30598SOL    HW291821   6.362   0.485   9.165
30599SOL     OW91822   7.036   1.220   9.081
30599SOL    HW191823   7.027   1.210   9.180
30599SOL    HW291824   7.132   1.213   9.055
30600SOL     OW91825   5.976   1.741   9.008
30600SOL    HW191826   5.885   1.782   9.006
30600SOL    HW291827   5.969   1.647   9.040
30601SOL     OW91828   7.260   0.883   8.702
30601SOL    HW191829   7.233   0.794   8.665
30601SOL    HW291830   7.261   0.951   8.629
30602SOL     OW91831   6.811   0.325   7.897
30602SOL    HW191832   6.876   0.251   7.886
30602SOL    HW291833   6.831   0.375   7.981
30603SOL     OW91834   6.180   0.745   8.100
30603SOL    HW191835   6.230   0.830   8.081
30603SOL    HW291836   6.092   0.747   8.052
30604SOL     OW91837   7.363   0.342   9.090
30604SOL    HW191838   7.346   0.373   8.996
30604SOL    HW291839   7.279   0.305   9.128
30605SOL     OW91840   7.316   0.934   8.965
30605SOL    HW191841   7.354   1.025   8.980
30605SOL    HW291842   7.308   0.917   8.866
30606SOL     OW91843   6.445   1.374   7.464
30606SOL    HW191844   6.399   1.389   7.552
30606SOL    HW291845   6.489   1.459   7.434
30607SOL     OW91846   6.247   1.790   8.401
30607SOL    HW191847   6.201   1.878   8.388
30607SOL    HW291848   6.346   1.802   8.394
30608SOL     OW91849   6.445   0.956   8.309
30608SOL    HW191850   6.499   0.887   8.357
30608SOL    HW291851   6.413   1.025   8.375
30609SOL     OW91852   6.669   0.984   7.535
30609SOL    HW191853   6.646   1.037   7.453
30609SOL    HW291854   6.750   0.928   7.516
30610SOL     OW91855   7.447   1.569   8.299
30610SOL    HW191856   7.376   1.557   8.229
30610SOL    HW291857   7.448   1.490   8.359
30611SOL     OW91858   5.807   1.314   9.292
30611SOL    HW191859   5.742   1.241   9.271
30611SOL    HW291860   5.811   1.328   9.390
30612SOL     OW91861   5.665   1.240   8.101
30612SOL    HW191862   5.664   1.193   8.189
30612SOL    HW291863   5.747   1.212   8.050
30613SOL     OW91864   6.258   1.391   9.072
30613SOL    HW191865   6.180   1.341   9.110
30613SOL    HW291866   6.255   1.486   9.103
30614SOL     OW91867   7.410   0.192   8.675
30614SOL    HW191868   7.406   0.102   8.719
30614SOL    HW291869   7.413   0.181   8.576
30615SOL     OW91870   6.014   0.424   7.968
30615SOL    HW191871   6.044   0.352   7.906
30615SOL    HW291872   5.975   0.384   8.051
30616SOL     OW91873   7.291   1.487   8.552
30616SOL    HW191874   7.198   1.462   8.525
30616SOL    HW291875   7.317   1.437   8.634
30617SOL     OW91876   5.903   0.547   8.728
30617SOL    HW191877   5.941   0.488   8.800
30617SOL    HW291878   5.943   0.521   8.640
30618SOL     OW91879   6.398   1.586   8.135
30618SOL    HW191880   6.430   1.596   8.041
30618SOL    HW291881   6.319   1.524   8.137
30619SOL     OW91882   7.010   0.214   8.560
30619SOL    HW191883   7.062   0.149   8.615
30619SOL    HW291884   6.961   0.277   8.621
30620SOL     OW91885   6.587   0.034   8.602
30620SOL    HW191886   6.524  -0.038   8.571
30620SOL    HW291887   6.680  -0.002   8.602
30621SOL     OW91888   6.356   1.330   7.749
30621SOL    HW191889   6.310   1.243   7.766
30621SOL    HW291890   6.447   1.327   7.790
30622SOL     OW91891   6.204   1.567   8.732
30622SOL    HW191892   6.199   1.649   8.789
30622SOL    HW291893   6.293   1.564   8.687
30623SOL     OW91894   6.938   0.052   7.616
30623SOL    HW191895   6.973   0.011   7.532
30623SOL    HW291896   6.848   0.014   7.636
30624SOL     OW91897   6.886   0.453   8.139
30624SOL    HW191898   6.827   0.533   8.143
30624SOL    HW291899   6.901   0.418   8.232
30625SOL     OW91900   7.179   0.221   8.330
30625SOL    HW191901   7.095   0.220   8.384
30625SOL    HW291902   7.181   0.304   8.274
30626SOL     OW91903   5.625   1.077   7.748
30626SOL    HW191904   5.724   1.066   7.739
30626SOL    HW291905   5.585   0.991   7.780
30627SOL     OW91906   6.461   1.646   7.785
30627SOL    HW191907   6.384   1.611   7.731
30627SOL    HW291908   6.429   1.717   7.847
30628SOL     OW91909   5.816   0.628   9.423
30628SOL    HW191910   5.723   0.626   9.460
30628SOL    HW291911   5.817   0.589   9.331
30629SOL     OW91912   5.811   0.275  10.306
30629SOL    HW191913   5.846   0.258  10.398
30629SOL    HW291914   5.723   0.230  10.294
30630SOL     OW91915   5.605   0.368   9.957
30630SOL    HW191916   5.523   0.411   9.996
30630SOL    HW291917   5.577   0.295   9.894
30631SOL     OW91918   6.155   1.275  10.475
30631SOL    HW191919   6.062   1.268  10.438
30631SOL    HW291920   6.166   1.364  10.519
30632SOL     OW91921   7.141   1.511  10.013
30632SOL    HW191922   7.084   1.495  10.094
30632SOL    HW291923   7.082   1.521   9.933
30633SOL     OW91924   6.721   0.703  10.027
30633SOL    HW191925   6.778   0.781  10.002
30633SOL    HW291926   6.661   0.729  10.103
30634SOL     OW91927   7.341   0.607   9.541
30634SOL    HW191928   7.329   0.594   9.442
30634SOL    HW291929   7.311   0.526   9.590
30635SOL     OW91930   6.354   1.144  10.333
30635SOL    HW191931   6.276   1.161  10.393
30635SOL    HW291932   6.388   1.231  10.297
30636SOL     OW91933   6.436   0.798  11.133
30636SOL    HW191934   6.432   0.874  11.198
30636SOL    HW291935   6.458   0.834  11.042
30637SOL     OW91936   6.271   1.012   9.975
30637SOL    HW191937   6.340   0.996  10.045
30637SOL    HW291938   6.198   1.069  10.013
30638SOL     OW91939   6.272   1.161  11.113
30638SOL    HW191940   6.332   1.240  11.127
30638SOL    HW291941   6.186   1.192  11.072
30639SOL     OW91942   5.921   1.435  10.371
30639SOL    HW191943   5.843   1.404  10.318
30639SOL    HW291944   5.979   1.493  10.314
30640SOL     OW91945   7.046   1.505  10.649
30640SOL    HW191946   7.070   1.599  10.675
30640SOL    HW291947   7.030   1.451  10.731
30641SOL     OW91948   6.024   0.392  10.809
30641SOL    HW191949   6.106   0.336  10.818
30641SOL    HW291950   5.943   0.334  10.813
30642SOL     OW91951   5.817   1.713   9.793
30642SOL    HW191952   5.851   1.790   9.847
30642SOL    HW291953   5.861   1.713   9.703
30643SOL     OW91954   6.713   1.341  11.000
30643SOL    HW191955   6.760   1.341  11.088
30643SOL    HW291956   6.665   1.254  10.989
30644SOL     OW91957   5.816   1.434   9.848
30644SOL    HW191958   5.790   1.530   9.848
30644SOL    HW291959   5.745   1.380   9.893
30645SOL     OW91960   5.826   1.091  10.196
30645SOL    HW191961   5.840   1.007  10.248
30645SOL    HW291962   5.771   1.155  10.251
30646SOL     OW91963   6.206   1.786  10.749
30646SOL    HW191964   6.114   1.769  10.784
30646SOL    HW291965   6.234   1.878  10.775
30647SOL     OW91966   6.192   0.964   9.433
30647SOL    HW191967   6.199   1.048   9.379
30647SOL    HW291968   6.238   0.977   9.521
30648SOL     OW91969   7.180   0.114  10.790
30648SOL    HW191970   7.162   0.181  10.718
30648SOL    HW291971   7.177   0.160  10.879
30649SOL     OW91972   5.708   0.643   9.873
30649SOL    HW191973   5.663   0.555   9.890
30649SOL    HW291974   5.707   0.697   9.957
30650SOL     OW91975   7.428   1.767   9.669
30650SOL    HW191976   7.482   1.738   9.749
30650SOL    HW291977   7.458   1.857   9.640
30651SOL     OW91978   5.613   1.596   9.427
30651SOL    HW191979   5.594   1.500   9.448
30651SOL    HW291980   5.580   1.654   9.502
30652SOL     OW91981   7.275   0.922   9.922
30652SOL    HW191982   7.370   0.893   9.930
30652SOL    HW291983   7.267   0.987   9.847
30653SOL     OW91984   7.227   1.108   9.742
30653SOL    HW191985   7.313   1.110   9.690
30653SOL    HW291986   7.241   1.155   9.830
30654SOL     OW91987   5.699   0.737  10.907
30654SOL    HW191988   5.787   0.724  10.952
30654SOL    HW291989   5.686   0.834  10.885
30655SOL     OW91990   6.199   1.365  10.036
30655SOL    HW191991   6.150   1.278  10.045
30655SOL    HW291992   6.176   1.408   9.949
30656SOL     OW91993   6.879   1.228  10.733
30656SOL    HW191994   6.916   1.155  10.675
30656SOL    HW291995   6.931   1.233  10.818
30657SOL     OW91996   6.395   0.004   9.812
30657SOL    HW191997   6.435   0.095   9.803
30657SOL    HW291998   6.295   0.012   9.818
30658SOL     OW91999   5.783   0.976  10.574
30658SOL    HW192000   5.872   0.931  10.560
30658SOL    HW292001   5.710   0.911  10.555
30659SOL     OW92002   7.111   0.999   9.500
30659SOL    HW192003   7.048   0.923   9.513
30659SOL    HW292004   7.159   1.017   9.586
30660SOL     OW92005   6.773   1.792  10.926
30660SOL    HW192006   6.797   1.852  10.850
30660SOL    HW292007   6.780   1.697  10.896
30661SOL     OW92008   5.903   0.251  11.111
30661SOL    HW192009   5.974   0.322  11.117
30661SOL    HW292010   5.815   0.290  11.139
30662SOL     OW92011   7.052   1.417  10.263
30662SOL    HW192012   6.993   1.423  10.343
30662SOL    HW292013   7.037   1.329  10.217
30663SOL     OW92014   7.253   1.714   9.882
30663SOL    HW192015   7.212   1.691   9.794
30663SOL    HW292016   7.235   1.640   9.947
30664SOL     OW92017   6.184   0.729   9.580
30664SOL    HW192018   6.208   0.798   9.512
30664SOL    HW292019   6.106   0.762   9.634
30665SOL     OW92020   6.867   0.345  10.254
30665SOL    HW192021   6.781   0.295  10.241
30665SOL    HW292022   6.929   0.291  10.310
30666SOL     OW92023   7.162   1.662   9.617
30666SOL    HW192024   7.251   1.708   9.620
30666SOL    HW292025   7.141   1.638   9.522
30667SOL     OW92026   6.393   0.605  10.775
30667SOL    HW192027   6.346   0.602  10.864
30667SOL    HW292028   6.342   0.550  10.709
30668SOL     OW92029   6.980   0.469  10.984
30668SOL    HW192030   6.960   0.512  11.072
30668SOL    HW292031   7.058   0.407  10.993
30669SOL     OW92032   6.559   0.890  10.882
30669SOL    HW192033   6.605   0.806  10.853
30669SOL    HW292034   6.503   0.924  10.807
30670SOL     OW92035   6.577   0.410  10.552
30670SOL    HW192036   6.500   0.444  10.606
30670SOL    HW292037   6.543   0.359  10.473
30671SOL     OW92038   6.627   0.701   9.739
30671SOL    HW192039   6.653   0.697   9.835
30671SOL    HW292040   6.542   0.650   9.725
30672SOL     OW92041   5.662   0.811  10.099
30672SOL    HW192042   5.761   0.799  10.108
30672SOL    HW292043   5.638   0.906  10.120
30673SOL     OW92044   5.716   1.821  10.881
30673SOL    HW192045   5.706   1.806  10.980
30673SOL    HW292046   5.630   1.857  10.845
30674SOL     OW92047   6.451   0.348   9.505
30674SOL    HW192048   6.510   0.411   9.456
30674SOL    HW292049   6.470   0.254   9.476
30675SOL     OW92050   7.305   0.585  11.141
30675SOL    HW192051   7.279   0.674  11.105
30675SOL    HW292052   7.303   0.517  11.068
30676SOL     OW92053   6.948   1.144   9.855
30676SOL    HW192054   7.031   1.115   9.807
30676SOL    HW292055   6.899   1.211   9.799
30677SOL     OW92056   6.136   0.196  10.195
30677SOL    HW192057   6.131   0.191  10.295
30677SOL    HW292058   6.138   0.292  10.166
30678SOL     OW92059   6.594   1.456   9.787
30678SOL    HW192060   6.548   1.528   9.735
30678SOL    HW292061   6.590   1.476   9.885
30679SOL     OW92062   5.937   1.801  10.163
30679SOL    HW192063   5.987   1.715  10.169
30679SOL    HW292064   6.002   1.878  10.160
30680SOL     OW92065   7.381   1.066  10.183
30680SOL    HW192066   7.319   1.051  10.107
30680SOL    HW292067   7.329   1.077  10.268
30681SOL     OW92068   6.813   1.550  10.816
30681SOL    HW192069   6.819   1.473  10.880
30681SOL    HW292070   6.761   1.524  10.736
30682SOL     OW92071   5.907   0.943   9.552
30682SOL    HW192072   5.989   0.982   9.510
30682SOL    HW292073   5.880   0.861   9.503
30683SOL     OW92074   7.044   0.735  10.038
30683SOL    HW192075   7.039   0.670  10.113
30683SOL    HW292076   7.124   0.794  10.051
30684SOL     OW92077   6.047   1.266  11.037
30684SOL    HW192078   5.997   1.267  10.951
30684SOL    HW292079   5.984   1.248  11.113
30685SOL     OW92080   6.697   1.776   9.547
30685SOL    HW192081   6.637   1.714   9.597
30685SOL    HW292082   6.728   1.732   9.462
30686SOL     OW92083   5.788   0.285  10.808
30686SOL    HW192084   5.708   0.345  10.795
30686SOL    HW292085   5.778   0.236  10.894
30687SOL     OW92086   7.218   1.377   9.391
30687SOL    HW192087   7.186   1.471   9.381
30687SOL    HW292088   7.142   1.314   9.379
30688SOL     OW92089   6.050   1.743   9.633
30688SOL    HW192090   6.083   1.782   9.719
30688SOL    HW292091   6.126   1.736   9.568
30689SOL     OW92092   6.986   0.107   9.736
30689SOL    HW192093   6.962   0.070   9.646
30689SOL    HW292094   7.085   0.123   9.740
30690SOL     OW92095   5.835   1.785  10.551
30690SOL    HW192096   5.892   1.720  10.601
30690SOL    HW292097   5.819   1.752  10.458
30691SOL     OW92098   6.526   1.698  10.214
30691SOL    HW192099   6.606   1.641  10.235
30691SOL    HW292100   6.477   1.658  10.137
30692SOL     OW92101   5.968   0.700   9.790
30692SOL    HW192102   6.013   0.610   9.787
30692SOL    HW292103   5.874   0.689   9.823
30693SOL     OW92104   7.133   0.222  11.039
30693SOL    HW192105   7.128   0.259  11.131
30693SOL    HW292106   7.061   0.153  11.027
30694SOL     OW92107   6.200   0.122   9.427
30694SOL    HW192108   6.298   0.100   9.434
30694SOL    HW292109   6.169   0.105   9.334
30695SOL     OW92110   6.367   0.264  11.059
30695SOL    HW192111   6.434   0.203  11.102
30695SOL    HW292112   6.294   0.283  11.124
30696SOL     OW92113   6.474   1.514  10.505
30696SOL    HW192114   6.451   1.489  10.411
30696SOL    HW292115   6.535   1.445  10.544
30697SOL     OW92116   6.937   0.590  10.743
30697SOL    HW192117   6.965   0.547  10.828
30697SOL    HW292118   6.962   0.686  10.744
30698SOL     OW92119   6.389   1.402  10.234
30698SOL    HW192120   6.479   1.416  10.192
30698SOL    HW292121   6.318   1.404  10.163
30699SOL     OW92122   6.508   0.503  10.209
30699SOL    HW192123   6.483   0.494  10.113
30699SOL    HW292124   6.556   0.421  10.240
30700SOL     OW92125   6.125   0.064   9.822
30700SOL    HW192126   6.044   0.065   9.880
30700SOL    HW292127   6.128   0.147   9.767
30701SOL     OW92128   7.020   1.188   9.351
30701SOL    HW192129   7.052   1.112   9.408
30701SOL    HW292130   6.928   1.215   9.381
30702SOL     OW92131   5.883   0.035   9.481
30702SOL    HW192132   5.932   0.119   9.460
30702SOL    HW292133   5.945  -0.030   9.526
30703SOL     OW92134   6.521   0.236   9.790
30703SOL    HW192135   6.473   0.277   9.712
30703SOL    HW292136   6.620   0.234   9.771
30704SOL     OW92137   6.662   0.683  10.774
30704SOL    HW192138   6.582   0.622  10.777
30704SOL    HW292139   6.743   0.630  10.750
30705SOL     OW92140   6.813   1.570  10.103
30705SOL    HW192141   6.834   1.644  10.038
30705SOL    HW292142   6.881   1.570  10.176
30706SOL     OW92143   6.045   1.152  10.051
30706SOL    HW192144   5.974   1.125  10.116
30706SOL    HW292145   6.019   1.124   9.958
30707SOL     OW92146   6.857   1.797   9.901
30707SOL    HW192147   6.901   1.861   9.837
30707SOL    HW292148   6.807   1.849   9.971
30708SOL     OW92149   6.618   0.549   9.326
30708SOL    HW192150   6.577   0.631   9.287
30708SOL    HW292151   6.682   0.575   9.399
30709SOL     OW92152   5.664   0.556  10.696
30709SOL    HW192153   5.756   0.555  10.655
30709SOL    HW292154   5.658   0.630  10.763
30710SOL     OW92155   6.147   0.222  10.457
30710SOL    HW192156   6.185   0.138  10.494
30710SOL    HW292157   6.059   0.241  10.501
30711SOL     OW92158   6.452   0.454   9.952
30711SOL    HW192159   6.420   0.526   9.890
30711SOL    HW292160   6.476   0.373   9.899
30712SOL     OW92161   6.603   0.039  10.063
30712SOL    HW192162   6.531   0.044   9.994
30712SOL    HW292163   6.579  -0.030  10.132
30713SOL     OW92164   7.015   1.173  10.177
30713SOL    HW192165   6.960   1.089  10.170
30713SOL    HW292166   7.041   1.202  10.085
30714SOL     OW92167   7.052   0.590  10.302
30714SOL    HW192168   7.022   0.495  10.309
30714SOL    HW292169   7.125   0.606  10.368
30715SOL     OW92170   7.443   0.833   9.687
30715SOL    HW192171   7.485   0.769   9.751
30715SOL    HW292172   7.405   0.782   9.609
30716SOL     OW92173   6.074   1.385   9.484
30716SOL    HW192174   5.987   1.370   9.531
30716SOL    HW292175   6.057   1.411   9.389
30717SOL     OW92176   7.250   1.280   9.967
30717SOL    HW192177   7.349   1.288   9.981
30717SOL    HW292178   7.205   1.364   9.998
30718SOL     OW92179   6.976   0.575   9.388
30718SOL    HW192180   6.922   0.554   9.469
30718SOL    HW292181   7.067   0.534   9.397
30719SOL     OW92182   6.113   0.256   9.638
30719SOL    HW192183   6.140   0.197   9.563
30719SOL    HW292184   6.113   0.351   9.607
30720SOL     OW92185   7.340   1.223  10.898
30720SOL    HW192186   7.431   1.184  10.885
30720SOL    HW292187   7.348   1.319  10.922
30721SOL     OW92188   6.650   1.347  10.650
30721SOL    HW192189   6.570   1.324  10.705
30721SOL    HW292190   6.733   1.321  10.699
30722SOL     OW92191   7.178   1.629  10.935
30722SOL    HW192192   7.205   1.663  10.845
30722SOL    HW292193   7.257   1.591  10.981
30723SOL     OW92194   6.697   1.195  10.410
30723SOL    HW192195   6.657   1.239  10.491
30723SOL    HW292196   6.656   1.232  10.327
30724SOL     OW92197   7.224   1.099  10.389
30724SOL    HW192198   7.229   1.180  10.448
30724SOL    HW292199   7.138   1.101  10.338
30725SOL     OW92200   6.501   0.089  10.712
30725SOL    HW192201   6.526   0.069  10.617
30725SOL    HW292202   6.573   0.145  10.754
30726SOL     OW92203   6.566   1.116  11.029
30726SOL    HW192204   6.467   1.122  11.039
30726SOL    HW292205   6.589   1.036  10.973
30727SOL     OW92206   6.291   1.050   9.678
30727SOL    HW192207   6.277   1.057   9.777
30727SOL    HW292208   6.375   0.999   9.660
30728SOL     OW92209   5.996   0.813  10.561
30728SOL    HW192210   6.082   0.825  10.611
30728SOL    HW292211   5.954   0.726  10.588
30729SOL     OW92212   6.860   0.386  10.572
30729SOL    HW192213   6.881   0.460  10.636
30729SOL    HW292214   6.771   0.403  10.529
30730SOL     OW92215   5.650   1.564  10.641
30730SOL    HW192216   5.604   1.646  10.607
30730SOL    HW292217   5.748   1.583  10.650
30731SOL     OW92218   5.953   1.100   9.811
30731SOL    HW192219   5.946   1.183   9.755
30731SOL    HW292220   5.957   1.020   9.751
30732SOL     OW92221   6.152   0.537  10.175
30732SOL    HW192222   6.164   0.603  10.101
30732SOL    HW292223   6.198   0.571  10.258
30733SOL     OW92224   6.838   1.348   9.698
30733SOL    HW192225   6.888   1.425   9.738
30733SOL    HW292226   6.743   1.350   9.730
30734SOL     OW92227   6.858   1.445  10.452
30734SOL    HW192228   6.905   1.458  10.539
30734SOL    HW292229   6.792   1.371  10.461
30735SOL     OW92230   7.168   0.639   9.782
30735SOL    HW192231   7.137   0.700   9.855
30735SOL    HW292232   7.218   0.691   9.713
30736SOL     OW92233   5.940   1.510  10.639
30736SOL    HW192234   5.919   1.466  10.552
30736SOL    HW292235   6.037   1.536  10.642
30737SOL     OW92236   5.988   0.751  10.908
30737SOL    HW192237   6.056   0.806  10.861
30737SOL    HW292238   6.028   0.663  10.935
30738SOL     OW92239   7.173   0.779  10.980
30738SOL    HW192240   7.081   0.817  10.975
30738SOL    HW292241   7.233   0.826  10.915
30739SOL     OW92242   6.599   0.105  11.080
30739SOL    HW192243   6.605   0.190  11.028
30739SOL    HW292244   6.631   0.029  11.023
30740SOL     OW92245   6.090   0.050  11.050
30740SOL    HW192246   6.048  -0.007  10.980
30740SOL    HW292247   6.024   0.119  11.082
30741SOL     OW92248   6.159   0.870  10.339
30741SOL    HW192249   6.203   0.959  10.330
30741SOL    HW292250   6.096   0.870  10.416
30742SOL     OW92251   6.946   0.862  10.355
30742SOL    HW192252   6.871   0.862  10.289
30742SOL    HW292253   6.983   0.770  10.364
30743SOL     OW92254   6.795   0.525   9.585
30743SOL    HW192255   6.808   0.441   9.639
30743SOL    HW292256   6.766   0.599   9.645
30744SOL     OW92257   5.893   0.213  10.541
30744SOL    HW192258   5.870   0.250  10.631
30744SOL    HW292259   5.863   0.118  10.535
30745SOL     OW92260   5.623   1.310  10.592
30745SOL    HW192261   5.676   1.261  10.660
30745SOL    HW292262   5.645   1.408  10.597
30746SOL     OW92263   6.318   0.634  10.374
30746SOL    HW192264   6.377   0.608  10.298
30746SOL    HW292265   6.290   0.730  10.363
30747SOL     OW92266   7.314   0.935  11.164
30747SOL    HW192267   7.268   0.928  11.075
30747SOL    HW292268   7.252   0.979  11.230
30748SOL     OW92269   5.893   0.063   9.928
30748SOL    HW192270   5.882   0.157   9.961
30748SOL    HW292271   5.888   0.000  10.005
30749SOL     OW92272   7.208   0.367   9.684
30749SOL    HW192273   7.210   0.291   9.748
30749SOL    HW292274   7.160   0.444   9.724
30750SOL     OW92275   6.609   0.766  10.276
30750SOL    HW192276   6.624   0.787  10.372
30750SOL    HW292277   6.579   0.671  10.267
30751SOL     OW92278   6.566   1.573  11.010
30751SOL    HW192279   6.546   1.617  10.922
30751SOL    HW292280   6.605   1.482  10.994
30752SOL     OW92281   7.445   1.518  10.915
30752SOL    HW192282   7.459   1.545  10.820
30752SOL    HW292283   7.528   1.540  10.968
30753SOL     OW92284   5.936   0.898  11.114
30753SOL    HW192285   6.012   0.942  11.162
30753SOL    HW292286   5.971   0.851  11.032
30754SOL     OW92287   7.126   0.274   9.435
30754SOL    HW192288   7.065   0.199   9.458
30754SOL    HW292289   7.148   0.326   9.518
30755SOL     OW92290   6.889   0.838   9.352
30755SOL    HW192291   6.923   0.745   9.367
30755SOL    HW292292   6.907   0.865   9.257
30756SOL     OW92293   6.654   1.333  10.159
30756SOL    HW192294   6.661   1.249  10.104
30756SOL    HW292295   6.716   1.402  10.123
30757SOL     OW92296   5.905   0.810  10.259
30757SOL    HW192297   5.998   0.846  10.264
30757SOL    HW292298   5.899   0.725  10.311
30758SOL     OW92299   5.925   0.509  10.316
30758SOL    HW192300   5.873   0.426  10.299
30758SOL    HW292301   6.002   0.514  10.252
30759SOL     OW92302   6.724   0.380  10.988
30759SOL    HW192303   6.679   0.443  11.052
30759SOL    HW292304   6.817   0.411  10.971
30760SOL     OW92305   6.746   0.207  10.787
30760SOL    HW192306   6.746   0.271  10.864
30760SOL    HW292307   6.774   0.255  10.704
30761SOL     OW92308   5.594   1.326   9.510
30761SOL    HW192309   5.501   1.347   9.479
30761SOL    HW292310   5.604   1.227   9.523
30762SOL     OW92311   5.674   1.801  10.237
30762SOL    HW192312   5.632   1.715  10.210
30762SOL    HW292313   5.768   1.804  10.203
30763SOL     OW92314   6.090   1.568  10.220
30763SOL    HW192315   6.156   1.642  10.229
30763SOL    HW292316   6.134   1.489  10.178
30764SOL     OW92317   6.588   0.796  10.548
30764SOL    HW192318   6.629   0.764  10.634
30764SOL    HW292319   6.492   0.769  10.545
30765SOL     OW92320   5.626   0.544  10.424
30765SOL    HW192321   5.711   0.511  10.383
30765SOL    HW292322   5.639   0.559  10.522
30766SOL     OW92323   5.775   0.520  11.032
30766SOL    HW192324   5.834   0.480  10.962
30766SOL    HW292325   5.717   0.591  10.991
30767SOL     OW92326   6.955   0.950  10.970
30767SOL    HW192327   6.994   1.039  10.990
30767SOL    HW292328   6.965   0.930  10.873
30768SOL     OW92329   6.401   0.572   9.635
30768SOL    HW192330   6.408   0.483   9.589
30768SOL    HW292331   6.307   0.606   9.627
30769SOL     OW92332   7.243   0.604  10.516
30769SOL    HW192333   7.205   0.535  10.578
30769SOL    HW292334   7.325   0.568  10.472
30770SOL     OW92335   5.838   1.564  11.054
30770SOL    HW192336   5.808   1.621  11.130
30770SOL    HW292337   5.831   1.467  11.080
30771SOL     OW92338   6.257   0.464  10.579
30771SOL    HW192339   6.223   0.375  10.549
30771SOL    HW292340   6.283   0.518  10.499
30772SOL     OW92341   6.516   1.678  10.775
30772SOL    HW192342   6.492   1.660  10.680
30772SOL    HW292343   6.546   1.772  10.785
30773SOL     OW92344   6.059   0.500   9.501
30773SOL    HW192345   6.120   0.580   9.505
30773SOL    HW292346   5.964   0.531   9.508
30774SOL     OW92347   5.745   1.137  10.776
30774SOL    HW192348   5.767   1.076  10.852
30774SOL    HW292349   5.755   1.088  10.690
30775SOL     OW92350   6.933   1.059  10.544
30775SOL    HW192351   6.957   0.996  10.470
30775SOL    HW292352   6.843   1.099  10.526
30776SOL     OW92353   6.888   0.855   9.619
30776SOL    HW192354   6.802   0.824   9.661
30776SOL    HW292355   6.884   0.841   9.520
30777SOL     OW92356   7.345   1.747  10.464
30777SOL    HW192357   7.406   1.777  10.391
30777SOL    HW292358   7.307   1.658  10.442
30778SOL     OW92359   6.838   1.731  10.438
30778SOL    HW192360   6.922   1.736  10.384
30778SOL    HW292361   6.815   1.635  10.456
30779SOL     OW92362   5.669   1.258  10.332
30779SOL    HW192363   5.664   1.257  10.432
30779SOL    HW292364   5.586   1.217  10.294
30780SOL     OW92365   6.274   1.662  11.026
30780SOL    HW192366   6.218   1.743  11.035
30780SOL    HW292367   6.326   1.666  10.940
30781SOL     OW92368   7.312   0.135   9.833
30781SOL    HW192369   7.385   0.118   9.766
30781SOL    HW292370   7.281   0.048   9.871
30782SOL     OW92371   6.974   1.573   9.787
30782SOL    HW192372   7.041   1.585   9.713
30782SOL    HW292373   6.934   1.662   9.810
30783SOL     OW92374   5.716   1.794  11.161
30783SOL    HW192375   5.675   1.720  11.214
30783SOL    HW292376   5.780   1.845  11.219
30784SOL     OW92377   6.866   0.927   9.982
30784SOL    HW192378   6.926   0.846   9.984
30784SOL    HW292379   6.906   0.996   9.922
30785SOL     OW92380   6.416   1.273  10.732
30785SOL    HW192381   6.411   1.306  10.827
30785SOL    HW292382   6.330   1.292  10.686
30786SOL     OW92383   6.258   1.616   9.464
30786SOL    HW192384   6.267   1.626   9.365
30786SOL    HW292385   6.218   1.527   9.485
30787SOL     OW92386   7.236   1.720  10.704
30787SOL    HW192387   7.289   1.730  10.620
30787SOL    HW292388   7.209   1.810  10.738
30788SOL     OW92389   7.427   0.175  10.273
30788SOL    HW192390   7.466   0.090  10.237
30788SOL    HW292391   7.329   0.177  10.254
30789SOL     OW92392   5.849   0.326  10.030
30789SOL    HW192393   5.770   0.377   9.996
30789SOL    HW292394   5.840   0.311  10.128
30790SOL     OW92395   6.780   1.612   9.341
30790SOL    HW192396   6.786   1.519   9.378
30790SOL    HW292397   6.721   1.612   9.261
30791SOL     OW92398   6.408   1.002  10.682
30791SOL    HW192399   6.448   1.001  10.590
30791SOL    HW292400   6.418   1.094  10.722
30792SOL     OW92401   6.502   0.910   9.601
30792SOL    HW192402   6.565   0.948   9.533
30792SOL    HW292403   6.542   0.827   9.640
30793SOL     OW92404   7.090   1.607   9.354
30793SOL    HW192405   6.998   1.644   9.361
30793SOL    HW292406   7.128   1.627   9.264
30794SOL     OW92407   5.958   1.288  10.800
30794SOL    HW192408   5.945   1.381  10.766
30794SOL    HW292409   5.874   1.236  10.787
30795SOL     OW92410   7.200   1.292  10.599
30795SOL    HW192411   7.260   1.295  10.679
30795SOL    HW292412   7.125   1.356  10.612
30796SOL     OW92413   6.625   1.098  10.006
30796SOL    HW192414   6.555   1.051  10.060
30796SOL    HW292415   6.684   1.030   9.963
30797SOL     OW92416   6.600   0.236  10.281
30797SOL    HW192417   6.592   0.200  10.188
30797SOL    HW292418   6.598   0.160  10.346
30798SOL     OW92419   6.176   1.487   9.801
30798SOL    HW192420   6.218   1.429   9.731
30798SOL    HW292421   6.132   1.566   9.757
30799SOL     OW92422   7.295   0.385  10.691
30799SOL    HW192423   7.368   0.454  10.695
30799SOL    HW292424   7.323   0.310  10.632
30800SOL     OW92425   5.841   1.348   9.600
30800SOL    HW192426   5.745   1.349   9.573
30800SOL    HW292427   5.853   1.401   9.684
30801SOL     OW92428   5.691   1.013  11.036
30801SOL    HW192429   5.614   0.980  11.090
30801SOL    HW292430   5.776   0.983  11.078
30802SOL     OW92431   6.258   0.203  10.799
30802SOL    HW192432   6.348   0.187  10.759
30802SOL    HW292433   6.266   0.208  10.898
30803SOL     OW92434   5.661   0.345   9.343
30803SOL    HW192435   5.569   0.317   9.314
30803SOL    HW292436   5.692   0.422   9.287
30804SOL     OW92437   7.026   0.856  10.708
30804SOL    HW192438   6.969   0.908  10.645
30804SOL    HW292439   7.122   0.868  10.684
30805SOL     OW92440   5.658   0.166   9.628
30805SOL    HW192441   5.641   0.249   9.574
30805SOL    HW292442   5.748   0.129   9.606
30806SOL     OW92443   6.769   1.335   9.429
30806SOL    HW192444   6.670   1.324   9.431
30806SOL    HW292445   6.803   1.350   9.522
30807SOL     OW92446   6.199   0.842  10.741
30807SOL    HW192447   6.255   0.923  10.724
30807SOL    HW292448   6.258   0.762  10.744
30808SOL     OW92449   7.079   1.767  10.269
30808SOL    HW192450   7.112   1.831  10.200
30808SOL    HW292451   7.145   1.761  10.344
30809SOL     OW92452   6.302   0.565  11.018
30809SOL    HW192453   6.321   0.630  11.092
30809SOL    HW292454   6.362   0.485  11.027
30810SOL     OW92455   7.036   1.220  10.943
30810SOL    HW192456   7.027   1.210  11.042
30810SOL    HW292457   7.132   1.213  10.917
30811SOL     OW92458   5.976   1.741  10.870
30811SOL    HW192459   5.885   1.782  10.868
30811SOL    HW292460   5.969   1.647  10.902
30812SOL     OW92461   7.260   0.883  10.564
30812SOL    HW192462   7.233   0.794  10.527
30812SOL    HW292463   7.261   0.951  10.491
30813SOL     OW92464   6.811   0.325   9.759
30813SOL    HW192465   6.876   0.251   9.748
30813SOL    HW292466   6.831   0.375   9.843
30814SOL     OW92467   6.180   0.745   9.962
30814SOL    HW192468   6.230   0.830   9.943
30814SOL    HW292469   6.092   0.747   9.914
30815SOL     OW92470   7.363   0.342  10.952
30815SOL    HW192471   7.346   0.373  10.858
30815SOL    HW292472   7.279   0.305  10.990
30816SOL     OW92473   7.316   0.934  10.827
30816SOL    HW192474   7.354   1.025  10.842
30816SOL    HW292475   7.308   0.917  10.728
30817SOL     OW92476   6.445   1.374   9.326
30817SOL    HW192477   6.399   1.389   9.414
30817SOL    HW292478   6.489   1.459   9.296
30818SOL     OW92479   6.247   1.790  10.263
30818SOL    HW192480   6.201   1.878  10.250
30818SOL    HW292481   6.346   1.802  10.256
30819SOL     OW92482   6.445   0.956  10.171
30819SOL    HW192483   6.499   0.887  10.219
30819SOL    HW292484   6.413   1.025  10.237
30820SOL     OW92485   6.669   0.984   9.397
30820SOL    HW192486   6.646   1.037   9.315
30820SOL    HW292487   6.750   0.928   9.378
30821SOL     OW92488   7.447   1.569  10.161
30821SOL    HW192489   7.376   1.557  10.091
30821SOL    HW292490   7.448   1.490  10.221
30822SOL     OW92491   5.807   1.314  11.154
30822SOL    HW192492   5.742   1.241  11.133
30822SOL    HW292493   5.811   1.328  11.252
30823SOL     OW92494   5.665   1.240   9.963
30823SOL    HW192495   5.664   1.193  10.051
30823SOL    HW292496   5.747   1.212   9.912
30824SOL     OW92497   6.258   1.391  10.934
30824SOL    HW192498   6.180   1.341  10.972
30824SOL    HW292499   6.255   1.486  10.965
30825SOL     OW92500   7.410   0.192  10.537
30825SOL    HW192501   7.406   0.102  10.581
30825SOL    HW292502   7.413   0.181  10.438
30826SOL     OW92503   6.014   0.424   9.830
30826SOL    HW192504   6.044   0.352   9.768
30826SOL    HW292505   5.975   0.384   9.913
30827SOL     OW92506   7.291   1.487  10.414
30827SOL    HW192507   7.198   1.462  10.387
30827SOL    HW292508   7.317   1.437  10.496
30828SOL     OW92509   5.903   0.547  10.590
30828SOL    HW192510   5.941   0.488  10.662
30828SOL    HW292511   5.943   0.521  10.502
30829SOL     OW92512   6.398   1.586   9.997
30829SOL    HW192513   6.430   1.596   9.903
30829SOL    HW292514   6.319   1.524   9.999
30830SOL     OW92515   7.010   0.214  10.422
30830SOL    HW192516   7.062   0.149  10.477
30830SOL    HW292517   6.961   0.277  10.483
30831SOL     OW92518   6.587   0.034  10.464
30831SOL    HW192519   6.524  -0.038  10.433
30831SOL    HW292520   6.680  -0.002  10.464
30832SOL     OW92521   6.356   1.330   9.611
30832SOL    HW192522   6.310   1.243   9.628
30832SOL    HW292523   6.447   1.327   9.652
30833SOL     OW92524   6.204   1.567  10.594
30833SOL    HW192525   6.199   1.649  10.651
30833SOL    HW292526   6.293   1.564  10.549
30834SOL     OW92527   6.938   0.052   9.478
30834SOL    HW192528   6.973   0.011   9.394
30834SOL    HW292529   6.848   0.014   9.498
30835SOL     OW92530   6.886   0.453  10.001
30835SOL    HW192531   6.827   0.533  10.005
30835SOL    HW292532   6.901   0.418  10.094
30836SOL     OW92533   7.179   0.221  10.192
30836SOL    HW192534   7.095   0.220  10.246
30836SOL    HW292535   7.181   0.304  10.136
30837SOL     OW92536   5.625   1.077   9.610
30837SOL    HW192537   5.724   1.066   9.601
30837SOL    HW292538   5.585   0.991   9.642
30838SOL     OW92539   6.461   1.646   9.647
30838SOL    HW192540   6.384   1.611   9.593
30838SOL    HW292541   6.429   1.717   9.709
30839SOL     OW92542   5.816   0.628  11.285
30839SOL    HW192543   5.723   0.626  11.322
30839SOL    HW292544   5.817   0.589  11.193
30840SOL     OW92545   5.811   0.275  12.168
30840SOL    HW192546   5.846   0.258  12.260
30840SOL    HW292547   5.723   0.230  12.156
30841SOL     OW92548   5.605   0.368  11.819
30841SOL    HW192549   5.523   0.411  11.858
30841SOL    HW292550   5.577   0.295  11.756
30842SOL     OW92551   6.155   1.275  12.337
30842SOL    HW192552   6.062   1.268  12.300
30842SOL    HW292553   6.166   1.364  12.381
30843SOL     OW92554   7.141   1.511  11.875
30843SOL    HW192555   7.084   1.495  11.956
30843SOL    HW292556   7.082   1.521  11.795
30844SOL     OW92557   6.721   0.703  11.889
30844SOL    HW192558   6.778   0.781  11.864
30844SOL    HW292559   6.661   0.729  11.965
30845SOL     OW92560   7.341   0.607  11.403
30845SOL    HW192561   7.329   0.594  11.304
30845SOL    HW292562   7.311   0.526  11.452
30846SOL     OW92563   6.354   1.144  12.195
30846SOL    HW192564   6.276   1.161  12.255
30846SOL    HW292565   6.388   1.231  12.159
30847SOL     OW92566   6.271   1.012  11.837
30847SOL    HW192567   6.340   0.996  11.907
30847SOL    HW292568   6.198   1.069  11.875
30848SOL     OW92569   5.921   1.435  12.233
30848SOL    HW192570   5.843   1.404  12.180
30848SOL    HW292571   5.979   1.493  12.176
30849SOL     OW92572   7.046   1.505  12.511
30849SOL    HW192573   7.070   1.599  12.537
30849SOL    HW292574   7.030   1.451  12.593
30850SOL     OW92575   6.024   0.392  12.671
30850SOL    HW192576   6.106   0.336  12.680
30850SOL    HW292577   5.943   0.334  12.675
30851SOL     OW92578   5.817   1.713  11.655
30851SOL    HW192579   5.851   1.790  11.709
30851SOL    HW292580   5.861   1.713  11.565
30852SOL     OW92581   5.816   1.434  11.710
30852SOL    HW192582   5.790   1.530  11.710
30852SOL    HW292583   5.745   1.380  11.755
30853SOL     OW92584   5.826   1.091  12.058
30853SOL    HW192585   5.840   1.007  12.110
30853SOL    HW292586   5.771   1.155  12.113
30854SOL     OW92587   6.206   1.786  12.611
30854SOL    HW192588   6.114   1.769  12.646
30854SOL    HW292589   6.234   1.878  12.637
30855SOL     OW92590   6.192   0.964  11.295
30855SOL    HW192591   6.199   1.048  11.241
30855SOL    HW292592   6.238   0.977  11.383
30856SOL     OW92593   7.180   0.114  12.652
30856SOL    HW192594   7.162   0.181  12.580
30856SOL    HW292595   7.177   0.160  12.741
30857SOL     OW92596   5.708   0.643  11.735
30857SOL    HW192597   5.663   0.555  11.752
30857SOL    HW292598   5.707   0.697  11.819
30858SOL     OW92599   7.428   1.767  11.531
30858SOL    HW192600   7.482   1.738  11.611
30858SOL    HW292601   7.458   1.857  11.502
30859SOL     OW92602   5.613   1.596  11.289
30859SOL    HW192603   5.594   1.500  11.310
30859SOL    HW292604   5.580   1.654  11.364
30860SOL     OW92605   7.275   0.922  11.784
30860SOL    HW192606   7.370   0.893  11.792
30860SOL    HW292607   7.267   0.987  11.709
30861SOL     OW92608   7.227   1.108  11.604
30861SOL    HW192609   7.313   1.110  11.552
30861SOL    HW292610   7.241   1.155  11.692
30862SOL     OW92611   6.199   1.365  11.898
30862SOL    HW192612   6.150   1.278  11.907
30862SOL    HW292613   6.176   1.408  11.811
30863SOL     OW92614   6.395   0.004  11.674
30863SOL    HW192615   6.435   0.095  11.665
30863SOL    HW292616   6.295   0.012  11.680
30864SOL     OW92617   5.783   0.976  12.436
30864SOL    HW192618   5.872   0.931  12.422
30864SOL    HW292619   5.710   0.911  12.417
30865SOL     OW92620   7.111   0.999  11.362
30865SOL    HW192621   7.048   0.923  11.375
30865SOL    HW292622   7.159   1.017  11.448
30866SOL     OW92623   5.903   0.251  12.973
30866SOL    HW192624   5.974   0.322  12.979
30866SOL    HW292625   5.815   0.290  13.001
30867SOL     OW92626   7.052   1.417  12.125
30867SOL    HW192627   6.993   1.423  12.205
30867SOL    HW292628   7.037   1.329  12.079
30868SOL     OW92629   7.253   1.714  11.744
30868SOL    HW192630   7.212   1.691  11.656
30868SOL    HW292631   7.235   1.640  11.809
30869SOL     OW92632   6.184   0.729  11.442
30869SOL    HW192633   6.208   0.798  11.374
30869SOL    HW292634   6.106   0.762  11.496
30870SOL     OW92635   6.867   0.345  12.116
30870SOL    HW192636   6.781   0.295  12.103
30870SOL    HW292637   6.929   0.291  12.172
30871SOL     OW92638   7.162   1.662  11.479
30871SOL    HW192639   7.251   1.708  11.482
30871SOL    HW292640   7.141   1.638  11.384
30872SOL     OW92641   6.393   0.605  12.637
30872SOL    HW192642   6.346   0.602  12.726
30872SOL    HW292643   6.342   0.550  12.571
30873SOL     OW92644   6.577   0.410  12.414
30873SOL    HW192645   6.500   0.444  12.468
30873SOL    HW292646   6.543   0.359  12.335
30874SOL     OW92647   6.627   0.701  11.601
30874SOL    HW192648   6.653   0.697  11.697
30874SOL    HW292649   6.542   0.650  11.587
30875SOL     OW92650   5.662   0.811  11.961
30875SOL    HW192651   5.761   0.799  11.970
30875SOL    HW292652   5.638   0.906  11.982
30876SOL     OW92653   5.716   1.821  12.743
30876SOL    HW192654   5.706   1.806  12.842
30876SOL    HW292655   5.630   1.857  12.707
30877SOL     OW92656   6.451   0.348  11.367
30877SOL    HW192657   6.510   0.411  11.318
30877SOL    HW292658   6.470   0.254  11.338
30878SOL     OW92659   6.948   1.144  11.717
30878SOL    HW192660   7.031   1.115  11.669
30878SOL    HW292661   6.899   1.211  11.661
30879SOL     OW92662   6.136   0.196  12.057
30879SOL    HW192663   6.131   0.191  12.157
30879SOL    HW292664   6.138   0.292  12.028
30880SOL     OW92665   6.594   1.456  11.649
30880SOL    HW192666   6.548   1.528  11.597
30880SOL    HW292667   6.590   1.476  11.747
30881SOL     OW92668   5.937   1.801  12.025
30881SOL    HW192669   5.987   1.715  12.031
30881SOL    HW292670   6.002   1.878  12.022
30882SOL     OW92671   7.381   1.066  12.045
30882SOL    HW192672   7.319   1.051  11.969
30882SOL    HW292673   7.329   1.077  12.130
30883SOL     OW92674   5.907   0.943  11.414
30883SOL    HW192675   5.989   0.982  11.372
30883SOL    HW292676   5.880   0.861  11.365
30884SOL     OW92677   7.044   0.735  11.900
30884SOL    HW192678   7.039   0.670  11.975
30884SOL    HW292679   7.124   0.794  11.913
30885SOL     OW92680   6.697   1.776  11.409
30885SOL    HW192681   6.637   1.714  11.459
30885SOL    HW292682   6.728   1.732  11.324
30886SOL     OW92683   5.788   0.285  12.670
30886SOL    HW192684   5.708   0.345  12.657
30886SOL    HW292685   5.778   0.236  12.756
30887SOL     OW92686   7.218   1.377  11.253
30887SOL    HW192687   7.186   1.471  11.243
30887SOL    HW292688   7.142   1.314  11.241
30888SOL     OW92689   6.050   1.743  11.495
30888SOL    HW192690   6.083   1.782  11.581
30888SOL    HW292691   6.126   1.736  11.430
30889SOL     OW92692   6.986   0.107  11.598
30889SOL    HW192693   6.962   0.070  11.508
30889SOL    HW292694   7.085   0.123  11.602
30890SOL     OW92695   5.835   1.785  12.413
30890SOL    HW192696   5.892   1.720  12.463
30890SOL    HW292697   5.819   1.752  12.320
30891SOL     OW92698   6.526   1.698  12.076
30891SOL    HW192699   6.606   1.641  12.097
30891SOL    HW292700   6.477   1.658  11.999
30892SOL     OW92701   5.968   0.700  11.652
30892SOL    HW192702   6.013   0.610  11.649
30892SOL    HW292703   5.874   0.689  11.685
30893SOL     OW92704   6.200   0.122  11.289
30893SOL    HW192705   6.298   0.100  11.296
30893SOL    HW292706   6.169   0.105  11.196
30894SOL     OW92707   6.474   1.514  12.367
30894SOL    HW192708   6.451   1.489  12.273
30894SOL    HW292709   6.535   1.445  12.406
30895SOL     OW92710   6.389   1.402  12.096
30895SOL    HW192711   6.479   1.416  12.054
30895SOL    HW292712   6.318   1.404  12.025
30896SOL     OW92713   6.508   0.503  12.071
30896SOL    HW192714   6.483   0.494  11.975
30896SOL    HW292715   6.556   0.421  12.102
30897SOL     OW92716   6.125   0.064  11.684
30897SOL    HW192717   6.044   0.065  11.742
30897SOL    HW292718   6.128   0.147  11.629
30898SOL     OW92719   7.020   1.188  11.213
30898SOL    HW192720   7.052   1.112  11.270
30898SOL    HW292721   6.928   1.215  11.243
30899SOL     OW92722   5.883   0.035  11.343
30899SOL    HW192723   5.932   0.119  11.322
30899SOL    HW292724   5.945  -0.030  11.388
30900SOL     OW92725   6.521   0.236  11.652
30900SOL    HW192726   6.473   0.277  11.574
30900SOL    HW292727   6.620   0.234  11.633
30901SOL     OW92728   6.813   1.570  11.965
30901SOL    HW192729   6.834   1.644  11.900
30901SOL    HW292730   6.881   1.570  12.038
30902SOL     OW92731   6.045   1.152  11.913
30902SOL    HW192732   5.974   1.125  11.978
30902SOL    HW292733   6.019   1.124  11.820
30903SOL     OW92734   6.857   1.797  11.763
30903SOL    HW192735   6.901   1.861  11.699
30903SOL    HW292736   6.807   1.849  11.833
30904SOL     OW92737   6.618   0.549  11.188
30904SOL    HW192738   6.577   0.631  11.149
30904SOL    HW292739   6.682   0.575  11.261
30905SOL     OW92740   5.664   0.556  12.558
30905SOL    HW192741   5.756   0.555  12.517
30905SOL    HW292742   5.658   0.630  12.625
30906SOL     OW92743   6.147   0.222  12.319
30906SOL    HW192744   6.185   0.138  12.356
30906SOL    HW292745   6.059   0.241  12.363
30907SOL     OW92746   6.452   0.454  11.814
30907SOL    HW192747   6.420   0.526  11.752
30907SOL    HW292748   6.476   0.373  11.761
30908SOL     OW92749   6.603   0.039  11.925
30908SOL    HW192750   6.531   0.044  11.856
30908SOL    HW292751   6.579  -0.030  11.994
30909SOL     OW92752   7.015   1.173  12.039
30909SOL    HW192753   6.960   1.089  12.032
30909SOL    HW292754   7.041   1.202  11.947
30910SOL     OW92755   7.052   0.590  12.164
30910SOL    HW192756   7.022   0.495  12.171
30910SOL    HW292757   7.125   0.606  12.230
30911SOL     OW92758   7.443   0.833  11.549
30911SOL    HW192759   7.485   0.769  11.613
30911SOL    HW292760   7.405   0.782  11.471
30912SOL     OW92761   6.074   1.385  11.346
30912SOL    HW192762   5.987   1.370  11.393
30912SOL    HW292763   6.057   1.411  11.251
30913SOL     OW92764   7.250   1.280  11.829
30913SOL    HW192765   7.349   1.288  11.843
30913SOL    HW292766   7.205   1.364  11.860
30914SOL     OW92767   6.976   0.575  11.250
30914SOL    HW192768   6.922   0.554  11.331
30914SOL    HW292769   7.067   0.534  11.259
30915SOL     OW92770   6.113   0.256  11.500
30915SOL    HW192771   6.140   0.197  11.425
30915SOL    HW292772   6.113   0.351  11.469
30916SOL     OW92773   6.650   1.347  12.512
30916SOL    HW192774   6.570   1.324  12.567
30916SOL    HW292775   6.733   1.321  12.561
30917SOL     OW92776   6.697   1.195  12.272
30917SOL    HW192777   6.657   1.239  12.353
30917SOL    HW292778   6.656   1.232  12.189
30918SOL     OW92779   7.224   1.099  12.251
30918SOL    HW192780   7.229   1.180  12.310
30918SOL    HW292781   7.138   1.101  12.200
30919SOL     OW92782   6.501   0.089  12.574
30919SOL    HW192783   6.526   0.069  12.479
30919SOL    HW292784   6.573   0.145  12.616
30920SOL     OW92785   6.291   1.050  11.540
30920SOL    HW192786   6.277   1.057  11.639
30920SOL    HW292787   6.375   0.999  11.522
30921SOL     OW92788   5.996   0.813  12.423
30921SOL    HW192789   6.082   0.825  12.473
30921SOL    HW292790   5.954   0.726  12.450
30922SOL     OW92791   6.860   0.386  12.434
30922SOL    HW192792   6.881   0.460  12.498
30922SOL    HW292793   6.771   0.403  12.391
30923SOL     OW92794   5.650   1.564  12.503
30923SOL    HW192795   5.604   1.646  12.469
30923SOL    HW292796   5.748   1.583  12.512
30924SOL     OW92797   5.953   1.100  11.673
30924SOL    HW192798   5.946   1.183  11.617
30924SOL    HW292799   5.957   1.020  11.613
30925SOL     OW92800   6.152   0.537  12.037
30925SOL    HW192801   6.164   0.603  11.963
30925SOL    HW292802   6.198   0.571  12.120
30926SOL     OW92803   6.838   1.348  11.560
30926SOL    HW192804   6.888   1.425  11.600
30926SOL    HW292805   6.743   1.350  11.592
30927SOL     OW92806   6.858   1.445  12.314
30927SOL    HW192807   6.905   1.458  12.401
30927SOL    HW292808   6.792   1.371  12.323
30928SOL     OW92809   7.168   0.639  11.644
30928SOL    HW192810   7.137   0.700  11.717
30928SOL    HW292811   7.218   0.691  11.575
30929SOL     OW92812   5.940   1.510  12.501
30929SOL    HW192813   5.919   1.466  12.414
30929SOL    HW292814   6.037   1.536  12.504
30930SOL     OW92815   5.988   0.751  12.770
30930SOL    HW192816   6.056   0.806  12.723
30930SOL    HW292817   6.028   0.663  12.797
30931SOL     OW92818   7.173   0.779  12.842
30931SOL    HW192819   7.081   0.817  12.837
30931SOL    HW292820   7.233   0.826  12.777
30932SOL     OW92821   6.159   0.870  12.201
30932SOL    HW192822   6.203   0.959  12.192
30932SOL    HW292823   6.096   0.870  12.278
30933SOL     OW92824   6.946   0.862  12.217
30933SOL    HW192825   6.871   0.862  12.151
30933SOL    HW292826   6.983   0.770  12.226
30934SOL     OW92827   6.795   0.525  11.447
30934SOL    HW192828   6.808   0.441  11.501
30934SOL    HW292829   6.766   0.599  11.507
30935SOL     OW92830   5.893   0.213  12.403
30935SOL    HW192831   5.870   0.250  12.493
30935SOL    HW292832   5.863   0.118  12.397
30936SOL     OW92833   5.623   1.310  12.454
30936SOL    HW192834   5.676   1.261  12.522
30936SOL    HW292835   5.645   1.408  12.459
30937SOL     OW92836   6.318   0.634  12.236
30937SOL    HW192837   6.377   0.608  12.160
30937SOL    HW292838   6.290   0.730  12.225
30938SOL     OW92839   5.893   0.063  11.790
30938SOL    HW192840   5.882   0.157  11.823
30938SOL    HW292841   5.888   0.000  11.867
30939SOL     OW92842   7.208   0.367  11.546
30939SOL    HW192843   7.210   0.291  11.610
30939SOL    HW292844   7.160   0.444  11.586
30940SOL     OW92845   6.609   0.766  12.138
30940SOL    HW192846   6.624   0.787  12.234
30940SOL    HW292847   6.579   0.671  12.129
30941SOL     OW92848   6.566   1.573  12.872
30941SOL    HW192849   6.546   1.617  12.784
30941SOL    HW292850   6.605   1.482  12.856
30942SOL     OW92851   7.126   0.274  11.297
30942SOL    HW192852   7.065   0.199  11.320
30942SOL    HW292853   7.148   0.326  11.380
30943SOL     OW92854   6.889   0.838  11.214
30943SOL    HW192855   6.923   0.745  11.229
30943SOL    HW292856   6.907   0.865  11.119
30944SOL     OW92857   6.654   1.333  12.021
30944SOL    HW192858   6.661   1.249  11.966
30944SOL    HW292859   6.716   1.402  11.985
30945SOL     OW92860   5.905   0.810  12.121
30945SOL    HW192861   5.998   0.846  12.126
30945SOL    HW292862   5.899   0.725  12.173
30946SOL     OW92863   5.925   0.509  12.178
30946SOL    HW192864   5.873   0.426  12.161
30946SOL    HW292865   6.002   0.514  12.114
30947SOL     OW92866   6.724   0.380  12.850
30947SOL    HW192867   6.679   0.443  12.914
30947SOL    HW292868   6.817   0.411  12.833
30948SOL     OW92869   6.746   0.207  12.649
30948SOL    HW192870   6.746   0.271  12.726
30948SOL    HW292871   6.774   0.255  12.566
30949SOL     OW92872   5.594   1.326  11.372
30949SOL    HW192873   5.501   1.347  11.341
30949SOL    HW292874   5.604   1.227  11.385
30950SOL     OW92875   5.674   1.801  12.099
30950SOL    HW192876   5.632   1.715  12.072
30950SOL    HW292877   5.768   1.804  12.065
30951SOL     OW92878   6.090   1.568  12.082
30951SOL    HW192879   6.156   1.642  12.091
30951SOL    HW292880   6.134   1.489  12.040
30952SOL     OW92881   6.588   0.796  12.410
30952SOL    HW192882   6.629   0.764  12.496
30952SOL    HW292883   6.492   0.769  12.407
30953SOL     OW92884   5.626   0.544  12.286
30953SOL    HW192885   5.711   0.511  12.245
30953SOL    HW292886   5.639   0.559  12.384
30954SOL     OW92887   6.401   0.572  11.497
30954SOL    HW192888   6.408   0.483  11.451
30954SOL    HW292889   6.307   0.606  11.489
30955SOL     OW92890   7.243   0.604  12.378
30955SOL    HW192891   7.205   0.535  12.440
30955SOL    HW292892   7.325   0.568  12.334
30956SOL     OW92893   6.257   0.464  12.441
30956SOL    HW192894   6.223   0.375  12.411
30956SOL    HW292895   6.283   0.518  12.361
30957SOL     OW92896   6.516   1.678  12.637
30957SOL    HW192897   6.492   1.660  12.542
30957SOL    HW292898   6.546   1.772  12.647
30958SOL     OW92899   6.059   0.500  11.363
30958SOL    HW192900   6.120   0.580  11.367
30958SOL    HW292901   5.964   0.531  11.370
30959SOL     OW92902   5.745   1.137  12.638
30959SOL    HW192903   5.767   1.076  12.714
30959SOL    HW292904   5.755   1.088  12.552
30960SOL     OW92905   6.933   1.059  12.406
30960SOL    HW192906   6.957   0.996  12.332
30960SOL    HW292907   6.843   1.099  12.388
30961SOL     OW92908   6.888   0.855  11.481
30961SOL    HW192909   6.802   0.824  11.523
30961SOL    HW292910   6.884   0.841  11.382
30962SOL     OW92911   7.345   1.747  12.326
30962SOL    HW192912   7.406   1.777  12.253
30962SOL    HW292913   7.307   1.658  12.304
30963SOL     OW92914   6.838   1.731  12.300
30963SOL    HW192915   6.922   1.736  12.246
30963SOL    HW292916   6.815   1.635  12.318
30964SOL     OW92917   5.669   1.258  12.194
30964SOL    HW192918   5.664   1.257  12.294
30964SOL    HW292919   5.586   1.217  12.156
30965SOL     OW92920   7.312   0.135  11.695
30965SOL    HW192921   7.385   0.118  11.628
30965SOL    HW292922   7.281   0.048  11.733
30966SOL     OW92923   6.974   1.573  11.649
30966SOL    HW192924   7.041   1.585  11.575
30966SOL    HW292925   6.934   1.662  11.672
30967SOL     OW92926   6.866   0.927  11.844
30967SOL    HW192927   6.926   0.846  11.846
30967SOL    HW292928   6.906   0.996  11.784
30968SOL     OW92929   6.258   1.616  11.326
30968SOL    HW192930   6.267   1.626  11.227
30968SOL    HW292931   6.218   1.527  11.347
30969SOL     OW92932   7.236   1.720  12.566
30969SOL    HW192933   7.289   1.730  12.482
30969SOL    HW292934   7.209   1.810  12.600
30970SOL     OW92935   7.427   0.175  12.135
30970SOL    HW192936   7.466   0.090  12.099
30970SOL    HW292937   7.329   0.177  12.116
30971SOL     OW92938   5.849   0.326  11.892
30971SOL    HW192939   5.770   0.377  11.858
30971SOL    HW292940   5.840   0.311  11.990
30972SOL     OW92941   6.780   1.612  11.203
30972SOL    HW192942   6.786   1.519  11.240
30972SOL    HW292943   6.721   1.612  11.123
30973SOL     OW92944   6.408   1.002  12.544
30973SOL    HW192945   6.448   1.001  12.452
30973SOL    HW292946   6.418   1.094  12.584
30974SOL     OW92947   6.502   0.910  11.463
30974SOL    HW192948   6.565   0.948  11.395
30974SOL    HW292949   6.542   0.827  11.502
30975SOL     OW92950   7.090   1.607  11.216
30975SOL    HW192951   6.998   1.644  11.223
30975SOL    HW292952   7.128   1.627  11.126
30976SOL     OW92953   5.958   1.288  12.662
30976SOL    HW192954   5.945   1.381  12.628
30976SOL    HW292955   5.874   1.236  12.649
30977SOL     OW92956   7.200   1.292  12.461
30977SOL    HW192957   7.260   1.295  12.541
30977SOL    HW292958   7.125   1.356  12.474
30978SOL     OW92959   6.625   1.098  11.868
30978SOL    HW192960   6.555   1.051  11.922
30978SOL    HW292961   6.684   1.030  11.825
30979SOL     OW92962   6.600   0.236  12.143
30979SOL    HW192963   6.592   0.200  12.050
30979SOL    HW292964   6.598   0.160  12.208
30980SOL     OW92965   6.176   1.487  11.663
30980SOL    HW192966   6.218   1.429  11.593
30980SOL    HW292967   6.132   1.566  11.619
30981SOL     OW92968   7.295   0.385  12.553
30981SOL    HW192969   7.368   0.454  12.557
30981SOL    HW292970   7.323   0.310  12.494
30982SOL     OW92971   5.841   1.348  11.462
30982SOL    HW192972   5.745   1.349  11.435
30982SOL    HW292973   5.853   1.401  11.546
30983SOL     OW92974   5.661   0.345  11.205
30983SOL    HW192975   5.569   0.317  11.176
30983SOL    HW292976   5.692   0.422  11.149
30984SOL     OW92977   7.026   0.856  12.570
30984SOL    HW192978   6.969   0.908  12.507
30984SOL    HW292979   7.122   0.868  12.546
30985SOL     OW92980   5.658   0.166  11.490
30985SOL    HW192981   5.641   0.249  11.436
30985SOL    HW292982   5.748   0.129  11.468
30986SOL     OW92983   6.769   1.335  11.291
30986SOL    HW192984   6.670   1.324  11.293
30986SOL    HW292985   6.803   1.350  11.384
30987SOL     OW92986   6.199   0.842  12.603
30987SOL    HW192987   6.255   0.923  12.586
30987SOL    HW292988   6.258   0.762  12.606
30988SOL     OW92989   7.079   1.767  12.131
30988SOL    HW192990   7.112   1.831  12.062
30988SOL    HW292991   7.145   1.761  12.206
30989SOL     OW92992   5.976   1.741  12.732
30989SOL    HW192993   5.885   1.782  12.730
30989SOL    HW292994   5.969   1.647  12.764
30990SOL     OW92995   7.260   0.883  12.426
30990SOL    HW192996   7.233   0.794  12.389
30990SOL    HW292997   7.261   0.951  12.353
30991SOL     OW92998   6.811   0.325  11.621
30991SOL    HW192999   6.876   0.251  11.610
30991SOL    HW293000   6.831   0.375  11.705
30992SOL     OW93001   6.180   0.745  11.824
30992SOL    HW193002   6.230   0.830  11.805
30992SOL    HW293003   6.092   0.747  11.776
30993SOL     OW93004   7.363   0.342  12.814
30993SOL    HW193005   7.346   0.373  12.720
30993SOL    HW293006   7.279   0.305  12.852
30994SOL     OW93007   7.316   0.934  12.689
30994SOL    HW193008   7.354   1.025  12.704
30994SOL    HW293009   7.308   0.917  12.590
30995SOL     OW93010   6.445   1.374  11.188
30995SOL    HW193011   6.399   1.389  11.276
30995SOL    HW293012   6.489   1.459  11.158
30996SOL     OW93013   6.247   1.790  12.125
30996SOL    HW193014   6.201   1.878  12.112
30996SOL    HW293015   6.346   1.802  12.118
30997SOL     OW93016   6.445   0.956  12.033
30997SOL    HW193017   6.499   0.887  12.081
30997SOL    HW293018   6.413   1.025  12.099
30998SOL     OW93019   6.669   0.984  11.259
30998SOL    HW193020   6.646   1.037  11.177
30998SOL    HW293021   6.750   0.928  11.240
30999SOL     OW93022   7.447   1.569  12.023
30999SOL    HW193023   7.376   1.557  11.953
30999SOL    HW293024   7.448   1.490  12.083
31000SOL     OW93025   5.665   1.240  11.825
31000SOL    HW193026   5.664   1.193  11.913
31000SOL    HW293027   5.747   1.212  11.774
31001SOL     OW93028   7.410   0.192  12.399
31001SOL    HW193029   7.406   0.102  12.443
31001SOL    HW293030   7.413   0.181  12.300
31002SOL     OW93031   6.014   0.424  11.692
31002SOL    HW193032   6.044   0.352  11.630
31002SOL    HW293033   5.975   0.384  11.775
31003SOL     OW93034   7.291   1.487  12.276
31003SOL    HW193035   7.198   1.462  12.249
31003SOL    HW293036   7.317   1.437  12.358
31004SOL     OW93037   5.903   0.547  12.452
31004SOL    HW193038   5.941   0.488  12.524
31004SOL    HW293039   5.943   0.521  12.364
31005SOL     OW93040   6.398   1.586  11.859
31005SOL    HW193041   6.430   1.596  11.765
31005SOL    HW293042   6.319   1.524  11.861
31006SOL     OW93043   7.010   0.214  12.284
31006SOL    HW193044   7.062   0.149  12.339
31006SOL    HW293045   6.961   0.277  12.345
31007SOL     OW93046   6.587   0.034  12.326
31007SOL    HW193047   6.524  -0.038  12.295
31007SOL    HW293048   6.680  -0.002  12.326
31008SOL     OW93049   6.356   1.330  11.473
31008SOL    HW193050   6.310   1.243  11.490
31008SOL    HW293051   6.447   1.327  11.514
31009SOL     OW93052   6.938   0.052  11.340
31009SOL    HW193053   6.973   0.011  11.256
31009SOL    HW293054   6.848   0.014  11.360
31010SOL     OW93055   6.886   0.453  11.863
31010SOL    HW193056   6.827   0.533  11.867
31010SOL    HW293057   6.901   0.418  11.956
31011SOL     OW93058   7.179   0.221  12.054
31011SOL    HW193059   7.095   0.220  12.108
31011SOL    HW293060   7.181   0.304  11.998
31012SOL     OW93061   5.625   1.077  11.472
31012SOL    HW193062   5.724   1.066  11.463
31012SOL    HW293063   5.585   0.991  11.504
31013SOL     OW93064   6.461   1.646  11.509
31013SOL    HW193065   6.384   1.611  11.455
31013SOL    HW293066   6.429   1.717  11.571
31014SOL     OW93067   5.816   2.490   0.113
31014SOL    HW193068   5.723   2.488   0.150
31014SOL    HW293069   5.817   2.451   0.021
31015SOL     OW93070   5.811   2.137   0.996
31015SOL    HW193071   5.846   2.120   1.088
31015SOL    HW293072   5.723   2.092   0.984
31016SOL     OW93073   5.605   2.230   0.647
31016SOL    HW193074   5.523   2.273   0.686
31016SOL    HW293075   5.577   2.157   0.584
31017SOL     OW93076   6.155   3.137   1.165
31017SOL    HW193077   6.062   3.130   1.128
31017SOL    HW293078   6.166   3.226   1.209
31018SOL     OW93079   7.141   3.373   0.703
31018SOL    HW193080   7.084   3.357   0.784
31018SOL    HW293081   7.082   3.383   0.623
31019SOL     OW93082   6.721   2.565   0.717
31019SOL    HW193083   6.778   2.643   0.692
31019SOL    HW293084   6.661   2.591   0.793
31020SOL     OW93085   7.341   2.469   0.231
31020SOL    HW193086   7.329   2.456   0.132
31020SOL    HW293087   7.311   2.388   0.280
31021SOL     OW93088   6.354   3.006   1.023
31021SOL    HW193089   6.276   3.023   1.083
31021SOL    HW293090   6.388   3.093   0.987
31022SOL     OW93091   6.436   2.660   1.823
31022SOL    HW193092   6.432   2.736   1.888
31022SOL    HW293093   6.458   2.696   1.732
31023SOL     OW93094   6.271   2.874   0.665
31023SOL    HW193095   6.340   2.858   0.735
31023SOL    HW293096   6.198   2.931   0.703
31024SOL     OW93097   6.272   3.023   1.803
31024SOL    HW193098   6.332   3.102   1.817
31024SOL    HW293099   6.186   3.054   1.762
31025SOL     OW93100   5.921   3.297   1.061
31025SOL    HW193101   5.843   3.266   1.008
31025SOL    HW293102   5.979   3.355   1.004
31026SOL     OW93103   7.046   3.367   1.339
31026SOL    HW193104   7.070   3.461   1.365
31026SOL    HW293105   7.030   3.313   1.421
31027SOL     OW93106   6.024   2.254   1.499
31027SOL    HW193107   6.106   2.198   1.508
31027SOL    HW293108   5.943   2.196   1.503
31028SOL     OW93109   7.189   2.309   0.737
31028SOL    HW193110   7.115   2.355   0.687
31028SOL    HW293111   7.240   2.377   0.790
31029SOL     OW93112   5.817   3.575   0.483
31029SOL    HW193113   5.851   3.652   0.537
31029SOL    HW293114   5.861   3.575   0.393
31030SOL     OW93115   6.713   3.203   1.690
31030SOL    HW193116   6.760   3.203   1.778
31030SOL    HW293117   6.665   3.116   1.679
31031SOL     OW93118   5.816   3.296   0.538
31031SOL    HW193119   5.790   3.392   0.538
31031SOL    HW293120   5.745   3.242   0.583
31032SOL     OW93121   5.826   2.953   0.886
31032SOL    HW193122   5.840   2.869   0.938
31032SOL    HW293123   5.771   3.017   0.941
31033SOL     OW93124   6.206   3.648   1.439
31033SOL    HW193125   6.114   3.631   1.474
31033SOL    HW293126   6.234   3.740   1.465
31034SOL     OW93127   6.192   2.826   0.123
31034SOL    HW193128   6.199   2.910   0.069
31034SOL    HW293129   6.238   2.839   0.211
31035SOL     OW93130   7.180   1.976   1.480
31035SOL    HW193131   7.162   2.043   1.408
31035SOL    HW293132   7.177   2.022   1.569
31036SOL     OW93133   5.708   2.505   0.563
31036SOL    HW193134   5.663   2.417   0.580
31036SOL    HW293135   5.707   2.559   0.647
31037SOL     OW93136   7.428   3.629   0.359
31037SOL    HW193137   7.482   3.600   0.439
31037SOL    HW293138   7.458   3.719   0.330
31038SOL     OW93139   5.613   3.458   0.117
31038SOL    HW193140   5.594   3.362   0.138
31038SOL    HW293141   5.580   3.516   0.192
31039SOL     OW93142   7.275   2.784   0.612
31039SOL    HW193143   7.370   2.755   0.620
31039SOL    HW293144   7.267   2.849   0.537
31040SOL     OW93145   7.227   2.970   0.432
31040SOL    HW193146   7.313   2.972   0.380
31040SOL    HW293147   7.241   3.017   0.520
31041SOL     OW93148   5.699   2.599   1.597
31041SOL    HW193149   5.787   2.586   1.642
31041SOL    HW293150   5.686   2.696   1.575
31042SOL     OW93151   6.199   3.227   0.726
31042SOL    HW193152   6.150   3.140   0.735
31042SOL    HW293153   6.176   3.270   0.639
31043SOL     OW93154   6.879   3.090   1.423
31043SOL    HW193155   6.916   3.017   1.365
31043SOL    HW293156   6.931   3.095   1.508
31044SOL     OW93157   6.395   1.866   0.502
31044SOL    HW193158   6.435   1.957   0.493
31044SOL    HW293159   6.295   1.874   0.508
31045SOL     OW93160   5.783   2.838   1.264
31045SOL    HW193161   5.872   2.793   1.250
31045SOL    HW293162   5.710   2.773   1.245
31046SOL     OW93163   7.111   2.861   0.190
31046SOL    HW193164   7.048   2.785   0.203
31046SOL    HW293165   7.159   2.879   0.276
31047SOL     OW93166   6.773   3.654   1.616
31047SOL    HW193167   6.797   3.714   1.540
31047SOL    HW293168   6.780   3.559   1.586
31048SOL     OW93169   5.903   2.113   1.801
31048SOL    HW193170   5.974   2.184   1.807
31048SOL    HW293171   5.815   2.152   1.829
31049SOL     OW93172   7.052   3.279   0.953
31049SOL    HW193173   6.993   3.285   1.033
31049SOL    HW293174   7.037   3.191   0.907
31050SOL     OW93175   7.253   3.576   0.572
31050SOL    HW193176   7.212   3.553   0.484
31050SOL    HW293177   7.235   3.502   0.637
31051SOL     OW93178   6.184   2.591   0.270
31051SOL    HW193179   6.208   2.660   0.202
31051SOL    HW293180   6.106   2.624   0.324
31052SOL     OW93181   6.867   2.207   0.944
31052SOL    HW193182   6.781   2.157   0.931
31052SOL    HW293183   6.929   2.153   1.000
31053SOL     OW93184   7.162   3.524   0.307
31053SOL    HW193185   7.251   3.570   0.310
31053SOL    HW293186   7.141   3.500   0.212
31054SOL     OW93187   6.393   2.467   1.465
31054SOL    HW193188   6.346   2.464   1.554
31054SOL    HW293189   6.342   2.412   1.399
31055SOL     OW93190   6.980   2.331   1.674
31055SOL    HW193191   6.960   2.374   1.762
31055SOL    HW293192   7.058   2.269   1.683
31056SOL     OW93193   6.559   2.752   1.572
31056SOL    HW193194   6.605   2.668   1.543
31056SOL    HW293195   6.503   2.786   1.497
31057SOL     OW93196   6.577   2.272   1.242
31057SOL    HW193197   6.500   2.306   1.296
31057SOL    HW293198   6.543   2.221   1.163
31058SOL     OW93199   6.627   2.563   0.429
31058SOL    HW193200   6.653   2.559   0.525
31058SOL    HW293201   6.542   2.512   0.415
31059SOL     OW93202   5.662   2.673   0.789
31059SOL    HW193203   5.761   2.661   0.798
31059SOL    HW293204   5.638   2.768   0.810
31060SOL     OW93205   5.716   3.683   1.571
31060SOL    HW193206   5.706   3.668   1.670
31060SOL    HW293207   5.630   3.719   1.535
31061SOL     OW93208   6.451   2.210   0.195
31061SOL    HW193209   6.510   2.273   0.146
31061SOL    HW293210   6.470   2.116   0.166
31062SOL     OW93211   7.305   2.447   1.831
31062SOL    HW193212   7.279   2.536   1.795
31062SOL    HW293213   7.303   2.379   1.758
31063SOL     OW93214   6.948   3.006   0.545
31063SOL    HW193215   7.031   2.977   0.497
31063SOL    HW293216   6.899   3.073   0.489
31064SOL     OW93217   6.136   2.058   0.885
31064SOL    HW193218   6.131   2.053   0.985
31064SOL    HW293219   6.138   2.154   0.856
31065SOL     OW93220   6.594   3.318   0.477
31065SOL    HW193221   6.548   3.390   0.425
31065SOL    HW293222   6.590   3.338   0.575
31066SOL     OW93223   5.937   3.663   0.853
31066SOL    HW193224   5.987   3.577   0.859
31066SOL    HW293225   6.002   3.740   0.850
31067SOL     OW93226   7.381   2.928   0.873
31067SOL    HW193227   7.319   2.913   0.797
31067SOL    HW293228   7.329   2.939   0.958
31068SOL     OW93229   6.813   3.412   1.506
31068SOL    HW193230   6.819   3.335   1.570
31068SOL    HW293231   6.761   3.386   1.426
31069SOL     OW93232   5.907   2.805   0.242
31069SOL    HW193233   5.989   2.844   0.200
31069SOL    HW293234   5.880   2.723   0.193
31070SOL     OW93235   7.044   2.597   0.728
31070SOL    HW193236   7.039   2.532   0.803
31070SOL    HW293237   7.124   2.656   0.741
31071SOL     OW93238   6.047   3.128   1.727
31071SOL    HW193239   5.997   3.129   1.641
31071SOL    HW293240   5.984   3.110   1.803
31072SOL     OW93241   6.697   3.638   0.237
31072SOL    HW193242   6.637   3.576   0.287
31072SOL    HW293243   6.728   3.594   0.152
31073SOL     OW93244   5.788   2.147   1.498
31073SOL    HW193245   5.708   2.207   1.485
31073SOL    HW293246   5.778   2.098   1.584
31074SOL     OW93247   7.218   3.239   0.081
31074SOL    HW193248   7.186   3.333   0.071
31074SOL    HW293249   7.142   3.176   0.069
31075SOL     OW93250   6.050   3.605   0.323
31075SOL    HW193251   6.083   3.644   0.409
31075SOL    HW293252   6.126   3.598   0.258
31076SOL     OW93253   6.986   1.969   0.426
31076SOL    HW193254   6.962   1.932   0.336
31076SOL    HW293255   7.085   1.985   0.430
31077SOL     OW93256   5.835   3.647   1.241
31077SOL    HW193257   5.892   3.582   1.291
31077SOL    HW293258   5.819   3.614   1.148
31078SOL     OW93259   6.526   3.560   0.904
31078SOL    HW193260   6.606   3.503   0.925
31078SOL    HW293261   6.477   3.520   0.827
31079SOL     OW93262   5.968   2.562   0.480
31079SOL    HW193263   6.013   2.472   0.477
31079SOL    HW293264   5.874   2.551   0.513
31080SOL     OW93265   7.133   2.084   1.729
31080SOL    HW193266   7.128   2.121   1.821
31080SOL    HW293267   7.061   2.015   1.717
31081SOL     OW93268   6.200   1.984   0.117
31081SOL    HW193269   6.298   1.962   0.124
31081SOL    HW293270   6.169   1.967   0.024
31082SOL     OW93271   6.367   2.126   1.749
31082SOL    HW193272   6.434   2.065   1.792
31082SOL    HW293273   6.294   2.145   1.814
31083SOL     OW93274   6.474   3.376   1.195
31083SOL    HW193275   6.451   3.351   1.101
31083SOL    HW293276   6.535   3.307   1.234
31084SOL     OW93277   6.937   2.452   1.433
31084SOL    HW193278   6.965   2.409   1.518
31084SOL    HW293279   6.962   2.548   1.434
31085SOL     OW93280   6.389   3.264   0.924
31085SOL    HW193281   6.479   3.278   0.882
31085SOL    HW293282   6.318   3.266   0.853
31086SOL     OW93283   6.508   2.365   0.899
31086SOL    HW193284   6.483   2.356   0.803
31086SOL    HW293285   6.556   2.283   0.930
31087SOL     OW93286   6.125   1.926   0.512
31087SOL    HW193287   6.044   1.927   0.570
31087SOL    HW293288   6.128   2.009   0.457
31088SOL     OW93289   7.020   3.050   0.041
31088SOL    HW193290   7.052   2.974   0.098
31088SOL    HW293291   6.928   3.077   0.071
31089SOL     OW93292   5.883   1.897   0.171
31089SOL    HW193293   5.932   1.981   0.150
31089SOL    HW293294   5.945   1.832   0.216
31090SOL     OW93295   6.521   2.098   0.480
31090SOL    HW193296   6.473   2.139   0.402
31090SOL    HW293297   6.620   2.096   0.461
31091SOL     OW93298   6.662   2.545   1.464
31091SOL    HW193299   6.582   2.484   1.467
31091SOL    HW293300   6.743   2.492   1.440
31092SOL     OW93301   6.813   3.432   0.793
31092SOL    HW193302   6.834   3.506   0.728
31092SOL    HW293303   6.881   3.432   0.866
31093SOL     OW93304   6.045   3.014   0.741
31093SOL    HW193305   5.974   2.987   0.806
31093SOL    HW293306   6.019   2.986   0.648
31094SOL     OW93307   6.857   3.659   0.591
31094SOL    HW193308   6.901   3.723   0.527
31094SOL    HW293309   6.807   3.711   0.661
31095SOL     OW93310   6.618   2.411   0.016
31095SOL    HW193311   6.577   2.493  -0.023
31095SOL    HW293312   6.682   2.437   0.089
31096SOL     OW93313   5.664   2.418   1.386
31096SOL    HW193314   5.756   2.417   1.345
31096SOL    HW293315   5.658   2.492   1.453
31097SOL     OW93316   6.147   2.084   1.147
31097SOL    HW193317   6.185   2.000   1.184
31097SOL    HW293318   6.059   2.103   1.191
31098SOL     OW93319   6.452   2.316   0.642
31098SOL    HW193320   6.420   2.388   0.580
31098SOL    HW293321   6.476   2.235   0.589
31099SOL     OW93322   6.603   1.901   0.753
31099SOL    HW193323   6.531   1.906   0.684
31099SOL    HW293324   6.579   1.832   0.822
31100SOL     OW93325   7.015   3.035   0.867
31100SOL    HW193326   6.960   2.951   0.860
31100SOL    HW293327   7.041   3.064   0.775
31101SOL     OW93328   7.052   2.452   0.992
31101SOL    HW193329   7.022   2.357   0.999
31101SOL    HW293330   7.125   2.468   1.058
31102SOL     OW93331   7.443   2.695   0.377
31102SOL    HW193332   7.485   2.631   0.441
31102SOL    HW293333   7.405   2.644   0.299
31103SOL     OW93334   6.074   3.247   0.174
31103SOL    HW193335   5.987   3.232   0.221
31103SOL    HW293336   6.057   3.273   0.079
31104SOL     OW93337   7.250   3.142   0.657
31104SOL    HW193338   7.349   3.150   0.671
31104SOL    HW293339   7.205   3.226   0.688
31105SOL     OW93340   6.976   2.437   0.078
31105SOL    HW193341   6.922   2.416   0.159
31105SOL    HW293342   7.067   2.396   0.087
31106SOL     OW93343   6.113   2.118   0.328
31106SOL    HW193344   6.140   2.059   0.253
31106SOL    HW293345   6.113   2.213   0.297
31107SOL     OW93346   7.340   3.085   1.588
31107SOL    HW193347   7.431   3.046   1.575
31107SOL    HW293348   7.348   3.181   1.612
31108SOL     OW93349   6.650   3.209   1.340
31108SOL    HW193350   6.570   3.186   1.395
31108SOL    HW293351   6.733   3.183   1.389
31109SOL     OW93352   7.178   3.491   1.625
31109SOL    HW193353   7.205   3.525   1.535
31109SOL    HW293354   7.257   3.453   1.671
31110SOL     OW93355   6.697   3.057   1.100
31110SOL    HW193356   6.657   3.101   1.181
31110SOL    HW293357   6.656   3.094   1.017
31111SOL     OW93358   7.224   2.961   1.079
31111SOL    HW193359   7.229   3.042   1.138
31111SOL    HW293360   7.138   2.963   1.028
31112SOL     OW93361   6.501   1.951   1.402
31112SOL    HW193362   6.526   1.931   1.307
31112SOL    HW293363   6.573   2.007   1.444
31113SOL     OW93364   6.566   2.978   1.719
31113SOL    HW193365   6.467   2.984   1.729
31113SOL    HW293366   6.589   2.898   1.663
31114SOL     OW93367   6.291   2.912   0.368
31114SOL    HW193368   6.277   2.919   0.467
31114SOL    HW293369   6.375   2.861   0.350
31115SOL     OW93370   5.996   2.675   1.251
31115SOL    HW193371   6.082   2.687   1.301
31115SOL    HW293372   5.954   2.588   1.278
31116SOL     OW93373   6.860   2.248   1.262
31116SOL    HW193374   6.881   2.322   1.326
31116SOL    HW293375   6.771   2.265   1.219
31117SOL     OW93376   5.650   3.426   1.331
31117SOL    HW193377   5.604   3.508   1.297
31117SOL    HW293378   5.748   3.445   1.340
31118SOL     OW93379   5.953   2.962   0.501
31118SOL    HW193380   5.946   3.045   0.445
31118SOL    HW293381   5.957   2.882   0.441
31119SOL     OW93382   6.152   2.399   0.865
31119SOL    HW193383   6.164   2.465   0.791
31119SOL    HW293384   6.198   2.433   0.948
31120SOL     OW93385   6.838   3.210   0.388
31120SOL    HW193386   6.888   3.287   0.428
31120SOL    HW293387   6.743   3.212   0.420
31121SOL     OW93388   6.858   3.307   1.142
31121SOL    HW193389   6.905   3.320   1.229
31121SOL    HW293390   6.792   3.233   1.151
31122SOL     OW93391   7.168   2.501   0.472
31122SOL    HW193392   7.137   2.562   0.545
31122SOL    HW293393   7.218   2.553   0.403
31123SOL     OW93394   5.940   3.372   1.329
31123SOL    HW193395   5.919   3.328   1.242
31123SOL    HW293396   6.037   3.398   1.332
31124SOL     OW93397   5.988   2.613   1.598
31124SOL    HW193398   6.056   2.668   1.551
31124SOL    HW293399   6.028   2.525   1.625
31125SOL     OW93400   7.173   2.641   1.670
31125SOL    HW193401   7.081   2.679   1.665
31125SOL    HW293402   7.233   2.688   1.605
31126SOL     OW93403   6.599   1.967   1.770
31126SOL    HW193404   6.605   2.052   1.718
31126SOL    HW293405   6.631   1.891   1.713
31127SOL     OW93406   6.090   1.912   1.740
31127SOL    HW193407   6.048   1.855   1.670
31127SOL    HW293408   6.024   1.981   1.772
31128SOL     OW93409   6.159   2.732   1.029
31128SOL    HW193410   6.203   2.821   1.020
31128SOL    HW293411   6.096   2.732   1.106
31129SOL     OW93412   6.946   2.724   1.045
31129SOL    HW193413   6.871   2.724   0.979
31129SOL    HW293414   6.983   2.632   1.054
31130SOL     OW93415   6.795   2.387   0.275
31130SOL    HW193416   6.808   2.303   0.329
31130SOL    HW293417   6.766   2.461   0.335
31131SOL     OW93418   5.893   2.075   1.231
31131SOL    HW193419   5.870   2.112   1.321
31131SOL    HW293420   5.863   1.980   1.225
31132SOL     OW93421   5.623   3.172   1.282
31132SOL    HW193422   5.676   3.123   1.350
31132SOL    HW293423   5.645   3.270   1.287
31133SOL     OW93424   6.318   2.496   1.064
31133SOL    HW193425   6.377   2.470   0.988
31133SOL    HW293426   6.290   2.592   1.053
31134SOL     OW93427   7.314   2.797   1.854
31134SOL    HW193428   7.268   2.790   1.765
31134SOL    HW293429   7.252   2.841   1.920
31135SOL     OW93430   5.893   1.925   0.618
31135SOL    HW193431   5.882   2.019   0.651
31135SOL    HW293432   5.888   1.862   0.695
31136SOL     OW93433   7.208   2.229   0.374
31136SOL    HW193434   7.210   2.153   0.438
31136SOL    HW293435   7.160   2.306   0.414
31137SOL     OW93436   6.609   2.628   0.966
31137SOL    HW193437   6.624   2.649   1.062
31137SOL    HW293438   6.579   2.533   0.957
31138SOL     OW93439   6.566   3.435   1.700
31138SOL    HW193440   6.546   3.479   1.612
31138SOL    HW293441   6.605   3.344   1.684
31139SOL     OW93442   7.445   3.380   1.605
31139SOL    HW193443   7.459   3.407   1.510
31139SOL    HW293444   7.528   3.402   1.658
31140SOL     OW93445   5.936   2.760   1.804
31140SOL    HW193446   6.012   2.804   1.852
31140SOL    HW293447   5.971   2.713   1.722
31141SOL     OW93448   7.126   2.136   0.125
31141SOL    HW193449   7.065   2.061   0.148
31141SOL    HW293450   7.148   2.188   0.208
31142SOL     OW93451   6.889   2.700   0.042
31142SOL    HW193452   6.923   2.607   0.057
31142SOL    HW293453   6.907   2.727  -0.053
31143SOL     OW93454   6.654   3.195   0.849
31143SOL    HW193455   6.661   3.111   0.794
31143SOL    HW293456   6.716   3.264   0.813
31144SOL     OW93457   5.905   2.672   0.949
31144SOL    HW193458   5.998   2.708   0.954
31144SOL    HW293459   5.899   2.587   1.001
31145SOL     OW93460   5.925   2.371   1.006
31145SOL    HW193461   5.873   2.288   0.989
31145SOL    HW293462   6.002   2.376   0.942
31146SOL     OW93463   6.724   2.242   1.678
31146SOL    HW193464   6.679   2.305   1.742
31146SOL    HW293465   6.817   2.273   1.661
31147SOL     OW93466   6.746   2.069   1.477
31147SOL    HW193467   6.746   2.133   1.554
31147SOL    HW293468   6.774   2.117   1.394
31148SOL     OW93469   5.594   3.188   0.200
31148SOL    HW193470   5.501   3.209   0.169
31148SOL    HW293471   5.604   3.089   0.213
31149SOL     OW93472   5.674   3.663   0.927
31149SOL    HW193473   5.632   3.577   0.900
31149SOL    HW293474   5.768   3.666   0.893
31150SOL     OW93475   6.090   3.430   0.910
31150SOL    HW193476   6.156   3.504   0.919
31150SOL    HW293477   6.134   3.351   0.868
31151SOL     OW93478   6.588   2.658   1.238
31151SOL    HW193479   6.629   2.626   1.324
31151SOL    HW293480   6.492   2.631   1.235
31152SOL     OW93481   5.626   2.406   1.114
31152SOL    HW193482   5.711   2.373   1.073
31152SOL    HW293483   5.639   2.421   1.212
31153SOL     OW93484   5.775   2.382   1.722
31153SOL    HW193485   5.834   2.342   1.652
31153SOL    HW293486   5.717   2.453   1.681
31154SOL     OW93487   6.955   2.812   1.660
31154SOL    HW193488   6.994   2.901   1.680
31154SOL    HW293489   6.965   2.792   1.563
31155SOL     OW93490   6.401   2.434   0.325
31155SOL    HW193491   6.408   2.345   0.279
31155SOL    HW293492   6.307   2.468   0.317
31156SOL     OW93493   7.243   2.466   1.206
31156SOL    HW193494   7.205   2.397   1.268
31156SOL    HW293495   7.325   2.430   1.162
31157SOL     OW93496   5.838   3.426   1.744
31157SOL    HW193497   5.808   3.483   1.820
31157SOL    HW293498   5.831   3.329   1.770
31158SOL     OW93499   6.257   2.326   1.269
31158SOL    HW193500   6.223   2.237   1.239
31158SOL    HW293501   6.283   2.380   1.189
31159SOL     OW93502   6.516   3.540   1.465
31159SOL    HW193503   6.492   3.522   1.370
31159SOL    HW293504   6.546   3.634   1.475
31160SOL     OW93505   6.059   2.362   0.191
31160SOL    HW193506   6.120   2.442   0.195
31160SOL    HW293507   5.964   2.393   0.198
31161SOL     OW93508   5.745   2.999   1.466
31161SOL    HW193509   5.767   2.938   1.542
31161SOL    HW293510   5.755   2.950   1.380
31162SOL     OW93511   6.933   2.921   1.234
31162SOL    HW193512   6.957   2.858   1.160
31162SOL    HW293513   6.843   2.961   1.216
31163SOL     OW93514   6.888   2.717   0.309
31163SOL    HW193515   6.802   2.686   0.351
31163SOL    HW293516   6.884   2.703   0.210
31164SOL     OW93517   7.345   3.609   1.154
31164SOL    HW193518   7.406   3.639   1.081
31164SOL    HW293519   7.307   3.520   1.132
31165SOL     OW93520   6.838   3.593   1.128
31165SOL    HW193521   6.922   3.598   1.074
31165SOL    HW293522   6.815   3.497   1.146
31166SOL     OW93523   5.669   3.120   1.022
31166SOL    HW193524   5.664   3.119   1.122
31166SOL    HW293525   5.586   3.079   0.984
31167SOL     OW93526   6.274   3.524   1.716
31167SOL    HW193527   6.218   3.605   1.725
31167SOL    HW293528   6.326   3.528   1.630
31168SOL     OW93529   6.489   1.948   0.133
31168SOL    HW193530   6.540   1.949   0.047
31168SOL    HW293531   6.545   1.906   0.204
31169SOL     OW93532   7.312   1.997   0.523
31169SOL    HW193533   7.385   1.980   0.456
31169SOL    HW293534   7.281   1.910   0.561
31170SOL     OW93535   6.974   3.435   0.477
31170SOL    HW193536   7.041   3.447   0.403
31170SOL    HW293537   6.934   3.524   0.500
31171SOL     OW93538   5.716   3.656   1.851
31171SOL    HW193539   5.675   3.582   1.904
31171SOL    HW293540   5.780   3.707   1.909
31172SOL     OW93541   6.866   2.789   0.672
31172SOL    HW193542   6.926   2.708   0.674
31172SOL    HW293543   6.906   2.858   0.612
31173SOL     OW93544   6.416   3.135   1.422
31173SOL    HW193545   6.411   3.168   1.517
31173SOL    HW293546   6.330   3.154   1.376
31174SOL     OW93547   6.258   3.478   0.154
31174SOL    HW193548   6.267   3.488   0.055
31174SOL    HW293549   6.218   3.389   0.175
31175SOL     OW93550   7.236   3.582   1.394
31175SOL    HW193551   7.289   3.592   1.310
31175SOL    HW293552   7.209   3.672   1.428
31176SOL     OW93553   7.427   2.037   0.963
31176SOL    HW193554   7.466   1.952   0.927
31176SOL    HW293555   7.329   2.039   0.944
31177SOL     OW93556   5.849   2.188   0.720
31177SOL    HW193557   5.770   2.239   0.686
31177SOL    HW293558   5.840   2.173   0.818
31178SOL     OW93559   6.780   3.474   0.031
31178SOL    HW193560   6.786   3.381   0.068
31178SOL    HW293561   6.721   3.474  -0.049
31179SOL     OW93562   6.408   2.864   1.372
31179SOL    HW193563   6.448   2.863   1.280
31179SOL    HW293564   6.418   2.956   1.412
31180SOL     OW93565   6.502   2.772   0.291
31180SOL    HW193566   6.565   2.810   0.223
31180SOL    HW293567   6.542   2.689   0.330
31181SOL     OW93568   7.090   3.469   0.044
31181SOL    HW193569   6.998   3.506   0.051
31181SOL    HW293570   7.128   3.489  -0.046
31182SOL     OW93571   5.958   3.150   1.490
31182SOL    HW193572   5.945   3.243   1.456
31182SOL    HW293573   5.874   3.098   1.477
31183SOL     OW93574   7.200   3.154   1.289
31183SOL    HW193575   7.260   3.157   1.369
31183SOL    HW293576   7.125   3.218   1.302
31184SOL     OW93577   6.625   2.960   0.696
31184SOL    HW193578   6.555   2.913   0.750
31184SOL    HW293579   6.684   2.892   0.653
31185SOL     OW93580   6.600   2.098   0.971
31185SOL    HW193581   6.592   2.062   0.878
31185SOL    HW293582   6.598   2.022   1.036
31186SOL     OW93583   6.176   3.349   0.491
31186SOL    HW193584   6.218   3.291   0.421
31186SOL    HW293585   6.132   3.428   0.447
31187SOL     OW93586   7.295   2.247   1.381
31187SOL    HW193587   7.368   2.316   1.385
31187SOL    HW293588   7.323   2.172   1.322
31188SOL     OW93589   5.841   3.210   0.290
31188SOL    HW193590   5.745   3.211   0.263
31188SOL    HW293591   5.853   3.263   0.374
31189SOL     OW93592   5.691   2.875   1.726
31189SOL    HW193593   5.614   2.842   1.780
31189SOL    HW293594   5.776   2.845   1.768
31190SOL     OW93595   6.258   2.065   1.489
31190SOL    HW193596   6.348   2.049   1.449
31190SOL    HW293597   6.266   2.070   1.588
31191SOL     OW93598   7.026   2.718   1.398
31191SOL    HW193599   6.969   2.770   1.335
31191SOL    HW293600   7.122   2.730   1.374
31192SOL     OW93601   5.658   2.028   0.318
31192SOL    HW193602   5.641   2.111   0.264
31192SOL    HW293603   5.748   1.991   0.296
31193SOL     OW93604   6.769   3.197   0.119
31193SOL    HW193605   6.670   3.186   0.121
31193SOL    HW293606   6.803   3.212   0.212
31194SOL     OW93607   6.199   2.704   1.431
31194SOL    HW193608   6.255   2.785   1.414
31194SOL    HW293609   6.258   2.624   1.434
31195SOL     OW93610   7.079   3.629   0.959
31195SOL    HW193611   7.112   3.693   0.890
31195SOL    HW293612   7.145   3.623   1.034
31196SOL     OW93613   6.302   2.427   1.708
31196SOL    HW193614   6.321   2.492   1.782
31196SOL    HW293615   6.362   2.347   1.717
31197SOL     OW93616   7.036   3.082   1.633
31197SOL    HW193617   7.027   3.072   1.732
31197SOL    HW293618   7.132   3.075   1.607
31198SOL     OW93619   5.976   3.603   1.560
31198SOL    HW193620   5.885   3.644   1.558
31198SOL    HW293621   5.969   3.509   1.592
31199SOL     OW93622   7.260   2.745   1.254
31199SOL    HW193623   7.233   2.656   1.217
31199SOL    HW293624   7.261   2.813   1.181
31200SOL     OW93625   6.811   2.187   0.449
31200SOL    HW193626   6.876   2.113   0.438
31200SOL    HW293627   6.831   2.237   0.533
31201SOL     OW93628   6.180   2.607   0.652
31201SOL    HW193629   6.230   2.692   0.633
31201SOL    HW293630   6.092   2.609   0.604
31202SOL     OW93631   7.363   2.204   1.642
31202SOL    HW193632   7.346   2.235   1.548
31202SOL    HW293633   7.279   2.167   1.680
31203SOL     OW93634   7.316   2.796   1.517
31203SOL    HW193635   7.354   2.887   1.532
31203SOL    HW293636   7.308   2.779   1.418
31204SOL     OW93637   6.445   3.236   0.016
31204SOL    HW193638   6.399   3.251   0.104
31204SOL    HW293639   6.489   3.321  -0.014
31205SOL     OW93640   6.247   3.652   0.953
31205SOL    HW193641   6.201   3.740   0.940
31205SOL    HW293642   6.346   3.664   0.946
31206SOL     OW93643   6.445   2.818   0.861
31206SOL    HW193644   6.499   2.749   0.909
31206SOL    HW293645   6.413   2.887   0.927
31207SOL     OW93646   6.669   2.846   0.087
31207SOL    HW193647   6.646   2.899   0.005
31207SOL    HW293648   6.750   2.790   0.068
31208SOL     OW93649   7.447   3.431   0.851
31208SOL    HW193650   7.376   3.419   0.781
31208SOL    HW293651   7.448   3.352   0.911
31209SOL     OW93652   5.807   3.176   1.844
31209SOL    HW193653   5.742   3.103   1.823
31209SOL    HW293654   5.811   3.190   1.942
31210SOL     OW93655   5.665   3.102   0.653
31210SOL    HW193656   5.664   3.055   0.741
31210SOL    HW293657   5.747   3.074   0.602
31211SOL     OW93658   6.258   3.253   1.624
31211SOL    HW193659   6.180   3.203   1.662
31211SOL    HW293660   6.255   3.348   1.655
31212SOL     OW93661   7.410   2.054   1.227
31212SOL    HW193662   7.406   1.964   1.271
31212SOL    HW293663   7.413   2.043   1.128
31213SOL     OW93664   6.014   2.286   0.520
31213SOL    HW193665   6.044   2.214   0.458
31213SOL    HW293666   5.975   2.246   0.603
31214SOL     OW93667   7.291   3.349   1.104
31214SOL    HW193668   7.198   3.324   1.077
31214SOL    HW293669   7.317   3.299   1.186
31215SOL     OW93670   5.903   2.409   1.280
31215SOL    HW193671   5.941   2.350   1.352
31215SOL    HW293672   5.943   2.383   1.192
31216SOL     OW93673   6.398   3.448   0.687
31216SOL    HW193674   6.430   3.458   0.593
31216SOL    HW293675   6.319   3.386   0.689
31217SOL     OW93676   7.010   2.076   1.112
31217SOL    HW193677   7.062   2.011   1.167
31217SOL    HW293678   6.961   2.139   1.173
31218SOL     OW93679   6.587   1.896   1.154
31218SOL    HW193680   6.524   1.824   1.123
31218SOL    HW293681   6.680   1.860   1.154
31219SOL     OW93682   6.356   3.192   0.301
31219SOL    HW193683   6.310   3.105   0.318
31219SOL    HW293684   6.447   3.189   0.342
31220SOL     OW93685   6.204   3.429   1.284
31220SOL    HW193686   6.199   3.511   1.341
31220SOL    HW293687   6.293   3.426   1.239
31221SOL     OW93688   6.938   1.914   0.168
31221SOL    HW193689   6.973   1.873   0.084
31221SOL    HW293690   6.848   1.876   0.188
31222SOL     OW93691   6.886   2.315   0.691
31222SOL    HW193692   6.827   2.395   0.695
31222SOL    HW293693   6.901   2.280   0.784
31223SOL     OW93694   7.179   2.083   0.882
31223SOL    HW193695   7.095   2.082   0.936
31223SOL    HW293696   7.181   2.166   0.826
31224SOL     OW93697   5.625   2.939   0.300
31224SOL    HW193698   5.724   2.928   0.291
31224SOL    HW293699   5.585   2.853   0.332
31225SOL     OW93700   6.461   3.508   0.337
31225SOL    HW193701   6.384   3.473   0.283
31225SOL    HW293702   6.429   3.579   0.399
31226SOL     OW93703   5.816   2.490   1.975
31226SOL    HW193704   5.723   2.488   2.012
31226SOL    HW293705   5.817   2.451   1.883
31227SOL     OW93706   5.811   2.137   2.858
31227SOL    HW193707   5.846   2.120   2.950
31227SOL    HW293708   5.723   2.092   2.846
31228SOL     OW93709   5.605   2.230   2.509
31228SOL    HW193710   5.523   2.273   2.548
31228SOL    HW293711   5.577   2.157   2.446
31229SOL     OW93712   6.155   3.137   3.027
31229SOL    HW193713   6.062   3.130   2.990
31229SOL    HW293714   6.166   3.226   3.071
31230SOL     OW93715   7.141   3.373   2.565
31230SOL    HW193716   7.084   3.357   2.646
31230SOL    HW293717   7.082   3.383   2.485
31231SOL     OW93718   6.721   2.565   2.579
31231SOL    HW193719   6.778   2.643   2.554
31231SOL    HW293720   6.661   2.591   2.655
31232SOL     OW93721   7.341   2.469   2.093
31232SOL    HW193722   7.329   2.456   1.994
31232SOL    HW293723   7.311   2.388   2.142
31233SOL     OW93724   6.354   3.006   2.885
31233SOL    HW193725   6.276   3.023   2.945
31233SOL    HW293726   6.388   3.093   2.849
31234SOL     OW93727   6.436   2.660   3.685
31234SOL    HW193728   6.432   2.736   3.750
31234SOL    HW293729   6.458   2.696   3.594
31235SOL     OW93730   6.271   2.874   2.527
31235SOL    HW193731   6.340   2.858   2.597
31235SOL    HW293732   6.198   2.931   2.565
31236SOL     OW93733   6.272   3.023   3.665
31236SOL    HW193734   6.332   3.102   3.679
31236SOL    HW293735   6.186   3.054   3.624
31237SOL     OW93736   5.921   3.297   2.923
31237SOL    HW193737   5.843   3.266   2.870
31237SOL    HW293738   5.979   3.355   2.866
31238SOL     OW93739   7.046   3.367   3.201
31238SOL    HW193740   7.070   3.461   3.227
31238SOL    HW293741   7.030   3.313   3.283
31239SOL     OW93742   6.024   2.254   3.361
31239SOL    HW193743   6.106   2.198   3.370
31239SOL    HW293744   5.943   2.196   3.365
31240SOL     OW93745   7.189   2.309   2.599
31240SOL    HW193746   7.115   2.355   2.549
31240SOL    HW293747   7.240   2.377   2.652
31241SOL     OW93748   5.817   3.575   2.345
31241SOL    HW193749   5.851   3.652   2.399
31241SOL    HW293750   5.861   3.575   2.255
31242SOL     OW93751   6.713   3.203   3.552
31242SOL    HW193752   6.760   3.203   3.640
31242SOL    HW293753   6.665   3.116   3.541
31243SOL     OW93754   5.816   3.296   2.400
31243SOL    HW193755   5.790   3.392   2.400
31243SOL    HW293756   5.745   3.242   2.445
31244SOL     OW93757   5.826   2.953   2.748
31244SOL    HW193758   5.840   2.869   2.800
31244SOL    HW293759   5.771   3.017   2.803
31245SOL     OW93760   6.206   3.648   3.301
31245SOL    HW193761   6.114   3.631   3.336
31245SOL    HW293762   6.234   3.740   3.327
31246SOL     OW93763   6.192   2.826   1.985
31246SOL    HW193764   6.199   2.910   1.931
31246SOL    HW293765   6.238   2.839   2.073
31247SOL     OW93766   7.180   1.976   3.342
31247SOL    HW193767   7.162   2.043   3.270
31247SOL    HW293768   7.177   2.022   3.431
31248SOL     OW93769   5.708   2.505   2.425
31248SOL    HW193770   5.663   2.417   2.442
31248SOL    HW293771   5.707   2.559   2.509
31249SOL     OW93772   7.428   3.629   2.221
31249SOL    HW193773   7.482   3.600   2.301
31249SOL    HW293774   7.458   3.719   2.192
31250SOL     OW93775   5.613   3.458   1.979
31250SOL    HW193776   5.594   3.362   2.000
31250SOL    HW293777   5.580   3.516   2.054
31251SOL     OW93778   7.275   2.784   2.474
31251SOL    HW193779   7.370   2.755   2.482
31251SOL    HW293780   7.267   2.849   2.399
31252SOL     OW93781   7.227   2.970   2.294
31252SOL    HW193782   7.313   2.972   2.242
31252SOL    HW293783   7.241   3.017   2.382
31253SOL     OW93784   5.699   2.599   3.459
31253SOL    HW193785   5.787   2.586   3.504
31253SOL    HW293786   5.686   2.696   3.437
31254SOL     OW93787   6.199   3.227   2.588
31254SOL    HW193788   6.150   3.140   2.597
31254SOL    HW293789   6.176   3.270   2.501
31255SOL     OW93790   6.879   3.090   3.285
31255SOL    HW193791   6.916   3.017   3.227
31255SOL    HW293792   6.931   3.095   3.370
31256SOL     OW93793   6.395   1.866   2.364
31256SOL    HW193794   6.435   1.957   2.355
31256SOL    HW293795   6.295   1.874   2.370
31257SOL     OW93796   5.783   2.838   3.126
31257SOL    HW193797   5.872   2.793   3.112
31257SOL    HW293798   5.710   2.773   3.107
31258SOL     OW93799   7.111   2.861   2.052
31258SOL    HW193800   7.048   2.785   2.065
31258SOL    HW293801   7.159   2.879   2.138
31259SOL     OW93802   6.773   3.654   3.478
31259SOL    HW193803   6.797   3.714   3.402
31259SOL    HW293804   6.780   3.559   3.448
31260SOL     OW93805   5.903   2.113   3.663
31260SOL    HW193806   5.974   2.184   3.669
31260SOL    HW293807   5.815   2.152   3.691
31261SOL     OW93808   7.052   3.279   2.815
31261SOL    HW193809   6.993   3.285   2.895
31261SOL    HW293810   7.037   3.191   2.769
31262SOL     OW93811   7.253   3.576   2.434
31262SOL    HW193812   7.212   3.553   2.346
31262SOL    HW293813   7.235   3.502   2.499
31263SOL     OW93814   6.184   2.591   2.132
31263SOL    HW193815   6.208   2.660   2.064
31263SOL    HW293816   6.106   2.624   2.186
31264SOL     OW93817   6.867   2.207   2.806
31264SOL    HW193818   6.781   2.157   2.793
31264SOL    HW293819   6.929   2.153   2.862
31265SOL     OW93820   7.162   3.524   2.169
31265SOL    HW193821   7.251   3.570   2.172
31265SOL    HW293822   7.141   3.500   2.074
31266SOL     OW93823   6.393   2.467   3.327
31266SOL    HW193824   6.346   2.464   3.416
31266SOL    HW293825   6.342   2.412   3.261
31267SOL     OW93826   6.980   2.331   3.536
31267SOL    HW193827   6.960   2.374   3.624
31267SOL    HW293828   7.058   2.269   3.545
31268SOL     OW93829   6.559   2.752   3.434
31268SOL    HW193830   6.605   2.668   3.405
31268SOL    HW293831   6.503   2.786   3.359
31269SOL     OW93832   6.577   2.272   3.104
31269SOL    HW193833   6.500   2.306   3.158
31269SOL    HW293834   6.543   2.221   3.025
31270SOL     OW93835   6.627   2.563   2.291
31270SOL    HW193836   6.653   2.559   2.387
31270SOL    HW293837   6.542   2.512   2.277
31271SOL     OW93838   5.662   2.673   2.651
31271SOL    HW193839   5.761   2.661   2.660
31271SOL    HW293840   5.638   2.768   2.672
31272SOL     OW93841   5.716   3.683   3.433
31272SOL    HW193842   5.706   3.668   3.532
31272SOL    HW293843   5.630   3.719   3.397
31273SOL     OW93844   6.451   2.210   2.057
31273SOL    HW193845   6.510   2.273   2.008
31273SOL    HW293846   6.470   2.116   2.028
31274SOL     OW93847   7.305   2.447   3.693
31274SOL    HW193848   7.279   2.536   3.657
31274SOL    HW293849   7.303   2.379   3.620
31275SOL     OW93850   6.948   3.006   2.407
31275SOL    HW193851   7.031   2.977   2.359
31275SOL    HW293852   6.899   3.073   2.351
31276SOL     OW93853   6.136   2.058   2.747
31276SOL    HW193854   6.131   2.053   2.847
31276SOL    HW293855   6.138   2.154   2.718
31277SOL     OW93856   6.594   3.318   2.339
31277SOL    HW193857   6.548   3.390   2.287
31277SOL    HW293858   6.590   3.338   2.437
31278SOL     OW93859   5.937   3.663   2.715
31278SOL    HW193860   5.987   3.577   2.721
31278SOL    HW293861   6.002   3.740   2.712
31279SOL     OW93862   7.381   2.928   2.735
31279SOL    HW193863   7.319   2.913   2.659
31279SOL    HW293864   7.329   2.939   2.820
31280SOL     OW93865   6.813   3.412   3.368
31280SOL    HW193866   6.819   3.335   3.432
31280SOL    HW293867   6.761   3.386   3.288
31281SOL     OW93868   5.907   2.805   2.104
31281SOL    HW193869   5.989   2.844   2.062
31281SOL    HW293870   5.880   2.723   2.055
31282SOL     OW93871   7.044   2.597   2.590
31282SOL    HW193872   7.039   2.532   2.665
31282SOL    HW293873   7.124   2.656   2.603
31283SOL     OW93874   6.047   3.128   3.589
31283SOL    HW193875   5.997   3.129   3.503
31283SOL    HW293876   5.984   3.110   3.665
31284SOL     OW93877   6.697   3.638   2.099
31284SOL    HW193878   6.637   3.576   2.149
31284SOL    HW293879   6.728   3.594   2.014
31285SOL     OW93880   5.788   2.147   3.360
31285SOL    HW193881   5.708   2.207   3.347
31285SOL    HW293882   5.778   2.098   3.446
31286SOL     OW93883   7.218   3.239   1.943
31286SOL    HW193884   7.186   3.333   1.933
31286SOL    HW293885   7.142   3.176   1.931
31287SOL     OW93886   6.050   3.605   2.185
31287SOL    HW193887   6.083   3.644   2.271
31287SOL    HW293888   6.126   3.598   2.120
31288SOL     OW93889   6.986   1.969   2.288
31288SOL    HW193890   6.962   1.932   2.198
31288SOL    HW293891   7.085   1.985   2.292
31289SOL     OW93892   5.835   3.647   3.103
31289SOL    HW193893   5.892   3.582   3.153
31289SOL    HW293894   5.819   3.614   3.010
31290SOL     OW93895   6.526   3.560   2.766
31290SOL    HW193896   6.606   3.503   2.787
31290SOL    HW293897   6.477   3.520   2.689
31291SOL     OW93898   5.968   2.562   2.342
31291SOL    HW193899   6.013   2.472   2.339
31291SOL    HW293900   5.874   2.551   2.375
31292SOL     OW93901   7.133   2.084   3.591
31292SOL    HW193902   7.128   2.121   3.683
31292SOL    HW293903   7.061   2.015   3.579
31293SOL     OW93904   6.200   1.984   1.979
31293SOL    HW193905   6.298   1.962   1.986
31293SOL    HW293906   6.169   1.967   1.886
31294SOL     OW93907   6.367   2.126   3.611
31294SOL    HW193908   6.434   2.065   3.654
31294SOL    HW293909   6.294   2.145   3.676
31295SOL     OW93910   6.474   3.376   3.057
31295SOL    HW193911   6.451   3.351   2.963
31295SOL    HW293912   6.535   3.307   3.096
31296SOL     OW93913   6.937   2.452   3.295
31296SOL    HW193914   6.965   2.409   3.380
31296SOL    HW293915   6.962   2.548   3.296
31297SOL     OW93916   6.389   3.264   2.786
31297SOL    HW193917   6.479   3.278   2.744
31297SOL    HW293918   6.318   3.266   2.715
31298SOL     OW93919   6.508   2.365   2.761
31298SOL    HW193920   6.483   2.356   2.665
31298SOL    HW293921   6.556   2.283   2.792
31299SOL     OW93922   6.125   1.926   2.374
31299SOL    HW193923   6.044   1.927   2.432
31299SOL    HW293924   6.128   2.009   2.319
31300SOL     OW93925   5.883   1.897   2.033
31300SOL    HW193926   5.932   1.981   2.012
31300SOL    HW293927   5.945   1.832   2.078
31301SOL     OW93928   6.521   2.098   2.342
31301SOL    HW193929   6.473   2.139   2.264
31301SOL    HW293930   6.620   2.096   2.323
31302SOL     OW93931   6.662   2.545   3.326
31302SOL    HW193932   6.582   2.484   3.329
31302SOL    HW293933   6.743   2.492   3.302
31303SOL     OW93934   6.813   3.432   2.655
31303SOL    HW193935   6.834   3.506   2.590
31303SOL    HW293936   6.881   3.432   2.728
31304SOL     OW93937   6.045   3.014   2.603
31304SOL    HW193938   5.974   2.987   2.668
31304SOL    HW293939   6.019   2.986   2.510
31305SOL     OW93940   6.857   3.659   2.453
31305SOL    HW193941   6.901   3.723   2.389
31305SOL    HW293942   6.807   3.711   2.523
31306SOL     OW93943   6.618   2.411   1.878
31306SOL    HW193944   6.577   2.493   1.839
31306SOL    HW293945   6.682   2.437   1.951
31307SOL     OW93946   5.664   2.418   3.248
31307SOL    HW193947   5.756   2.417   3.207
31307SOL    HW293948   5.658   2.492   3.315
31308SOL     OW93949   6.147   2.084   3.009
31308SOL    HW193950   6.185   2.000   3.046
31308SOL    HW293951   6.059   2.103   3.053
31309SOL     OW93952   6.452   2.316   2.504
31309SOL    HW193953   6.420   2.388   2.442
31309SOL    HW293954   6.476   2.235   2.451
31310SOL     OW93955   6.603   1.901   2.615
31310SOL    HW193956   6.531   1.906   2.546
31310SOL    HW293957   6.579   1.832   2.684
31311SOL     OW93958   7.015   3.035   2.729
31311SOL    HW193959   6.960   2.951   2.722
31311SOL    HW293960   7.041   3.064   2.637
31312SOL     OW93961   7.052   2.452   2.854
31312SOL    HW193962   7.022   2.357   2.861
31312SOL    HW293963   7.125   2.468   2.920
31313SOL     OW93964   7.443   2.695   2.239
31313SOL    HW193965   7.485   2.631   2.303
31313SOL    HW293966   7.405   2.644   2.161
31314SOL     OW93967   6.074   3.247   2.036
31314SOL    HW193968   5.987   3.232   2.083
31314SOL    HW293969   6.057   3.273   1.941
31315SOL     OW93970   7.250   3.142   2.519
31315SOL    HW193971   7.349   3.150   2.533
31315SOL    HW293972   7.205   3.226   2.550
31316SOL     OW93973   6.976   2.437   1.940
31316SOL    HW193974   6.922   2.416   2.021
31316SOL    HW293975   7.067   2.396   1.949
31317SOL     OW93976   6.113   2.118   2.190
31317SOL    HW193977   6.140   2.059   2.115
31317SOL    HW293978   6.113   2.213   2.159
31318SOL     OW93979   7.340   3.085   3.450
31318SOL    HW193980   7.431   3.046   3.437
31318SOL    HW293981   7.348   3.181   3.474
31319SOL     OW93982   6.650   3.209   3.202
31319SOL    HW193983   6.570   3.186   3.257
31319SOL    HW293984   6.733   3.183   3.251
31320SOL     OW93985   7.178   3.491   3.487
31320SOL    HW193986   7.205   3.525   3.397
31320SOL    HW293987   7.257   3.453   3.533
31321SOL     OW93988   6.697   3.057   2.962
31321SOL    HW193989   6.657   3.101   3.043
31321SOL    HW293990   6.656   3.094   2.879
31322SOL     OW93991   7.224   2.961   2.941
31322SOL    HW193992   7.229   3.042   3.000
31322SOL    HW293993   7.138   2.963   2.890
31323SOL     OW93994   6.501   1.951   3.264
31323SOL    HW193995   6.526   1.931   3.169
31323SOL    HW293996   6.573   2.007   3.306
31324SOL     OW93997   6.566   2.978   3.581
31324SOL    HW193998   6.467   2.984   3.591
31324SOL    HW293999   6.589   2.898   3.525
31325SOL     OW94000   6.291   2.912   2.230
31325SOL    HW194001   6.277   2.919   2.329
31325SOL    HW294002   6.375   2.861   2.212
31326SOL     OW94003   5.996   2.675   3.113
31326SOL    HW194004   6.082   2.687   3.163
31326SOL    HW294005   5.954   2.588   3.140
31327SOL     OW94006   6.860   2.248   3.124
31327SOL    HW194007   6.881   2.322   3.188
31327SOL    HW294008   6.771   2.265   3.081
31328SOL     OW94009   5.650   3.426   3.193
31328SOL    HW194010   5.604   3.508   3.159
31328SOL    HW294011   5.748   3.445   3.202
31329SOL     OW94012   5.953   2.962   2.363
31329SOL    HW194013   5.946   3.045   2.307
31329SOL    HW294014   5.957   2.882   2.303
31330SOL     OW94015   6.152   2.399   2.727
31330SOL    HW194016   6.164   2.465   2.653
31330SOL    HW294017   6.198   2.433   2.810
31331SOL     OW94018   6.838   3.210   2.250
31331SOL    HW194019   6.888   3.287   2.290
31331SOL    HW294020   6.743   3.212   2.282
31332SOL     OW94021   6.858   3.307   3.004
31332SOL    HW194022   6.905   3.320   3.091
31332SOL    HW294023   6.792   3.233   3.013
31333SOL     OW94024   7.168   2.501   2.334
31333SOL    HW194025   7.137   2.562   2.407
31333SOL    HW294026   7.218   2.553   2.265
31334SOL     OW94027   5.940   3.372   3.191
31334SOL    HW194028   5.919   3.328   3.104
31334SOL    HW294029   6.037   3.398   3.194
31335SOL     OW94030   5.988   2.613   3.460
31335SOL    HW194031   6.056   2.668   3.413
31335SOL    HW294032   6.028   2.525   3.487
31336SOL     OW94033   7.173   2.641   3.532
31336SOL    HW194034   7.081   2.679   3.527
31336SOL    HW294035   7.233   2.688   3.467
31337SOL     OW94036   6.599   1.967   3.632
31337SOL    HW194037   6.605   2.052   3.580
31337SOL    HW294038   6.631   1.891   3.575
31338SOL     OW94039   6.090   1.912   3.602
31338SOL    HW194040   6.048   1.855   3.532
31338SOL    HW294041   6.024   1.981   3.634
31339SOL     OW94042   6.159   2.732   2.891
31339SOL    HW194043   6.203   2.821   2.882
31339SOL    HW294044   6.096   2.732   2.968
31340SOL     OW94045   6.946   2.724   2.907
31340SOL    HW194046   6.871   2.724   2.841
31340SOL    HW294047   6.983   2.632   2.916
31341SOL     OW94048   6.795   2.387   2.137
31341SOL    HW194049   6.808   2.303   2.191
31341SOL    HW294050   6.766   2.461   2.197
31342SOL     OW94051   5.893   2.075   3.093
31342SOL    HW194052   5.870   2.112   3.183
31342SOL    HW294053   5.863   1.980   3.087
31343SOL     OW94054   5.623   3.172   3.144
31343SOL    HW194055   5.676   3.123   3.212
31343SOL    HW294056   5.645   3.270   3.149
31344SOL     OW94057   6.318   2.496   2.926
31344SOL    HW194058   6.377   2.470   2.850
31344SOL    HW294059   6.290   2.592   2.915
31345SOL     OW94060   7.314   2.797   3.716
31345SOL    HW194061   7.268   2.790   3.627
31345SOL    HW294062   7.252   2.841   3.782
31346SOL     OW94063   5.893   1.925   2.480
31346SOL    HW194064   5.882   2.019   2.513
31346SOL    HW294065   5.888   1.862   2.557
31347SOL     OW94066   7.208   2.229   2.236
31347SOL    HW194067   7.210   2.153   2.300
31347SOL    HW294068   7.160   2.306   2.276
31348SOL     OW94069   6.609   2.628   2.828
31348SOL    HW194070   6.624   2.649   2.924
31348SOL    HW294071   6.579   2.533   2.819
31349SOL     OW94072   6.566   3.435   3.562
31349SOL    HW194073   6.546   3.479   3.474
31349SOL    HW294074   6.605   3.344   3.546
31350SOL     OW94075   7.445   3.380   3.467
31350SOL    HW194076   7.459   3.407   3.372
31350SOL    HW294077   7.528   3.402   3.520
31351SOL     OW94078   5.936   2.760   3.666
31351SOL    HW194079   6.012   2.804   3.714
31351SOL    HW294080   5.971   2.713   3.584
31352SOL     OW94081   7.126   2.136   1.987
31352SOL    HW194082   7.065   2.061   2.010
31352SOL    HW294083   7.148   2.188   2.070
31353SOL     OW94084   6.889   2.700   1.904
31353SOL    HW194085   6.923   2.607   1.919
31353SOL    HW294086   6.907   2.727   1.809
31354SOL     OW94087   6.654   3.195   2.711
31354SOL    HW194088   6.661   3.111   2.656
31354SOL    HW294089   6.716   3.264   2.675
31355SOL     OW94090   5.905   2.672   2.811
31355SOL    HW194091   5.998   2.708   2.816
31355SOL    HW294092   5.899   2.587   2.863
31356SOL     OW94093   5.925   2.371   2.868
31356SOL    HW194094   5.873   2.288   2.851
31356SOL    HW294095   6.002   2.376   2.804
31357SOL     OW94096   6.724   2.242   3.540
31357SOL    HW194097   6.679   2.305   3.604
31357SOL    HW294098   6.817   2.273   3.523
31358SOL     OW94099   6.746   2.069   3.339
31358SOL    HW194100   6.746   2.133   3.416
31358SOL    HW294101   6.774   2.117   3.256
31359SOL     OW94102   5.594   3.188   2.062
31359SOL    HW194103   5.501   3.209   2.031
31359SOL    HW294104   5.604   3.089   2.075
31360SOL     OW94105   5.674   3.663   2.789
31360SOL    HW194106   5.632   3.577   2.762
31360SOL    HW294107   5.768   3.666   2.755
31361SOL     OW94108   6.090   3.430   2.772
31361SOL    HW194109   6.156   3.504   2.781
31361SOL    HW294110   6.134   3.351   2.730
31362SOL     OW94111   6.588   2.658   3.100
31362SOL    HW194112   6.629   2.626   3.186
31362SOL    HW294113   6.492   2.631   3.097
31363SOL     OW94114   5.626   2.406   2.976
31363SOL    HW194115   5.711   2.373   2.935
31363SOL    HW294116   5.639   2.421   3.074
31364SOL     OW94117   5.775   2.382   3.584
31364SOL    HW194118   5.834   2.342   3.514
31364SOL    HW294119   5.717   2.453   3.543
31365SOL     OW94120   6.955   2.812   3.522
31365SOL    HW194121   6.994   2.901   3.542
31365SOL    HW294122   6.965   2.792   3.425
31366SOL     OW94123   6.401   2.434   2.187
31366SOL    HW194124   6.408   2.345   2.141
31366SOL    HW294125   6.307   2.468   2.179
31367SOL     OW94126   7.243   2.466   3.068
31367SOL    HW194127   7.205   2.397   3.130
31367SOL    HW294128   7.325   2.430   3.024
31368SOL     OW94129   5.838   3.426   3.606
31368SOL    HW194130   5.808   3.483   3.682
31368SOL    HW294131   5.831   3.329   3.632
31369SOL     OW94132   6.257   2.326   3.131
31369SOL    HW194133   6.223   2.237   3.101
31369SOL    HW294134   6.283   2.380   3.051
31370SOL     OW94135   6.516   3.540   3.327
31370SOL    HW194136   6.492   3.522   3.232
31370SOL    HW294137   6.546   3.634   3.337
31371SOL     OW94138   6.059   2.362   2.053
31371SOL    HW194139   6.120   2.442   2.057
31371SOL    HW294140   5.964   2.393   2.060
31372SOL     OW94141   5.745   2.999   3.328
31372SOL    HW194142   5.767   2.938   3.404
31372SOL    HW294143   5.755   2.950   3.242
31373SOL     OW94144   6.933   2.921   3.096
31373SOL    HW194145   6.957   2.858   3.022
31373SOL    HW294146   6.843   2.961   3.078
31374SOL     OW94147   6.888   2.717   2.171
31374SOL    HW194148   6.802   2.686   2.213
31374SOL    HW294149   6.884   2.703   2.072
31375SOL     OW94150   7.345   3.609   3.016
31375SOL    HW194151   7.406   3.639   2.943
31375SOL    HW294152   7.307   3.520   2.994
31376SOL     OW94153   6.838   3.593   2.990
31376SOL    HW194154   6.922   3.598   2.936
31376SOL    HW294155   6.815   3.497   3.008
31377SOL     OW94156   5.669   3.120   2.884
31377SOL    HW194157   5.664   3.119   2.984
31377SOL    HW294158   5.586   3.079   2.846
31378SOL     OW94159   6.274   3.524   3.578
31378SOL    HW194160   6.218   3.605   3.587
31378SOL    HW294161   6.326   3.528   3.492
31379SOL     OW94162   7.312   1.997   2.385
31379SOL    HW194163   7.385   1.980   2.318
31379SOL    HW294164   7.281   1.910   2.423
31380SOL     OW94165   6.974   3.435   2.339
31380SOL    HW194166   7.041   3.447   2.265
31380SOL    HW294167   6.934   3.524   2.362
31381SOL     OW94168   5.716   3.656   3.713
31381SOL    HW194169   5.675   3.582   3.766
31381SOL    HW294170   5.780   3.707   3.771
31382SOL     OW94171   6.866   2.789   2.534
31382SOL    HW194172   6.926   2.708   2.536
31382SOL    HW294173   6.906   2.858   2.474
31383SOL     OW94174   6.416   3.135   3.284
31383SOL    HW194175   6.411   3.168   3.379
31383SOL    HW294176   6.330   3.154   3.238
31384SOL     OW94177   6.258   3.478   2.016
31384SOL    HW194178   6.267   3.488   1.917
31384SOL    HW294179   6.218   3.389   2.037
31385SOL     OW94180   7.236   3.582   3.256
31385SOL    HW194181   7.289   3.592   3.172
31385SOL    HW294182   7.209   3.672   3.290
31386SOL     OW94183   7.427   2.037   2.825
31386SOL    HW194184   7.466   1.952   2.789
31386SOL    HW294185   7.329   2.039   2.806
31387SOL     OW94186   5.849   2.188   2.582
31387SOL    HW194187   5.770   2.239   2.548
31387SOL    HW294188   5.840   2.173   2.680
31388SOL     OW94189   6.780   3.474   1.893
31388SOL    HW194190   6.786   3.381   1.930
31388SOL    HW294191   6.721   3.474   1.813
31389SOL     OW94192   6.408   2.864   3.234
31389SOL    HW194193   6.448   2.863   3.142
31389SOL    HW294194   6.418   2.956   3.274
31390SOL     OW94195   6.502   2.772   2.153
31390SOL    HW194196   6.565   2.810   2.085
31390SOL    HW294197   6.542   2.689   2.192
31391SOL     OW94198   7.090   3.469   1.906
31391SOL    HW194199   6.998   3.506   1.913
31391SOL    HW294200   7.128   3.489   1.816
31392SOL     OW94201   5.958   3.150   3.352
31392SOL    HW194202   5.945   3.243   3.318
31392SOL    HW294203   5.874   3.098   3.339
31393SOL     OW94204   7.200   3.154   3.151
31393SOL    HW194205   7.260   3.157   3.231
31393SOL    HW294206   7.125   3.218   3.164
31394SOL     OW94207   6.625   2.960   2.558
31394SOL    HW194208   6.555   2.913   2.612
31394SOL    HW294209   6.684   2.892   2.515
31395SOL     OW94210   6.600   2.098   2.833
31395SOL    HW194211   6.592   2.062   2.740
31395SOL    HW294212   6.598   2.022   2.898
31396SOL     OW94213   6.176   3.349   2.353
31396SOL    HW194214   6.218   3.291   2.283
31396SOL    HW294215   6.132   3.428   2.309
31397SOL     OW94216   7.295   2.247   3.243
31397SOL    HW194217   7.368   2.316   3.247
31397SOL    HW294218   7.323   2.172   3.184
31398SOL     OW94219   5.841   3.210   2.152
31398SOL    HW194220   5.745   3.211   2.125
31398SOL    HW294221   5.853   3.263   2.236
31399SOL     OW94222   5.691   2.875   3.588
31399SOL    HW194223   5.614   2.842   3.642
31399SOL    HW294224   5.776   2.845   3.630
31400SOL     OW94225   6.258   2.065   3.351
31400SOL    HW194226   6.348   2.049   3.311
31400SOL    HW294227   6.266   2.070   3.450
31401SOL     OW94228   5.661   2.207   1.895
31401SOL    HW194229   5.569   2.179   1.866
31401SOL    HW294230   5.692   2.284   1.839
31402SOL     OW94231   7.026   2.718   3.260
31402SOL    HW194232   6.969   2.770   3.197
31402SOL    HW294233   7.122   2.730   3.236
31403SOL     OW94234   5.658   2.028   2.180
31403SOL    HW194235   5.641   2.111   2.126
31403SOL    HW294236   5.748   1.991   2.158
31404SOL     OW94237   6.769   3.197   1.981
31404SOL    HW194238   6.670   3.186   1.983
31404SOL    HW294239   6.803   3.212   2.074
31405SOL     OW94240   6.199   2.704   3.293
31405SOL    HW194241   6.255   2.785   3.276
31405SOL    HW294242   6.258   2.624   3.296
31406SOL     OW94243   7.079   3.629   2.821
31406SOL    HW194244   7.112   3.693   2.752
31406SOL    HW294245   7.145   3.623   2.896
31407SOL     OW94246   6.302   2.427   3.570
31407SOL    HW194247   6.321   2.492   3.644
31407SOL    HW294248   6.362   2.347   3.579
31408SOL     OW94249   7.036   3.082   3.495
31408SOL    HW194250   7.027   3.072   3.594
31408SOL    HW294251   7.132   3.075   3.469
31409SOL     OW94252   5.976   3.603   3.422
31409SOL    HW194253   5.885   3.644   3.420
31409SOL    HW294254   5.969   3.509   3.454
31410SOL     OW94255   7.260   2.745   3.116
31410SOL    HW194256   7.233   2.656   3.079
31410SOL    HW294257   7.261   2.813   3.043
31411SOL     OW94258   6.811   2.187   2.311
31411SOL    HW194259   6.876   2.113   2.300
31411SOL    HW294260   6.831   2.237   2.395
31412SOL     OW94261   6.180   2.607   2.514
31412SOL    HW194262   6.230   2.692   2.495
31412SOL    HW294263   6.092   2.609   2.466
31413SOL     OW94264   7.363   2.204   3.504
31413SOL    HW194265   7.346   2.235   3.410
31413SOL    HW294266   7.279   2.167   3.542
31414SOL     OW94267   7.316   2.796   3.379
31414SOL    HW194268   7.354   2.887   3.394
31414SOL    HW294269   7.308   2.779   3.280
31415SOL     OW94270   6.445   3.236   1.878
31415SOL    HW194271   6.399   3.251   1.966
31415SOL    HW294272   6.489   3.321   1.848
31416SOL     OW94273   6.247   3.652   2.815
31416SOL    HW194274   6.201   3.740   2.802
31416SOL    HW294275   6.346   3.664   2.808
31417SOL     OW94276   6.445   2.818   2.723
31417SOL    HW194277   6.499   2.749   2.771
31417SOL    HW294278   6.413   2.887   2.789
31418SOL     OW94279   6.669   2.846   1.949
31418SOL    HW194280   6.646   2.899   1.867
31418SOL    HW294281   6.750   2.790   1.930
31419SOL     OW94282   7.447   3.431   2.713
31419SOL    HW194283   7.376   3.419   2.643
31419SOL    HW294284   7.448   3.352   2.773
31420SOL     OW94285   5.807   3.176   3.706
31420SOL    HW194286   5.742   3.103   3.685
31420SOL    HW294287   5.811   3.190   3.804
31421SOL     OW94288   5.665   3.102   2.515
31421SOL    HW194289   5.664   3.055   2.603
31421SOL    HW294290   5.747   3.074   2.464
31422SOL     OW94291   6.258   3.253   3.486
31422SOL    HW194292   6.180   3.203   3.524
31422SOL    HW294293   6.255   3.348   3.517
31423SOL     OW94294   7.410   2.054   3.089
31423SOL    HW194295   7.406   1.964   3.133
31423SOL    HW294296   7.413   2.043   2.990
31424SOL     OW94297   6.014   2.286   2.382
31424SOL    HW194298   6.044   2.214   2.320
31424SOL    HW294299   5.975   2.246   2.465
31425SOL     OW94300   7.291   3.349   2.966
31425SOL    HW194301   7.198   3.324   2.939
31425SOL    HW294302   7.317   3.299   3.048
31426SOL     OW94303   5.903   2.409   3.142
31426SOL    HW194304   5.941   2.350   3.214
31426SOL    HW294305   5.943   2.383   3.054
31427SOL     OW94306   6.398   3.448   2.549
31427SOL    HW194307   6.430   3.458   2.455
31427SOL    HW294308   6.319   3.386   2.551
31428SOL     OW94309   7.010   2.076   2.974
31428SOL    HW194310   7.062   2.011   3.029
31428SOL    HW294311   6.961   2.139   3.035
31429SOL     OW94312   6.587   1.896   3.016
31429SOL    HW194313   6.524   1.824   2.985
31429SOL    HW294314   6.680   1.860   3.016
31430SOL     OW94315   6.356   3.192   2.163
31430SOL    HW194316   6.310   3.105   2.180
31430SOL    HW294317   6.447   3.189   2.204
31431SOL     OW94318   6.204   3.429   3.146
31431SOL    HW194319   6.199   3.511   3.203
31431SOL    HW294320   6.293   3.426   3.101
31432SOL     OW94321   6.938   1.914   2.030
31432SOL    HW194322   6.973   1.873   1.946
31432SOL    HW294323   6.848   1.876   2.050
31433SOL     OW94324   6.886   2.315   2.553
31433SOL    HW194325   6.827   2.395   2.557
31433SOL    HW294326   6.901   2.280   2.646
31434SOL     OW94327   7.179   2.083   2.744
31434SOL    HW194328   7.095   2.082   2.798
31434SOL    HW294329   7.181   2.166   2.688
31435SOL     OW94330   5.625   2.939   2.162
31435SOL    HW194331   5.724   2.928   2.153
31435SOL    HW294332   5.585   2.853   2.194
31436SOL     OW94333   6.461   3.508   2.199
31436SOL    HW194334   6.384   3.473   2.145
31436SOL    HW294335   6.429   3.579   2.261
31437SOL     OW94336   5.816   2.490   3.837
31437SOL    HW194337   5.723   2.488   3.874
31437SOL    HW294338   5.817   2.451   3.745
31438SOL     OW94339   5.811   2.137   4.720
31438SOL    HW194340   5.846   2.120   4.812
31438SOL    HW294341   5.723   2.092   4.708
31439SOL     OW94342   5.605   2.230   4.371
31439SOL    HW194343   5.523   2.273   4.410
31439SOL    HW294344   5.577   2.157   4.308
31440SOL     OW94345   6.155   3.137   4.889
31440SOL    HW194346   6.062   3.130   4.852
31440SOL    HW294347   6.166   3.226   4.933
31441SOL     OW94348   7.141   3.373   4.427
31441SOL    HW194349   7.084   3.357   4.508
31441SOL    HW294350   7.082   3.383   4.347
31442SOL     OW94351   6.721   2.565   4.441
31442SOL    HW194352   6.778   2.643   4.416
31442SOL    HW294353   6.661   2.591   4.517
31443SOL     OW94354   7.341   2.469   3.955
31443SOL    HW194355   7.329   2.456   3.856
31443SOL    HW294356   7.311   2.388   4.004
31444SOL     OW94357   6.354   3.006   4.747
31444SOL    HW194358   6.276   3.023   4.807
31444SOL    HW294359   6.388   3.093   4.711
31445SOL     OW94360   6.436   2.660   5.547
31445SOL    HW194361   6.432   2.736   5.612
31445SOL    HW294362   6.458   2.696   5.456
31446SOL     OW94363   6.271   2.874   4.389
31446SOL    HW194364   6.340   2.858   4.459
31446SOL    HW294365   6.198   2.931   4.427
31447SOL     OW94366   6.272   3.023   5.527
31447SOL    HW194367   6.332   3.102   5.541
31447SOL    HW294368   6.186   3.054   5.486
31448SOL     OW94369   5.921   3.297   4.785
31448SOL    HW194370   5.843   3.266   4.732
31448SOL    HW294371   5.979   3.355   4.728
31449SOL     OW94372   7.046   3.367   5.063
31449SOL    HW194373   7.070   3.461   5.089
31449SOL    HW294374   7.030   3.313   5.145
31450SOL     OW94375   6.024   2.254   5.223
31450SOL    HW194376   6.106   2.198   5.232
31450SOL    HW294377   5.943   2.196   5.227
31451SOL     OW94378   7.189   2.309   4.461
31451SOL    HW194379   7.115   2.355   4.411
31451SOL    HW294380   7.240   2.377   4.514
31452SOL     OW94381   5.817   3.575   4.207
31452SOL    HW194382   5.851   3.652   4.261
31452SOL    HW294383   5.861   3.575   4.117
31453SOL     OW94384   6.713   3.203   5.414
31453SOL    HW194385   6.760   3.203   5.502
31453SOL    HW294386   6.665   3.116   5.403
31454SOL     OW94387   5.816   3.296   4.262
31454SOL    HW194388   5.790   3.392   4.262
31454SOL    HW294389   5.745   3.242   4.307
31455SOL     OW94390   5.826   2.953   4.610
31455SOL    HW194391   5.840   2.869   4.662
31455SOL    HW294392   5.771   3.017   4.665
31456SOL     OW94393   6.206   3.648   5.163
31456SOL    HW194394   6.114   3.631   5.198
31456SOL    HW294395   6.234   3.740   5.189
31457SOL     OW94396   6.192   2.826   3.847
31457SOL    HW194397   6.199   2.910   3.793
31457SOL    HW294398   6.238   2.839   3.935
31458SOL     OW94399   7.180   1.976   5.204
31458SOL    HW194400   7.162   2.043   5.132
31458SOL    HW294401   7.177   2.022   5.293
31459SOL     OW94402   5.708   2.505   4.287
31459SOL    HW194403   5.663   2.417   4.304
31459SOL    HW294404   5.707   2.559   4.371
31460SOL     OW94405   7.428   3.629   4.083
31460SOL    HW194406   7.482   3.600   4.163
31460SOL    HW294407   7.458   3.719   4.054
31461SOL     OW94408   5.613   3.458   3.841
31461SOL    HW194409   5.594   3.362   3.862
31461SOL    HW294410   5.580   3.516   3.916
31462SOL     OW94411   7.275   2.784   4.336
31462SOL    HW194412   7.370   2.755   4.344
31462SOL    HW294413   7.267   2.849   4.261
31463SOL     OW94414   7.227   2.970   4.156
31463SOL    HW194415   7.313   2.972   4.104
31463SOL    HW294416   7.241   3.017   4.244
31464SOL     OW94417   5.699   2.599   5.321
31464SOL    HW194418   5.787   2.586   5.366
31464SOL    HW294419   5.686   2.696   5.299
31465SOL     OW94420   6.199   3.227   4.450
31465SOL    HW194421   6.150   3.140   4.459
31465SOL    HW294422   6.176   3.270   4.363
31466SOL     OW94423   6.879   3.090   5.147
31466SOL    HW194424   6.916   3.017   5.089
31466SOL    HW294425   6.931   3.095   5.232
31467SOL     OW94426   6.395   1.866   4.226
31467SOL    HW194427   6.435   1.957   4.217
31467SOL    HW294428   6.295   1.874   4.232
31468SOL     OW94429   5.783   2.838   4.988
31468SOL    HW194430   5.872   2.793   4.974
31468SOL    HW294431   5.710   2.773   4.969
31469SOL     OW94432   7.111   2.861   3.914
31469SOL    HW194433   7.048   2.785   3.927
31469SOL    HW294434   7.159   2.879   4.000
31470SOL     OW94435   6.773   3.654   5.340
31470SOL    HW194436   6.797   3.714   5.264
31470SOL    HW294437   6.780   3.559   5.310
31471SOL     OW94438   5.903   2.113   5.525
31471SOL    HW194439   5.974   2.184   5.531
31471SOL    HW294440   5.815   2.152   5.553
31472SOL     OW94441   7.052   3.279   4.677
31472SOL    HW194442   6.993   3.285   4.757
31472SOL    HW294443   7.037   3.191   4.631
31473SOL     OW94444   7.253   3.576   4.296
31473SOL    HW194445   7.212   3.553   4.208
31473SOL    HW294446   7.235   3.502   4.361
31474SOL     OW94447   6.184   2.591   3.994
31474SOL    HW194448   6.208   2.660   3.926
31474SOL    HW294449   6.106   2.624   4.048
31475SOL     OW94450   6.867   2.207   4.668
31475SOL    HW194451   6.781   2.157   4.655
31475SOL    HW294452   6.929   2.153   4.724
31476SOL     OW94453   7.162   3.524   4.031
31476SOL    HW194454   7.251   3.570   4.034
31476SOL    HW294455   7.141   3.500   3.936
31477SOL     OW94456   6.393   2.467   5.189
31477SOL    HW194457   6.346   2.464   5.278
31477SOL    HW294458   6.342   2.412   5.123
31478SOL     OW94459   6.980   2.331   5.398
31478SOL    HW194460   6.960   2.374   5.486
31478SOL    HW294461   7.058   2.269   5.407
31479SOL     OW94462   6.559   2.752   5.296
31479SOL    HW194463   6.605   2.668   5.267
31479SOL    HW294464   6.503   2.786   5.221
31480SOL     OW94465   6.577   2.272   4.966
31480SOL    HW194466   6.500   2.306   5.020
31480SOL    HW294467   6.543   2.221   4.887
31481SOL     OW94468   6.627   2.563   4.153
31481SOL    HW194469   6.653   2.559   4.249
31481SOL    HW294470   6.542   2.512   4.139
31482SOL     OW94471   5.662   2.673   4.513
31482SOL    HW194472   5.761   2.661   4.522
31482SOL    HW294473   5.638   2.768   4.534
31483SOL     OW94474   5.716   3.683   5.295
31483SOL    HW194475   5.706   3.668   5.394
31483SOL    HW294476   5.630   3.719   5.259
31484SOL     OW94477   6.451   2.210   3.919
31484SOL    HW194478   6.510   2.273   3.870
31484SOL    HW294479   6.470   2.116   3.890
31485SOL     OW94480   7.305   2.447   5.555
31485SOL    HW194481   7.279   2.536   5.519
31485SOL    HW294482   7.303   2.379   5.482
31486SOL     OW94483   6.948   3.006   4.269
31486SOL    HW194484   7.031   2.977   4.221
31486SOL    HW294485   6.899   3.073   4.213
31487SOL     OW94486   6.136   2.058   4.609
31487SOL    HW194487   6.131   2.053   4.709
31487SOL    HW294488   6.138   2.154   4.580
31488SOL     OW94489   6.594   3.318   4.201
31488SOL    HW194490   6.548   3.390   4.149
31488SOL    HW294491   6.590   3.338   4.299
31489SOL     OW94492   5.937   3.663   4.577
31489SOL    HW194493   5.987   3.577   4.583
31489SOL    HW294494   6.002   3.740   4.574
31490SOL     OW94495   7.381   2.928   4.597
31490SOL    HW194496   7.319   2.913   4.521
31490SOL    HW294497   7.329   2.939   4.682
31491SOL     OW94498   5.907   2.805   3.966
31491SOL    HW194499   5.989   2.844   3.924
31491SOL    HW294500   5.880   2.723   3.917
31492SOL     OW94501   7.044   2.597   4.452
31492SOL    HW194502   7.039   2.532   4.527
31492SOL    HW294503   7.124   2.656   4.465
31493SOL     OW94504   6.047   3.128   5.451
31493SOL    HW194505   5.997   3.129   5.365
31493SOL    HW294506   5.984   3.110   5.527
31494SOL     OW94507   6.697   3.638   3.961
31494SOL    HW194508   6.637   3.576   4.011
31494SOL    HW294509   6.728   3.594   3.876
31495SOL     OW94510   5.788   2.147   5.222
31495SOL    HW194511   5.708   2.207   5.209
31495SOL    HW294512   5.778   2.098   5.308
31496SOL     OW94513   7.218   3.239   3.805
31496SOL    HW194514   7.186   3.333   3.795
31496SOL    HW294515   7.142   3.176   3.793
31497SOL     OW94516   6.050   3.605   4.047
31497SOL    HW194517   6.083   3.644   4.133
31497SOL    HW294518   6.126   3.598   3.982
31498SOL     OW94519   6.986   1.969   4.150
31498SOL    HW194520   6.962   1.932   4.060
31498SOL    HW294521   7.085   1.985   4.154
31499SOL     OW94522   5.835   3.647   4.965
31499SOL    HW194523   5.892   3.582   5.015
31499SOL    HW294524   5.819   3.614   4.872
31500SOL     OW94525   6.526   3.560   4.628
31500SOL    HW194526   6.606   3.503   4.649
31500SOL    HW294527   6.477   3.520   4.551
31501SOL     OW94528   5.968   2.562   4.204
31501SOL    HW194529   6.013   2.472   4.201
31501SOL    HW294530   5.874   2.551   4.237
31502SOL     OW94531   7.133   2.084   5.453
31502SOL    HW194532   7.128   2.121   5.545
31502SOL    HW294533   7.061   2.015   5.441
31503SOL     OW94534   6.200   1.984   3.841
31503SOL    HW194535   6.298   1.962   3.848
31503SOL    HW294536   6.169   1.967   3.748
31504SOL     OW94537   6.367   2.126   5.473
31504SOL    HW194538   6.434   2.065   5.516
31504SOL    HW294539   6.294   2.145   5.538
31505SOL     OW94540   6.474   3.376   4.919
31505SOL    HW194541   6.451   3.351   4.825
31505SOL    HW294542   6.535   3.307   4.958
31506SOL     OW94543   6.937   2.452   5.157
31506SOL    HW194544   6.965   2.409   5.242
31506SOL    HW294545   6.962   2.548   5.158
31507SOL     OW94546   6.389   3.264   4.648
31507SOL    HW194547   6.479   3.278   4.606
31507SOL    HW294548   6.318   3.266   4.577
31508SOL     OW94549   6.508   2.365   4.623
31508SOL    HW194550   6.483   2.356   4.527
31508SOL    HW294551   6.556   2.283   4.654
31509SOL     OW94552   6.125   1.926   4.236
31509SOL    HW194553   6.044   1.927   4.294
31509SOL    HW294554   6.128   2.009   4.181
31510SOL     OW94555   7.020   3.050   3.765
31510SOL    HW194556   7.052   2.974   3.822
31510SOL    HW294557   6.928   3.077   3.795
31511SOL     OW94558   5.883   1.897   3.895
31511SOL    HW194559   5.932   1.981   3.874
31511SOL    HW294560   5.945   1.832   3.940
31512SOL     OW94561   6.521   2.098   4.204
31512SOL    HW194562   6.473   2.139   4.126
31512SOL    HW294563   6.620   2.096   4.185
31513SOL     OW94564   6.662   2.545   5.188
31513SOL    HW194565   6.582   2.484   5.191
31513SOL    HW294566   6.743   2.492   5.164
31514SOL     OW94567   6.813   3.432   4.517
31514SOL    HW194568   6.834   3.506   4.452
31514SOL    HW294569   6.881   3.432   4.590
31515SOL     OW94570   6.045   3.014   4.465
31515SOL    HW194571   5.974   2.987   4.530
31515SOL    HW294572   6.019   2.986   4.372
31516SOL     OW94573   6.857   3.659   4.315
31516SOL    HW194574   6.901   3.723   4.251
31516SOL    HW294575   6.807   3.711   4.385
31517SOL     OW94576   5.664   2.418   5.110
31517SOL    HW194577   5.756   2.417   5.069
31517SOL    HW294578   5.658   2.492   5.177
31518SOL     OW94579   6.147   2.084   4.871
31518SOL    HW194580   6.185   2.000   4.908
31518SOL    HW294581   6.059   2.103   4.915
31519SOL     OW94582   6.452   2.316   4.366
31519SOL    HW194583   6.420   2.388   4.304
31519SOL    HW294584   6.476   2.235   4.313
31520SOL     OW94585   6.603   1.901   4.477
31520SOL    HW194586   6.531   1.906   4.408
31520SOL    HW294587   6.579   1.832   4.546
31521SOL     OW94588   7.015   3.035   4.591
31521SOL    HW194589   6.960   2.951   4.584
31521SOL    HW294590   7.041   3.064   4.499
31522SOL     OW94591   7.052   2.452   4.716
31522SOL    HW194592   7.022   2.357   4.723
31522SOL    HW294593   7.125   2.468   4.782
31523SOL     OW94594   7.443   2.695   4.101
31523SOL    HW194595   7.485   2.631   4.165
31523SOL    HW294596   7.405   2.644   4.023
31524SOL     OW94597   6.074   3.247   3.898
31524SOL    HW194598   5.987   3.232   3.945
31524SOL    HW294599   6.057   3.273   3.803
31525SOL     OW94600   7.250   3.142   4.381
31525SOL    HW194601   7.349   3.150   4.395
31525SOL    HW294602   7.205   3.226   4.412
31526SOL     OW94603   6.976   2.437   3.802
31526SOL    HW194604   6.922   2.416   3.883
31526SOL    HW294605   7.067   2.396   3.811
31527SOL     OW94606   6.113   2.118   4.052
31527SOL    HW194607   6.140   2.059   3.977
31527SOL    HW294608   6.113   2.213   4.021
31528SOL     OW94609   7.340   3.085   5.312
31528SOL    HW194610   7.431   3.046   5.299
31528SOL    HW294611   7.348   3.181   5.336
31529SOL     OW94612   6.650   3.209   5.064
31529SOL    HW194613   6.570   3.186   5.119
31529SOL    HW294614   6.733   3.183   5.113
31530SOL     OW94615   7.178   3.491   5.349
31530SOL    HW194616   7.205   3.525   5.259
31530SOL    HW294617   7.257   3.453   5.395
31531SOL     OW94618   6.697   3.057   4.824
31531SOL    HW194619   6.657   3.101   4.905
31531SOL    HW294620   6.656   3.094   4.741
31532SOL     OW94621   7.224   2.961   4.803
31532SOL    HW194622   7.229   3.042   4.862
31532SOL    HW294623   7.138   2.963   4.752
31533SOL     OW94624   6.501   1.951   5.126
31533SOL    HW194625   6.526   1.931   5.031
31533SOL    HW294626   6.573   2.007   5.168
31534SOL     OW94627   6.566   2.978   5.443
31534SOL    HW194628   6.467   2.984   5.453
31534SOL    HW294629   6.589   2.898   5.387
31535SOL     OW94630   6.291   2.912   4.092
31535SOL    HW194631   6.277   2.919   4.191
31535SOL    HW294632   6.375   2.861   4.074
31536SOL     OW94633   5.996   2.675   4.975
31536SOL    HW194634   6.082   2.687   5.025
31536SOL    HW294635   5.954   2.588   5.002
31537SOL     OW94636   6.860   2.248   4.986
31537SOL    HW194637   6.881   2.322   5.050
31537SOL    HW294638   6.771   2.265   4.943
31538SOL     OW94639   5.650   3.426   5.055
31538SOL    HW194640   5.604   3.508   5.021
31538SOL    HW294641   5.748   3.445   5.064
31539SOL     OW94642   5.953   2.962   4.225
31539SOL    HW194643   5.946   3.045   4.169
31539SOL    HW294644   5.957   2.882   4.165
31540SOL     OW94645   6.152   2.399   4.589
31540SOL    HW194646   6.164   2.465   4.515
31540SOL    HW294647   6.198   2.433   4.672
31541SOL     OW94648   6.838   3.210   4.112
31541SOL    HW194649   6.888   3.287   4.152
31541SOL    HW294650   6.743   3.212   4.144
31542SOL     OW94651   6.858   3.307   4.866
31542SOL    HW194652   6.905   3.320   4.953
31542SOL    HW294653   6.792   3.233   4.875
31543SOL     OW94654   7.168   2.501   4.196
31543SOL    HW194655   7.137   2.562   4.269
31543SOL    HW294656   7.218   2.553   4.127
31544SOL     OW94657   5.940   3.372   5.053
31544SOL    HW194658   5.919   3.328   4.966
31544SOL    HW294659   6.037   3.398   5.056
31545SOL     OW94660   5.988   2.613   5.322
31545SOL    HW194661   6.056   2.668   5.275
31545SOL    HW294662   6.028   2.525   5.349
31546SOL     OW94663   7.173   2.641   5.394
31546SOL    HW194664   7.081   2.679   5.389
31546SOL    HW294665   7.233   2.688   5.329
31547SOL     OW94666   6.599   1.967   5.494
31547SOL    HW194667   6.605   2.052   5.442
31547SOL    HW294668   6.631   1.891   5.437
31548SOL     OW94669   6.090   1.912   5.464
31548SOL    HW194670   6.048   1.855   5.394
31548SOL    HW294671   6.024   1.981   5.496
31549SOL     OW94672   6.159   2.732   4.753
31549SOL    HW194673   6.203   2.821   4.744
31549SOL    HW294674   6.096   2.732   4.830
31550SOL     OW94675   6.946   2.724   4.769
31550SOL    HW194676   6.871   2.724   4.703
31550SOL    HW294677   6.983   2.632   4.778
31551SOL     OW94678   6.795   2.387   3.999
31551SOL    HW194679   6.808   2.303   4.053
31551SOL    HW294680   6.766   2.461   4.059
31552SOL     OW94681   5.893   2.075   4.955
31552SOL    HW194682   5.870   2.112   5.045
31552SOL    HW294683   5.863   1.980   4.949
31553SOL     OW94684   5.623   3.172   5.006
31553SOL    HW194685   5.676   3.123   5.074
31553SOL    HW294686   5.645   3.270   5.011
31554SOL     OW94687   6.318   2.496   4.788
31554SOL    HW194688   6.377   2.470   4.712
31554SOL    HW294689   6.290   2.592   4.777
31555SOL     OW94690   7.314   2.797   5.578
31555SOL    HW194691   7.268   2.790   5.489
31555SOL    HW294692   7.252   2.841   5.644
31556SOL     OW94693   5.893   1.925   4.342
31556SOL    HW194694   5.882   2.019   4.375
31556SOL    HW294695   5.888   1.862   4.419
31557SOL     OW94696   7.208   2.229   4.098
31557SOL    HW194697   7.210   2.153   4.162
31557SOL    HW294698   7.160   2.306   4.138
31558SOL     OW94699   6.609   2.628   4.690
31558SOL    HW194700   6.624   2.649   4.786
31558SOL    HW294701   6.579   2.533   4.681
31559SOL     OW94702   6.566   3.435   5.424
31559SOL    HW194703   6.546   3.479   5.336
31559SOL    HW294704   6.605   3.344   5.408
31560SOL     OW94705   7.445   3.380   5.329
31560SOL    HW194706   7.459   3.407   5.234
31560SOL    HW294707   7.528   3.402   5.382
31561SOL     OW94708   5.936   2.760   5.528
31561SOL    HW194709   6.012   2.804   5.576
31561SOL    HW294710   5.971   2.713   5.446
31562SOL     OW94711   7.126   2.136   3.849
31562SOL    HW194712   7.065   2.061   3.872
31562SOL    HW294713   7.148   2.188   3.932
31563SOL     OW94714   6.889   2.700   3.766
31563SOL    HW194715   6.923   2.607   3.781
31563SOL    HW294716   6.907   2.727   3.671
31564SOL     OW94717   6.654   3.195   4.573
31564SOL    HW194718   6.661   3.111   4.518
31564SOL    HW294719   6.716   3.264   4.537
31565SOL     OW94720   5.905   2.672   4.673
31565SOL    HW194721   5.998   2.708   4.678
31565SOL    HW294722   5.899   2.587   4.725
31566SOL     OW94723   5.925   2.371   4.730
31566SOL    HW194724   5.873   2.288   4.713
31566SOL    HW294725   6.002   2.376   4.666
31567SOL     OW94726   6.724   2.242   5.402
31567SOL    HW194727   6.679   2.305   5.466
31567SOL    HW294728   6.817   2.273   5.385
31568SOL     OW94729   6.746   2.069   5.201
31568SOL    HW194730   6.746   2.133   5.278
31568SOL    HW294731   6.774   2.117   5.118
31569SOL     OW94732   5.594   3.188   3.924
31569SOL    HW194733   5.501   3.209   3.893
31569SOL    HW294734   5.604   3.089   3.937
31570SOL     OW94735   5.674   3.663   4.651
31570SOL    HW194736   5.632   3.577   4.624
31570SOL    HW294737   5.768   3.666   4.617
31571SOL     OW94738   6.090   3.430   4.634
31571SOL    HW194739   6.156   3.504   4.643
31571SOL    HW294740   6.134   3.351   4.592
31572SOL     OW94741   6.588   2.658   4.962
31572SOL    HW194742   6.629   2.626   5.048
31572SOL    HW294743   6.492   2.631   4.959
31573SOL     OW94744   5.626   2.406   4.838
31573SOL    HW194745   5.711   2.373   4.797
31573SOL    HW294746   5.639   2.421   4.936
31574SOL     OW94747   5.775   2.382   5.446
31574SOL    HW194748   5.834   2.342   5.376
31574SOL    HW294749   5.717   2.453   5.405
31575SOL     OW94750   6.955   2.812   5.384
31575SOL    HW194751   6.994   2.901   5.404
31575SOL    HW294752   6.965   2.792   5.287
31576SOL     OW94753   6.401   2.434   4.049
31576SOL    HW194754   6.408   2.345   4.003
31576SOL    HW294755   6.307   2.468   4.041
31577SOL     OW94756   7.243   2.466   4.930
31577SOL    HW194757   7.205   2.397   4.992
31577SOL    HW294758   7.325   2.430   4.886
31578SOL     OW94759   5.838   3.426   5.468
31578SOL    HW194760   5.808   3.483   5.544
31578SOL    HW294761   5.831   3.329   5.494
31579SOL     OW94762   6.257   2.326   4.993
31579SOL    HW194763   6.223   2.237   4.963
31579SOL    HW294764   6.283   2.380   4.913
31580SOL     OW94765   6.516   3.540   5.189
31580SOL    HW194766   6.492   3.522   5.094
31580SOL    HW294767   6.546   3.634   5.199
31581SOL     OW94768   6.059   2.362   3.915
31581SOL    HW194769   6.120   2.442   3.919
31581SOL    HW294770   5.964   2.393   3.922
31582SOL     OW94771   5.745   2.999   5.190
31582SOL    HW194772   5.767   2.938   5.266
31582SOL    HW294773   5.755   2.950   5.104
31583SOL     OW94774   6.933   2.921   4.958
31583SOL    HW194775   6.957   2.858   4.884
31583SOL    HW294776   6.843   2.961   4.940
31584SOL     OW94777   6.888   2.717   4.033
31584SOL    HW194778   6.802   2.686   4.075
31584SOL    HW294779   6.884   2.703   3.934
31585SOL     OW94780   7.345   3.609   4.878
31585SOL    HW194781   7.406   3.639   4.805
31585SOL    HW294782   7.307   3.520   4.856
31586SOL     OW94783   6.838   3.593   4.852
31586SOL    HW194784   6.922   3.598   4.798
31586SOL    HW294785   6.815   3.497   4.870
31587SOL     OW94786   5.669   3.120   4.746
31587SOL    HW194787   5.664   3.119   4.846
31587SOL    HW294788   5.586   3.079   4.708
31588SOL     OW94789   6.274   3.524   5.440
31588SOL    HW194790   6.218   3.605   5.449
31588SOL    HW294791   6.326   3.528   5.354
31589SOL     OW94792   7.312   1.997   4.247
31589SOL    HW194793   7.385   1.980   4.180
31589SOL    HW294794   7.281   1.910   4.285
31590SOL     OW94795   6.974   3.435   4.201
31590SOL    HW194796   7.041   3.447   4.127
31590SOL    HW294797   6.934   3.524   4.224
31591SOL     OW94798   5.716   3.656   5.575
31591SOL    HW194799   5.675   3.582   5.628
31591SOL    HW294800   5.780   3.707   5.633
31592SOL     OW94801   6.866   2.789   4.396
31592SOL    HW194802   6.926   2.708   4.398
31592SOL    HW294803   6.906   2.858   4.336
31593SOL     OW94804   6.416   3.135   5.146
31593SOL    HW194805   6.411   3.168   5.241
31593SOL    HW294806   6.330   3.154   5.100
31594SOL     OW94807   6.258   3.478   3.878
31594SOL    HW194808   6.267   3.488   3.779
31594SOL    HW294809   6.218   3.389   3.899
31595SOL     OW94810   7.236   3.582   5.118
31595SOL    HW194811   7.289   3.592   5.034
31595SOL    HW294812   7.209   3.672   5.152
31596SOL     OW94813   7.427   2.037   4.687
31596SOL    HW194814   7.466   1.952   4.651
31596SOL    HW294815   7.329   2.039   4.668
31597SOL     OW94816   5.849   2.188   4.444
31597SOL    HW194817   5.770   2.239   4.410
31597SOL    HW294818   5.840   2.173   4.542
31598SOL     OW94819   6.780   3.474   3.755
31598SOL    HW194820   6.786   3.381   3.792
31598SOL    HW294821   6.721   3.474   3.675
31599SOL     OW94822   6.408   2.864   5.096
31599SOL    HW194823   6.448   2.863   5.004
31599SOL    HW294824   6.418   2.956   5.136
31600SOL     OW94825   6.502   2.772   4.015
31600SOL    HW194826   6.565   2.810   3.947
31600SOL    HW294827   6.542   2.689   4.054
31601SOL     OW94828   7.090   3.469   3.768
31601SOL    HW194829   6.998   3.506   3.775
31601SOL    HW294830   7.128   3.489   3.678
31602SOL     OW94831   5.958   3.150   5.214
31602SOL    HW194832   5.945   3.243   5.180
31602SOL    HW294833   5.874   3.098   5.201
31603SOL     OW94834   7.200   3.154   5.013
31603SOL    HW194835   7.260   3.157   5.093
31603SOL    HW294836   7.125   3.218   5.026
31604SOL     OW94837   6.625   2.960   4.420
31604SOL    HW194838   6.555   2.913   4.474
31604SOL    HW294839   6.684   2.892   4.377
31605SOL     OW94840   6.600   2.098   4.695
31605SOL    HW194841   6.592   2.062   4.602
31605SOL    HW294842   6.598   2.022   4.760
31606SOL     OW94843   6.176   3.349   4.215
31606SOL    HW194844   6.218   3.291   4.145
31606SOL    HW294845   6.132   3.428   4.171
31607SOL     OW94846   7.295   2.247   5.105
31607SOL    HW194847   7.368   2.316   5.109
31607SOL    HW294848   7.323   2.172   5.046
31608SOL     OW94849   5.841   3.210   4.014
31608SOL    HW194850   5.745   3.211   3.987
31608SOL    HW294851   5.853   3.263   4.098
31609SOL     OW94852   5.691   2.875   5.450
31609SOL    HW194853   5.614   2.842   5.504
31609SOL    HW294854   5.776   2.845   5.492
31610SOL     OW94855   6.258   2.065   5.213
31610SOL    HW194856   6.348   2.049   5.173
31610SOL    HW294857   6.266   2.070   5.312
31611SOL     OW94858   5.661   2.207   3.757
31611SOL    HW194859   5.569   2.179   3.728
31611SOL    HW294860   5.692   2.284   3.701
31612SOL     OW94861   7.026   2.718   5.122
31612SOL    HW194862   6.969   2.770   5.059
31612SOL    HW294863   7.122   2.730   5.098
31613SOL     OW94864   5.658   2.028   4.042
31613SOL    HW194865   5.641   2.111   3.988
31613SOL    HW294866   5.748   1.991   4.020
31614SOL     OW94867   6.769   3.197   3.843
31614SOL    HW194868   6.670   3.186   3.845
31614SOL    HW294869   6.803   3.212   3.936
31615SOL     OW94870   6.199   2.704   5.155
31615SOL    HW194871   6.255   2.785   5.138
31615SOL    HW294872   6.258   2.624   5.158
31616SOL     OW94873   7.079   3.629   4.683
31616SOL    HW194874   7.112   3.693   4.614
31616SOL    HW294875   7.145   3.623   4.758
31617SOL     OW94876   6.302   2.427   5.432
31617SOL    HW194877   6.321   2.492   5.506
31617SOL    HW294878   6.362   2.347   5.441
31618SOL     OW94879   7.036   3.082   5.357
31618SOL    HW194880   7.027   3.072   5.456
31618SOL    HW294881   7.132   3.075   5.331
31619SOL     OW94882   5.976   3.603   5.284
31619SOL    HW194883   5.885   3.644   5.282
31619SOL    HW294884   5.969   3.509   5.316
31620SOL     OW94885   7.260   2.745   4.978
31620SOL    HW194886   7.233   2.656   4.941
31620SOL    HW294887   7.261   2.813   4.905
31621SOL     OW94888   6.811   2.187   4.173
31621SOL    HW194889   6.876   2.113   4.162
31621SOL    HW294890   6.831   2.237   4.257
31622SOL     OW94891   6.180   2.607   4.376
31622SOL    HW194892   6.230   2.692   4.357
31622SOL    HW294893   6.092   2.609   4.328
31623SOL     OW94894   7.363   2.204   5.366
31623SOL    HW194895   7.346   2.235   5.272
31623SOL    HW294896   7.279   2.167   5.404
31624SOL     OW94897   7.316   2.796   5.241
31624SOL    HW194898   7.354   2.887   5.256
31624SOL    HW294899   7.308   2.779   5.142
31625SOL     OW94900   6.445   3.236   3.740
31625SOL    HW194901   6.399   3.251   3.828
31625SOL    HW294902   6.489   3.321   3.710
31626SOL     OW94903   6.247   3.652   4.677
31626SOL    HW194904   6.201   3.740   4.664
31626SOL    HW294905   6.346   3.664   4.670
31627SOL     OW94906   6.445   2.818   4.585
31627SOL    HW194907   6.499   2.749   4.633
31627SOL    HW294908   6.413   2.887   4.651
31628SOL     OW94909   6.669   2.846   3.811
31628SOL    HW194910   6.646   2.899   3.729
31628SOL    HW294911   6.750   2.790   3.792
31629SOL     OW94912   7.447   3.431   4.575
31629SOL    HW194913   7.376   3.419   4.505
31629SOL    HW294914   7.448   3.352   4.635
31630SOL     OW94915   5.807   3.176   5.568
31630SOL    HW194916   5.742   3.103   5.547
31630SOL    HW294917   5.811   3.190   5.666
31631SOL     OW94918   5.665   3.102   4.377
31631SOL    HW194919   5.664   3.055   4.465
31631SOL    HW294920   5.747   3.074   4.326
31632SOL     OW94921   6.258   3.253   5.348
31632SOL    HW194922   6.180   3.203   5.386
31632SOL    HW294923   6.255   3.348   5.379
31633SOL     OW94924   7.410   2.054   4.951
31633SOL    HW194925   7.406   1.964   4.995
31633SOL    HW294926   7.413   2.043   4.852
31634SOL     OW94927   6.014   2.286   4.244
31634SOL    HW194928   6.044   2.214   4.182
31634SOL    HW294929   5.975   2.246   4.327
31635SOL     OW94930   7.291   3.349   4.828
31635SOL    HW194931   7.198   3.324   4.801
31635SOL    HW294932   7.317   3.299   4.910
31636SOL     OW94933   5.903   2.409   5.004
31636SOL    HW194934   5.941   2.350   5.076
31636SOL    HW294935   5.943   2.383   4.916
31637SOL     OW94936   6.398   3.448   4.411
31637SOL    HW194937   6.430   3.458   4.317
31637SOL    HW294938   6.319   3.386   4.413
31638SOL     OW94939   7.010   2.076   4.836
31638SOL    HW194940   7.062   2.011   4.891
31638SOL    HW294941   6.961   2.139   4.897
31639SOL     OW94942   6.587   1.896   4.878
31639SOL    HW194943   6.524   1.824   4.847
31639SOL    HW294944   6.680   1.860   4.878
31640SOL     OW94945   6.356   3.192   4.025
31640SOL    HW194946   6.310   3.105   4.042
31640SOL    HW294947   6.447   3.189   4.066
31641SOL     OW94948   6.204   3.429   5.008
31641SOL    HW194949   6.199   3.511   5.065
31641SOL    HW294950   6.293   3.426   4.963
31642SOL     OW94951   6.938   1.914   3.892
31642SOL    HW194952   6.973   1.873   3.808
31642SOL    HW294953   6.848   1.876   3.912
31643SOL     OW94954   6.886   2.315   4.415
31643SOL    HW194955   6.827   2.395   4.419
31643SOL    HW294956   6.901   2.280   4.508
31644SOL     OW94957   7.179   2.083   4.606
31644SOL    HW194958   7.095   2.082   4.660
31644SOL    HW294959   7.181   2.166   4.550
31645SOL     OW94960   5.625   2.939   4.024
31645SOL    HW194961   5.724   2.928   4.015
31645SOL    HW294962   5.585   2.853   4.056
31646SOL     OW94963   6.461   3.508   4.061
31646SOL    HW194964   6.384   3.473   4.007
31646SOL    HW294965   6.429   3.579   4.123
31647SOL     OW94966   5.816   2.490   5.699
31647SOL    HW194967   5.723   2.488   5.736
31647SOL    HW294968   5.817   2.451   5.607
31648SOL     OW94969   5.811   2.137   6.582
31648SOL    HW194970   5.846   2.120   6.674
31648SOL    HW294971   5.723   2.092   6.570
31649SOL     OW94972   5.605   2.230   6.233
31649SOL    HW194973   5.523   2.273   6.272
31649SOL    HW294974   5.577   2.157   6.170
31650SOL     OW94975   6.155   3.137   6.751
31650SOL    HW194976   6.062   3.130   6.714
31650SOL    HW294977   6.166   3.226   6.795
31651SOL     OW94978   7.141   3.373   6.289
31651SOL    HW194979   7.084   3.357   6.370
31651SOL    HW294980   7.082   3.383   6.209
31652SOL     OW94981   6.721   2.565   6.303
31652SOL    HW194982   6.778   2.643   6.278
31652SOL    HW294983   6.661   2.591   6.379
31653SOL     OW94984   7.341   2.469   5.817
31653SOL    HW194985   7.329   2.456   5.718
31653SOL    HW294986   7.311   2.388   5.866
31654SOL     OW94987   6.354   3.006   6.609
31654SOL    HW194988   6.276   3.023   6.669
31654SOL    HW294989   6.388   3.093   6.573
31655SOL     OW94990   6.436   2.660   7.409
31655SOL    HW194991   6.432   2.736   7.474
31655SOL    HW294992   6.458   2.696   7.318
31656SOL     OW94993   6.271   2.874   6.251
31656SOL    HW194994   6.340   2.858   6.321
31656SOL    HW294995   6.198   2.931   6.289
31657SOL     OW94996   6.272   3.023   7.389
31657SOL    HW194997   6.332   3.102   7.403
31657SOL    HW294998   6.186   3.054   7.348
31658SOL     OW94999   5.921   3.297   6.647
31658SOL    HW195000   5.843   3.266   6.594
31658SOL    HW295001   5.979   3.355   6.590
31659SOL     OW95002   6.024   2.254   7.085
31659SOL    HW195003   6.106   2.198   7.094
31659SOL    HW295004   5.943   2.196   7.089
31660SOL     OW95005   7.189   2.309   6.323
31660SOL    HW195006   7.115   2.355   6.273
31660SOL    HW295007   7.240   2.377   6.376
31661SOL     OW95008   5.817   3.575   6.069
31661SOL    HW195009   5.851   3.652   6.123
31661SOL    HW295010   5.861   3.575   5.979
31662SOL     OW95011   6.713   3.203   7.276
31662SOL    HW195012   6.760   3.203   7.364
31662SOL    HW295013   6.665   3.116   7.265
31663SOL     OW95014   5.816   3.296   6.124
31663SOL    HW195015   5.790   3.392   6.124
31663SOL    HW295016   5.745   3.242   6.169
31664SOL     OW95017   5.826   2.953   6.472
31664SOL    HW195018   5.840   2.869   6.524
31664SOL    HW295019   5.771   3.017   6.527
31665SOL     OW95020   6.206   3.648   7.025
31665SOL    HW195021   6.114   3.631   7.060
31665SOL    HW295022   6.234   3.740   7.051
31666SOL     OW95023   6.192   2.826   5.709
31666SOL    HW195024   6.199   2.910   5.655
31666SOL    HW295025   6.238   2.839   5.797
31667SOL     OW95026   7.180   1.976   7.066
31667SOL    HW195027   7.162   2.043   6.994
31667SOL    HW295028   7.177   2.022   7.155
31668SOL     OW95029   5.708   2.505   6.149
31668SOL    HW195030   5.663   2.417   6.166
31668SOL    HW295031   5.707   2.559   6.233
31669SOL     OW95032   7.428   3.629   5.945
31669SOL    HW195033   7.482   3.600   6.025
31669SOL    HW295034   7.458   3.719   5.916
31670SOL     OW95035   5.613   3.458   5.703
31670SOL    HW195036   5.594   3.362   5.724
31670SOL    HW295037   5.580   3.516   5.778
31671SOL     OW95038   7.275   2.784   6.198
31671SOL    HW195039   7.370   2.755   6.206
31671SOL    HW295040   7.267   2.849   6.123
31672SOL     OW95041   7.227   2.970   6.018
31672SOL    HW195042   7.313   2.972   5.966
31672SOL    HW295043   7.241   3.017   6.106
31673SOL     OW95044   5.699   2.599   7.183
31673SOL    HW195045   5.787   2.586   7.228
31673SOL    HW295046   5.686   2.696   7.161
31674SOL     OW95047   6.199   3.227   6.312
31674SOL    HW195048   6.150   3.140   6.321
31674SOL    HW295049   6.176   3.270   6.225
31675SOL     OW95050   6.879   3.090   7.009
31675SOL    HW195051   6.916   3.017   6.951
31675SOL    HW295052   6.931   3.095   7.094
31676SOL     OW95053   6.395   1.866   6.088
31676SOL    HW195054   6.435   1.957   6.079
31676SOL    HW295055   6.295   1.874   6.094
31677SOL     OW95056   5.783   2.838   6.850
31677SOL    HW195057   5.872   2.793   6.836
31677SOL    HW295058   5.710   2.773   6.831
31678SOL     OW95059   7.111   2.861   5.776
31678SOL    HW195060   7.048   2.785   5.789
31678SOL    HW295061   7.159   2.879   5.862
31679SOL     OW95062   6.773   3.654   7.202
31679SOL    HW195063   6.797   3.714   7.126
31679SOL    HW295064   6.780   3.559   7.172
31680SOL     OW95065   5.903   2.113   7.387
31680SOL    HW195066   5.974   2.184   7.393
31680SOL    HW295067   5.815   2.152   7.415
31681SOL     OW95068   7.052   3.279   6.539
31681SOL    HW195069   6.993   3.285   6.619
31681SOL    HW295070   7.037   3.191   6.493
31682SOL     OW95071   6.184   2.591   5.856
31682SOL    HW195072   6.208   2.660   5.788
31682SOL    HW295073   6.106   2.624   5.910
31683SOL     OW95074   6.867   2.207   6.530
31683SOL    HW195075   6.781   2.157   6.517
31683SOL    HW295076   6.929   2.153   6.586
31684SOL     OW95077   7.162   3.524   5.893
31684SOL    HW195078   7.251   3.570   5.896
31684SOL    HW295079   7.141   3.500   5.798
31685SOL     OW95080   6.393   2.467   7.051
31685SOL    HW195081   6.346   2.464   7.140
31685SOL    HW295082   6.342   2.412   6.985
31686SOL     OW95083   6.980   2.331   7.260
31686SOL    HW195084   6.960   2.374   7.348
31686SOL    HW295085   7.058   2.269   7.269
31687SOL     OW95086   6.559   2.752   7.158
31687SOL    HW195087   6.605   2.668   7.129
31687SOL    HW295088   6.503   2.786   7.083
31688SOL     OW95089   6.577   2.272   6.828
31688SOL    HW195090   6.500   2.306   6.882
31688SOL    HW295091   6.543   2.221   6.749
31689SOL     OW95092   6.627   2.563   6.015
31689SOL    HW195093   6.653   2.559   6.111
31689SOL    HW295094   6.542   2.512   6.001
31690SOL     OW95095   5.662   2.673   6.375
31690SOL    HW195096   5.761   2.661   6.384
31690SOL    HW295097   5.638   2.768   6.396
31691SOL     OW95098   5.716   3.683   7.157
31691SOL    HW195099   5.706   3.668   7.256
31691SOL    HW295100   5.630   3.719   7.121
31692SOL     OW95101   6.451   2.210   5.781
31692SOL    HW195102   6.510   2.273   5.732
31692SOL    HW295103   6.470   2.116   5.752
31693SOL     OW95104   7.305   2.447   7.417
31693SOL    HW195105   7.279   2.536   7.381
31693SOL    HW295106   7.303   2.379   7.344
31694SOL     OW95107   6.948   3.006   6.131
31694SOL    HW195108   7.031   2.977   6.083
31694SOL    HW295109   6.899   3.073   6.075
31695SOL     OW95110   6.136   2.058   6.471
31695SOL    HW195111   6.131   2.053   6.571
31695SOL    HW295112   6.138   2.154   6.442
31696SOL     OW95113   6.594   3.318   6.063
31696SOL    HW195114   6.548   3.390   6.011
31696SOL    HW295115   6.590   3.338   6.161
31697SOL     OW95116   5.937   3.663   6.439
31697SOL    HW195117   5.987   3.577   6.445
31697SOL    HW295118   6.002   3.740   6.436
31698SOL     OW95119   7.381   2.928   6.459
31698SOL    HW195120   7.319   2.913   6.383
31698SOL    HW295121   7.329   2.939   6.544
31699SOL     OW95122   6.813   3.412   7.092
31699SOL    HW195123   6.819   3.335   7.156
31699SOL    HW295124   6.761   3.386   7.012
31700SOL     OW95125   5.907   2.805   5.828
31700SOL    HW195126   5.989   2.844   5.786
31700SOL    HW295127   5.880   2.723   5.779
31701SOL     OW95128   7.044   2.597   6.314
31701SOL    HW195129   7.039   2.532   6.389
31701SOL    HW295130   7.124   2.656   6.327
31702SOL     OW95131   6.047   3.128   7.313
31702SOL    HW195132   5.997   3.129   7.227
31702SOL    HW295133   5.984   3.110   7.389
31703SOL     OW95134   6.697   3.638   5.823
31703SOL    HW195135   6.637   3.576   5.873
31703SOL    HW295136   6.728   3.594   5.738
31704SOL     OW95137   7.218   3.239   5.667
31704SOL    HW195138   7.186   3.333   5.657
31704SOL    HW295139   7.142   3.176   5.655
31705SOL     OW95140   6.050   3.605   5.909
31705SOL    HW195141   6.083   3.644   5.995
31705SOL    HW295142   6.126   3.598   5.844
31706SOL     OW95143   6.986   1.969   6.012
31706SOL    HW195144   6.962   1.932   5.922
31706SOL    HW295145   7.085   1.985   6.016
31707SOL     OW95146   5.835   3.647   6.827
31707SOL    HW195147   5.892   3.582   6.877
31707SOL    HW295148   5.819   3.614   6.734
31708SOL     OW95149   6.526   3.560   6.490
31708SOL    HW195150   6.606   3.503   6.511
31708SOL    HW295151   6.477   3.520   6.413
31709SOL     OW95152   5.968   2.562   6.066
31709SOL    HW195153   6.013   2.472   6.063
31709SOL    HW295154   5.874   2.551   6.099
31710SOL     OW95155   7.133   2.084   7.315
31710SOL    HW195156   7.128   2.121   7.407
31710SOL    HW295157   7.061   2.015   7.303
31711SOL     OW95158   6.200   1.984   5.703
31711SOL    HW195159   6.298   1.962   5.710
31711SOL    HW295160   6.169   1.967   5.610
31712SOL     OW95161   6.367   2.126   7.335
31712SOL    HW195162   6.434   2.065   7.378
31712SOL    HW295163   6.294   2.145   7.400
31713SOL     OW95164   6.474   3.376   6.781
31713SOL    HW195165   6.451   3.351   6.687
31713SOL    HW295166   6.535   3.307   6.820
31714SOL     OW95167   6.937   2.452   7.019
31714SOL    HW195168   6.965   2.409   7.104
31714SOL    HW295169   6.962   2.548   7.020
31715SOL     OW95170   6.389   3.264   6.510
31715SOL    HW195171   6.479   3.278   6.468
31715SOL    HW295172   6.318   3.266   6.439
31716SOL     OW95173   6.508   2.365   6.485
31716SOL    HW195174   6.483   2.356   6.389
31716SOL    HW295175   6.556   2.283   6.516
31717SOL     OW95176   6.125   1.926   6.098
31717SOL    HW195177   6.044   1.927   6.156
31717SOL    HW295178   6.128   2.009   6.043
31718SOL     OW95179   7.020   3.050   5.627
31718SOL    HW195180   7.052   2.974   5.684
31718SOL    HW295181   6.928   3.077   5.657
31719SOL     OW95182   5.883   1.897   5.757
31719SOL    HW195183   5.932   1.981   5.736
31719SOL    HW295184   5.945   1.832   5.802
31720SOL     OW95185   6.521   2.098   6.066
31720SOL    HW195186   6.473   2.139   5.988
31720SOL    HW295187   6.620   2.096   6.047
31721SOL     OW95188   6.662   2.545   7.050
31721SOL    HW195189   6.582   2.484   7.053
31721SOL    HW295190   6.743   2.492   7.026
31722SOL     OW95191   6.813   3.432   6.379
31722SOL    HW195192   6.834   3.506   6.314
31722SOL    HW295193   6.881   3.432   6.452
31723SOL     OW95194   6.045   3.014   6.327
31723SOL    HW195195   5.974   2.987   6.392
31723SOL    HW295196   6.019   2.986   6.234
31724SOL     OW95197   6.857   3.659   6.177
31724SOL    HW195198   6.901   3.723   6.113
31724SOL    HW295199   6.807   3.711   6.247
31725SOL     OW95200   6.618   2.411   5.602
31725SOL    HW195201   6.577   2.493   5.563
31725SOL    HW295202   6.682   2.437   5.675
31726SOL     OW95203   5.664   2.418   6.972
31726SOL    HW195204   5.756   2.417   6.931
31726SOL    HW295205   5.658   2.492   7.039
31727SOL     OW95206   6.147   2.084   6.733
31727SOL    HW195207   6.185   2.000   6.770
31727SOL    HW295208   6.059   2.103   6.777
31728SOL     OW95209   6.452   2.316   6.228
31728SOL    HW195210   6.420   2.388   6.166
31728SOL    HW295211   6.476   2.235   6.175
31729SOL     OW95212   6.603   1.901   6.339
31729SOL    HW195213   6.531   1.906   6.270
31729SOL    HW295214   6.579   1.832   6.408
31730SOL     OW95215   7.015   3.035   6.453
31730SOL    HW195216   6.960   2.951   6.446
31730SOL    HW295217   7.041   3.064   6.361
31731SOL     OW95218   7.052   2.452   6.578
31731SOL    HW195219   7.022   2.357   6.585
31731SOL    HW295220   7.125   2.468   6.644
31732SOL     OW95221   7.443   2.695   5.963
31732SOL    HW195222   7.485   2.631   6.027
31732SOL    HW295223   7.405   2.644   5.885
31733SOL     OW95224   6.074   3.247   5.760
31733SOL    HW195225   5.987   3.232   5.807
31733SOL    HW295226   6.057   3.273   5.665
31734SOL     OW95227   7.250   3.142   6.243
31734SOL    HW195228   7.349   3.150   6.257
31734SOL    HW295229   7.205   3.226   6.274
31735SOL     OW95230   6.976   2.437   5.664
31735SOL    HW195231   6.922   2.416   5.745
31735SOL    HW295232   7.067   2.396   5.673
31736SOL     OW95233   6.113   2.118   5.914
31736SOL    HW195234   6.140   2.059   5.839
31736SOL    HW295235   6.113   2.213   5.883
31737SOL     OW95236   7.340   3.085   7.174
31737SOL    HW195237   7.431   3.046   7.161
31737SOL    HW295238   7.348   3.181   7.198
31738SOL     OW95239   6.650   3.209   6.926
31738SOL    HW195240   6.570   3.186   6.981
31738SOL    HW295241   6.733   3.183   6.975
31739SOL     OW95242   7.178   3.491   7.211
31739SOL    HW195243   7.205   3.525   7.121
31739SOL    HW295244   7.257   3.453   7.257
31740SOL     OW95245   6.697   3.057   6.686
31740SOL    HW195246   6.657   3.101   6.767
31740SOL    HW295247   6.656   3.094   6.603
31741SOL     OW95248   7.224   2.961   6.665
31741SOL    HW195249   7.229   3.042   6.724
31741SOL    HW295250   7.138   2.963   6.614
31742SOL     OW95251   6.501   1.951   6.988
31742SOL    HW195252   6.526   1.931   6.893
31742SOL    HW295253   6.573   2.007   7.030
31743SOL     OW95254   6.566   2.978   7.305
31743SOL    HW195255   6.467   2.984   7.315
31743SOL    HW295256   6.589   2.898   7.249
31744SOL     OW95257   6.291   2.912   5.954
31744SOL    HW195258   6.277   2.919   6.053
31744SOL    HW295259   6.375   2.861   5.936
31745SOL     OW95260   5.996   2.675   6.837
31745SOL    HW195261   6.082   2.687   6.887
31745SOL    HW295262   5.954   2.588   6.864
31746SOL     OW95263   6.860   2.248   6.848
31746SOL    HW195264   6.881   2.322   6.912
31746SOL    HW295265   6.771   2.265   6.805
31747SOL     OW95266   5.650   3.426   6.917
31747SOL    HW195267   5.604   3.508   6.883
31747SOL    HW295268   5.748   3.445   6.926
31748SOL     OW95269   5.953   2.962   6.087
31748SOL    HW195270   5.946   3.045   6.031
31748SOL    HW295271   5.957   2.882   6.027
31749SOL     OW95272   6.152   2.399   6.451
31749SOL    HW195273   6.164   2.465   6.377
31749SOL    HW295274   6.198   2.433   6.534
31750SOL     OW95275   6.838   3.210   5.974
31750SOL    HW195276   6.888   3.287   6.014
31750SOL    HW295277   6.743   3.212   6.006
31751SOL     OW95278   6.858   3.307   6.728
31751SOL    HW195279   6.905   3.320   6.815
31751SOL    HW295280   6.792   3.233   6.737
31752SOL     OW95281   7.168   2.501   6.058
31752SOL    HW195282   7.137   2.562   6.131
31752SOL    HW295283   7.218   2.553   5.989
31753SOL     OW95284   5.940   3.372   6.915
31753SOL    HW195285   5.919   3.328   6.828
31753SOL    HW295286   6.037   3.398   6.918
31754SOL     OW95287   5.988   2.613   7.184
31754SOL    HW195288   6.056   2.668   7.137
31754SOL    HW295289   6.028   2.525   7.211
31755SOL     OW95290   7.173   2.641   7.256
31755SOL    HW195291   7.081   2.679   7.251
31755SOL    HW295292   7.233   2.688   7.191
31756SOL     OW95293   6.599   1.967   7.356
31756SOL    HW195294   6.605   2.052   7.304
31756SOL    HW295295   6.631   1.891   7.299
31757SOL     OW95296   6.090   1.912   7.326
31757SOL    HW195297   6.048   1.855   7.256
31757SOL    HW295298   6.024   1.981   7.358
31758SOL     OW95299   6.159   2.732   6.615
31758SOL    HW195300   6.203   2.821   6.606
31758SOL    HW295301   6.096   2.732   6.692
31759SOL     OW95302   6.946   2.724   6.631
31759SOL    HW195303   6.871   2.724   6.565
31759SOL    HW295304   6.983   2.632   6.640
31760SOL     OW95305   6.795   2.387   5.861
31760SOL    HW195306   6.808   2.303   5.915
31760SOL    HW295307   6.766   2.461   5.921
31761SOL     OW95308   5.893   2.075   6.817
31761SOL    HW195309   5.870   2.112   6.907
31761SOL    HW295310   5.863   1.980   6.811
31762SOL     OW95311   5.623   3.172   6.868
31762SOL    HW195312   5.676   3.123   6.936
31762SOL    HW295313   5.645   3.270   6.873
31763SOL     OW95314   6.318   2.496   6.650
31763SOL    HW195315   6.377   2.470   6.574
31763SOL    HW295316   6.290   2.592   6.639
31764SOL     OW95317   7.314   2.797   7.440
31764SOL    HW195318   7.268   2.790   7.351
31764SOL    HW295319   7.252   2.841   7.506
31765SOL     OW95320   5.893   1.925   6.204
31765SOL    HW195321   5.882   2.019   6.237
31765SOL    HW295322   5.888   1.862   6.281
31766SOL     OW95323   7.208   2.229   5.960
31766SOL    HW195324   7.210   2.153   6.024
31766SOL    HW295325   7.160   2.306   6.000
31767SOL     OW95326   6.609   2.628   6.552
31767SOL    HW195327   6.624   2.649   6.648
31767SOL    HW295328   6.579   2.533   6.543
31768SOL     OW95329   6.566   3.435   7.286
31768SOL    HW195330   6.546   3.479   7.198
31768SOL    HW295331   6.605   3.344   7.270
31769SOL     OW95332   7.445   3.380   7.191
31769SOL    HW195333   7.459   3.407   7.096
31769SOL    HW295334   7.528   3.402   7.244
31770SOL     OW95335   5.936   2.760   7.390
31770SOL    HW195336   6.012   2.804   7.438
31770SOL    HW295337   5.971   2.713   7.308
31771SOL     OW95338   7.126   2.136   5.711
31771SOL    HW195339   7.065   2.061   5.734
31771SOL    HW295340   7.148   2.188   5.794
31772SOL     OW95341   6.889   2.700   5.628
31772SOL    HW195342   6.923   2.607   5.643
31772SOL    HW295343   6.907   2.727   5.533
31773SOL     OW95344   6.654   3.195   6.435
31773SOL    HW195345   6.661   3.111   6.380
31773SOL    HW295346   6.716   3.264   6.399
31774SOL     OW95347   5.905   2.672   6.535
31774SOL    HW195348   5.998   2.708   6.540
31774SOL    HW295349   5.899   2.587   6.587
31775SOL     OW95350   5.925   2.371   6.592
31775SOL    HW195351   5.873   2.288   6.575
31775SOL    HW295352   6.002   2.376   6.528
31776SOL     OW95353   6.724   2.242   7.264
31776SOL    HW195354   6.679   2.305   7.328
31776SOL    HW295355   6.817   2.273   7.247
31777SOL     OW95356   6.746   2.069   7.063
31777SOL    HW195357   6.746   2.133   7.140
31777SOL    HW295358   6.774   2.117   6.980
31778SOL     OW95359   5.594   3.188   5.786
31778SOL    HW195360   5.501   3.209   5.755
31778SOL    HW295361   5.604   3.089   5.799
31779SOL     OW95362   5.674   3.663   6.513
31779SOL    HW195363   5.632   3.577   6.486
31779SOL    HW295364   5.768   3.666   6.479
31780SOL     OW95365   6.090   3.430   6.496
31780SOL    HW195366   6.156   3.504   6.505
31780SOL    HW295367   6.134   3.351   6.454
31781SOL     OW95368   6.588   2.658   6.824
31781SOL    HW195369   6.629   2.626   6.910
31781SOL    HW295370   6.492   2.631   6.821
31782SOL     OW95371   5.626   2.406   6.700
31782SOL    HW195372   5.711   2.373   6.659
31782SOL    HW295373   5.639   2.421   6.798
31783SOL     OW95374   5.775   2.382   7.308
31783SOL    HW195375   5.834   2.342   7.238
31783SOL    HW295376   5.717   2.453   7.267
31784SOL     OW95377   6.955   2.812   7.246
31784SOL    HW195378   6.994   2.901   7.266
31784SOL    HW295379   6.965   2.792   7.149
31785SOL     OW95380   6.401   2.434   5.911
31785SOL    HW195381   6.408   2.345   5.865
31785SOL    HW295382   6.307   2.468   5.903
31786SOL     OW95383   7.243   2.466   6.792
31786SOL    HW195384   7.205   2.397   6.854
31786SOL    HW295385   7.325   2.430   6.748
31787SOL     OW95386   5.838   3.426   7.330
31787SOL    HW195387   5.808   3.483   7.406
31787SOL    HW295388   5.831   3.329   7.356
31788SOL     OW95389   6.257   2.326   6.855
31788SOL    HW195390   6.223   2.237   6.825
31788SOL    HW295391   6.283   2.380   6.775
31789SOL     OW95392   6.516   3.540   7.051
31789SOL    HW195393   6.492   3.522   6.956
31789SOL    HW295394   6.546   3.634   7.061
31790SOL     OW95395   6.059   2.362   5.777
31790SOL    HW195396   6.120   2.442   5.781
31790SOL    HW295397   5.964   2.393   5.784
31791SOL     OW95398   5.745   2.999   7.052
31791SOL    HW195399   5.767   2.938   7.128
31791SOL    HW295400   5.755   2.950   6.966
31792SOL     OW95401   6.933   2.921   6.820
31792SOL    HW195402   6.957   2.858   6.746
31792SOL    HW295403   6.843   2.961   6.802
31793SOL     OW95404   6.888   2.717   5.895
31793SOL    HW195405   6.802   2.686   5.937
31793SOL    HW295406   6.884   2.703   5.796
31794SOL     OW95407   7.345   3.609   6.740
31794SOL    HW195408   7.406   3.639   6.667
31794SOL    HW295409   7.307   3.520   6.718
31795SOL     OW95410   6.838   3.593   6.714
31795SOL    HW195411   6.922   3.598   6.660
31795SOL    HW295412   6.815   3.497   6.732
31796SOL     OW95413   5.669   3.120   6.608
31796SOL    HW195414   5.664   3.119   6.708
31796SOL    HW295415   5.586   3.079   6.570
31797SOL     OW95416   6.274   3.524   7.302
31797SOL    HW195417   6.218   3.605   7.311
31797SOL    HW295418   6.326   3.528   7.216
31798SOL     OW95419   7.312   1.997   6.109
31798SOL    HW195420   7.385   1.980   6.042
31798SOL    HW295421   7.281   1.910   6.147
31799SOL     OW95422   6.974   3.435   6.063
31799SOL    HW195423   7.041   3.447   5.989
31799SOL    HW295424   6.934   3.524   6.086
31800SOL     OW95425   5.716   3.656   7.437
31800SOL    HW195426   5.675   3.582   7.490
31800SOL    HW295427   5.780   3.707   7.495
31801SOL     OW95428   6.866   2.789   6.258
31801SOL    HW195429   6.926   2.708   6.260
31801SOL    HW295430   6.906   2.858   6.198
31802SOL     OW95431   6.416   3.135   7.008
31802SOL    HW195432   6.411   3.168   7.103
31802SOL    HW295433   6.330   3.154   6.962
31803SOL     OW95434   6.258   3.478   5.740
31803SOL    HW195435   6.267   3.488   5.641
31803SOL    HW295436   6.218   3.389   5.761
31804SOL     OW95437   7.236   3.582   6.980
31804SOL    HW195438   7.289   3.592   6.896
31804SOL    HW295439   7.209   3.672   7.014
31805SOL     OW95440   7.427   2.037   6.549
31805SOL    HW195441   7.466   1.952   6.513
31805SOL    HW295442   7.329   2.039   6.530
31806SOL     OW95443   5.849   2.188   6.306
31806SOL    HW195444   5.770   2.239   6.272
31806SOL    HW295445   5.840   2.173   6.404
31807SOL     OW95446   6.780   3.474   5.617
31807SOL    HW195447   6.786   3.381   5.654
31807SOL    HW295448   6.721   3.474   5.537
31808SOL     OW95449   6.408   2.864   6.958
31808SOL    HW195450   6.448   2.863   6.866
31808SOL    HW295451   6.418   2.956   6.998
31809SOL     OW95452   6.502   2.772   5.877
31809SOL    HW195453   6.565   2.810   5.809
31809SOL    HW295454   6.542   2.689   5.916
31810SOL     OW95455   7.090   3.469   5.630
31810SOL    HW195456   6.998   3.506   5.637
31810SOL    HW295457   7.128   3.489   5.540
31811SOL     OW95458   5.958   3.150   7.076
31811SOL    HW195459   5.945   3.243   7.042
31811SOL    HW295460   5.874   3.098   7.063
31812SOL     OW95461   7.200   3.154   6.875
31812SOL    HW195462   7.260   3.157   6.955
31812SOL    HW295463   7.125   3.218   6.888
31813SOL     OW95464   6.625   2.960   6.282
31813SOL    HW195465   6.555   2.913   6.336
31813SOL    HW295466   6.684   2.892   6.239
31814SOL     OW95467   6.600   2.098   6.557
31814SOL    HW195468   6.592   2.062   6.464
31814SOL    HW295469   6.598   2.022   6.622
31815SOL     OW95470   6.176   3.349   6.077
31815SOL    HW195471   6.218   3.291   6.007
31815SOL    HW295472   6.132   3.428   6.033
31816SOL     OW95473   7.295   2.247   6.967
31816SOL    HW195474   7.368   2.316   6.971
31816SOL    HW295475   7.323   2.172   6.908
31817SOL     OW95476   5.841   3.210   5.876
31817SOL    HW195477   5.745   3.211   5.849
31817SOL    HW295478   5.853   3.263   5.960
31818SOL     OW95479   5.691   2.875   7.312
31818SOL    HW195480   5.614   2.842   7.366
31818SOL    HW295481   5.776   2.845   7.354
31819SOL     OW95482   6.258   2.065   7.075
31819SOL    HW195483   6.348   2.049   7.035
31819SOL    HW295484   6.266   2.070   7.174
31820SOL     OW95485   5.661   2.207   5.619
31820SOL    HW195486   5.569   2.179   5.590
31820SOL    HW295487   5.692   2.284   5.563
31821SOL     OW95488   7.026   2.718   6.984
31821SOL    HW195489   6.969   2.770   6.921
31821SOL    HW295490   7.122   2.730   6.960
31822SOL     OW95491   5.658   2.028   5.904
31822SOL    HW195492   5.641   2.111   5.850
31822SOL    HW295493   5.748   1.991   5.882
31823SOL     OW95494   6.769   3.197   5.705
31823SOL    HW195495   6.670   3.186   5.707
31823SOL    HW295496   6.803   3.212   5.798
31824SOL     OW95497   6.199   2.704   7.017
31824SOL    HW195498   6.255   2.785   7.000
31824SOL    HW295499   6.258   2.624   7.020
31825SOL     OW95500   7.079   3.629   6.545
31825SOL    HW195501   7.112   3.693   6.476
31825SOL    HW295502   7.145   3.623   6.620
31826SOL     OW95503   6.302   2.427   7.294
31826SOL    HW195504   6.321   2.492   7.368
31826SOL    HW295505   6.362   2.347   7.303
31827SOL     OW95506   7.036   3.082   7.219
31827SOL    HW195507   7.027   3.072   7.318
31827SOL    HW295508   7.132   3.075   7.193
31828SOL     OW95509   5.976   3.603   7.146
31828SOL    HW195510   5.885   3.644   7.144
31828SOL    HW295511   5.969   3.509   7.178
31829SOL     OW95512   7.260   2.745   6.840
31829SOL    HW195513   7.233   2.656   6.803
31829SOL    HW295514   7.261   2.813   6.767
31830SOL     OW95515   6.180   2.607   6.238
31830SOL    HW195516   6.230   2.692   6.219
31830SOL    HW295517   6.092   2.609   6.190
31831SOL     OW95518   7.363   2.204   7.228
31831SOL    HW195519   7.346   2.235   7.134
31831SOL    HW295520   7.279   2.167   7.266
31832SOL     OW95521   7.316   2.796   7.103
31832SOL    HW195522   7.354   2.887   7.118
31832SOL    HW295523   7.308   2.779   7.004
31833SOL     OW95524   6.445   3.236   5.602
31833SOL    HW195525   6.399   3.251   5.690
31833SOL    HW295526   6.489   3.321   5.572
31834SOL     OW95527   6.247   3.652   6.539
31834SOL    HW195528   6.201   3.740   6.526
31834SOL    HW295529   6.346   3.664   6.532
31835SOL     OW95530   6.445   2.818   6.447
31835SOL    HW195531   6.499   2.749   6.495
31835SOL    HW295532   6.413   2.887   6.513
31836SOL     OW95533   6.669   2.846   5.673
31836SOL    HW195534   6.646   2.899   5.591
31836SOL    HW295535   6.750   2.790   5.654
31837SOL     OW95536   7.447   3.431   6.437
31837SOL    HW195537   7.376   3.419   6.367
31837SOL    HW295538   7.448   3.352   6.497
31838SOL     OW95539   5.807   3.176   7.430
31838SOL    HW195540   5.742   3.103   7.409
31838SOL    HW295541   5.811   3.190   7.528
31839SOL     OW95542   5.665   3.102   6.239
31839SOL    HW195543   5.664   3.055   6.327
31839SOL    HW295544   5.747   3.074   6.188
31840SOL     OW95545   6.258   3.253   7.210
31840SOL    HW195546   6.180   3.203   7.248
31840SOL    HW295547   6.255   3.348   7.241
31841SOL     OW95548   7.410   2.054   6.813
31841SOL    HW195549   7.406   1.964   6.857
31841SOL    HW295550   7.413   2.043   6.714
31842SOL     OW95551   6.014   2.286   6.106
31842SOL    HW195552   6.044   2.214   6.044
31842SOL    HW295553   5.975   2.246   6.189
31843SOL     OW95554   7.291   3.349   6.690
31843SOL    HW195555   7.198   3.324   6.663
31843SOL    HW295556   7.317   3.299   6.772
31844SOL     OW95557   5.903   2.409   6.866
31844SOL    HW195558   5.941   2.350   6.938
31844SOL    HW295559   5.943   2.383   6.778
31845SOL     OW95560   6.398   3.448   6.273
31845SOL    HW195561   6.430   3.458   6.179
31845SOL    HW295562   6.319   3.386   6.275
31846SOL     OW95563   7.010   2.076   6.698
31846SOL    HW195564   7.062   2.011   6.753
31846SOL    HW295565   6.961   2.139   6.759
31847SOL     OW95566   6.587   1.896   6.740
31847SOL    HW195567   6.524   1.824   6.709
31847SOL    HW295568   6.680   1.860   6.740
31848SOL     OW95569   6.356   3.192   5.887
31848SOL    HW195570   6.310   3.105   5.904
31848SOL    HW295571   6.447   3.189   5.928
31849SOL     OW95572   6.204   3.429   6.870
31849SOL    HW195573   6.199   3.511   6.927
31849SOL    HW295574   6.293   3.426   6.825
31850SOL     OW95575   6.938   1.914   5.754
31850SOL    HW195576   6.973   1.873   5.670
31850SOL    HW295577   6.848   1.876   5.774
31851SOL     OW95578   6.886   2.315   6.277
31851SOL    HW195579   6.827   2.395   6.281
31851SOL    HW295580   6.901   2.280   6.370
31852SOL     OW95581   7.179   2.083   6.468
31852SOL    HW195582   7.095   2.082   6.522
31852SOL    HW295583   7.181   2.166   6.412
31853SOL     OW95584   5.625   2.939   5.886
31853SOL    HW195585   5.724   2.928   5.877
31853SOL    HW295586   5.585   2.853   5.918
31854SOL     OW95587   6.461   3.508   5.923
31854SOL    HW195588   6.384   3.473   5.869
31854SOL    HW295589   6.429   3.579   5.985
31855SOL     OW95590   5.816   2.490   7.561
31855SOL    HW195591   5.723   2.488   7.598
31855SOL    HW295592   5.817   2.451   7.469
31856SOL     OW95593   5.811   2.137   8.444
31856SOL    HW195594   5.846   2.120   8.536
31856SOL    HW295595   5.723   2.092   8.432
31857SOL     OW95596   5.605   2.230   8.095
31857SOL    HW195597   5.523   2.273   8.134
31857SOL    HW295598   5.577   2.157   8.032
31858SOL     OW95599   6.155   3.137   8.613
31858SOL    HW195600   6.062   3.130   8.576
31858SOL    HW295601   6.166   3.226   8.657
31859SOL     OW95602   7.141   3.373   8.151
31859SOL    HW195603   7.084   3.357   8.232
31859SOL    HW295604   7.082   3.383   8.071
31860SOL     OW95605   6.721   2.565   8.165
31860SOL    HW195606   6.778   2.643   8.140
31860SOL    HW295607   6.661   2.591   8.241
31861SOL     OW95608   7.341   2.469   7.679
31861SOL    HW195609   7.329   2.456   7.580
31861SOL    HW295610   7.311   2.388   7.728
31862SOL     OW95611   6.354   3.006   8.471
31862SOL    HW195612   6.276   3.023   8.531
31862SOL    HW295613   6.388   3.093   8.435
31863SOL     OW95614   6.436   2.660   9.271
31863SOL    HW195615   6.432   2.736   9.336
31863SOL    HW295616   6.458   2.696   9.180
31864SOL     OW95617   6.271   2.874   8.113
31864SOL    HW195618   6.340   2.858   8.183
31864SOL    HW295619   6.198   2.931   8.151
31865SOL     OW95620   6.272   3.023   9.251
31865SOL    HW195621   6.332   3.102   9.265
31865SOL    HW295622   6.186   3.054   9.210
31866SOL     OW95623   5.921   3.297   8.509
31866SOL    HW195624   5.843   3.266   8.456
31866SOL    HW295625   5.979   3.355   8.452
31867SOL     OW95626   7.046   3.367   8.787
31867SOL    HW195627   7.070   3.461   8.813
31867SOL    HW295628   7.030   3.313   8.869
31868SOL     OW95629   6.024   2.254   8.947
31868SOL    HW195630   6.106   2.198   8.956
31868SOL    HW295631   5.943   2.196   8.951
31869SOL     OW95632   7.189   2.309   8.185
31869SOL    HW195633   7.115   2.355   8.135
31869SOL    HW295634   7.240   2.377   8.238
31870SOL     OW95635   5.817   3.575   7.931
31870SOL    HW195636   5.851   3.652   7.985
31870SOL    HW295637   5.861   3.575   7.841
31871SOL     OW95638   6.713   3.203   9.138
31871SOL    HW195639   6.760   3.203   9.226
31871SOL    HW295640   6.665   3.116   9.127
31872SOL     OW95641   5.816   3.296   7.986
31872SOL    HW195642   5.790   3.392   7.986
31872SOL    HW295643   5.745   3.242   8.031
31873SOL     OW95644   5.826   2.953   8.334
31873SOL    HW195645   5.840   2.869   8.386
31873SOL    HW295646   5.771   3.017   8.389
31874SOL     OW95647   6.206   3.648   8.887
31874SOL    HW195648   6.114   3.631   8.922
31874SOL    HW295649   6.234   3.740   8.913
31875SOL     OW95650   6.192   2.826   7.571
31875SOL    HW195651   6.199   2.910   7.517
31875SOL    HW295652   6.238   2.839   7.659
31876SOL     OW95653   7.180   1.976   8.928
31876SOL    HW195654   7.162   2.043   8.856
31876SOL    HW295655   7.177   2.022   9.017
31877SOL     OW95656   5.708   2.505   8.011
31877SOL    HW195657   5.663   2.417   8.028
31877SOL    HW295658   5.707   2.559   8.095
31878SOL     OW95659   7.428   3.629   7.807
31878SOL    HW195660   7.482   3.600   7.887
31878SOL    HW295661   7.458   3.719   7.778
31879SOL     OW95662   5.613   3.458   7.565
31879SOL    HW195663   5.594   3.362   7.586
31879SOL    HW295664   5.580   3.516   7.640
31880SOL     OW95665   7.275   2.784   8.060
31880SOL    HW195666   7.370   2.755   8.068
31880SOL    HW295667   7.267   2.849   7.985
31881SOL     OW95668   7.227   2.970   7.880
31881SOL    HW195669   7.313   2.972   7.828
31881SOL    HW295670   7.241   3.017   7.968
31882SOL     OW95671   5.699   2.599   9.045
31882SOL    HW195672   5.787   2.586   9.090
31882SOL    HW295673   5.686   2.696   9.023
31883SOL     OW95674   6.199   3.227   8.174
31883SOL    HW195675   6.150   3.140   8.183
31883SOL    HW295676   6.176   3.270   8.087
31884SOL     OW95677   6.879   3.090   8.871
31884SOL    HW195678   6.916   3.017   8.813
31884SOL    HW295679   6.931   3.095   8.956
31885SOL     OW95680   6.395   1.866   7.950
31885SOL    HW195681   6.435   1.957   7.941
31885SOL    HW295682   6.295   1.874   7.956
31886SOL     OW95683   5.783   2.838   8.712
31886SOL    HW195684   5.872   2.793   8.698
31886SOL    HW295685   5.710   2.773   8.693
31887SOL     OW95686   7.111   2.861   7.638
31887SOL    HW195687   7.048   2.785   7.651
31887SOL    HW295688   7.159   2.879   7.724
31888SOL     OW95689   6.773   3.654   9.064
31888SOL    HW195690   6.797   3.714   8.988
31888SOL    HW295691   6.780   3.559   9.034
31889SOL     OW95692   5.903   2.113   9.249
31889SOL    HW195693   5.974   2.184   9.255
31889SOL    HW295694   5.815   2.152   9.277
31890SOL     OW95695   7.052   3.279   8.401
31890SOL    HW195696   6.993   3.285   8.481
31890SOL    HW295697   7.037   3.191   8.355
31891SOL     OW95698   7.253   3.576   8.020
31891SOL    HW195699   7.212   3.553   7.932
31891SOL    HW295700   7.235   3.502   8.085
31892SOL     OW95701   6.184   2.591   7.718
31892SOL    HW195702   6.208   2.660   7.650
31892SOL    HW295703   6.106   2.624   7.772
31893SOL     OW95704   6.867   2.207   8.392
31893SOL    HW195705   6.781   2.157   8.379
31893SOL    HW295706   6.929   2.153   8.448
31894SOL     OW95707   7.162   3.524   7.755
31894SOL    HW195708   7.251   3.570   7.758
31894SOL    HW295709   7.141   3.500   7.660
31895SOL     OW95710   6.393   2.467   8.913
31895SOL    HW195711   6.346   2.464   9.002
31895SOL    HW295712   6.342   2.412   8.847
31896SOL     OW95713   6.980   2.331   9.122
31896SOL    HW195714   6.960   2.374   9.210
31896SOL    HW295715   7.058   2.269   9.131
31897SOL     OW95716   6.559   2.752   9.020
31897SOL    HW195717   6.605   2.668   8.991
31897SOL    HW295718   6.503   2.786   8.945
31898SOL     OW95719   6.577   2.272   8.690
31898SOL    HW195720   6.500   2.306   8.744
31898SOL    HW295721   6.543   2.221   8.611
31899SOL     OW95722   6.627   2.563   7.877
31899SOL    HW195723   6.653   2.559   7.973
31899SOL    HW295724   6.542   2.512   7.863
31900SOL     OW95725   5.662   2.673   8.237
31900SOL    HW195726   5.761   2.661   8.246
31900SOL    HW295727   5.638   2.768   8.258
31901SOL     OW95728   5.716   3.683   9.019
31901SOL    HW195729   5.706   3.668   9.118
31901SOL    HW295730   5.630   3.719   8.983
31902SOL     OW95731   6.451   2.210   7.643
31902SOL    HW195732   6.510   2.273   7.594
31902SOL    HW295733   6.470   2.116   7.614
31903SOL     OW95734   7.305   2.447   9.279
31903SOL    HW195735   7.279   2.536   9.243
31903SOL    HW295736   7.303   2.379   9.206
31904SOL     OW95737   6.948   3.006   7.993
31904SOL    HW195738   7.031   2.977   7.945
31904SOL    HW295739   6.899   3.073   7.937
31905SOL     OW95740   6.136   2.058   8.333
31905SOL    HW195741   6.131   2.053   8.433
31905SOL    HW295742   6.138   2.154   8.304
31906SOL     OW95743   6.594   3.318   7.925
31906SOL    HW195744   6.548   3.390   7.873
31906SOL    HW295745   6.590   3.338   8.023
31907SOL     OW95746   5.937   3.663   8.301
31907SOL    HW195747   5.987   3.577   8.307
31907SOL    HW295748   6.002   3.740   8.298
31908SOL     OW95749   7.381   2.928   8.321
31908SOL    HW195750   7.319   2.913   8.245
31908SOL    HW295751   7.329   2.939   8.406
31909SOL     OW95752   6.813   3.412   8.954
31909SOL    HW195753   6.819   3.335   9.018
31909SOL    HW295754   6.761   3.386   8.874
31910SOL     OW95755   5.907   2.805   7.690
31910SOL    HW195756   5.989   2.844   7.648
31910SOL    HW295757   5.880   2.723   7.641
31911SOL     OW95758   7.044   2.597   8.176
31911SOL    HW195759   7.039   2.532   8.251
31911SOL    HW295760   7.124   2.656   8.189
31912SOL     OW95761   6.047   3.128   9.175
31912SOL    HW195762   5.997   3.129   9.089
31912SOL    HW295763   5.984   3.110   9.251
31913SOL     OW95764   6.697   3.638   7.685
31913SOL    HW195765   6.637   3.576   7.735
31913SOL    HW295766   6.728   3.594   7.600
31914SOL     OW95767   5.788   2.147   8.946
31914SOL    HW195768   5.708   2.207   8.933
31914SOL    HW295769   5.778   2.098   9.032
31915SOL     OW95770   7.218   3.239   7.529
31915SOL    HW195771   7.186   3.333   7.519
31915SOL    HW295772   7.142   3.176   7.517
31916SOL     OW95773   6.050   3.605   7.771
31916SOL    HW195774   6.083   3.644   7.857
31916SOL    HW295775   6.126   3.598   7.706
31917SOL     OW95776   6.986   1.969   7.874
31917SOL    HW195777   6.962   1.932   7.784
31917SOL    HW295778   7.085   1.985   7.878
31918SOL     OW95779   5.835   3.647   8.689
31918SOL    HW195780   5.892   3.582   8.739
31918SOL    HW295781   5.819   3.614   8.596
31919SOL     OW95782   6.526   3.560   8.352
31919SOL    HW195783   6.606   3.503   8.373
31919SOL    HW295784   6.477   3.520   8.275
31920SOL     OW95785   5.968   2.562   7.928
31920SOL    HW195786   6.013   2.472   7.925
31920SOL    HW295787   5.874   2.551   7.961
31921SOL     OW95788   7.133   2.084   9.177
31921SOL    HW195789   7.128   2.121   9.269
31921SOL    HW295790   7.061   2.015   9.165
31922SOL     OW95791   6.200   1.984   7.565
31922SOL    HW195792   6.298   1.962   7.572
31922SOL    HW295793   6.169   1.967   7.472
31923SOL     OW95794   6.367   2.126   9.197
31923SOL    HW195795   6.434   2.065   9.240
31923SOL    HW295796   6.294   2.145   9.262
31924SOL     OW95797   6.474   3.376   8.643
31924SOL    HW195798   6.451   3.351   8.549
31924SOL    HW295799   6.535   3.307   8.682
31925SOL     OW95800   6.937   2.452   8.881
31925SOL    HW195801   6.965   2.409   8.966
31925SOL    HW295802   6.962   2.548   8.882
31926SOL     OW95803   6.389   3.264   8.372
31926SOL    HW195804   6.479   3.278   8.330
31926SOL    HW295805   6.318   3.266   8.301
31927SOL     OW95806   6.508   2.365   8.347
31927SOL    HW195807   6.483   2.356   8.251
31927SOL    HW295808   6.556   2.283   8.378
31928SOL     OW95809   6.125   1.926   7.960
31928SOL    HW195810   6.044   1.927   8.018
31928SOL    HW295811   6.128   2.009   7.905
31929SOL     OW95812   7.020   3.050   7.489
31929SOL    HW195813   7.052   2.974   7.546
31929SOL    HW295814   6.928   3.077   7.519
31930SOL     OW95815   5.883   1.897   7.619
31930SOL    HW195816   5.932   1.981   7.598
31930SOL    HW295817   5.945   1.832   7.664
31931SOL     OW95818   6.521   2.098   7.928
31931SOL    HW195819   6.473   2.139   7.850
31931SOL    HW295820   6.620   2.096   7.909
31932SOL     OW95821   6.662   2.545   8.912
31932SOL    HW195822   6.582   2.484   8.915
31932SOL    HW295823   6.743   2.492   8.888
31933SOL     OW95824   6.813   3.432   8.241
31933SOL    HW195825   6.834   3.506   8.176
31933SOL    HW295826   6.881   3.432   8.314
31934SOL     OW95827   6.045   3.014   8.189
31934SOL    HW195828   5.974   2.987   8.254
31934SOL    HW295829   6.019   2.986   8.096
31935SOL     OW95830   6.857   3.659   8.039
31935SOL    HW195831   6.901   3.723   7.975
31935SOL    HW295832   6.807   3.711   8.109
31936SOL     OW95833   6.618   2.411   7.464
31936SOL    HW195834   6.577   2.493   7.425
31936SOL    HW295835   6.682   2.437   7.537
31937SOL     OW95836   5.664   2.418   8.834
31937SOL    HW195837   5.756   2.417   8.793
31937SOL    HW295838   5.658   2.492   8.901
31938SOL     OW95839   6.147   2.084   8.595
31938SOL    HW195840   6.185   2.000   8.632
31938SOL    HW295841   6.059   2.103   8.639
31939SOL     OW95842   6.452   2.316   8.090
31939SOL    HW195843   6.420   2.388   8.028
31939SOL    HW295844   6.476   2.235   8.037
31940SOL     OW95845   6.603   1.901   8.201
31940SOL    HW195846   6.531   1.906   8.132
31940SOL    HW295847   6.579   1.832   8.270
31941SOL     OW95848   7.015   3.035   8.315
31941SOL    HW195849   6.960   2.951   8.308
31941SOL    HW295850   7.041   3.064   8.223
31942SOL     OW95851   7.052   2.452   8.440
31942SOL    HW195852   7.022   2.357   8.447
31942SOL    HW295853   7.125   2.468   8.506
31943SOL     OW95854   7.443   2.695   7.825
31943SOL    HW195855   7.485   2.631   7.889
31943SOL    HW295856   7.405   2.644   7.747
31944SOL     OW95857   6.074   3.247   7.622
31944SOL    HW195858   5.987   3.232   7.669
31944SOL    HW295859   6.057   3.273   7.527
31945SOL     OW95860   7.250   3.142   8.105
31945SOL    HW195861   7.349   3.150   8.119
31945SOL    HW295862   7.205   3.226   8.136
31946SOL     OW95863   6.976   2.437   7.526
31946SOL    HW195864   6.922   2.416   7.607
31946SOL    HW295865   7.067   2.396   7.535
31947SOL     OW95866   6.113   2.118   7.776
31947SOL    HW195867   6.140   2.059   7.701
31947SOL    HW295868   6.113   2.213   7.745
31948SOL     OW95869   7.340   3.085   9.036
31948SOL    HW195870   7.431   3.046   9.023
31948SOL    HW295871   7.348   3.181   9.060
31949SOL     OW95872   6.650   3.209   8.788
31949SOL    HW195873   6.570   3.186   8.843
31949SOL    HW295874   6.733   3.183   8.837
31950SOL     OW95875   7.178   3.491   9.073
31950SOL    HW195876   7.205   3.525   8.983
31950SOL    HW295877   7.257   3.453   9.119
31951SOL     OW95878   6.697   3.057   8.548
31951SOL    HW195879   6.657   3.101   8.629
31951SOL    HW295880   6.656   3.094   8.465
31952SOL     OW95881   7.224   2.961   8.527
31952SOL    HW195882   7.229   3.042   8.586
31952SOL    HW295883   7.138   2.963   8.476
31953SOL     OW95884   6.501   1.951   8.850
31953SOL    HW195885   6.526   1.931   8.755
31953SOL    HW295886   6.573   2.007   8.892
31954SOL     OW95887   6.566   2.978   9.167
31954SOL    HW195888   6.467   2.984   9.177
31954SOL    HW295889   6.589   2.898   9.111
31955SOL     OW95890   6.291   2.912   7.816
31955SOL    HW195891   6.277   2.919   7.915
31955SOL    HW295892   6.375   2.861   7.798
31956SOL     OW95893   5.996   2.675   8.699
31956SOL    HW195894   6.082   2.687   8.749
31956SOL    HW295895   5.954   2.588   8.726
31957SOL     OW95896   6.860   2.248   8.710
31957SOL    HW195897   6.881   2.322   8.774
31957SOL    HW295898   6.771   2.265   8.667
31958SOL     OW95899   5.650   3.426   8.779
31958SOL    HW195900   5.604   3.508   8.745
31958SOL    HW295901   5.748   3.445   8.788
31959SOL     OW95902   5.953   2.962   7.949
31959SOL    HW195903   5.946   3.045   7.893
31959SOL    HW295904   5.957   2.882   7.889
31960SOL     OW95905   6.152   2.399   8.313
31960SOL    HW195906   6.164   2.465   8.239
31960SOL    HW295907   6.198   2.433   8.396
31961SOL     OW95908   6.838   3.210   7.836
31961SOL    HW195909   6.888   3.287   7.876
31961SOL    HW295910   6.743   3.212   7.868
31962SOL     OW95911   6.858   3.307   8.590
31962SOL    HW195912   6.905   3.320   8.677
31962SOL    HW295913   6.792   3.233   8.599
31963SOL     OW95914   7.168   2.501   7.920
31963SOL    HW195915   7.137   2.562   7.993
31963SOL    HW295916   7.218   2.553   7.851
31964SOL     OW95917   5.940   3.372   8.777
31964SOL    HW195918   5.919   3.328   8.690
31964SOL    HW295919   6.037   3.398   8.780
31965SOL     OW95920   5.988   2.613   9.046
31965SOL    HW195921   6.056   2.668   8.999
31965SOL    HW295922   6.028   2.525   9.073
31966SOL     OW95923   7.173   2.641   9.118
31966SOL    HW195924   7.081   2.679   9.113
31966SOL    HW295925   7.233   2.688   9.053
31967SOL     OW95926   6.599   1.967   9.218
31967SOL    HW195927   6.605   2.052   9.166
31967SOL    HW295928   6.631   1.891   9.161
31968SOL     OW95929   6.090   1.912   9.188
31968SOL    HW195930   6.048   1.855   9.118
31968SOL    HW295931   6.024   1.981   9.220
31969SOL     OW95932   6.159   2.732   8.477
31969SOL    HW195933   6.203   2.821   8.468
31969SOL    HW295934   6.096   2.732   8.554
31970SOL     OW95935   6.946   2.724   8.493
31970SOL    HW195936   6.871   2.724   8.427
31970SOL    HW295937   6.983   2.632   8.502
31971SOL     OW95938   6.795   2.387   7.723
31971SOL    HW195939   6.808   2.303   7.777
31971SOL    HW295940   6.766   2.461   7.783
31972SOL     OW95941   5.893   2.075   8.679
31972SOL    HW195942   5.870   2.112   8.769
31972SOL    HW295943   5.863   1.980   8.673
31973SOL     OW95944   5.623   3.172   8.730
31973SOL    HW195945   5.676   3.123   8.798
31973SOL    HW295946   5.645   3.270   8.735
31974SOL     OW95947   6.318   2.496   8.512
31974SOL    HW195948   6.377   2.470   8.436
31974SOL    HW295949   6.290   2.592   8.501
31975SOL     OW95950   7.314   2.797   9.302
31975SOL    HW195951   7.268   2.790   9.213
31975SOL    HW295952   7.252   2.841   9.368
31976SOL     OW95953   5.893   1.925   8.066
31976SOL    HW195954   5.882   2.019   8.099
31976SOL    HW295955   5.888   1.862   8.143
31977SOL     OW95956   7.208   2.229   7.822
31977SOL    HW195957   7.210   2.153   7.886
31977SOL    HW295958   7.160   2.306   7.862
31978SOL     OW95959   6.609   2.628   8.414
31978SOL    HW195960   6.624   2.649   8.510
31978SOL    HW295961   6.579   2.533   8.405
31979SOL     OW95962   6.566   3.435   9.148
31979SOL    HW195963   6.546   3.479   9.060
31979SOL    HW295964   6.605   3.344   9.132
31980SOL     OW95965   7.445   3.380   9.053
31980SOL    HW195966   7.459   3.407   8.958
31980SOL    HW295967   7.528   3.402   9.106
31981SOL     OW95968   5.936   2.760   9.252
31981SOL    HW195969   6.012   2.804   9.300
31981SOL    HW295970   5.971   2.713   9.170
31982SOL     OW95971   7.126   2.136   7.573
31982SOL    HW195972   7.065   2.061   7.596
31982SOL    HW295973   7.148   2.188   7.656
31983SOL     OW95974   6.889   2.700   7.490
31983SOL    HW195975   6.923   2.607   7.505
31983SOL    HW295976   6.907   2.727   7.395
31984SOL     OW95977   6.654   3.195   8.297
31984SOL    HW195978   6.661   3.111   8.242
31984SOL    HW295979   6.716   3.264   8.261
31985SOL     OW95980   5.905   2.672   8.397
31985SOL    HW195981   5.998   2.708   8.402
31985SOL    HW295982   5.899   2.587   8.449
31986SOL     OW95983   5.925   2.371   8.454
31986SOL    HW195984   5.873   2.288   8.437
31986SOL    HW295985   6.002   2.376   8.390
31987SOL     OW95986   6.724   2.242   9.126
31987SOL    HW195987   6.679   2.305   9.190
31987SOL    HW295988   6.817   2.273   9.109
31988SOL     OW95989   6.746   2.069   8.925
31988SOL    HW195990   6.746   2.133   9.002
31988SOL    HW295991   6.774   2.117   8.842
31989SOL     OW95992   5.594   3.188   7.648
31989SOL    HW195993   5.501   3.209   7.617
31989SOL    HW295994   5.604   3.089   7.661
31990SOL     OW95995   5.674   3.663   8.375
31990SOL    HW195996   5.632   3.577   8.348
31990SOL    HW295997   5.768   3.666   8.341
31991SOL     OW95998   6.090   3.430   8.358
31991SOL    HW195999   6.156   3.504   8.367
31991SOL    HW296000   6.134   3.351   8.316
31992SOL     OW96001   6.588   2.658   8.686
31992SOL    HW196002   6.629   2.626   8.772
31992SOL    HW296003   6.492   2.631   8.683
31993SOL     OW96004   5.626   2.406   8.562
31993SOL    HW196005   5.711   2.373   8.521
31993SOL    HW296006   5.639   2.421   8.660
31994SOL     OW96007   5.775   2.382   9.170
31994SOL    HW196008   5.834   2.342   9.100
31994SOL    HW296009   5.717   2.453   9.129
31995SOL     OW96010   6.955   2.812   9.108
31995SOL    HW196011   6.994   2.901   9.128
31995SOL    HW296012   6.965   2.792   9.011
31996SOL     OW96013   6.401   2.434   7.773
31996SOL    HW196014   6.408   2.345   7.727
31996SOL    HW296015   6.307   2.468   7.765
31997SOL     OW96016   7.243   2.466   8.654
31997SOL    HW196017   7.205   2.397   8.716
31997SOL    HW296018   7.325   2.430   8.610
31998SOL     OW96019   5.838   3.426   9.192
31998SOL    HW196020   5.808   3.483   9.268
31998SOL    HW296021   5.831   3.329   9.218
31999SOL     OW96022   6.257   2.326   8.717
31999SOL    HW196023   6.223   2.237   8.687
31999SOL    HW296024   6.283   2.380   8.637
32000SOL     OW96025   6.516   3.540   8.913
32000SOL    HW196026   6.492   3.522   8.818
32000SOL    HW296027   6.546   3.634   8.923
32001SOL     OW96028   6.059   2.362   7.639
32001SOL    HW196029   6.120   2.442   7.643
32001SOL    HW296030   5.964   2.393   7.646
32002SOL     OW96031   5.745   2.999   8.914
32002SOL    HW196032   5.767   2.938   8.990
32002SOL    HW296033   5.755   2.950   8.828
32003SOL     OW96034   6.933   2.921   8.682
32003SOL    HW196035   6.957   2.858   8.608
32003SOL    HW296036   6.843   2.961   8.664
32004SOL     OW96037   6.888   2.717   7.757
32004SOL    HW196038   6.802   2.686   7.799
32004SOL    HW296039   6.884   2.703   7.658
32005SOL     OW96040   7.345   3.609   8.602
32005SOL    HW196041   7.406   3.639   8.529
32005SOL    HW296042   7.307   3.520   8.580
32006SOL     OW96043   6.838   3.593   8.576
32006SOL    HW196044   6.922   3.598   8.522
32006SOL    HW296045   6.815   3.497   8.594
32007SOL     OW96046   5.669   3.120   8.470
32007SOL    HW196047   5.664   3.119   8.570
32007SOL    HW296048   5.586   3.079   8.432
32008SOL     OW96049   6.274   3.524   9.164
32008SOL    HW196050   6.218   3.605   9.173
32008SOL    HW296051   6.326   3.528   9.078
32009SOL     OW96052   7.312   1.997   7.971
32009SOL    HW196053   7.385   1.980   7.904
32009SOL    HW296054   7.281   1.910   8.009
32010SOL     OW96055   6.974   3.435   7.925
32010SOL    HW196056   7.041   3.447   7.851
32010SOL    HW296057   6.934   3.524   7.948
32011SOL     OW96058   5.716   3.656   9.299
32011SOL    HW196059   5.675   3.582   9.352
32011SOL    HW296060   5.780   3.707   9.357
32012SOL     OW96061   6.866   2.789   8.120
32012SOL    HW196062   6.926   2.708   8.122
32012SOL    HW296063   6.906   2.858   8.060
32013SOL     OW96064   6.416   3.135   8.870
32013SOL    HW196065   6.411   3.168   8.965
32013SOL    HW296066   6.330   3.154   8.824
32014SOL     OW96067   6.258   3.478   7.602
32014SOL    HW196068   6.267   3.488   7.503
32014SOL    HW296069   6.218   3.389   7.623
32015SOL     OW96070   7.236   3.582   8.842
32015SOL    HW196071   7.289   3.592   8.758
32015SOL    HW296072   7.209   3.672   8.876
32016SOL     OW96073   7.427   2.037   8.411
32016SOL    HW196074   7.466   1.952   8.375
32016SOL    HW296075   7.329   2.039   8.392
32017SOL     OW96076   5.849   2.188   8.168
32017SOL    HW196077   5.770   2.239   8.134
32017SOL    HW296078   5.840   2.173   8.266
32018SOL     OW96079   6.780   3.474   7.479
32018SOL    HW196080   6.786   3.381   7.516
32018SOL    HW296081   6.721   3.474   7.399
32019SOL     OW96082   6.408   2.864   8.820
32019SOL    HW196083   6.448   2.863   8.728
32019SOL    HW296084   6.418   2.956   8.860
32020SOL     OW96085   6.502   2.772   7.739
32020SOL    HW196086   6.565   2.810   7.671
32020SOL    HW296087   6.542   2.689   7.778
32021SOL     OW96088   7.090   3.469   7.492
32021SOL    HW196089   6.998   3.506   7.499
32021SOL    HW296090   7.128   3.489   7.402
32022SOL     OW96091   5.958   3.150   8.938
32022SOL    HW196092   5.945   3.243   8.904
32022SOL    HW296093   5.874   3.098   8.925
32023SOL     OW96094   7.200   3.154   8.737
32023SOL    HW196095   7.260   3.157   8.817
32023SOL    HW296096   7.125   3.218   8.750
32024SOL     OW96097   6.625   2.960   8.144
32024SOL    HW196098   6.555   2.913   8.198
32024SOL    HW296099   6.684   2.892   8.101
32025SOL     OW96100   6.600   2.098   8.419
32025SOL    HW196101   6.592   2.062   8.326
32025SOL    HW296102   6.598   2.022   8.484
32026SOL     OW96103   6.176   3.349   7.939
32026SOL    HW196104   6.218   3.291   7.869
32026SOL    HW296105   6.132   3.428   7.895
32027SOL     OW96106   7.295   2.247   8.829
32027SOL    HW196107   7.368   2.316   8.833
32027SOL    HW296108   7.323   2.172   8.770
32028SOL     OW96109   5.841   3.210   7.738
32028SOL    HW196110   5.745   3.211   7.711
32028SOL    HW296111   5.853   3.263   7.822
32029SOL     OW96112   5.691   2.875   9.174
32029SOL    HW196113   5.614   2.842   9.228
32029SOL    HW296114   5.776   2.845   9.216
32030SOL     OW96115   6.258   2.065   8.937
32030SOL    HW196116   6.348   2.049   8.897
32030SOL    HW296117   6.266   2.070   9.036
32031SOL     OW96118   5.661   2.207   7.481
32031SOL    HW196119   5.569   2.179   7.452
32031SOL    HW296120   5.692   2.284   7.425
32032SOL     OW96121   7.026   2.718   8.846
32032SOL    HW196122   6.969   2.770   8.783
32032SOL    HW296123   7.122   2.730   8.822
32033SOL     OW96124   5.658   2.028   7.766
32033SOL    HW196125   5.641   2.111   7.712
32033SOL    HW296126   5.748   1.991   7.744
32034SOL     OW96127   6.769   3.197   7.567
32034SOL    HW196128   6.670   3.186   7.569
32034SOL    HW296129   6.803   3.212   7.660
32035SOL     OW96130   6.199   2.704   8.879
32035SOL    HW196131   6.255   2.785   8.862
32035SOL    HW296132   6.258   2.624   8.882
32036SOL     OW96133   7.079   3.629   8.407
32036SOL    HW196134   7.112   3.693   8.338
32036SOL    HW296135   7.145   3.623   8.482
32037SOL     OW96136   6.302   2.427   9.156
32037SOL    HW196137   6.321   2.492   9.230
32037SOL    HW296138   6.362   2.347   9.165
32038SOL     OW96139   7.036   3.082   9.081
32038SOL    HW196140   7.027   3.072   9.180
32038SOL    HW296141   7.132   3.075   9.055
32039SOL     OW96142   5.976   3.603   9.008
32039SOL    HW196143   5.885   3.644   9.006
32039SOL    HW296144   5.969   3.509   9.040
32040SOL     OW96145   7.260   2.745   8.702
32040SOL    HW196146   7.233   2.656   8.665
32040SOL    HW296147   7.261   2.813   8.629
32041SOL     OW96148   6.811   2.187   7.897
32041SOL    HW196149   6.876   2.113   7.886
32041SOL    HW296150   6.831   2.237   7.981
32042SOL     OW96151   6.180   2.607   8.100
32042SOL    HW196152   6.230   2.692   8.081
32042SOL    HW296153   6.092   2.609   8.052
32043SOL     OW96154   7.363   2.204   9.090
32043SOL    HW196155   7.346   2.235   8.996
32043SOL    HW296156   7.279   2.167   9.128
32044SOL     OW96157   7.316   2.796   8.965
32044SOL    HW196158   7.354   2.887   8.980
32044SOL    HW296159   7.308   2.779   8.866
32045SOL     OW96160   6.445   3.236   7.464
32045SOL    HW196161   6.399   3.251   7.552
32045SOL    HW296162   6.489   3.321   7.434
32046SOL     OW96163   6.247   3.652   8.401
32046SOL    HW196164   6.201   3.740   8.388
32046SOL    HW296165   6.346   3.664   8.394
32047SOL     OW96166   6.445   2.818   8.309
32047SOL    HW196167   6.499   2.749   8.357
32047SOL    HW296168   6.413   2.887   8.375
32048SOL     OW96169   6.669   2.846   7.535
32048SOL    HW196170   6.646   2.899   7.453
32048SOL    HW296171   6.750   2.790   7.516
32049SOL     OW96172   7.447   3.431   8.299
32049SOL    HW196173   7.376   3.419   8.229
32049SOL    HW296174   7.448   3.352   8.359
32050SOL     OW96175   5.807   3.176   9.292
32050SOL    HW196176   5.742   3.103   9.271
32050SOL    HW296177   5.811   3.190   9.390
32051SOL     OW96178   5.665   3.102   8.101
32051SOL    HW196179   5.664   3.055   8.189
32051SOL    HW296180   5.747   3.074   8.050
32052SOL     OW96181   6.258   3.253   9.072
32052SOL    HW196182   6.180   3.203   9.110
32052SOL    HW296183   6.255   3.348   9.103
32053SOL     OW96184   7.410   2.054   8.675
32053SOL    HW196185   7.406   1.964   8.719
32053SOL    HW296186   7.413   2.043   8.576
32054SOL     OW96187   6.014   2.286   7.968
32054SOL    HW196188   6.044   2.214   7.906
32054SOL    HW296189   5.975   2.246   8.051
32055SOL     OW96190   7.291   3.349   8.552
32055SOL    HW196191   7.198   3.324   8.525
32055SOL    HW296192   7.317   3.299   8.634
32056SOL     OW96193   5.903   2.409   8.728
32056SOL    HW196194   5.941   2.350   8.800
32056SOL    HW296195   5.943   2.383   8.640
32057SOL     OW96196   6.398   3.448   8.135
32057SOL    HW196197   6.430   3.458   8.041
32057SOL    HW296198   6.319   3.386   8.137
32058SOL     OW96199   7.010   2.076   8.560
32058SOL    HW196200   7.062   2.011   8.615
32058SOL    HW296201   6.961   2.139   8.621
32059SOL     OW96202   6.587   1.896   8.602
32059SOL    HW196203   6.524   1.824   8.571
32059SOL    HW296204   6.680   1.860   8.602
32060SOL     OW96205   6.356   3.192   7.749
32060SOL    HW196206   6.310   3.105   7.766
32060SOL    HW296207   6.447   3.189   7.790
32061SOL     OW96208   6.204   3.429   8.732
32061SOL    HW196209   6.199   3.511   8.789
32061SOL    HW296210   6.293   3.426   8.687
32062SOL     OW96211   6.938   1.914   7.616
32062SOL    HW196212   6.973   1.873   7.532
32062SOL    HW296213   6.848   1.876   7.636
32063SOL     OW96214   6.886   2.315   8.139
32063SOL    HW196215   6.827   2.395   8.143
32063SOL    HW296216   6.901   2.280   8.232
32064SOL     OW96217   7.179   2.083   8.330
32064SOL    HW196218   7.095   2.082   8.384
32064SOL    HW296219   7.181   2.166   8.274
32065SOL     OW96220   5.625   2.939   7.748
32065SOL    HW196221   5.724   2.928   7.739
32065SOL    HW296222   5.585   2.853   7.780
32066SOL     OW96223   6.461   3.508   7.785
32066SOL    HW196224   6.384   3.473   7.731
32066SOL    HW296225   6.429   3.579   7.847
32067SOL     OW96226   5.816   2.490   9.423
32067SOL    HW196227   5.723   2.488   9.460
32067SOL    HW296228   5.817   2.451   9.331
32068SOL     OW96229   5.811   2.137  10.306
32068SOL    HW196230   5.846   2.120  10.398
32068SOL    HW296231   5.723   2.092  10.294
32069SOL     OW96232   5.605   2.230   9.957
32069SOL    HW196233   5.523   2.273   9.996
32069SOL    HW296234   5.577   2.157   9.894
32070SOL     OW96235   6.155   3.137  10.475
32070SOL    HW196236   6.062   3.130  10.438
32070SOL    HW296237   6.166   3.226  10.519
32071SOL     OW96238   7.141   3.373  10.013
32071SOL    HW196239   7.084   3.357  10.094
32071SOL    HW296240   7.082   3.383   9.933
32072SOL     OW96241   6.721   2.565  10.027
32072SOL    HW196242   6.778   2.643  10.002
32072SOL    HW296243   6.661   2.591  10.103
32073SOL     OW96244   7.341   2.469   9.541
32073SOL    HW196245   7.329   2.456   9.442
32073SOL    HW296246   7.311   2.388   9.590
32074SOL     OW96247   6.354   3.006  10.333
32074SOL    HW196248   6.276   3.023  10.393
32074SOL    HW296249   6.388   3.093  10.297
32075SOL     OW96250   6.436   2.660  11.133
32075SOL    HW196251   6.432   2.736  11.198
32075SOL    HW296252   6.458   2.696  11.042
32076SOL     OW96253   6.271   2.874   9.975
32076SOL    HW196254   6.340   2.858  10.045
32076SOL    HW296255   6.198   2.931  10.013
32077SOL     OW96256   6.272   3.023  11.113
32077SOL    HW196257   6.332   3.102  11.127
32077SOL    HW296258   6.186   3.054  11.072
32078SOL     OW96259   5.921   3.297  10.371
32078SOL    HW196260   5.843   3.266  10.318
32078SOL    HW296261   5.979   3.355  10.314
32079SOL     OW96262   7.046   3.367  10.649
32079SOL    HW196263   7.070   3.461  10.675
32079SOL    HW296264   7.030   3.313  10.731
32080SOL     OW96265   6.024   2.254  10.809
32080SOL    HW196266   6.106   2.198  10.818
32080SOL    HW296267   5.943   2.196  10.813
32081SOL     OW96268   7.189   2.309  10.047
32081SOL    HW196269   7.115   2.355   9.997
32081SOL    HW296270   7.240   2.377  10.100
32082SOL     OW96271   5.817   3.575   9.793
32082SOL    HW196272   5.851   3.652   9.847
32082SOL    HW296273   5.861   3.575   9.703
32083SOL     OW96274   6.713   3.203  11.000
32083SOL    HW196275   6.760   3.203  11.088
32083SOL    HW296276   6.665   3.116  10.989
32084SOL     OW96277   5.816   3.296   9.848
32084SOL    HW196278   5.790   3.392   9.848
32084SOL    HW296279   5.745   3.242   9.893
32085SOL     OW96280   5.826   2.953  10.196
32085SOL    HW196281   5.840   2.869  10.248
32085SOL    HW296282   5.771   3.017  10.251
32086SOL     OW96283   6.206   3.648  10.749
32086SOL    HW196284   6.114   3.631  10.784
32086SOL    HW296285   6.234   3.740  10.775
32087SOL     OW96286   6.192   2.826   9.433
32087SOL    HW196287   6.199   2.910   9.379
32087SOL    HW296288   6.238   2.839   9.521
32088SOL     OW96289   7.180   1.976  10.790
32088SOL    HW196290   7.162   2.043  10.718
32088SOL    HW296291   7.177   2.022  10.879
32089SOL     OW96292   5.708   2.505   9.873
32089SOL    HW196293   5.663   2.417   9.890
32089SOL    HW296294   5.707   2.559   9.957
32090SOL     OW96295   7.428   3.629   9.669
32090SOL    HW196296   7.482   3.600   9.749
32090SOL    HW296297   7.458   3.719   9.640
32091SOL     OW96298   5.613   3.458   9.427
32091SOL    HW196299   5.594   3.362   9.448
32091SOL    HW296300   5.580   3.516   9.502
32092SOL     OW96301   7.275   2.784   9.922
32092SOL    HW196302   7.370   2.755   9.930
32092SOL    HW296303   7.267   2.849   9.847
32093SOL     OW96304   7.227   2.970   9.742
32093SOL    HW196305   7.313   2.972   9.690
32093SOL    HW296306   7.241   3.017   9.830
32094SOL     OW96307   5.699   2.599  10.907
32094SOL    HW196308   5.787   2.586  10.952
32094SOL    HW296309   5.686   2.696  10.885
32095SOL     OW96310   6.199   3.227  10.036
32095SOL    HW196311   6.150   3.140  10.045
32095SOL    HW296312   6.176   3.270   9.949
32096SOL     OW96313   6.879   3.090  10.733
32096SOL    HW196314   6.916   3.017  10.675
32096SOL    HW296315   6.931   3.095  10.818
32097SOL     OW96316   6.395   1.866   9.812
32097SOL    HW196317   6.435   1.957   9.803
32097SOL    HW296318   6.295   1.874   9.818
32098SOL     OW96319   5.783   2.838  10.574
32098SOL    HW196320   5.872   2.793  10.560
32098SOL    HW296321   5.710   2.773  10.555
32099SOL     OW96322   7.111   2.861   9.500
32099SOL    HW196323   7.048   2.785   9.513
32099SOL    HW296324   7.159   2.879   9.586
32100SOL     OW96325   6.773   3.654  10.926
32100SOL    HW196326   6.797   3.714  10.850
32100SOL    HW296327   6.780   3.559  10.896
32101SOL     OW96328   5.903   2.113  11.111
32101SOL    HW196329   5.974   2.184  11.117
32101SOL    HW296330   5.815   2.152  11.139
32102SOL     OW96331   7.052   3.279  10.263
32102SOL    HW196332   6.993   3.285  10.343
32102SOL    HW296333   7.037   3.191  10.217
32103SOL     OW96334   7.253   3.576   9.882
32103SOL    HW196335   7.212   3.553   9.794
32103SOL    HW296336   7.235   3.502   9.947
32104SOL     OW96337   6.184   2.591   9.580
32104SOL    HW196338   6.208   2.660   9.512
32104SOL    HW296339   6.106   2.624   9.634
32105SOL     OW96340   6.867   2.207  10.254
32105SOL    HW196341   6.781   2.157  10.241
32105SOL    HW296342   6.929   2.153  10.310
32106SOL     OW96343   7.162   3.524   9.617
32106SOL    HW196344   7.251   3.570   9.620
32106SOL    HW296345   7.141   3.500   9.522
32107SOL     OW96346   6.393   2.467  10.775
32107SOL    HW196347   6.346   2.464  10.864
32107SOL    HW296348   6.342   2.412  10.709
32108SOL     OW96349   6.980   2.331  10.984
32108SOL    HW196350   6.960   2.374  11.072
32108SOL    HW296351   7.058   2.269  10.993
32109SOL     OW96352   6.559   2.752  10.882
32109SOL    HW196353   6.605   2.668  10.853
32109SOL    HW296354   6.503   2.786  10.807
32110SOL     OW96355   6.577   2.272  10.552
32110SOL    HW196356   6.500   2.306  10.606
32110SOL    HW296357   6.543   2.221  10.473
32111SOL     OW96358   6.627   2.563   9.739
32111SOL    HW196359   6.653   2.559   9.835
32111SOL    HW296360   6.542   2.512   9.725
32112SOL     OW96361   5.662   2.673  10.099
32112SOL    HW196362   5.761   2.661  10.108
32112SOL    HW296363   5.638   2.768  10.120
32113SOL     OW96364   5.716   3.683  10.881
32113SOL    HW196365   5.706   3.668  10.980
32113SOL    HW296366   5.630   3.719  10.845
32114SOL     OW96367   6.451   2.210   9.505
32114SOL    HW196368   6.510   2.273   9.456
32114SOL    HW296369   6.470   2.116   9.476
32115SOL     OW96370   7.305   2.447  11.141
32115SOL    HW196371   7.279   2.536  11.105
32115SOL    HW296372   7.303   2.379  11.068
32116SOL     OW96373   6.948   3.006   9.855
32116SOL    HW196374   7.031   2.977   9.807
32116SOL    HW296375   6.899   3.073   9.799
32117SOL     OW96376   6.136   2.058  10.195
32117SOL    HW196377   6.131   2.053  10.295
32117SOL    HW296378   6.138   2.154  10.166
32118SOL     OW96379   6.594   3.318   9.787
32118SOL    HW196380   6.548   3.390   9.735
32118SOL    HW296381   6.590   3.338   9.885
32119SOL     OW96382   5.937   3.663  10.163
32119SOL    HW196383   5.987   3.577  10.169
32119SOL    HW296384   6.002   3.740  10.160
32120SOL     OW96385   7.381   2.928  10.183
32120SOL    HW196386   7.319   2.913  10.107
32120SOL    HW296387   7.329   2.939  10.268
32121SOL     OW96388   6.813   3.412  10.816
32121SOL    HW196389   6.819   3.335  10.880
32121SOL    HW296390   6.761   3.386  10.736
32122SOL     OW96391   5.907   2.805   9.552
32122SOL    HW196392   5.989   2.844   9.510
32122SOL    HW296393   5.880   2.723   9.503
32123SOL     OW96394   7.044   2.597  10.038
32123SOL    HW196395   7.039   2.532  10.113
32123SOL    HW296396   7.124   2.656  10.051
32124SOL     OW96397   6.047   3.128  11.037
32124SOL    HW196398   5.997   3.129  10.951
32124SOL    HW296399   5.984   3.110  11.113
32125SOL     OW96400   6.697   3.638   9.547
32125SOL    HW196401   6.637   3.576   9.597
32125SOL    HW296402   6.728   3.594   9.462
32126SOL     OW96403   5.788   2.147  10.808
32126SOL    HW196404   5.708   2.207  10.795
32126SOL    HW296405   5.778   2.098  10.894
32127SOL     OW96406   7.218   3.239   9.391
32127SOL    HW196407   7.186   3.333   9.381
32127SOL    HW296408   7.142   3.176   9.379
32128SOL     OW96409   6.050   3.605   9.633
32128SOL    HW196410   6.083   3.644   9.719
32128SOL    HW296411   6.126   3.598   9.568
32129SOL     OW96412   6.986   1.969   9.736
32129SOL    HW196413   6.962   1.932   9.646
32129SOL    HW296414   7.085   1.985   9.740
32130SOL     OW96415   6.526   3.560  10.214
32130SOL    HW196416   6.606   3.503  10.235
32130SOL    HW296417   6.477   3.520  10.137
32131SOL     OW96418   5.968   2.562   9.790
32131SOL    HW196419   6.013   2.472   9.787
32131SOL    HW296420   5.874   2.551   9.823
32132SOL     OW96421   7.133   2.084  11.039
32132SOL    HW196422   7.128   2.121  11.131
32132SOL    HW296423   7.061   2.015  11.027
32133SOL     OW96424   6.200   1.984   9.427
32133SOL    HW196425   6.298   1.962   9.434
32133SOL    HW296426   6.169   1.967   9.334
32134SOL     OW96427   6.367   2.126  11.059
32134SOL    HW196428   6.434   2.065  11.102
32134SOL    HW296429   6.294   2.145  11.124
32135SOL     OW96430   6.474   3.376  10.505
32135SOL    HW196431   6.451   3.351  10.411
32135SOL    HW296432   6.535   3.307  10.544
32136SOL     OW96433   6.937   2.452  10.743
32136SOL    HW196434   6.965   2.409  10.828
32136SOL    HW296435   6.962   2.548  10.744
32137SOL     OW96436   6.389   3.264  10.234
32137SOL    HW196437   6.479   3.278  10.192
32137SOL    HW296438   6.318   3.266  10.163
32138SOL     OW96439   6.508   2.365  10.209
32138SOL    HW196440   6.483   2.356  10.113
32138SOL    HW296441   6.556   2.283  10.240
32139SOL     OW96442   6.125   1.926   9.822
32139SOL    HW196443   6.044   1.927   9.880
32139SOL    HW296444   6.128   2.009   9.767
32140SOL     OW96445   7.020   3.050   9.351
32140SOL    HW196446   7.052   2.974   9.408
32140SOL    HW296447   6.928   3.077   9.381
32141SOL     OW96448   5.883   1.897   9.481
32141SOL    HW196449   5.932   1.981   9.460
32141SOL    HW296450   5.945   1.832   9.526
32142SOL     OW96451   6.521   2.098   9.790
32142SOL    HW196452   6.473   2.139   9.712
32142SOL    HW296453   6.620   2.096   9.771
32143SOL     OW96454   6.662   2.545  10.774
32143SOL    HW196455   6.582   2.484  10.777
32143SOL    HW296456   6.743   2.492  10.750
32144SOL     OW96457   6.813   3.432  10.103
32144SOL    HW196458   6.834   3.506  10.038
32144SOL    HW296459   6.881   3.432  10.176
32145SOL     OW96460   6.045   3.014  10.051
32145SOL    HW196461   5.974   2.987  10.116
32145SOL    HW296462   6.019   2.986   9.958
32146SOL     OW96463   6.857   3.659   9.901
32146SOL    HW196464   6.901   3.723   9.837
32146SOL    HW296465   6.807   3.711   9.971
32147SOL     OW96466   6.618   2.411   9.326
32147SOL    HW196467   6.577   2.493   9.287
32147SOL    HW296468   6.682   2.437   9.399
32148SOL     OW96469   5.664   2.418  10.696
32148SOL    HW196470   5.756   2.417  10.655
32148SOL    HW296471   5.658   2.492  10.763
32149SOL     OW96472   6.452   2.316   9.952
32149SOL    HW196473   6.420   2.388   9.890
32149SOL    HW296474   6.476   2.235   9.899
32150SOL     OW96475   6.603   1.901  10.063
32150SOL    HW196476   6.531   1.906   9.994
32150SOL    HW296477   6.579   1.832  10.132
32151SOL     OW96478   7.015   3.035  10.177
32151SOL    HW196479   6.960   2.951  10.170
32151SOL    HW296480   7.041   3.064  10.085
32152SOL     OW96481   7.052   2.452  10.302
32152SOL    HW196482   7.022   2.357  10.309
32152SOL    HW296483   7.125   2.468  10.368
32153SOL     OW96484   7.443   2.695   9.687
32153SOL    HW196485   7.485   2.631   9.751
32153SOL    HW296486   7.405   2.644   9.609
32154SOL     OW96487   6.074   3.247   9.484
32154SOL    HW196488   5.987   3.232   9.531
32154SOL    HW296489   6.057   3.273   9.389
32155SOL     OW96490   7.250   3.142   9.967
32155SOL    HW196491   7.349   3.150   9.981
32155SOL    HW296492   7.205   3.226   9.998
32156SOL     OW96493   6.976   2.437   9.388
32156SOL    HW196494   6.922   2.416   9.469
32156SOL    HW296495   7.067   2.396   9.397
32157SOL     OW96496   6.113   2.118   9.638
32157SOL    HW196497   6.140   2.059   9.563
32157SOL    HW296498   6.113   2.213   9.607
32158SOL     OW96499   7.340   3.085  10.898
32158SOL    HW196500   7.431   3.046  10.885
32158SOL    HW296501   7.348   3.181  10.922
32159SOL     OW96502   6.650   3.209  10.650
32159SOL    HW196503   6.570   3.186  10.705
32159SOL    HW296504   6.733   3.183  10.699
32160SOL     OW96505   7.178   3.491  10.935
32160SOL    HW196506   7.205   3.525  10.845
32160SOL    HW296507   7.257   3.453  10.981
32161SOL     OW96508   6.697   3.057  10.410
32161SOL    HW196509   6.657   3.101  10.491
32161SOL    HW296510   6.656   3.094  10.327
32162SOL     OW96511   7.224   2.961  10.389
32162SOL    HW196512   7.229   3.042  10.448
32162SOL    HW296513   7.138   2.963  10.338
32163SOL     OW96514   6.501   1.951  10.712
32163SOL    HW196515   6.526   1.931  10.617
32163SOL    HW296516   6.573   2.007  10.754
32164SOL     OW96517   6.566   2.978  11.029
32164SOL    HW196518   6.467   2.984  11.039
32164SOL    HW296519   6.589   2.898  10.973
32165SOL     OW96520   6.291   2.912   9.678
32165SOL    HW196521   6.277   2.919   9.777
32165SOL    HW296522   6.375   2.861   9.660
32166SOL     OW96523   5.996   2.675  10.561
32166SOL    HW196524   6.082   2.687  10.611
32166SOL    HW296525   5.954   2.588  10.588
32167SOL     OW96526   6.860   2.248  10.572
32167SOL    HW196527   6.881   2.322  10.636
32167SOL    HW296528   6.771   2.265  10.529
32168SOL     OW96529   5.650   3.426  10.641
32168SOL    HW196530   5.604   3.508  10.607
32168SOL    HW296531   5.748   3.445  10.650
32169SOL     OW96532   5.953   2.962   9.811
32169SOL    HW196533   5.946   3.045   9.755
32169SOL    HW296534   5.957   2.882   9.751
32170SOL     OW96535   6.152   2.399  10.175
32170SOL    HW196536   6.164   2.465  10.101
32170SOL    HW296537   6.198   2.433  10.258
32171SOL     OW96538   6.838   3.210   9.698
32171SOL    HW196539   6.888   3.287   9.738
32171SOL    HW296540   6.743   3.212   9.730
32172SOL     OW96541   6.858   3.307  10.452
32172SOL    HW196542   6.905   3.320  10.539
32172SOL    HW296543   6.792   3.233  10.461
32173SOL     OW96544   7.168   2.501   9.782
32173SOL    HW196545   7.137   2.562   9.855
32173SOL    HW296546   7.218   2.553   9.713
32174SOL     OW96547   5.940   3.372  10.639
32174SOL    HW196548   5.919   3.328  10.552
32174SOL    HW296549   6.037   3.398  10.642
32175SOL     OW96550   5.988   2.613  10.908
32175SOL    HW196551   6.056   2.668  10.861
32175SOL    HW296552   6.028   2.525  10.935
32176SOL     OW96553   7.173   2.641  10.980
32176SOL    HW196554   7.081   2.679  10.975
32176SOL    HW296555   7.233   2.688  10.915
32177SOL     OW96556   6.599   1.967  11.080
32177SOL    HW196557   6.605   2.052  11.028
32177SOL    HW296558   6.631   1.891  11.023
32178SOL     OW96559   6.090   1.912  11.050
32178SOL    HW196560   6.048   1.855  10.980
32178SOL    HW296561   6.024   1.981  11.082
32179SOL     OW96562   6.159   2.732  10.339
32179SOL    HW196563   6.203   2.821  10.330
32179SOL    HW296564   6.096   2.732  10.416
32180SOL     OW96565   6.946   2.724  10.355
32180SOL    HW196566   6.871   2.724  10.289
32180SOL    HW296567   6.983   2.632  10.364
32181SOL     OW96568   6.795   2.387   9.585
32181SOL    HW196569   6.808   2.303   9.639
32181SOL    HW296570   6.766   2.461   9.645
32182SOL     OW96571   5.893   2.075  10.541
32182SOL    HW196572   5.870   2.112  10.631
32182SOL    HW296573   5.863   1.980  10.535
32183SOL     OW96574   5.623   3.172  10.592
32183SOL    HW196575   5.676   3.123  10.660
32183SOL    HW296576   5.645   3.270  10.597
32184SOL     OW96577   6.318   2.496  10.374
32184SOL    HW196578   6.377   2.470  10.298
32184SOL    HW296579   6.290   2.592  10.363
32185SOL     OW96580   7.314   2.797  11.164
32185SOL    HW196581   7.268   2.790  11.075
32185SOL    HW296582   7.252   2.841  11.230
32186SOL     OW96583   5.893   1.925   9.928
32186SOL    HW196584   5.882   2.019   9.961
32186SOL    HW296585   5.888   1.862  10.005
32187SOL     OW96586   7.208   2.229   9.684
32187SOL    HW196587   7.210   2.153   9.748
32187SOL    HW296588   7.160   2.306   9.724
32188SOL     OW96589   6.609   2.628  10.276
32188SOL    HW196590   6.624   2.649  10.372
32188SOL    HW296591   6.579   2.533  10.267
32189SOL     OW96592   6.566   3.435  11.010
32189SOL    HW196593   6.546   3.479  10.922
32189SOL    HW296594   6.605   3.344  10.994
32190SOL     OW96595   7.445   3.380  10.915
32190SOL    HW196596   7.459   3.407  10.820
32190SOL    HW296597   7.528   3.402  10.968
32191SOL     OW96598   5.936   2.760  11.114
32191SOL    HW196599   6.012   2.804  11.162
32191SOL    HW296600   5.971   2.713  11.032
32192SOL     OW96601   7.126   2.136   9.435
32192SOL    HW196602   7.065   2.061   9.458
32192SOL    HW296603   7.148   2.188   9.518
32193SOL     OW96604   6.889   2.700   9.352
32193SOL    HW196605   6.923   2.607   9.367
32193SOL    HW296606   6.907   2.727   9.257
32194SOL     OW96607   6.654   3.195  10.159
32194SOL    HW196608   6.661   3.111  10.104
32194SOL    HW296609   6.716   3.264  10.123
32195SOL     OW96610   5.905   2.672  10.259
32195SOL    HW196611   5.998   2.708  10.264
32195SOL    HW296612   5.899   2.587  10.311
32196SOL     OW96613   5.925   2.371  10.316
32196SOL    HW196614   5.873   2.288  10.299
32196SOL    HW296615   6.002   2.376  10.252
32197SOL     OW96616   6.724   2.242  10.988
32197SOL    HW196617   6.679   2.305  11.052
32197SOL    HW296618   6.817   2.273  10.971
32198SOL     OW96619   6.746   2.069  10.787
32198SOL    HW196620   6.746   2.133  10.864
32198SOL    HW296621   6.774   2.117  10.704
32199SOL     OW96622   5.594   3.188   9.510
32199SOL    HW196623   5.501   3.209   9.479
32199SOL    HW296624   5.604   3.089   9.523
32200SOL     OW96625   5.674   3.663  10.237
32200SOL    HW196626   5.632   3.577  10.210
32200SOL    HW296627   5.768   3.666  10.203
32201SOL     OW96628   6.090   3.430  10.220
32201SOL    HW196629   6.156   3.504  10.229
32201SOL    HW296630   6.134   3.351  10.178
32202SOL     OW96631   6.588   2.658  10.548
32202SOL    HW196632   6.629   2.626  10.634
32202SOL    HW296633   6.492   2.631  10.545
32203SOL     OW96634   5.626   2.406  10.424
32203SOL    HW196635   5.711   2.373  10.383
32203SOL    HW296636   5.639   2.421  10.522
32204SOL     OW96637   5.775   2.382  11.032
32204SOL    HW196638   5.834   2.342  10.962
32204SOL    HW296639   5.717   2.453  10.991
32205SOL     OW96640   6.955   2.812  10.970
32205SOL    HW196641   6.994   2.901  10.990
32205SOL    HW296642   6.965   2.792  10.873
32206SOL     OW96643   6.401   2.434   9.635
32206SOL    HW196644   6.408   2.345   9.589
32206SOL    HW296645   6.307   2.468   9.627
32207SOL     OW96646   7.243   2.466  10.516
32207SOL    HW196647   7.205   2.397  10.578
32207SOL    HW296648   7.325   2.430  10.472
32208SOL     OW96649   5.838   3.426  11.054
32208SOL    HW196650   5.808   3.483  11.130
32208SOL    HW296651   5.831   3.329  11.080
32209SOL     OW96652   6.257   2.326  10.579
32209SOL    HW196653   6.223   2.237  10.549
32209SOL    HW296654   6.283   2.380  10.499
32210SOL     OW96655   6.516   3.540  10.775
32210SOL    HW196656   6.492   3.522  10.680
32210SOL    HW296657   6.546   3.634  10.785
32211SOL     OW96658   6.059   2.362   9.501
32211SOL    HW196659   6.120   2.442   9.505
32211SOL    HW296660   5.964   2.393   9.508
32212SOL     OW96661   5.745   2.999  10.776
32212SOL    HW196662   5.767   2.938  10.852
32212SOL    HW296663   5.755   2.950  10.690
32213SOL     OW96664   6.933   2.921  10.544
32213SOL    HW196665   6.957   2.858  10.470
32213SOL    HW296666   6.843   2.961  10.526
32214SOL     OW96667   6.888   2.717   9.619
32214SOL    HW196668   6.802   2.686   9.661
32214SOL    HW296669   6.884   2.703   9.520
32215SOL     OW96670   7.345   3.609  10.464
32215SOL    HW196671   7.406   3.639  10.391
32215SOL    HW296672   7.307   3.520  10.442
32216SOL     OW96673   6.838   3.593  10.438
32216SOL    HW196674   6.922   3.598  10.384
32216SOL    HW296675   6.815   3.497  10.456
32217SOL     OW96676   5.669   3.120  10.332
32217SOL    HW196677   5.664   3.119  10.432
32217SOL    HW296678   5.586   3.079  10.294
32218SOL     OW96679   6.274   3.524  11.026
32218SOL    HW196680   6.218   3.605  11.035
32218SOL    HW296681   6.326   3.528  10.940
32219SOL     OW96682   7.312   1.997   9.833
32219SOL    HW196683   7.385   1.980   9.766
32219SOL    HW296684   7.281   1.910   9.871
32220SOL     OW96685   6.974   3.435   9.787
32220SOL    HW196686   7.041   3.447   9.713
32220SOL    HW296687   6.934   3.524   9.810
32221SOL     OW96688   5.716   3.656  11.161
32221SOL    HW196689   5.675   3.582  11.214
32221SOL    HW296690   5.780   3.707  11.219
32222SOL     OW96691   6.866   2.789   9.982
32222SOL    HW196692   6.926   2.708   9.984
32222SOL    HW296693   6.906   2.858   9.922
32223SOL     OW96694   6.416   3.135  10.732
32223SOL    HW196695   6.411   3.168  10.827
32223SOL    HW296696   6.330   3.154  10.686
32224SOL     OW96697   6.258   3.478   9.464
32224SOL    HW196698   6.267   3.488   9.365
32224SOL    HW296699   6.218   3.389   9.485
32225SOL     OW96700   7.236   3.582  10.704
32225SOL    HW196701   7.289   3.592  10.620
32225SOL    HW296702   7.209   3.672  10.738
32226SOL     OW96703   7.427   2.037  10.273
32226SOL    HW196704   7.466   1.952  10.237
32226SOL    HW296705   7.329   2.039  10.254
32227SOL     OW96706   5.849   2.188  10.030
32227SOL    HW196707   5.770   2.239   9.996
32227SOL    HW296708   5.840   2.173  10.128
32228SOL     OW96709   6.780   3.474   9.341
32228SOL    HW196710   6.786   3.381   9.378
32228SOL    HW296711   6.721   3.474   9.261
32229SOL     OW96712   6.408   2.864  10.682
32229SOL    HW196713   6.448   2.863  10.590
32229SOL    HW296714   6.418   2.956  10.722
32230SOL     OW96715   6.502   2.772   9.601
32230SOL    HW196716   6.565   2.810   9.533
32230SOL    HW296717   6.542   2.689   9.640
32231SOL     OW96718   7.090   3.469   9.354
32231SOL    HW196719   6.998   3.506   9.361
32231SOL    HW296720   7.128   3.489   9.264
32232SOL     OW96721   5.958   3.150  10.800
32232SOL    HW196722   5.945   3.243  10.766
32232SOL    HW296723   5.874   3.098  10.787
32233SOL     OW96724   7.200   3.154  10.599
32233SOL    HW196725   7.260   3.157  10.679
32233SOL    HW296726   7.125   3.218  10.612
32234SOL     OW96727   6.625   2.960  10.006
32234SOL    HW196728   6.555   2.913  10.060
32234SOL    HW296729   6.684   2.892   9.963
32235SOL     OW96730   6.600   2.098  10.281
32235SOL    HW196731   6.592   2.062  10.188
32235SOL    HW296732   6.598   2.022  10.346
32236SOL     OW96733   6.176   3.349   9.801
32236SOL    HW196734   6.218   3.291   9.731
32236SOL    HW296735   6.132   3.428   9.757
32237SOL     OW96736   7.295   2.247  10.691
32237SOL    HW196737   7.368   2.316  10.695
32237SOL    HW296738   7.323   2.172  10.632
32238SOL     OW96739   5.841   3.210   9.600
32238SOL    HW196740   5.745   3.211   9.573
32238SOL    HW296741   5.853   3.263   9.684
32239SOL     OW96742   5.691   2.875  11.036
32239SOL    HW196743   5.614   2.842  11.090
32239SOL    HW296744   5.776   2.845  11.078
32240SOL     OW96745   6.258   2.065  10.799
32240SOL    HW196746   6.348   2.049  10.759
32240SOL    HW296747   6.266   2.070  10.898
32241SOL     OW96748   5.661   2.207   9.343
32241SOL    HW196749   5.569   2.179   9.314
32241SOL    HW296750   5.692   2.284   9.287
32242SOL     OW96751   7.026   2.718  10.708
32242SOL    HW196752   6.969   2.770  10.645
32242SOL    HW296753   7.122   2.730  10.684
32243SOL     OW96754   5.658   2.028   9.628
32243SOL    HW196755   5.641   2.111   9.574
32243SOL    HW296756   5.748   1.991   9.606
32244SOL     OW96757   6.769   3.197   9.429
32244SOL    HW196758   6.670   3.186   9.431
32244SOL    HW296759   6.803   3.212   9.522
32245SOL     OW96760   6.199   2.704  10.741
32245SOL    HW196761   6.255   2.785  10.724
32245SOL    HW296762   6.258   2.624  10.744
32246SOL     OW96763   7.079   3.629  10.269
32246SOL    HW196764   7.112   3.693  10.200
32246SOL    HW296765   7.145   3.623  10.344
32247SOL     OW96766   6.302   2.427  11.018
32247SOL    HW196767   6.321   2.492  11.092
32247SOL    HW296768   6.362   2.347  11.027
32248SOL     OW96769   7.036   3.082  10.943
32248SOL    HW196770   7.027   3.072  11.042
32248SOL    HW296771   7.132   3.075  10.917
32249SOL     OW96772   5.976   3.603  10.870
32249SOL    HW196773   5.885   3.644  10.868
32249SOL    HW296774   5.969   3.509  10.902
32250SOL     OW96775   7.260   2.745  10.564
32250SOL    HW196776   7.233   2.656  10.527
32250SOL    HW296777   7.261   2.813  10.491
32251SOL     OW96778   6.811   2.187   9.759
32251SOL    HW196779   6.876   2.113   9.748
32251SOL    HW296780   6.831   2.237   9.843
32252SOL     OW96781   6.180   2.607   9.962
32252SOL    HW196782   6.230   2.692   9.943
32252SOL    HW296783   6.092   2.609   9.914
32253SOL     OW96784   7.363   2.204  10.952
32253SOL    HW196785   7.346   2.235  10.858
32253SOL    HW296786   7.279   2.167  10.990
32254SOL     OW96787   7.316   2.796  10.827
32254SOL    HW196788   7.354   2.887  10.842
32254SOL    HW296789   7.308   2.779  10.728
32255SOL     OW96790   6.445   3.236   9.326
32255SOL    HW196791   6.399   3.251   9.414
32255SOL    HW296792   6.489   3.321   9.296
32256SOL     OW96793   6.247   3.652  10.263
32256SOL    HW196794   6.201   3.740  10.250
32256SOL    HW296795   6.346   3.664  10.256
32257SOL     OW96796   6.445   2.818  10.171
32257SOL    HW196797   6.499   2.749  10.219
32257SOL    HW296798   6.413   2.887  10.237
32258SOL     OW96799   6.669   2.846   9.397
32258SOL    HW196800   6.646   2.899   9.315
32258SOL    HW296801   6.750   2.790   9.378
32259SOL     OW96802   7.447   3.431  10.161
32259SOL    HW196803   7.376   3.419  10.091
32259SOL    HW296804   7.448   3.352  10.221
32260SOL     OW96805   5.807   3.176  11.154
32260SOL    HW196806   5.742   3.103  11.133
32260SOL    HW296807   5.811   3.190  11.252
32261SOL     OW96808   5.665   3.102   9.963
32261SOL    HW196809   5.664   3.055  10.051
32261SOL    HW296810   5.747   3.074   9.912
32262SOL     OW96811   6.258   3.253  10.934
32262SOL    HW196812   6.180   3.203  10.972
32262SOL    HW296813   6.255   3.348  10.965
32263SOL     OW96814   7.410   2.054  10.537
32263SOL    HW196815   7.406   1.964  10.581
32263SOL    HW296816   7.413   2.043  10.438
32264SOL     OW96817   6.014   2.286   9.830
32264SOL    HW196818   6.044   2.214   9.768
32264SOL    HW296819   5.975   2.246   9.913
32265SOL     OW96820   7.291   3.349  10.414
32265SOL    HW196821   7.198   3.324  10.387
32265SOL    HW296822   7.317   3.299  10.496
32266SOL     OW96823   5.903   2.409  10.590
32266SOL    HW196824   5.941   2.350  10.662
32266SOL    HW296825   5.943   2.383  10.502
32267SOL     OW96826   6.398   3.448   9.997
32267SOL    HW196827   6.430   3.458   9.903
32267SOL    HW296828   6.319   3.386   9.999
32268SOL     OW96829   7.010   2.076  10.422
32268SOL    HW196830   7.062   2.011  10.477
32268SOL    HW296831   6.961   2.139  10.483
32269SOL     OW96832   6.587   1.896  10.464
32269SOL    HW196833   6.524   1.824  10.433
32269SOL    HW296834   6.680   1.860  10.464
32270SOL     OW96835   6.356   3.192   9.611
32270SOL    HW196836   6.310   3.105   9.628
32270SOL    HW296837   6.447   3.189   9.652
32271SOL     OW96838   6.204   3.429  10.594
32271SOL    HW196839   6.199   3.511  10.651
32271SOL    HW296840   6.293   3.426  10.549
32272SOL     OW96841   6.938   1.914   9.478
32272SOL    HW196842   6.973   1.873   9.394
32272SOL    HW296843   6.848   1.876   9.498
32273SOL     OW96844   6.886   2.315  10.001
32273SOL    HW196845   6.827   2.395  10.005
32273SOL    HW296846   6.901   2.280  10.094
32274SOL     OW96847   7.179   2.083  10.192
32274SOL    HW196848   7.095   2.082  10.246
32274SOL    HW296849   7.181   2.166  10.136
32275SOL     OW96850   5.625   2.939   9.610
32275SOL    HW196851   5.724   2.928   9.601
32275SOL    HW296852   5.585   2.853   9.642
32276SOL     OW96853   6.461   3.508   9.647
32276SOL    HW196854   6.384   3.473   9.593
32276SOL    HW296855   6.429   3.579   9.709
32277SOL     OW96856   5.816   2.490  11.285
32277SOL    HW196857   5.723   2.488  11.322
32277SOL    HW296858   5.817   2.451  11.193
32278SOL     OW96859   5.811   2.137  12.168
32278SOL    HW196860   5.846   2.120  12.260
32278SOL    HW296861   5.723   2.092  12.156
32279SOL     OW96862   5.605   2.230  11.819
32279SOL    HW196863   5.523   2.273  11.858
32279SOL    HW296864   5.577   2.157  11.756
32280SOL     OW96865   6.155   3.137  12.337
32280SOL    HW196866   6.062   3.130  12.300
32280SOL    HW296867   6.166   3.226  12.381
32281SOL     OW96868   7.141   3.373  11.875
32281SOL    HW196869   7.084   3.357  11.956
32281SOL    HW296870   7.082   3.383  11.795
32282SOL     OW96871   6.721   2.565  11.889
32282SOL    HW196872   6.778   2.643  11.864
32282SOL    HW296873   6.661   2.591  11.965
32283SOL     OW96874   7.341   2.469  11.403
32283SOL    HW196875   7.329   2.456  11.304
32283SOL    HW296876   7.311   2.388  11.452
32284SOL     OW96877   6.354   3.006  12.195
32284SOL    HW196878   6.276   3.023  12.255
32284SOL    HW296879   6.388   3.093  12.159
32285SOL     OW96880   6.271   2.874  11.837
32285SOL    HW196881   6.340   2.858  11.907
32285SOL    HW296882   6.198   2.931  11.875
32286SOL     OW96883   5.921   3.297  12.233
32286SOL    HW196884   5.843   3.266  12.180
32286SOL    HW296885   5.979   3.355  12.176
32287SOL     OW96886   7.046   3.367  12.511
32287SOL    HW196887   7.070   3.461  12.537
32287SOL    HW296888   7.030   3.313  12.593
32288SOL     OW96889   6.024   2.254  12.671
32288SOL    HW196890   6.106   2.198  12.680
32288SOL    HW296891   5.943   2.196  12.675
32289SOL     OW96892   7.189   2.309  11.909
32289SOL    HW196893   7.115   2.355  11.859
32289SOL    HW296894   7.240   2.377  11.962
32290SOL     OW96895   5.817   3.575  11.655
32290SOL    HW196896   5.851   3.652  11.709
32290SOL    HW296897   5.861   3.575  11.565
32291SOL     OW96898   5.816   3.296  11.710
32291SOL    HW196899   5.790   3.392  11.710
32291SOL    HW296900   5.745   3.242  11.755
32292SOL     OW96901   5.826   2.953  12.058
32292SOL    HW196902   5.840   2.869  12.110
32292SOL    HW296903   5.771   3.017  12.113
32293SOL     OW96904   6.206   3.648  12.611
32293SOL    HW196905   6.114   3.631  12.646
32293SOL    HW296906   6.234   3.740  12.637
32294SOL     OW96907   6.192   2.826  11.295
32294SOL    HW196908   6.199   2.910  11.241
32294SOL    HW296909   6.238   2.839  11.383
32295SOL     OW96910   7.180   1.976  12.652
32295SOL    HW196911   7.162   2.043  12.580
32295SOL    HW296912   7.177   2.022  12.741
32296SOL     OW96913   5.708   2.505  11.735
32296SOL    HW196914   5.663   2.417  11.752
32296SOL    HW296915   5.707   2.559  11.819
32297SOL     OW96916   7.428   3.629  11.531
32297SOL    HW196917   7.482   3.600  11.611
32297SOL    HW296918   7.458   3.719  11.502
32298SOL     OW96919   5.613   3.458  11.289
32298SOL    HW196920   5.594   3.362  11.310
32298SOL    HW296921   5.580   3.516  11.364
32299SOL     OW96922   7.275   2.784  11.784
32299SOL    HW196923   7.370   2.755  11.792
32299SOL    HW296924   7.267   2.849  11.709
32300SOL     OW96925   7.227   2.970  11.604
32300SOL    HW196926   7.313   2.972  11.552
32300SOL    HW296927   7.241   3.017  11.692
32301SOL     OW96928   6.199   3.227  11.898
32301SOL    HW196929   6.150   3.140  11.907
32301SOL    HW296930   6.176   3.270  11.811
32302SOL     OW96931   6.395   1.866  11.674
32302SOL    HW196932   6.435   1.957  11.665
32302SOL    HW296933   6.295   1.874  11.680
32303SOL     OW96934   5.783   2.838  12.436
32303SOL    HW196935   5.872   2.793  12.422
32303SOL    HW296936   5.710   2.773  12.417
32304SOL     OW96937   7.111   2.861  11.362
32304SOL    HW196938   7.048   2.785  11.375
32304SOL    HW296939   7.159   2.879  11.448
32305SOL     OW96940   5.903   2.113  12.973
32305SOL    HW196941   5.974   2.184  12.979
32305SOL    HW296942   5.815   2.152  13.001
32306SOL     OW96943   7.052   3.279  12.125
32306SOL    HW196944   6.993   3.285  12.205
32306SOL    HW296945   7.037   3.191  12.079
32307SOL     OW96946   7.253   3.576  11.744
32307SOL    HW196947   7.212   3.553  11.656
32307SOL    HW296948   7.235   3.502  11.809
32308SOL     OW96949   6.184   2.591  11.442
32308SOL    HW196950   6.208   2.660  11.374
32308SOL    HW296951   6.106   2.624  11.496
32309SOL     OW96952   6.867   2.207  12.116
32309SOL    HW196953   6.781   2.157  12.103
32309SOL    HW296954   6.929   2.153  12.172
32310SOL     OW96955   7.162   3.524  11.479
32310SOL    HW196956   7.251   3.570  11.482
32310SOL    HW296957   7.141   3.500  11.384
32311SOL     OW96958   6.393   2.467  12.637
32311SOL    HW196959   6.346   2.464  12.726
32311SOL    HW296960   6.342   2.412  12.571
32312SOL     OW96961   6.577   2.272  12.414
32312SOL    HW196962   6.500   2.306  12.468
32312SOL    HW296963   6.543   2.221  12.335
32313SOL     OW96964   6.627   2.563  11.601
32313SOL    HW196965   6.653   2.559  11.697
32313SOL    HW296966   6.542   2.512  11.587
32314SOL     OW96967   5.662   2.673  11.961
32314SOL    HW196968   5.761   2.661  11.970
32314SOL    HW296969   5.638   2.768  11.982
32315SOL     OW96970   5.716   3.683  12.743
32315SOL    HW196971   5.706   3.668  12.842
32315SOL    HW296972   5.630   3.719  12.707
32316SOL     OW96973   6.451   2.210  11.367
32316SOL    HW196974   6.510   2.273  11.318
32316SOL    HW296975   6.470   2.116  11.338
32317SOL     OW96976   6.948   3.006  11.717
32317SOL    HW196977   7.031   2.977  11.669
32317SOL    HW296978   6.899   3.073  11.661
32318SOL     OW96979   6.136   2.058  12.057
32318SOL    HW196980   6.131   2.053  12.157
32318SOL    HW296981   6.138   2.154  12.028
32319SOL     OW96982   6.594   3.318  11.649
32319SOL    HW196983   6.548   3.390  11.597
32319SOL    HW296984   6.590   3.338  11.747
32320SOL     OW96985   5.937   3.663  12.025
32320SOL    HW196986   5.987   3.577  12.031
32320SOL    HW296987   6.002   3.740  12.022
32321SOL     OW96988   7.381   2.928  12.045
32321SOL    HW196989   7.319   2.913  11.969
32321SOL    HW296990   7.329   2.939  12.130
32322SOL     OW96991   5.907   2.805  11.414
32322SOL    HW196992   5.989   2.844  11.372
32322SOL    HW296993   5.880   2.723  11.365
32323SOL     OW96994   7.044   2.597  11.900
32323SOL    HW196995   7.039   2.532  11.975
32323SOL    HW296996   7.124   2.656  11.913
32324SOL     OW96997   6.697   3.638  11.409
32324SOL    HW196998   6.637   3.576  11.459
32324SOL    HW296999   6.728   3.594  11.324
32325SOL     OW97000   5.788   2.147  12.670
32325SOL    HW197001   5.708   2.207  12.657
32325SOL    HW297002   5.778   2.098  12.756
32326SOL     OW97003   7.218   3.239  11.253
32326SOL    HW197004   7.186   3.333  11.243
32326SOL    HW297005   7.142   3.176  11.241
32327SOL     OW97006   6.050   3.605  11.495
32327SOL    HW197007   6.083   3.644  11.581
32327SOL    HW297008   6.126   3.598  11.430
32328SOL     OW97009   6.986   1.969  11.598
32328SOL    HW197010   6.962   1.932  11.508
32328SOL    HW297011   7.085   1.985  11.602
32329SOL     OW97012   5.835   3.647  12.413
32329SOL    HW197013   5.892   3.582  12.463
32329SOL    HW297014   5.819   3.614  12.320
32330SOL     OW97015   6.526   3.560  12.076
32330SOL    HW197016   6.606   3.503  12.097
32330SOL    HW297017   6.477   3.520  11.999
32331SOL     OW97018   5.968   2.562  11.652
32331SOL    HW197019   6.013   2.472  11.649
32331SOL    HW297020   5.874   2.551  11.685
32332SOL     OW97021   6.200   1.984  11.289
32332SOL    HW197022   6.298   1.962  11.296
32332SOL    HW297023   6.169   1.967  11.196
32333SOL     OW97024   6.474   3.376  12.367
32333SOL    HW197025   6.451   3.351  12.273
32333SOL    HW297026   6.535   3.307  12.406
32334SOL     OW97027   6.389   3.264  12.096
32334SOL    HW197028   6.479   3.278  12.054
32334SOL    HW297029   6.318   3.266  12.025
32335SOL     OW97030   6.508   2.365  12.071
32335SOL    HW197031   6.483   2.356  11.975
32335SOL    HW297032   6.556   2.283  12.102
32336SOL     OW97033   6.125   1.926  11.684
32336SOL    HW197034   6.044   1.927  11.742
32336SOL    HW297035   6.128   2.009  11.629
32337SOL     OW97036   7.020   3.050  11.213
32337SOL    HW197037   7.052   2.974  11.270
32337SOL    HW297038   6.928   3.077  11.243
32338SOL     OW97039   5.883   1.897  11.343
32338SOL    HW197040   5.932   1.981  11.322
32338SOL    HW297041   5.945   1.832  11.388
32339SOL     OW97042   6.521   2.098  11.652
32339SOL    HW197043   6.473   2.139  11.574
32339SOL    HW297044   6.620   2.096  11.633
32340SOL     OW97045   6.813   3.432  11.965
32340SOL    HW197046   6.834   3.506  11.900
32340SOL    HW297047   6.881   3.432  12.038
32341SOL     OW97048   6.045   3.014  11.913
32341SOL    HW197049   5.974   2.987  11.978
32341SOL    HW297050   6.019   2.986  11.820
32342SOL     OW97051   6.857   3.659  11.763
32342SOL    HW197052   6.901   3.723  11.699
32342SOL    HW297053   6.807   3.711  11.833
32343SOL     OW97054   6.618   2.411  11.188
32343SOL    HW197055   6.577   2.493  11.149
32343SOL    HW297056   6.682   2.437  11.261
32344SOL     OW97057   5.664   2.418  12.558
32344SOL    HW197058   5.756   2.417  12.517
32344SOL    HW297059   5.658   2.492  12.625
32345SOL     OW97060   6.147   2.084  12.319
32345SOL    HW197061   6.185   2.000  12.356
32345SOL    HW297062   6.059   2.103  12.363
32346SOL     OW97063   6.452   2.316  11.814
32346SOL    HW197064   6.420   2.388  11.752
32346SOL    HW297065   6.476   2.235  11.761
32347SOL     OW97066   6.603   1.901  11.925
32347SOL    HW197067   6.531   1.906  11.856
32347SOL    HW297068   6.579   1.832  11.994
32348SOL     OW97069   7.015   3.035  12.039
32348SOL    HW197070   6.960   2.951  12.032
32348SOL    HW297071   7.041   3.064  11.947
32349SOL     OW97072   7.052   2.452  12.164
32349SOL    HW197073   7.022   2.357  12.171
32349SOL    HW297074   7.125   2.468  12.230
32350SOL     OW97075   7.443   2.695  11.549
32350SOL    HW197076   7.485   2.631  11.613
32350SOL    HW297077   7.405   2.644  11.471
32351SOL     OW97078   6.074   3.247  11.346
32351SOL    HW197079   5.987   3.232  11.393
32351SOL    HW297080   6.057   3.273  11.251
32352SOL     OW97081   7.250   3.142  11.829
32352SOL    HW197082   7.349   3.150  11.843
32352SOL    HW297083   7.205   3.226  11.860
32353SOL     OW97084   6.976   2.437  11.250
32353SOL    HW197085   6.922   2.416  11.331
32353SOL    HW297086   7.067   2.396  11.259
32354SOL     OW97087   6.113   2.118  11.500
32354SOL    HW197088   6.140   2.059  11.425
32354SOL    HW297089   6.113   2.213  11.469
32355SOL     OW97090   6.650   3.209  12.512
32355SOL    HW197091   6.570   3.186  12.567
32355SOL    HW297092   6.733   3.183  12.561
32356SOL     OW97093   6.697   3.057  12.272
32356SOL    HW197094   6.657   3.101  12.353
32356SOL    HW297095   6.656   3.094  12.189
32357SOL     OW97096   7.224   2.961  12.251
32357SOL    HW197097   7.229   3.042  12.310
32357SOL    HW297098   7.138   2.963  12.200
32358SOL     OW97099   6.501   1.951  12.574
32358SOL    HW197100   6.526   1.931  12.479
32358SOL    HW297101   6.573   2.007  12.616
32359SOL     OW97102   6.291   2.912  11.540
32359SOL    HW197103   6.277   2.919  11.639
32359SOL    HW297104   6.375   2.861  11.522
32360SOL     OW97105   5.996   2.675  12.423
32360SOL    HW197106   6.082   2.687  12.473
32360SOL    HW297107   5.954   2.588  12.450
32361SOL     OW97108   6.860   2.248  12.434
32361SOL    HW197109   6.881   2.322  12.498
32361SOL    HW297110   6.771   2.265  12.391
32362SOL     OW97111   5.650   3.426  12.503
32362SOL    HW197112   5.604   3.508  12.469
32362SOL    HW297113   5.748   3.445  12.512
32363SOL     OW97114   5.953   2.962  11.673
32363SOL    HW197115   5.946   3.045  11.617
32363SOL    HW297116   5.957   2.882  11.613
32364SOL     OW97117   6.152   2.399  12.037
32364SOL    HW197118   6.164   2.465  11.963
32364SOL    HW297119   6.198   2.433  12.120
32365SOL     OW97120   6.838   3.210  11.560
32365SOL    HW197121   6.888   3.287  11.600
32365SOL    HW297122   6.743   3.212  11.592
32366SOL     OW97123   6.858   3.307  12.314
32366SOL    HW197124   6.905   3.320  12.401
32366SOL    HW297125   6.792   3.233  12.323
32367SOL     OW97126   7.168   2.501  11.644
32367SOL    HW197127   7.137   2.562  11.717
32367SOL    HW297128   7.218   2.553  11.575
32368SOL     OW97129   5.940   3.372  12.501
32368SOL    HW197130   5.919   3.328  12.414
32368SOL    HW297131   6.037   3.398  12.504
32369SOL     OW97132   5.988   2.613  12.770
32369SOL    HW197133   6.056   2.668  12.723
32369SOL    HW297134   6.028   2.525  12.797
32370SOL     OW97135   7.173   2.641  12.842
32370SOL    HW197136   7.081   2.679  12.837
32370SOL    HW297137   7.233   2.688  12.777
32371SOL     OW97138   6.159   2.732  12.201
32371SOL    HW197139   6.203   2.821  12.192
32371SOL    HW297140   6.096   2.732  12.278
32372SOL     OW97141   6.946   2.724  12.217
32372SOL    HW197142   6.871   2.724  12.151
32372SOL    HW297143   6.983   2.632  12.226
32373SOL     OW97144   6.795   2.387  11.447
32373SOL    HW197145   6.808   2.303  11.501
32373SOL    HW297146   6.766   2.461  11.507
32374SOL     OW97147   5.893   2.075  12.403
32374SOL    HW197148   5.870   2.112  12.493
32374SOL    HW297149   5.863   1.980  12.397
32375SOL     OW97150   5.623   3.172  12.454
32375SOL    HW197151   5.676   3.123  12.522
32375SOL    HW297152   5.645   3.270  12.459
32376SOL     OW97153   6.318   2.496  12.236
32376SOL    HW197154   6.377   2.470  12.160
32376SOL    HW297155   6.290   2.592  12.225
32377SOL     OW97156   5.893   1.925  11.790
32377SOL    HW197157   5.882   2.019  11.823
32377SOL    HW297158   5.888   1.862  11.867
32378SOL     OW97159   7.208   2.229  11.546
32378SOL    HW197160   7.210   2.153  11.610
32378SOL    HW297161   7.160   2.306  11.586
32379SOL     OW97162   6.609   2.628  12.138
32379SOL    HW197163   6.624   2.649  12.234
32379SOL    HW297164   6.579   2.533  12.129
32380SOL     OW97165   6.566   3.435  12.872
32380SOL    HW197166   6.546   3.479  12.784
32380SOL    HW297167   6.605   3.344  12.856
32381SOL     OW97168   7.126   2.136  11.297
32381SOL    HW197169   7.065   2.061  11.320
32381SOL    HW297170   7.148   2.188  11.380
32382SOL     OW97171   6.889   2.700  11.214
32382SOL    HW197172   6.923   2.607  11.229
32382SOL    HW297173   6.907   2.727  11.119
32383SOL     OW97174   6.654   3.195  12.021
32383SOL    HW197175   6.661   3.111  11.966
32383SOL    HW297176   6.716   3.264  11.985
32384SOL     OW97177   5.905   2.672  12.121
32384SOL    HW197178   5.998   2.708  12.126
32384SOL    HW297179   5.899   2.587  12.173
32385SOL     OW97180   5.925   2.371  12.178
32385SOL    HW197181   5.873   2.288  12.161
32385SOL    HW297182   6.002   2.376  12.114
32386SOL     OW97183   6.724   2.242  12.850
32386SOL    HW197184   6.679   2.305  12.914
32386SOL    HW297185   6.817   2.273  12.833
32387SOL     OW97186   6.746   2.069  12.649
32387SOL    HW197187   6.746   2.133  12.726
32387SOL    HW297188   6.774   2.117  12.566
32388SOL     OW97189   5.594   3.188  11.372
32388SOL    HW197190   5.501   3.209  11.341
32388SOL    HW297191   5.604   3.089  11.385
32389SOL     OW97192   5.674   3.663  12.099
32389SOL    HW197193   5.632   3.577  12.072
32389SOL    HW297194   5.768   3.666  12.065
32390SOL     OW97195   6.090   3.430  12.082
32390SOL    HW197196   6.156   3.504  12.091
32390SOL    HW297197   6.134   3.351  12.040
32391SOL     OW97198   6.588   2.658  12.410
32391SOL    HW197199   6.629   2.626  12.496
32391SOL    HW297200   6.492   2.631  12.407
32392SOL     OW97201   5.626   2.406  12.286
32392SOL    HW197202   5.711   2.373  12.245
32392SOL    HW297203   5.639   2.421  12.384
32393SOL     OW97204   6.401   2.434  11.497
32393SOL    HW197205   6.408   2.345  11.451
32393SOL    HW297206   6.307   2.468  11.489
32394SOL     OW97207   7.243   2.466  12.378
32394SOL    HW197208   7.205   2.397  12.440
32394SOL    HW297209   7.325   2.430  12.334
32395SOL     OW97210   6.257   2.326  12.441
32395SOL    HW197211   6.223   2.237  12.411
32395SOL    HW297212   6.283   2.380  12.361
32396SOL     OW97213   6.516   3.540  12.637
32396SOL    HW197214   6.492   3.522  12.542
32396SOL    HW297215   6.546   3.634  12.647
32397SOL     OW97216   6.059   2.362  11.363
32397SOL    HW197217   6.120   2.442  11.367
32397SOL    HW297218   5.964   2.393  11.370
32398SOL     OW97219   5.745   2.999  12.638
32398SOL    HW197220   5.767   2.938  12.714
32398SOL    HW297221   5.755   2.950  12.552
32399SOL     OW97222   6.933   2.921  12.406
32399SOL    HW197223   6.957   2.858  12.332
32399SOL    HW297224   6.843   2.961  12.388
32400SOL     OW97225   6.888   2.717  11.481
32400SOL    HW197226   6.802   2.686  11.523
32400SOL    HW297227   6.884   2.703  11.382
32401SOL     OW97228   7.345   3.609  12.326
32401SOL    HW197229   7.406   3.639  12.253
32401SOL    HW297230   7.307   3.520  12.304
32402SOL     OW97231   6.838   3.593  12.300
32402SOL    HW197232   6.922   3.598  12.246
32402SOL    HW297233   6.815   3.497  12.318
32403SOL     OW97234   5.669   3.120  12.194
32403SOL    HW197235   5.664   3.119  12.294
32403SOL    HW297236   5.586   3.079  12.156
32404SOL     OW97237   7.312   1.997  11.695
32404SOL    HW197238   7.385   1.980  11.628
32404SOL    HW297239   7.281   1.910  11.733
32405SOL     OW97240   6.974   3.435  11.649
32405SOL    HW197241   7.041   3.447  11.575
32405SOL    HW297242   6.934   3.524  11.672
32406SOL     OW97243   6.866   2.789  11.844
32406SOL    HW197244   6.926   2.708  11.846
32406SOL    HW297245   6.906   2.858  11.784
32407SOL     OW97246   6.258   3.478  11.326
32407SOL    HW197247   6.267   3.488  11.227
32407SOL    HW297248   6.218   3.389  11.347
32408SOL     OW97249   7.236   3.582  12.566
32408SOL    HW197250   7.289   3.592  12.482
32408SOL    HW297251   7.209   3.672  12.600
32409SOL     OW97252   7.427   2.037  12.135
32409SOL    HW197253   7.466   1.952  12.099
32409SOL    HW297254   7.329   2.039  12.116
32410SOL     OW97255   5.849   2.188  11.892
32410SOL    HW197256   5.770   2.239  11.858
32410SOL    HW297257   5.840   2.173  11.990
32411SOL     OW97258   6.780   3.474  11.203
32411SOL    HW197259   6.786   3.381  11.240
32411SOL    HW297260   6.721   3.474  11.123
32412SOL     OW97261   6.408   2.864  12.544
32412SOL    HW197262   6.448   2.863  12.452
32412SOL    HW297263   6.418   2.956  12.584
32413SOL     OW97264   6.502   2.772  11.463
32413SOL    HW197265   6.565   2.810  11.395
32413SOL    HW297266   6.542   2.689  11.502
32414SOL     OW97267   5.958   3.150  12.662
32414SOL    HW197268   5.945   3.243  12.628
32414SOL    HW297269   5.874   3.098  12.649
32415SOL     OW97270   7.200   3.154  12.461
32415SOL    HW197271   7.260   3.157  12.541
32415SOL    HW297272   7.125   3.218  12.474
32416SOL     OW97273   6.625   2.960  11.868
32416SOL    HW197274   6.555   2.913  11.922
32416SOL    HW297275   6.684   2.892  11.825
32417SOL     OW97276   6.600   2.098  12.143
32417SOL    HW197277   6.592   2.062  12.050
32417SOL    HW297278   6.598   2.022  12.208
32418SOL     OW97279   6.176   3.349  11.663
32418SOL    HW197280   6.218   3.291  11.593
32418SOL    HW297281   6.132   3.428  11.619
32419SOL     OW97282   7.295   2.247  12.553
32419SOL    HW197283   7.368   2.316  12.557
32419SOL    HW297284   7.323   2.172  12.494
32420SOL     OW97285   5.841   3.210  11.462
32420SOL    HW197286   5.745   3.211  11.435
32420SOL    HW297287   5.853   3.263  11.546
32421SOL     OW97288   5.661   2.207  11.205
32421SOL    HW197289   5.569   2.179  11.176
32421SOL    HW297290   5.692   2.284  11.149
32422SOL     OW97291   7.026   2.718  12.570
32422SOL    HW197292   6.969   2.770  12.507
32422SOL    HW297293   7.122   2.730  12.546
32423SOL     OW97294   5.658   2.028  11.490
32423SOL    HW197295   5.641   2.111  11.436
32423SOL    HW297296   5.748   1.991  11.468
32424SOL     OW97297   6.769   3.197  11.291
32424SOL    HW197298   6.670   3.186  11.293
32424SOL    HW297299   6.803   3.212  11.384
32425SOL     OW97300   6.199   2.704  12.603
32425SOL    HW197301   6.255   2.785  12.586
32425SOL    HW297302   6.258   2.624  12.606
32426SOL     OW97303   7.079   3.629  12.131
32426SOL    HW197304   7.112   3.693  12.062
32426SOL    HW297305   7.145   3.623  12.206
32427SOL     OW97306   5.976   3.603  12.732
32427SOL    HW197307   5.885   3.644  12.730
32427SOL    HW297308   5.969   3.509  12.764
32428SOL     OW97309   7.260   2.745  12.426
32428SOL    HW197310   7.233   2.656  12.389
32428SOL    HW297311   7.261   2.813  12.353
32429SOL     OW97312   6.811   2.187  11.621
32429SOL    HW197313   6.876   2.113  11.610
32429SOL    HW297314   6.831   2.237  11.705
32430SOL     OW97315   6.180   2.607  11.824
32430SOL    HW197316   6.230   2.692  11.805
32430SOL    HW297317   6.092   2.609  11.776
32431SOL     OW97318   7.363   2.204  12.814
32431SOL    HW197319   7.346   2.235  12.720
32431SOL    HW297320   7.279   2.167  12.852
32432SOL     OW97321   7.316   2.796  12.689
32432SOL    HW197322   7.354   2.887  12.704
32432SOL    HW297323   7.308   2.779  12.590
32433SOL     OW97324   6.445   3.236  11.188
32433SOL    HW197325   6.399   3.251  11.276
32433SOL    HW297326   6.489   3.321  11.158
32434SOL     OW97327   6.247   3.652  12.125
32434SOL    HW197328   6.201   3.740  12.112
32434SOL    HW297329   6.346   3.664  12.118
32435SOL     OW97330   6.445   2.818  12.033
32435SOL    HW197331   6.499   2.749  12.081
32435SOL    HW297332   6.413   2.887  12.099
32436SOL     OW97333   6.669   2.846  11.259
32436SOL    HW197334   6.646   2.899  11.177
32436SOL    HW297335   6.750   2.790  11.240
32437SOL     OW97336   7.447   3.431  12.023
32437SOL    HW197337   7.376   3.419  11.953
32437SOL    HW297338   7.448   3.352  12.083
32438SOL     OW97339   5.665   3.102  11.825
32438SOL    HW197340   5.664   3.055  11.913
32438SOL    HW297341   5.747   3.074  11.774
32439SOL     OW97342   7.410   2.054  12.399
32439SOL    HW197343   7.406   1.964  12.443
32439SOL    HW297344   7.413   2.043  12.300
32440SOL     OW97345   6.014   2.286  11.692
32440SOL    HW197346   6.044   2.214  11.630
32440SOL    HW297347   5.975   2.246  11.775
32441SOL     OW97348   7.291   3.349  12.276
32441SOL    HW197349   7.198   3.324  12.249
32441SOL    HW297350   7.317   3.299  12.358
32442SOL     OW97351   5.903   2.409  12.452
32442SOL    HW197352   5.941   2.350  12.524
32442SOL    HW297353   5.943   2.383  12.364
32443SOL     OW97354   6.398   3.448  11.859
32443SOL    HW197355   6.430   3.458  11.765
32443SOL    HW297356   6.319   3.386  11.861
32444SOL     OW97357   7.010   2.076  12.284
32444SOL    HW197358   7.062   2.011  12.339
32444SOL    HW297359   6.961   2.139  12.345
32445SOL     OW97360   6.587   1.896  12.326
32445SOL    HW197361   6.524   1.824  12.295
32445SOL    HW297362   6.680   1.860  12.326
32446SOL     OW97363   6.356   3.192  11.473
32446SOL    HW197364   6.310   3.105  11.490
32446SOL    HW297365   6.447   3.189  11.514
32447SOL     OW97366   6.204   3.429  12.456
32447SOL    HW197367   6.199   3.511  12.513
32447SOL    HW297368   6.293   3.426  12.411
32448SOL     OW97369   6.938   1.914  11.340
32448SOL    HW197370   6.973   1.873  11.256
32448SOL    HW297371   6.848   1.876  11.360
32449SOL     OW97372   6.886   2.315  11.863
32449SOL    HW197373   6.827   2.395  11.867
32449SOL    HW297374   6.901   2.280  11.956
32450SOL     OW97375   7.179   2.083  12.054
32450SOL    HW197376   7.095   2.082  12.108
32450SOL    HW297377   7.181   2.166  11.998
32451SOL     OW97378   5.625   2.939  11.472
32451SOL    HW197379   5.724   2.928  11.463
32451SOL    HW297380   5.585   2.853  11.504
32452SOL     OW97381   6.461   3.508  11.509
32452SOL    HW197382   6.384   3.473  11.455
32452SOL    HW297383   6.429   3.579  11.571
32453SOL     OW97384   5.816   4.352   0.113
32453SOL    HW197385   5.723   4.350   0.150
32453SOL    HW297386   5.817   4.313   0.021
32454SOL     OW97387   5.811   3.999   0.996
32454SOL    HW197388   5.846   3.982   1.088
32454SOL    HW297389   5.723   3.954   0.984
32455SOL     OW97390   5.605   4.092   0.647
32455SOL    HW197391   5.523   4.135   0.686
32455SOL    HW297392   5.577   4.019   0.584
32456SOL     OW97393   6.155   4.999   1.165
32456SOL    HW197394   6.062   4.992   1.128
32456SOL    HW297395   6.166   5.088   1.209
32457SOL     OW97396   7.141   5.235   0.703
32457SOL    HW197397   7.084   5.219   0.784
32457SOL    HW297398   7.082   5.245   0.623
32458SOL     OW97399   6.721   4.427   0.717
32458SOL    HW197400   6.778   4.505   0.692
32458SOL    HW297401   6.661   4.453   0.793
32459SOL     OW97402   7.341   4.331   0.231
32459SOL    HW197403   7.329   4.318   0.132
32459SOL    HW297404   7.311   4.250   0.280
32460SOL     OW97405   6.354   4.868   1.023
32460SOL    HW197406   6.276   4.885   1.083
32460SOL    HW297407   6.388   4.955   0.987
32461SOL     OW97408   6.436   4.522   1.823
32461SOL    HW197409   6.432   4.598   1.888
32461SOL    HW297410   6.458   4.558   1.732
32462SOL     OW97411   6.271   4.736   0.665
32462SOL    HW197412   6.340   4.720   0.735
32462SOL    HW297413   6.198   4.793   0.703
32463SOL     OW97414   6.272   4.885   1.803
32463SOL    HW197415   6.332   4.964   1.817
32463SOL    HW297416   6.186   4.916   1.762
32464SOL     OW97417   5.921   5.159   1.061
32464SOL    HW197418   5.843   5.128   1.008
32464SOL    HW297419   5.979   5.217   1.004
32465SOL     OW97420   7.046   5.229   1.339
32465SOL    HW197421   7.070   5.323   1.365
32465SOL    HW297422   7.030   5.175   1.421
32466SOL     OW97423   6.024   4.116   1.499
32466SOL    HW197424   6.106   4.060   1.508
32466SOL    HW297425   5.943   4.058   1.503
32467SOL     OW97426   7.189   4.171   0.737
32467SOL    HW197427   7.115   4.217   0.687
32467SOL    HW297428   7.240   4.239   0.790
32468SOL     OW97429   5.817   5.437   0.483
32468SOL    HW197430   5.851   5.514   0.537
32468SOL    HW297431   5.861   5.437   0.393
32469SOL     OW97432   6.713   5.065   1.690
32469SOL    HW197433   6.760   5.065   1.778
32469SOL    HW297434   6.665   4.978   1.679
32470SOL     OW97435   5.816   5.158   0.538
32470SOL    HW197436   5.790   5.254   0.538
32470SOL    HW297437   5.745   5.104   0.583
32471SOL     OW97438   5.826   4.815   0.886
32471SOL    HW197439   5.840   4.731   0.938
32471SOL    HW297440   5.771   4.879   0.941
32472SOL     OW97441   6.206   5.510   1.439
32472SOL    HW197442   6.114   5.493   1.474
32472SOL    HW297443   6.234   5.602   1.465
32473SOL     OW97444   6.192   4.688   0.123
32473SOL    HW197445   6.199   4.772   0.069
32473SOL    HW297446   6.238   4.701   0.211
32474SOL     OW97447   7.180   3.838   1.480
32474SOL    HW197448   7.162   3.905   1.408
32474SOL    HW297449   7.177   3.884   1.569
32475SOL     OW97450   5.708   4.367   0.563
32475SOL    HW197451   5.663   4.279   0.580
32475SOL    HW297452   5.707   4.421   0.647
32476SOL     OW97453   7.428   5.491   0.359
32476SOL    HW197454   7.482   5.462   0.439
32476SOL    HW297455   7.458   5.581   0.330
32477SOL     OW97456   5.613   5.320   0.117
32477SOL    HW197457   5.594   5.224   0.138
32477SOL    HW297458   5.580   5.378   0.192
32478SOL     OW97459   7.275   4.646   0.612
32478SOL    HW197460   7.370   4.617   0.620
32478SOL    HW297461   7.267   4.711   0.537
32479SOL     OW97462   7.227   4.832   0.432
32479SOL    HW197463   7.313   4.834   0.380
32479SOL    HW297464   7.241   4.879   0.520
32480SOL     OW97465   5.699   4.461   1.597
32480SOL    HW197466   5.787   4.448   1.642
32480SOL    HW297467   5.686   4.558   1.575
32481SOL     OW97468   6.199   5.089   0.726
32481SOL    HW197469   6.150   5.002   0.735
32481SOL    HW297470   6.176   5.132   0.639
32482SOL     OW97471   6.879   4.952   1.423
32482SOL    HW197472   6.916   4.879   1.365
32482SOL    HW297473   6.931   4.957   1.508
32483SOL     OW97474   6.395   3.728   0.502
32483SOL    HW197475   6.435   3.819   0.493
32483SOL    HW297476   6.295   3.736   0.508
32484SOL     OW97477   5.783   4.700   1.264
32484SOL    HW197478   5.872   4.655   1.250
32484SOL    HW297479   5.710   4.635   1.245
32485SOL     OW97480   7.111   4.723   0.190
32485SOL    HW197481   7.048   4.647   0.203
32485SOL    HW297482   7.159   4.741   0.276
32486SOL     OW97483   6.773   5.516   1.616
32486SOL    HW197484   6.797   5.576   1.540
32486SOL    HW297485   6.780   5.421   1.586
32487SOL     OW97486   5.903   3.975   1.801
32487SOL    HW197487   5.974   4.046   1.807
32487SOL    HW297488   5.815   4.014   1.829
32488SOL     OW97489   7.052   5.141   0.953
32488SOL    HW197490   6.993   5.147   1.033
32488SOL    HW297491   7.037   5.053   0.907
32489SOL     OW97492   7.253   5.438   0.572
32489SOL    HW197493   7.212   5.415   0.484
32489SOL    HW297494   7.235   5.364   0.637
32490SOL     OW97495   6.184   4.453   0.270
32490SOL    HW197496   6.208   4.522   0.202
32490SOL    HW297497   6.106   4.486   0.324
32491SOL     OW97498   6.867   4.069   0.944
32491SOL    HW197499   6.781   4.019   0.931
32491SOL    HW297500   6.929   4.015   1.000
32492SOL     OW97501   7.162   5.386   0.307
32492SOL    HW197502   7.251   5.432   0.310
32492SOL    HW297503   7.141   5.362   0.212
32493SOL     OW97504   6.393   4.329   1.465
32493SOL    HW197505   6.346   4.326   1.554
32493SOL    HW297506   6.342   4.274   1.399
32494SOL     OW97507   6.980   4.193   1.674
32494SOL    HW197508   6.960   4.236   1.762
32494SOL    HW297509   7.058   4.131   1.683
32495SOL     OW97510   6.559   4.614   1.572
32495SOL    HW197511   6.605   4.530   1.543
32495SOL    HW297512   6.503   4.648   1.497
32496SOL     OW97513   6.577   4.134   1.242
32496SOL    HW197514   6.500   4.168   1.296
32496SOL    HW297515   6.543   4.083   1.163
32497SOL     OW97516   6.627   4.425   0.429
32497SOL    HW197517   6.653   4.421   0.525
32497SOL    HW297518   6.542   4.374   0.415
32498SOL     OW97519   5.662   4.535   0.789
32498SOL    HW197520   5.761   4.523   0.798
32498SOL    HW297521   5.638   4.630   0.810
32499SOL     OW97522   5.716   5.545   1.571
32499SOL    HW197523   5.706   5.530   1.670
32499SOL    HW297524   5.630   5.581   1.535
32500SOL     OW97525   6.451   4.072   0.195
32500SOL    HW197526   6.510   4.135   0.146
32500SOL    HW297527   6.470   3.978   0.166
32501SOL     OW97528   7.305   4.309   1.831
32501SOL    HW197529   7.279   4.398   1.795
32501SOL    HW297530   7.303   4.241   1.758
32502SOL     OW97531   6.948   4.868   0.545
32502SOL    HW197532   7.031   4.839   0.497
32502SOL    HW297533   6.899   4.935   0.489
32503SOL     OW97534   6.136   3.920   0.885
32503SOL    HW197535   6.131   3.915   0.985
32503SOL    HW297536   6.138   4.016   0.856
32504SOL     OW97537   6.594   5.180   0.477
32504SOL    HW197538   6.548   5.252   0.425
32504SOL    HW297539   6.590   5.200   0.575
32505SOL     OW97540   5.937   5.525   0.853
32505SOL    HW197541   5.987   5.439   0.859
32505SOL    HW297542   6.002   5.602   0.850
32506SOL     OW97543   7.381   4.790   0.873
32506SOL    HW197544   7.319   4.775   0.797
32506SOL    HW297545   7.329   4.801   0.958
32507SOL     OW97546   6.813   5.274   1.506
32507SOL    HW197547   6.819   5.197   1.570
32507SOL    HW297548   6.761   5.248   1.426
32508SOL     OW97549   5.907   4.667   0.242
32508SOL    HW197550   5.989   4.706   0.200
32508SOL    HW297551   5.880   4.585   0.193
32509SOL     OW97552   7.044   4.459   0.728
32509SOL    HW197553   7.039   4.394   0.803
32509SOL    HW297554   7.124   4.518   0.741
32510SOL     OW97555   6.047   4.990   1.727
32510SOL    HW197556   5.997   4.991   1.641
32510SOL    HW297557   5.984   4.972   1.803
32511SOL     OW97558   6.697   5.500   0.237
32511SOL    HW197559   6.637   5.438   0.287
32511SOL    HW297560   6.728   5.456   0.152
32512SOL     OW97561   5.788   4.009   1.498
32512SOL    HW197562   5.708   4.069   1.485
32512SOL    HW297563   5.778   3.960   1.584
32513SOL     OW97564   7.218   5.101   0.081
32513SOL    HW197565   7.186   5.195   0.071
32513SOL    HW297566   7.142   5.038   0.069
32514SOL     OW97567   6.050   5.467   0.323
32514SOL    HW197568   6.083   5.506   0.409
32514SOL    HW297569   6.126   5.460   0.258
32515SOL     OW97570   6.986   3.831   0.426
32515SOL    HW197571   6.962   3.794   0.336
32515SOL    HW297572   7.085   3.847   0.430
32516SOL     OW97573   5.835   5.509   1.241
32516SOL    HW197574   5.892   5.444   1.291
32516SOL    HW297575   5.819   5.476   1.148
32517SOL     OW97576   6.526   5.422   0.904
32517SOL    HW197577   6.606   5.365   0.925
32517SOL    HW297578   6.477   5.382   0.827
32518SOL     OW97579   5.968   4.424   0.480
32518SOL    HW197580   6.013   4.334   0.477
32518SOL    HW297581   5.874   4.413   0.513
32519SOL     OW97582   7.133   3.946   1.729
32519SOL    HW197583   7.128   3.983   1.821
32519SOL    HW297584   7.061   3.877   1.717
32520SOL     OW97585   6.200   3.846   0.117
32520SOL    HW197586   6.298   3.824   0.124
32520SOL    HW297587   6.169   3.829   0.024
32521SOL     OW97588   6.367   3.988   1.749
32521SOL    HW197589   6.434   3.927   1.792
32521SOL    HW297590   6.294   4.007   1.814
32522SOL     OW97591   6.474   5.238   1.195
32522SOL    HW197592   6.451   5.213   1.101
32522SOL    HW297593   6.535   5.169   1.234
32523SOL     OW97594   6.937   4.314   1.433
32523SOL    HW197595   6.965   4.271   1.518
32523SOL    HW297596   6.962   4.410   1.434
32524SOL     OW97597   6.389   5.126   0.924
32524SOL    HW197598   6.479   5.140   0.882
32524SOL    HW297599   6.318   5.128   0.853
32525SOL     OW97600   6.508   4.227   0.899
32525SOL    HW197601   6.483   4.218   0.803
32525SOL    HW297602   6.556   4.145   0.930
32526SOL     OW97603   6.125   3.788   0.512
32526SOL    HW197604   6.044   3.789   0.570
32526SOL    HW297605   6.128   3.871   0.457
32527SOL     OW97606   7.020   4.912   0.041
32527SOL    HW197607   7.052   4.836   0.098
32527SOL    HW297608   6.928   4.939   0.071
32528SOL     OW97609   5.883   3.759   0.171
32528SOL    HW197610   5.932   3.843   0.150
32528SOL    HW297611   5.945   3.694   0.216
32529SOL     OW97612   6.521   3.960   0.480
32529SOL    HW197613   6.473   4.001   0.402
32529SOL    HW297614   6.620   3.958   0.461
32530SOL     OW97615   6.662   4.407   1.464
32530SOL    HW197616   6.582   4.346   1.467
32530SOL    HW297617   6.743   4.354   1.440
32531SOL     OW97618   6.813   5.294   0.793
32531SOL    HW197619   6.834   5.368   0.728
32531SOL    HW297620   6.881   5.294   0.866
32532SOL     OW97621   6.045   4.876   0.741
32532SOL    HW197622   5.974   4.849   0.806
32532SOL    HW297623   6.019   4.848   0.648
32533SOL     OW97624   6.857   5.521   0.591
32533SOL    HW197625   6.901   5.585   0.527
32533SOL    HW297626   6.807   5.573   0.661
32534SOL     OW97627   6.618   4.273   0.016
32534SOL    HW197628   6.577   4.355  -0.023
32534SOL    HW297629   6.682   4.299   0.089
32535SOL     OW97630   5.664   4.280   1.386
32535SOL    HW197631   5.756   4.279   1.345
32535SOL    HW297632   5.658   4.354   1.453
32536SOL     OW97633   6.147   3.946   1.147
32536SOL    HW197634   6.185   3.862   1.184
32536SOL    HW297635   6.059   3.965   1.191
32537SOL     OW97636   6.452   4.178   0.642
32537SOL    HW197637   6.420   4.250   0.580
32537SOL    HW297638   6.476   4.097   0.589
32538SOL     OW97639   6.603   3.763   0.753
32538SOL    HW197640   6.531   3.768   0.684
32538SOL    HW297641   6.579   3.694   0.822
32539SOL     OW97642   7.015   4.897   0.867
32539SOL    HW197643   6.960   4.813   0.860
32539SOL    HW297644   7.041   4.926   0.775
32540SOL     OW97645   7.052   4.314   0.992
32540SOL    HW197646   7.022   4.219   0.999
32540SOL    HW297647   7.125   4.330   1.058
32541SOL     OW97648   7.443   4.557   0.377
32541SOL    HW197649   7.485   4.493   0.441
32541SOL    HW297650   7.405   4.506   0.299
32542SOL     OW97651   6.074   5.109   0.174
32542SOL    HW197652   5.987   5.094   0.221
32542SOL    HW297653   6.057   5.135   0.079
32543SOL     OW97654   7.250   5.004   0.657
32543SOL    HW197655   7.349   5.012   0.671
32543SOL    HW297656   7.205   5.088   0.688
32544SOL     OW97657   6.976   4.299   0.078
32544SOL    HW197658   6.922   4.278   0.159
32544SOL    HW297659   7.067   4.258   0.087
32545SOL     OW97660   6.113   3.980   0.328
32545SOL    HW197661   6.140   3.921   0.253
32545SOL    HW297662   6.113   4.075   0.297
32546SOL     OW97663   7.340   4.947   1.588
32546SOL    HW197664   7.431   4.908   1.575
32546SOL    HW297665   7.348   5.043   1.612
32547SOL     OW97666   6.650   5.071   1.340
32547SOL    HW197667   6.570   5.048   1.395
32547SOL    HW297668   6.733   5.045   1.389
32548SOL     OW97669   7.178   5.353   1.625
32548SOL    HW197670   7.205   5.387   1.535
32548SOL    HW297671   7.257   5.315   1.671
32549SOL     OW97672   6.697   4.919   1.100
32549SOL    HW197673   6.657   4.963   1.181
32549SOL    HW297674   6.656   4.956   1.017
32550SOL     OW97675   7.224   4.823   1.079
32550SOL    HW197676   7.229   4.904   1.138
32550SOL    HW297677   7.138   4.825   1.028
32551SOL     OW97678   6.501   3.813   1.402
32551SOL    HW197679   6.526   3.793   1.307
32551SOL    HW297680   6.573   3.869   1.444
32552SOL     OW97681   6.566   4.840   1.719
32552SOL    HW197682   6.467   4.846   1.729
32552SOL    HW297683   6.589   4.760   1.663
32553SOL     OW97684   6.291   4.774   0.368
32553SOL    HW197685   6.277   4.781   0.467
32553SOL    HW297686   6.375   4.723   0.350
32554SOL     OW97687   5.996   4.537   1.251
32554SOL    HW197688   6.082   4.549   1.301
32554SOL    HW297689   5.954   4.450   1.278
32555SOL     OW97690   6.860   4.110   1.262
32555SOL    HW197691   6.881   4.184   1.326
32555SOL    HW297692   6.771   4.127   1.219
32556SOL     OW97693   5.650   5.288   1.331
32556SOL    HW197694   5.604   5.370   1.297
32556SOL    HW297695   5.748   5.307   1.340
32557SOL     OW97696   5.953   4.824   0.501
32557SOL    HW197697   5.946   4.907   0.445
32557SOL    HW297698   5.957   4.744   0.441
32558SOL     OW97699   6.152   4.261   0.865
32558SOL    HW197700   6.164   4.327   0.791
32558SOL    HW297701   6.198   4.295   0.948
32559SOL     OW97702   6.838   5.072   0.388
32559SOL    HW197703   6.888   5.149   0.428
32559SOL    HW297704   6.743   5.074   0.420
32560SOL     OW97705   6.858   5.169   1.142
32560SOL    HW197706   6.905   5.182   1.229
32560SOL    HW297707   6.792   5.095   1.151
32561SOL     OW97708   7.168   4.363   0.472
32561SOL    HW197709   7.137   4.424   0.545
32561SOL    HW297710   7.218   4.415   0.403
32562SOL     OW97711   5.940   5.234   1.329
32562SOL    HW197712   5.919   5.190   1.242
32562SOL    HW297713   6.037   5.260   1.332
32563SOL     OW97714   5.988   4.475   1.598
32563SOL    HW197715   6.056   4.530   1.551
32563SOL    HW297716   6.028   4.387   1.625
32564SOL     OW97717   7.173   4.503   1.670
32564SOL    HW197718   7.081   4.541   1.665
32564SOL    HW297719   7.233   4.550   1.605
32565SOL     OW97720   6.599   3.829   1.770
32565SOL    HW197721   6.605   3.914   1.718
32565SOL    HW297722   6.631   3.753   1.713
32566SOL     OW97723   6.090   3.774   1.740
32566SOL    HW197724   6.048   3.717   1.670
32566SOL    HW297725   6.024   3.843   1.772
32567SOL     OW97726   6.159   4.594   1.029
32567SOL    HW197727   6.203   4.683   1.020
32567SOL    HW297728   6.096   4.594   1.106
32568SOL     OW97729   6.946   4.586   1.045
32568SOL    HW197730   6.871   4.586   0.979
32568SOL    HW297731   6.983   4.494   1.054
32569SOL     OW97732   6.795   4.249   0.275
32569SOL    HW197733   6.808   4.165   0.329
32569SOL    HW297734   6.766   4.323   0.335
32570SOL     OW97735   5.893   3.937   1.231
32570SOL    HW197736   5.870   3.974   1.321
32570SOL    HW297737   5.863   3.842   1.225
32571SOL     OW97738   5.623   5.034   1.282
32571SOL    HW197739   5.676   4.985   1.350
32571SOL    HW297740   5.645   5.132   1.287
32572SOL     OW97741   6.318   4.358   1.064
32572SOL    HW197742   6.377   4.332   0.988
32572SOL    HW297743   6.290   4.454   1.053
32573SOL     OW97744   7.314   4.659   1.854
32573SOL    HW197745   7.268   4.652   1.765
32573SOL    HW297746   7.252   4.703   1.920
32574SOL     OW97747   5.893   3.787   0.618
32574SOL    HW197748   5.882   3.881   0.651
32574SOL    HW297749   5.888   3.724   0.695
32575SOL     OW97750   7.208   4.091   0.374
32575SOL    HW197751   7.210   4.015   0.438
32575SOL    HW297752   7.160   4.168   0.414
32576SOL     OW97753   6.609   4.490   0.966
32576SOL    HW197754   6.624   4.511   1.062
32576SOL    HW297755   6.579   4.395   0.957
32577SOL     OW97756   6.566   5.297   1.700
32577SOL    HW197757   6.546   5.341   1.612
32577SOL    HW297758   6.605   5.206   1.684
32578SOL     OW97759   7.445   5.242   1.605
32578SOL    HW197760   7.459   5.269   1.510
32578SOL    HW297761   7.528   5.264   1.658
32579SOL     OW97762   5.936   4.622   1.804
32579SOL    HW197763   6.012   4.666   1.852
32579SOL    HW297764   5.971   4.575   1.722
32580SOL     OW97765   7.126   3.998   0.125
32580SOL    HW197766   7.065   3.923   0.148
32580SOL    HW297767   7.148   4.050   0.208
32581SOL     OW97768   6.889   4.562   0.042
32581SOL    HW197769   6.923   4.469   0.057
32581SOL    HW297770   6.907   4.589  -0.053
32582SOL     OW97771   6.654   5.057   0.849
32582SOL    HW197772   6.661   4.973   0.794
32582SOL    HW297773   6.716   5.126   0.813
32583SOL     OW97774   5.905   4.534   0.949
32583SOL    HW197775   5.998   4.570   0.954
32583SOL    HW297776   5.899   4.449   1.001
32584SOL     OW97777   5.925   4.233   1.006
32584SOL    HW197778   5.873   4.150   0.989
32584SOL    HW297779   6.002   4.238   0.942
32585SOL     OW97780   6.724   4.104   1.678
32585SOL    HW197781   6.679   4.167   1.742
32585SOL    HW297782   6.817   4.135   1.661
32586SOL     OW97783   6.746   3.931   1.477
32586SOL    HW197784   6.746   3.995   1.554
32586SOL    HW297785   6.774   3.979   1.394
32587SOL     OW97786   5.594   5.050   0.200
32587SOL    HW197787   5.501   5.071   0.169
32587SOL    HW297788   5.604   4.951   0.213
32588SOL     OW97789   5.674   5.525   0.927
32588SOL    HW197790   5.632   5.439   0.900
32588SOL    HW297791   5.768   5.528   0.893
32589SOL     OW97792   6.090   5.292   0.910
32589SOL    HW197793   6.156   5.366   0.919
32589SOL    HW297794   6.134   5.213   0.868
32590SOL     OW97795   6.588   4.520   1.238
32590SOL    HW197796   6.629   4.488   1.324
32590SOL    HW297797   6.492   4.493   1.235
32591SOL     OW97798   5.626   4.268   1.114
32591SOL    HW197799   5.711   4.235   1.073
32591SOL    HW297800   5.639   4.283   1.212
32592SOL     OW97801   5.775   4.244   1.722
32592SOL    HW197802   5.834   4.204   1.652
32592SOL    HW297803   5.717   4.315   1.681
32593SOL     OW97804   6.955   4.674   1.660
32593SOL    HW197805   6.994   4.763   1.680
32593SOL    HW297806   6.965   4.654   1.563
32594SOL     OW97807   6.401   4.296   0.325
32594SOL    HW197808   6.408   4.207   0.279
32594SOL    HW297809   6.307   4.330   0.317
32595SOL     OW97810   7.243   4.328   1.206
32595SOL    HW197811   7.205   4.259   1.268
32595SOL    HW297812   7.325   4.292   1.162
32596SOL     OW97813   5.838   5.288   1.744
32596SOL    HW197814   5.808   5.345   1.820
32596SOL    HW297815   5.831   5.191   1.770
32597SOL     OW97816   6.257   4.188   1.269
32597SOL    HW197817   6.223   4.099   1.239
32597SOL    HW297818   6.283   4.242   1.189
32598SOL     OW97819   6.516   5.402   1.465
32598SOL    HW197820   6.492   5.384   1.370
32598SOL    HW297821   6.546   5.496   1.475
32599SOL     OW97822   6.059   4.224   0.191
32599SOL    HW197823   6.120   4.304   0.195
32599SOL    HW297824   5.964   4.255   0.198
32600SOL     OW97825   5.745   4.861   1.466
32600SOL    HW197826   5.767   4.800   1.542
32600SOL    HW297827   5.755   4.812   1.380
32601SOL     OW97828   6.933   4.783   1.234
32601SOL    HW197829   6.957   4.720   1.160
32601SOL    HW297830   6.843   4.823   1.216
32602SOL     OW97831   6.888   4.579   0.309
32602SOL    HW197832   6.802   4.548   0.351
32602SOL    HW297833   6.884   4.565   0.210
32603SOL     OW97834   7.345   5.471   1.154
32603SOL    HW197835   7.406   5.501   1.081
32603SOL    HW297836   7.307   5.382   1.132
32604SOL     OW97837   6.838   5.455   1.128
32604SOL    HW197838   6.922   5.460   1.074
32604SOL    HW297839   6.815   5.359   1.146
32605SOL     OW97840   5.669   4.982   1.022
32605SOL    HW197841   5.664   4.981   1.122
32605SOL    HW297842   5.586   4.941   0.984
32606SOL     OW97843   6.274   5.386   1.716
32606SOL    HW197844   6.218   5.467   1.725
32606SOL    HW297845   6.326   5.390   1.630
32607SOL     OW97846   6.489   3.810   0.133
32607SOL    HW197847   6.540   3.811   0.047
32607SOL    HW297848   6.545   3.768   0.204
32608SOL     OW97849   7.312   3.859   0.523
32608SOL    HW197850   7.385   3.842   0.456
32608SOL    HW297851   7.281   3.772   0.561
32609SOL     OW97852   6.974   5.297   0.477
32609SOL    HW197853   7.041   5.309   0.403
32609SOL    HW297854   6.934   5.386   0.500
32610SOL     OW97855   5.716   5.518   1.851
32610SOL    HW197856   5.675   5.444   1.904
32610SOL    HW297857   5.780   5.569   1.909
32611SOL     OW97858   6.866   4.651   0.672
32611SOL    HW197859   6.926   4.570   0.674
32611SOL    HW297860   6.906   4.720   0.612
32612SOL     OW97861   6.416   4.997   1.422
32612SOL    HW197862   6.411   5.030   1.517
32612SOL    HW297863   6.330   5.016   1.376
32613SOL     OW97864   6.258   5.340   0.154
32613SOL    HW197865   6.267   5.350   0.055
32613SOL    HW297866   6.218   5.251   0.175
32614SOL     OW97867   7.236   5.444   1.394
32614SOL    HW197868   7.289   5.454   1.310
32614SOL    HW297869   7.209   5.534   1.428
32615SOL     OW97870   7.427   3.899   0.963
32615SOL    HW197871   7.466   3.814   0.927
32615SOL    HW297872   7.329   3.901   0.944
32616SOL     OW97873   5.849   4.050   0.720
32616SOL    HW197874   5.770   4.101   0.686
32616SOL    HW297875   5.840   4.035   0.818
32617SOL     OW97876   6.780   5.336   0.031
32617SOL    HW197877   6.786   5.243   0.068
32617SOL    HW297878   6.721   5.336  -0.049
32618SOL     OW97879   6.408   4.726   1.372
32618SOL    HW197880   6.448   4.725   1.280
32618SOL    HW297881   6.418   4.818   1.412
32619SOL     OW97882   6.502   4.634   0.291
32619SOL    HW197883   6.565   4.672   0.223
32619SOL    HW297884   6.542   4.551   0.330
32620SOL     OW97885   7.090   5.331   0.044
32620SOL    HW197886   6.998   5.368   0.051
32620SOL    HW297887   7.128   5.351  -0.046
32621SOL     OW97888   5.958   5.012   1.490
32621SOL    HW197889   5.945   5.105   1.456
32621SOL    HW297890   5.874   4.960   1.477
32622SOL     OW97891   7.200   5.016   1.289
32622SOL    HW197892   7.260   5.019   1.369
32622SOL    HW297893   7.125   5.080   1.302
32623SOL     OW97894   6.625   4.822   0.696
32623SOL    HW197895   6.555   4.775   0.750
32623SOL    HW297896   6.684   4.754   0.653
32624SOL     OW97897   6.600   3.960   0.971
32624SOL    HW197898   6.592   3.924   0.878
32624SOL    HW297899   6.598   3.884   1.036
32625SOL     OW97900   6.176   5.211   0.491
32625SOL    HW197901   6.218   5.153   0.421
32625SOL    HW297902   6.132   5.290   0.447
32626SOL     OW97903   7.295   4.109   1.381
32626SOL    HW197904   7.368   4.178   1.385
32626SOL    HW297905   7.323   4.034   1.322
32627SOL     OW97906   5.841   5.072   0.290
32627SOL    HW197907   5.745   5.073   0.263
32627SOL    HW297908   5.853   5.125   0.374
32628SOL     OW97909   5.691   4.737   1.726
32628SOL    HW197910   5.614   4.704   1.780
32628SOL    HW297911   5.776   4.707   1.768
32629SOL     OW97912   6.258   3.927   1.489
32629SOL    HW197913   6.348   3.911   1.449
32629SOL    HW297914   6.266   3.932   1.588
32630SOL     OW97915   7.026   4.580   1.398
32630SOL    HW197916   6.969   4.632   1.335
32630SOL    HW297917   7.122   4.592   1.374
32631SOL     OW97918   5.658   3.890   0.318
32631SOL    HW197919   5.641   3.973   0.264
32631SOL    HW297920   5.748   3.853   0.296
32632SOL     OW97921   6.769   5.059   0.119
32632SOL    HW197922   6.670   5.048   0.121
32632SOL    HW297923   6.803   5.074   0.212
32633SOL     OW97924   6.199   4.566   1.431
32633SOL    HW197925   6.255   4.647   1.414
32633SOL    HW297926   6.258   4.486   1.434
32634SOL     OW97927   7.079   5.491   0.959
32634SOL    HW197928   7.112   5.555   0.890
32634SOL    HW297929   7.145   5.485   1.034
32635SOL     OW97930   6.302   4.289   1.708
32635SOL    HW197931   6.321   4.354   1.782
32635SOL    HW297932   6.362   4.209   1.717
32636SOL     OW97933   7.036   4.944   1.633
32636SOL    HW197934   7.027   4.934   1.732
32636SOL    HW297935   7.132   4.937   1.607
32637SOL     OW97936   5.976   5.465   1.560
32637SOL    HW197937   5.885   5.506   1.558
32637SOL    HW297938   5.969   5.371   1.592
32638SOL     OW97939   7.260   4.607   1.254
32638SOL    HW197940   7.233   4.518   1.217
32638SOL    HW297941   7.261   4.675   1.181
32639SOL     OW97942   6.811   4.049   0.449
32639SOL    HW197943   6.876   3.975   0.438
32639SOL    HW297944   6.831   4.099   0.533
32640SOL     OW97945   6.180   4.469   0.652
32640SOL    HW197946   6.230   4.554   0.633
32640SOL    HW297947   6.092   4.471   0.604
32641SOL     OW97948   7.363   4.066   1.642
32641SOL    HW197949   7.346   4.097   1.548
32641SOL    HW297950   7.279   4.029   1.680
32642SOL     OW97951   7.316   4.658   1.517
32642SOL    HW197952   7.354   4.749   1.532
32642SOL    HW297953   7.308   4.641   1.418
32643SOL     OW97954   6.445   5.098   0.016
32643SOL    HW197955   6.399   5.113   0.104
32643SOL    HW297956   6.489   5.183  -0.014
32644SOL     OW97957   6.247   5.514   0.953
32644SOL    HW197958   6.201   5.602   0.940
32644SOL    HW297959   6.346   5.526   0.946
32645SOL     OW97960   6.445   4.680   0.861
32645SOL    HW197961   6.499   4.611   0.909
32645SOL    HW297962   6.413   4.749   0.927
32646SOL     OW97963   6.669   4.708   0.087
32646SOL    HW197964   6.646   4.761   0.005
32646SOL    HW297965   6.750   4.652   0.068
32647SOL     OW97966   7.447   5.293   0.851
32647SOL    HW197967   7.376   5.281   0.781
32647SOL    HW297968   7.448   5.214   0.911
32648SOL     OW97969   5.807   5.038   1.844
32648SOL    HW197970   5.742   4.965   1.823
32648SOL    HW297971   5.811   5.052   1.942
32649SOL     OW97972   5.665   4.964   0.653
32649SOL    HW197973   5.664   4.917   0.741
32649SOL    HW297974   5.747   4.936   0.602
32650SOL     OW97975   6.258   5.115   1.624
32650SOL    HW197976   6.180   5.065   1.662
32650SOL    HW297977   6.255   5.210   1.655
32651SOL     OW97978   7.410   3.916   1.227
32651SOL    HW197979   7.406   3.826   1.271
32651SOL    HW297980   7.413   3.905   1.128
32652SOL     OW97981   6.014   4.148   0.520
32652SOL    HW197982   6.044   4.076   0.458
32652SOL    HW297983   5.975   4.108   0.603
32653SOL     OW97984   7.291   5.211   1.104
32653SOL    HW197985   7.198   5.186   1.077
32653SOL    HW297986   7.317   5.161   1.186
32654SOL     OW97987   5.903   4.271   1.280
32654SOL    HW197988   5.941   4.212   1.352
32654SOL    HW297989   5.943   4.245   1.192
32655SOL     OW97990   6.398   5.310   0.687
32655SOL    HW197991   6.430   5.320   0.593
32655SOL    HW297992   6.319   5.248   0.689
32656SOL     OW97993   7.010   3.938   1.112
32656SOL    HW197994   7.062   3.873   1.167
32656SOL    HW297995   6.961   4.001   1.173
32657SOL     OW97996   6.587   3.758   1.154
32657SOL    HW197997   6.524   3.686   1.123
32657SOL    HW297998   6.680   3.722   1.154
32658SOL     OW97999   6.356   5.054   0.301
32658SOL    HW198000   6.310   4.967   0.318
32658SOL    HW298001   6.447   5.051   0.342
32659SOL     OW98002   6.204   5.291   1.284
32659SOL    HW198003   6.199   5.373   1.341
32659SOL    HW298004   6.293   5.288   1.239
32660SOL     OW98005   6.938   3.776   0.168
32660SOL    HW198006   6.973   3.735   0.084
32660SOL    HW298007   6.848   3.738   0.188
32661SOL     OW98008   6.886   4.177   0.691
32661SOL    HW198009   6.827   4.257   0.695
32661SOL    HW298010   6.901   4.142   0.784
32662SOL     OW98011   7.179   3.945   0.882
32662SOL    HW198012   7.095   3.944   0.936
32662SOL    HW298013   7.181   4.028   0.826
32663SOL     OW98014   5.625   4.801   0.300
32663SOL    HW198015   5.724   4.790   0.291
32663SOL    HW298016   5.585   4.715   0.332
32664SOL     OW98017   6.461   5.370   0.337
32664SOL    HW198018   6.384   5.335   0.283
32664SOL    HW298019   6.429   5.441   0.399
32665SOL     OW98020   5.816   4.352   1.975
32665SOL    HW198021   5.723   4.350   2.012
32665SOL    HW298022   5.817   4.313   1.883
32666SOL     OW98023   5.811   3.999   2.858
32666SOL    HW198024   5.846   3.982   2.950
32666SOL    HW298025   5.723   3.954   2.846
32667SOL     OW98026   5.605   4.092   2.509
32667SOL    HW198027   5.523   4.135   2.548
32667SOL    HW298028   5.577   4.019   2.446
32668SOL     OW98029   6.155   4.999   3.027
32668SOL    HW198030   6.062   4.992   2.990
32668SOL    HW298031   6.166   5.088   3.071
32669SOL     OW98032   7.141   5.235   2.565
32669SOL    HW198033   7.084   5.219   2.646
32669SOL    HW298034   7.082   5.245   2.485
32670SOL     OW98035   6.721   4.427   2.579
32670SOL    HW198036   6.778   4.505   2.554
32670SOL    HW298037   6.661   4.453   2.655
32671SOL     OW98038   7.341   4.331   2.093
32671SOL    HW198039   7.329   4.318   1.994
32671SOL    HW298040   7.311   4.250   2.142
32672SOL     OW98041   6.354   4.868   2.885
32672SOL    HW198042   6.276   4.885   2.945
32672SOL    HW298043   6.388   4.955   2.849
32673SOL     OW98044   6.436   4.522   3.685
32673SOL    HW198045   6.432   4.598   3.750
32673SOL    HW298046   6.458   4.558   3.594
32674SOL     OW98047   6.271   4.736   2.527
32674SOL    HW198048   6.340   4.720   2.597
32674SOL    HW298049   6.198   4.793   2.565
32675SOL     OW98050   6.272   4.885   3.665
32675SOL    HW198051   6.332   4.964   3.679
32675SOL    HW298052   6.186   4.916   3.624
32676SOL     OW98053   5.921   5.159   2.923
32676SOL    HW198054   5.843   5.128   2.870
32676SOL    HW298055   5.979   5.217   2.866
32677SOL     OW98056   7.046   5.229   3.201
32677SOL    HW198057   7.070   5.323   3.227
32677SOL    HW298058   7.030   5.175   3.283
32678SOL     OW98059   6.024   4.116   3.361
32678SOL    HW198060   6.106   4.060   3.370
32678SOL    HW298061   5.943   4.058   3.365
32679SOL     OW98062   7.189   4.171   2.599
32679SOL    HW198063   7.115   4.217   2.549
32679SOL    HW298064   7.240   4.239   2.652
32680SOL     OW98065   5.817   5.437   2.345
32680SOL    HW198066   5.851   5.514   2.399
32680SOL    HW298067   5.861   5.437   2.255
32681SOL     OW98068   6.713   5.065   3.552
32681SOL    HW198069   6.760   5.065   3.640
32681SOL    HW298070   6.665   4.978   3.541
32682SOL     OW98071   5.816   5.158   2.400
32682SOL    HW198072   5.790   5.254   2.400
32682SOL    HW298073   5.745   5.104   2.445
32683SOL     OW98074   5.826   4.815   2.748
32683SOL    HW198075   5.840   4.731   2.800
32683SOL    HW298076   5.771   4.879   2.803
32684SOL     OW98077   6.206   5.510   3.301
32684SOL    HW198078   6.114   5.493   3.336
32684SOL    HW298079   6.234   5.602   3.327
32685SOL     OW98080   6.192   4.688   1.985
32685SOL    HW198081   6.199   4.772   1.931
32685SOL    HW298082   6.238   4.701   2.073
32686SOL     OW98083   7.180   3.838   3.342
32686SOL    HW198084   7.162   3.905   3.270
32686SOL    HW298085   7.177   3.884   3.431
32687SOL     OW98086   5.708   4.367   2.425
32687SOL    HW198087   5.663   4.279   2.442
32687SOL    HW298088   5.707   4.421   2.509
32688SOL     OW98089   7.428   5.491   2.221
32688SOL    HW198090   7.482   5.462   2.301
32688SOL    HW298091   7.458   5.581   2.192
32689SOL     OW98092   5.613   5.320   1.979
32689SOL    HW198093   5.594   5.224   2.000
32689SOL    HW298094   5.580   5.378   2.054
32690SOL     OW98095   7.275   4.646   2.474
32690SOL    HW198096   7.370   4.617   2.482
32690SOL    HW298097   7.267   4.711   2.399
32691SOL     OW98098   7.227   4.832   2.294
32691SOL    HW198099   7.313   4.834   2.242
32691SOL    HW298100   7.241   4.879   2.382
32692SOL     OW98101   5.699   4.461   3.459
32692SOL    HW198102   5.787   4.448   3.504
32692SOL    HW298103   5.686   4.558   3.437
32693SOL     OW98104   6.199   5.089   2.588
32693SOL    HW198105   6.150   5.002   2.597
32693SOL    HW298106   6.176   5.132   2.501
32694SOL     OW98107   6.879   4.952   3.285
32694SOL    HW198108   6.916   4.879   3.227
32694SOL    HW298109   6.931   4.957   3.370
32695SOL     OW98110   6.395   3.728   2.364
32695SOL    HW198111   6.435   3.819   2.355
32695SOL    HW298112   6.295   3.736   2.370
32696SOL     OW98113   5.783   4.700   3.126
32696SOL    HW198114   5.872   4.655   3.112
32696SOL    HW298115   5.710   4.635   3.107
32697SOL     OW98116   7.111   4.723   2.052
32697SOL    HW198117   7.048   4.647   2.065
32697SOL    HW298118   7.159   4.741   2.138
32698SOL     OW98119   6.773   5.516   3.478
32698SOL    HW198120   6.797   5.576   3.402
32698SOL    HW298121   6.780   5.421   3.448
32699SOL     OW98122   5.903   3.975   3.663
32699SOL    HW198123   5.974   4.046   3.669
32699SOL    HW298124   5.815   4.014   3.691
32700SOL     OW98125   7.052   5.141   2.815
32700SOL    HW198126   6.993   5.147   2.895
32700SOL    HW298127   7.037   5.053   2.769
32701SOL     OW98128   7.253   5.438   2.434
32701SOL    HW198129   7.212   5.415   2.346
32701SOL    HW298130   7.235   5.364   2.499
32702SOL     OW98131   6.184   4.453   2.132
32702SOL    HW198132   6.208   4.522   2.064
32702SOL    HW298133   6.106   4.486   2.186
32703SOL     OW98134   6.867   4.069   2.806
32703SOL    HW198135   6.781   4.019   2.793
32703SOL    HW298136   6.929   4.015   2.862
32704SOL     OW98137   7.162   5.386   2.169
32704SOL    HW198138   7.251   5.432   2.172
32704SOL    HW298139   7.141   5.362   2.074
32705SOL     OW98140   6.393   4.329   3.327
32705SOL    HW198141   6.346   4.326   3.416
32705SOL    HW298142   6.342   4.274   3.261
32706SOL     OW98143   6.980   4.193   3.536
32706SOL    HW198144   6.960   4.236   3.624
32706SOL    HW298145   7.058   4.131   3.545
32707SOL     OW98146   6.559   4.614   3.434
32707SOL    HW198147   6.605   4.530   3.405
32707SOL    HW298148   6.503   4.648   3.359
32708SOL     OW98149   6.577   4.134   3.104
32708SOL    HW198150   6.500   4.168   3.158
32708SOL    HW298151   6.543   4.083   3.025
32709SOL     OW98152   6.627   4.425   2.291
32709SOL    HW198153   6.653   4.421   2.387
32709SOL    HW298154   6.542   4.374   2.277
32710SOL     OW98155   5.662   4.535   2.651
32710SOL    HW198156   5.761   4.523   2.660
32710SOL    HW298157   5.638   4.630   2.672
32711SOL     OW98158   5.716   5.545   3.433
32711SOL    HW198159   5.706   5.530   3.532
32711SOL    HW298160   5.630   5.581   3.397
32712SOL     OW98161   6.451   4.072   2.057
32712SOL    HW198162   6.510   4.135   2.008
32712SOL    HW298163   6.470   3.978   2.028
32713SOL     OW98164   7.305   4.309   3.693
32713SOL    HW198165   7.279   4.398   3.657
32713SOL    HW298166   7.303   4.241   3.620
32714SOL     OW98167   6.948   4.868   2.407
32714SOL    HW198168   7.031   4.839   2.359
32714SOL    HW298169   6.899   4.935   2.351
32715SOL     OW98170   6.136   3.920   2.747
32715SOL    HW198171   6.131   3.915   2.847
32715SOL    HW298172   6.138   4.016   2.718
32716SOL     OW98173   6.594   5.180   2.339
32716SOL    HW198174   6.548   5.252   2.287
32716SOL    HW298175   6.590   5.200   2.437
32717SOL     OW98176   5.937   5.525   2.715
32717SOL    HW198177   5.987   5.439   2.721
32717SOL    HW298178   6.002   5.602   2.712
32718SOL     OW98179   7.381   4.790   2.735
32718SOL    HW198180   7.319   4.775   2.659
32718SOL    HW298181   7.329   4.801   2.820
32719SOL     OW98182   6.813   5.274   3.368
32719SOL    HW198183   6.819   5.197   3.432
32719SOL    HW298184   6.761   5.248   3.288
32720SOL     OW98185   5.907   4.667   2.104
32720SOL    HW198186   5.989   4.706   2.062
32720SOL    HW298187   5.880   4.585   2.055
32721SOL     OW98188   7.044   4.459   2.590
32721SOL    HW198189   7.039   4.394   2.665
32721SOL    HW298190   7.124   4.518   2.603
32722SOL     OW98191   6.047   4.990   3.589
32722SOL    HW198192   5.997   4.991   3.503
32722SOL    HW298193   5.984   4.972   3.665
32723SOL     OW98194   6.697   5.500   2.099
32723SOL    HW198195   6.637   5.438   2.149
32723SOL    HW298196   6.728   5.456   2.014
32724SOL     OW98197   5.788   4.009   3.360
32724SOL    HW198198   5.708   4.069   3.347
32724SOL    HW298199   5.778   3.960   3.446
32725SOL     OW98200   7.218   5.101   1.943
32725SOL    HW198201   7.186   5.195   1.933
32725SOL    HW298202   7.142   5.038   1.931
32726SOL     OW98203   6.050   5.467   2.185
32726SOL    HW198204   6.083   5.506   2.271
32726SOL    HW298205   6.126   5.460   2.120
32727SOL     OW98206   6.986   3.831   2.288
32727SOL    HW198207   6.962   3.794   2.198
32727SOL    HW298208   7.085   3.847   2.292
32728SOL     OW98209   5.835   5.509   3.103
32728SOL    HW198210   5.892   5.444   3.153
32728SOL    HW298211   5.819   5.476   3.010
32729SOL     OW98212   6.526   5.422   2.766
32729SOL    HW198213   6.606   5.365   2.787
32729SOL    HW298214   6.477   5.382   2.689
32730SOL     OW98215   5.968   4.424   2.342
32730SOL    HW198216   6.013   4.334   2.339
32730SOL    HW298217   5.874   4.413   2.375
32731SOL     OW98218   7.133   3.946   3.591
32731SOL    HW198219   7.128   3.983   3.683
32731SOL    HW298220   7.061   3.877   3.579
32732SOL     OW98221   6.200   3.846   1.979
32732SOL    HW198222   6.298   3.824   1.986
32732SOL    HW298223   6.169   3.829   1.886
32733SOL     OW98224   6.367   3.988   3.611
32733SOL    HW198225   6.434   3.927   3.654
32733SOL    HW298226   6.294   4.007   3.676
32734SOL     OW98227   6.474   5.238   3.057
32734SOL    HW198228   6.451   5.213   2.963
32734SOL    HW298229   6.535   5.169   3.096
32735SOL     OW98230   6.937   4.314   3.295
32735SOL    HW198231   6.965   4.271   3.380
32735SOL    HW298232   6.962   4.410   3.296
32736SOL     OW98233   6.389   5.126   2.786
32736SOL    HW198234   6.479   5.140   2.744
32736SOL    HW298235   6.318   5.128   2.715
32737SOL     OW98236   6.508   4.227   2.761
32737SOL    HW198237   6.483   4.218   2.665
32737SOL    HW298238   6.556   4.145   2.792
32738SOL     OW98239   6.125   3.788   2.374
32738SOL    HW198240   6.044   3.789   2.432
32738SOL    HW298241   6.128   3.871   2.319
32739SOL     OW98242   7.020   4.912   1.903
32739SOL    HW198243   7.052   4.836   1.960
32739SOL    HW298244   6.928   4.939   1.933
32740SOL     OW98245   5.883   3.759   2.033
32740SOL    HW198246   5.932   3.843   2.012
32740SOL    HW298247   5.945   3.694   2.078
32741SOL     OW98248   6.521   3.960   2.342
32741SOL    HW198249   6.473   4.001   2.264
32741SOL    HW298250   6.620   3.958   2.323
32742SOL     OW98251   6.662   4.407   3.326
32742SOL    HW198252   6.582   4.346   3.329
32742SOL    HW298253   6.743   4.354   3.302
32743SOL     OW98254   6.813   5.294   2.655
32743SOL    HW198255   6.834   5.368   2.590
32743SOL    HW298256   6.881   5.294   2.728
32744SOL     OW98257   6.045   4.876   2.603
32744SOL    HW198258   5.974   4.849   2.668
32744SOL    HW298259   6.019   4.848   2.510
32745SOL     OW98260   6.857   5.521   2.453
32745SOL    HW198261   6.901   5.585   2.389
32745SOL    HW298262   6.807   5.573   2.523
32746SOL     OW98263   6.618   4.273   1.878
32746SOL    HW198264   6.577   4.355   1.839
32746SOL    HW298265   6.682   4.299   1.951
32747SOL     OW98266   5.664   4.280   3.248
32747SOL    HW198267   5.756   4.279   3.207
32747SOL    HW298268   5.658   4.354   3.315
32748SOL     OW98269   6.147   3.946   3.009
32748SOL    HW198270   6.185   3.862   3.046
32748SOL    HW298271   6.059   3.965   3.053
32749SOL     OW98272   6.452   4.178   2.504
32749SOL    HW198273   6.420   4.250   2.442
32749SOL    HW298274   6.476   4.097   2.451
32750SOL     OW98275   6.603   3.763   2.615
32750SOL    HW198276   6.531   3.768   2.546
32750SOL    HW298277   6.579   3.694   2.684
32751SOL     OW98278   7.015   4.897   2.729
32751SOL    HW198279   6.960   4.813   2.722
32751SOL    HW298280   7.041   4.926   2.637
32752SOL     OW98281   7.052   4.314   2.854
32752SOL    HW198282   7.022   4.219   2.861
32752SOL    HW298283   7.125   4.330   2.920
32753SOL     OW98284   7.443   4.557   2.239
32753SOL    HW198285   7.485   4.493   2.303
32753SOL    HW298286   7.405   4.506   2.161
32754SOL     OW98287   6.074   5.109   2.036
32754SOL    HW198288   5.987   5.094   2.083
32754SOL    HW298289   6.057   5.135   1.941
32755SOL     OW98290   7.250   5.004   2.519
32755SOL    HW198291   7.349   5.012   2.533
32755SOL    HW298292   7.205   5.088   2.550
32756SOL     OW98293   6.976   4.299   1.940
32756SOL    HW198294   6.922   4.278   2.021
32756SOL    HW298295   7.067   4.258   1.949
32757SOL     OW98296   6.113   3.980   2.190
32757SOL    HW198297   6.140   3.921   2.115
32757SOL    HW298298   6.113   4.075   2.159
32758SOL     OW98299   7.340   4.947   3.450
32758SOL    HW198300   7.431   4.908   3.437
32758SOL    HW298301   7.348   5.043   3.474
32759SOL     OW98302   6.650   5.071   3.202
32759SOL    HW198303   6.570   5.048   3.257
32759SOL    HW298304   6.733   5.045   3.251
32760SOL     OW98305   7.178   5.353   3.487
32760SOL    HW198306   7.205   5.387   3.397
32760SOL    HW298307   7.257   5.315   3.533
32761SOL     OW98308   6.697   4.919   2.962
32761SOL    HW198309   6.657   4.963   3.043
32761SOL    HW298310   6.656   4.956   2.879
32762SOL     OW98311   7.224   4.823   2.941
32762SOL    HW198312   7.229   4.904   3.000
32762SOL    HW298313   7.138   4.825   2.890
32763SOL     OW98314   6.501   3.813   3.264
32763SOL    HW198315   6.526   3.793   3.169
32763SOL    HW298316   6.573   3.869   3.306
32764SOL     OW98317   6.566   4.840   3.581
32764SOL    HW198318   6.467   4.846   3.591
32764SOL    HW298319   6.589   4.760   3.525
32765SOL     OW98320   6.291   4.774   2.230
32765SOL    HW198321   6.277   4.781   2.329
32765SOL    HW298322   6.375   4.723   2.212
32766SOL     OW98323   5.996   4.537   3.113
32766SOL    HW198324   6.082   4.549   3.163
32766SOL    HW298325   5.954   4.450   3.140
32767SOL     OW98326   6.860   4.110   3.124
32767SOL    HW198327   6.881   4.184   3.188
32767SOL    HW298328   6.771   4.127   3.081
32768SOL     OW98329   5.650   5.288   3.193
32768SOL    HW198330   5.604   5.370   3.159
32768SOL    HW298331   5.748   5.307   3.202
32769SOL     OW98332   5.953   4.824   2.363
32769SOL    HW198333   5.946   4.907   2.307
32769SOL    HW298334   5.957   4.744   2.303
32770SOL     OW98335   6.152   4.261   2.727
32770SOL    HW198336   6.164   4.327   2.653
32770SOL    HW298337   6.198   4.295   2.810
32771SOL     OW98338   6.838   5.072   2.250
32771SOL    HW198339   6.888   5.149   2.290
32771SOL    HW298340   6.743   5.074   2.282
32772SOL     OW98341   6.858   5.169   3.004
32772SOL    HW198342   6.905   5.182   3.091
32772SOL    HW298343   6.792   5.095   3.013
32773SOL     OW98344   7.168   4.363   2.334
32773SOL    HW198345   7.137   4.424   2.407
32773SOL    HW298346   7.218   4.415   2.265
32774SOL     OW98347   5.940   5.234   3.191
32774SOL    HW198348   5.919   5.190   3.104
32774SOL    HW298349   6.037   5.260   3.194
32775SOL     OW98350   5.988   4.475   3.460
32775SOL    HW198351   6.056   4.530   3.413
32775SOL    HW298352   6.028   4.387   3.487
32776SOL     OW98353   7.173   4.503   3.532
32776SOL    HW198354   7.081   4.541   3.527
32776SOL    HW298355   7.233   4.550   3.467
32777SOL     OW98356   6.599   3.829   3.632
32777SOL    HW198357   6.605   3.914   3.580
32777SOL    HW298358   6.631   3.753   3.575
32778SOL     OW98359   6.090   3.774   3.602
32778SOL    HW198360   6.048   3.717   3.532
32778SOL    HW298361   6.024   3.843   3.634
32779SOL     OW98362   6.159   4.594   2.891
32779SOL    HW198363   6.203   4.683   2.882
32779SOL    HW298364   6.096   4.594   2.968
32780SOL     OW98365   6.946   4.586   2.907
32780SOL    HW198366   6.871   4.586   2.841
32780SOL    HW298367   6.983   4.494   2.916
32781SOL     OW98368   6.795   4.249   2.137
32781SOL    HW198369   6.808   4.165   2.191
32781SOL    HW298370   6.766   4.323   2.197
32782SOL     OW98371   5.893   3.937   3.093
32782SOL    HW198372   5.870   3.974   3.183
32782SOL    HW298373   5.863   3.842   3.087
32783SOL     OW98374   5.623   5.034   3.144
32783SOL    HW198375   5.676   4.985   3.212
32783SOL    HW298376   5.645   5.132   3.149
32784SOL     OW98377   6.318   4.358   2.926
32784SOL    HW198378   6.377   4.332   2.850
32784SOL    HW298379   6.290   4.454   2.915
32785SOL     OW98380   7.314   4.659   3.716
32785SOL    HW198381   7.268   4.652   3.627
32785SOL    HW298382   7.252   4.703   3.782
32786SOL     OW98383   5.893   3.787   2.480
32786SOL    HW198384   5.882   3.881   2.513
32786SOL    HW298385   5.888   3.724   2.557
32787SOL     OW98386   7.208   4.091   2.236
32787SOL    HW198387   7.210   4.015   2.300
32787SOL    HW298388   7.160   4.168   2.276
32788SOL     OW98389   6.609   4.490   2.828
32788SOL    HW198390   6.624   4.511   2.924
32788SOL    HW298391   6.579   4.395   2.819
32789SOL     OW98392   6.566   5.297   3.562
32789SOL    HW198393   6.546   5.341   3.474
32789SOL    HW298394   6.605   5.206   3.546
32790SOL     OW98395   7.445   5.242   3.467
32790SOL    HW198396   7.459   5.269   3.372
32790SOL    HW298397   7.528   5.264   3.520
32791SOL     OW98398   5.936   4.622   3.666
32791SOL    HW198399   6.012   4.666   3.714
32791SOL    HW298400   5.971   4.575   3.584
32792SOL     OW98401   7.126   3.998   1.987
32792SOL    HW198402   7.065   3.923   2.010
32792SOL    HW298403   7.148   4.050   2.070
32793SOL     OW98404   6.889   4.562   1.904
32793SOL    HW198405   6.923   4.469   1.919
32793SOL    HW298406   6.907   4.589   1.809
32794SOL     OW98407   6.654   5.057   2.711
32794SOL    HW198408   6.661   4.973   2.656
32794SOL    HW298409   6.716   5.126   2.675
32795SOL     OW98410   5.905   4.534   2.811
32795SOL    HW198411   5.998   4.570   2.816
32795SOL    HW298412   5.899   4.449   2.863
32796SOL     OW98413   5.925   4.233   2.868
32796SOL    HW198414   5.873   4.150   2.851
32796SOL    HW298415   6.002   4.238   2.804
32797SOL     OW98416   6.724   4.104   3.540
32797SOL    HW198417   6.679   4.167   3.604
32797SOL    HW298418   6.817   4.135   3.523
32798SOL     OW98419   6.746   3.931   3.339
32798SOL    HW198420   6.746   3.995   3.416
32798SOL    HW298421   6.774   3.979   3.256
32799SOL     OW98422   5.594   5.050   2.062
32799SOL    HW198423   5.501   5.071   2.031
32799SOL    HW298424   5.604   4.951   2.075
32800SOL     OW98425   5.674   5.525   2.789
32800SOL    HW198426   5.632   5.439   2.762
32800SOL    HW298427   5.768   5.528   2.755
32801SOL     OW98428   6.090   5.292   2.772
32801SOL    HW198429   6.156   5.366   2.781
32801SOL    HW298430   6.134   5.213   2.730
32802SOL     OW98431   6.588   4.520   3.100
32802SOL    HW198432   6.629   4.488   3.186
32802SOL    HW298433   6.492   4.493   3.097
32803SOL     OW98434   5.626   4.268   2.976
32803SOL    HW198435   5.711   4.235   2.935
32803SOL    HW298436   5.639   4.283   3.074
32804SOL     OW98437   5.775   4.244   3.584
32804SOL    HW198438   5.834   4.204   3.514
32804SOL    HW298439   5.717   4.315   3.543
32805SOL     OW98440   6.955   4.674   3.522
32805SOL    HW198441   6.994   4.763   3.542
32805SOL    HW298442   6.965   4.654   3.425
32806SOL     OW98443   6.401   4.296   2.187
32806SOL    HW198444   6.408   4.207   2.141
32806SOL    HW298445   6.307   4.330   2.179
32807SOL     OW98446   7.243   4.328   3.068
32807SOL    HW198447   7.205   4.259   3.130
32807SOL    HW298448   7.325   4.292   3.024
32808SOL     OW98449   5.838   5.288   3.606
32808SOL    HW198450   5.808   5.345   3.682
32808SOL    HW298451   5.831   5.191   3.632
32809SOL     OW98452   6.257   4.188   3.131
32809SOL    HW198453   6.223   4.099   3.101
32809SOL    HW298454   6.283   4.242   3.051
32810SOL     OW98455   6.516   5.402   3.327
32810SOL    HW198456   6.492   5.384   3.232
32810SOL    HW298457   6.546   5.496   3.337
32811SOL     OW98458   6.059   4.224   2.053
32811SOL    HW198459   6.120   4.304   2.057
32811SOL    HW298460   5.964   4.255   2.060
32812SOL     OW98461   5.745   4.861   3.328
32812SOL    HW198462   5.767   4.800   3.404
32812SOL    HW298463   5.755   4.812   3.242
32813SOL     OW98464   6.933   4.783   3.096
32813SOL    HW198465   6.957   4.720   3.022
32813SOL    HW298466   6.843   4.823   3.078
32814SOL     OW98467   6.888   4.579   2.171
32814SOL    HW198468   6.802   4.548   2.213
32814SOL    HW298469   6.884   4.565   2.072
32815SOL     OW98470   7.345   5.471   3.016
32815SOL    HW198471   7.406   5.501   2.943
32815SOL    HW298472   7.307   5.382   2.994
32816SOL     OW98473   6.838   5.455   2.990
32816SOL    HW198474   6.922   5.460   2.936
32816SOL    HW298475   6.815   5.359   3.008
32817SOL     OW98476   5.669   4.982   2.884
32817SOL    HW198477   5.664   4.981   2.984
32817SOL    HW298478   5.586   4.941   2.846
32818SOL     OW98479   6.274   5.386   3.578
32818SOL    HW198480   6.218   5.467   3.587
32818SOL    HW298481   6.326   5.390   3.492
32819SOL     OW98482   7.312   3.859   2.385
32819SOL    HW198483   7.385   3.842   2.318
32819SOL    HW298484   7.281   3.772   2.423
32820SOL     OW98485   6.974   5.297   2.339
32820SOL    HW198486   7.041   5.309   2.265
32820SOL    HW298487   6.934   5.386   2.362
32821SOL     OW98488   5.716   5.518   3.713
32821SOL    HW198489   5.675   5.444   3.766
32821SOL    HW298490   5.780   5.569   3.771
32822SOL     OW98491   6.866   4.651   2.534
32822SOL    HW198492   6.926   4.570   2.536
32822SOL    HW298493   6.906   4.720   2.474
32823SOL     OW98494   6.416   4.997   3.284
32823SOL    HW198495   6.411   5.030   3.379
32823SOL    HW298496   6.330   5.016   3.238
32824SOL     OW98497   6.258   5.340   2.016
32824SOL    HW198498   6.267   5.350   1.917
32824SOL    HW298499   6.218   5.251   2.037
32825SOL     OW98500   7.236   5.444   3.256
32825SOL    HW198501   7.289   5.454   3.172
32825SOL    HW298502   7.209   5.534   3.290
32826SOL     OW98503   7.427   3.899   2.825
32826SOL    HW198504   7.466   3.814   2.789
32826SOL    HW298505   7.329   3.901   2.806
32827SOL     OW98506   5.849   4.050   2.582
32827SOL    HW198507   5.770   4.101   2.548
32827SOL    HW298508   5.840   4.035   2.680
32828SOL     OW98509   6.780   5.336   1.893
32828SOL    HW198510   6.786   5.243   1.930
32828SOL    HW298511   6.721   5.336   1.813
32829SOL     OW98512   6.408   4.726   3.234
32829SOL    HW198513   6.448   4.725   3.142
32829SOL    HW298514   6.418   4.818   3.274
32830SOL     OW98515   6.502   4.634   2.153
32830SOL    HW198516   6.565   4.672   2.085
32830SOL    HW298517   6.542   4.551   2.192
32831SOL     OW98518   7.090   5.331   1.906
32831SOL    HW198519   6.998   5.368   1.913
32831SOL    HW298520   7.128   5.351   1.816
32832SOL     OW98521   5.958   5.012   3.352
32832SOL    HW198522   5.945   5.105   3.318
32832SOL    HW298523   5.874   4.960   3.339
32833SOL     OW98524   7.200   5.016   3.151
32833SOL    HW198525   7.260   5.019   3.231
32833SOL    HW298526   7.125   5.080   3.164
32834SOL     OW98527   6.625   4.822   2.558
32834SOL    HW198528   6.555   4.775   2.612
32834SOL    HW298529   6.684   4.754   2.515
32835SOL     OW98530   6.600   3.960   2.833
32835SOL    HW198531   6.592   3.924   2.740
32835SOL    HW298532   6.598   3.884   2.898
32836SOL     OW98533   6.176   5.211   2.353
32836SOL    HW198534   6.218   5.153   2.283
32836SOL    HW298535   6.132   5.290   2.309
32837SOL     OW98536   7.295   4.109   3.243
32837SOL    HW198537   7.368   4.178   3.247
32837SOL    HW298538   7.323   4.034   3.184
32838SOL     OW98539   5.841   5.072   2.152
32838SOL    HW198540   5.745   5.073   2.125
32838SOL    HW298541   5.853   5.125   2.236
32839SOL     OW98542   5.691   4.737   3.588
32839SOL    HW198543   5.614   4.704   3.642
32839SOL    HW298544   5.776   4.707   3.630
32840SOL     OW98545   6.258   3.927   3.351
32840SOL    HW198546   6.348   3.911   3.311
32840SOL    HW298547   6.266   3.932   3.450
32841SOL     OW98548   5.661   4.069   1.895
32841SOL    HW198549   5.569   4.041   1.866
32841SOL    HW298550   5.692   4.146   1.839
32842SOL     OW98551   7.026   4.580   3.260
32842SOL    HW198552   6.969   4.632   3.197
32842SOL    HW298553   7.122   4.592   3.236
32843SOL     OW98554   5.658   3.890   2.180
32843SOL    HW198555   5.641   3.973   2.126
32843SOL    HW298556   5.748   3.853   2.158
32844SOL     OW98557   6.769   5.059   1.981
32844SOL    HW198558   6.670   5.048   1.983
32844SOL    HW298559   6.803   5.074   2.074
32845SOL     OW98560   6.199   4.566   3.293
32845SOL    HW198561   6.255   4.647   3.276
32845SOL    HW298562   6.258   4.486   3.296
32846SOL     OW98563   7.079   5.491   2.821
32846SOL    HW198564   7.112   5.555   2.752
32846SOL    HW298565   7.145   5.485   2.896
32847SOL     OW98566   6.302   4.289   3.570
32847SOL    HW198567   6.321   4.354   3.644
32847SOL    HW298568   6.362   4.209   3.579
32848SOL     OW98569   7.036   4.944   3.495
32848SOL    HW198570   7.027   4.934   3.594
32848SOL    HW298571   7.132   4.937   3.469
32849SOL     OW98572   5.976   5.465   3.422
32849SOL    HW198573   5.885   5.506   3.420
32849SOL    HW298574   5.969   5.371   3.454
32850SOL     OW98575   7.260   4.607   3.116
32850SOL    HW198576   7.233   4.518   3.079
32850SOL    HW298577   7.261   4.675   3.043
32851SOL     OW98578   6.811   4.049   2.311
32851SOL    HW198579   6.876   3.975   2.300
32851SOL    HW298580   6.831   4.099   2.395
32852SOL     OW98581   6.180   4.469   2.514
32852SOL    HW198582   6.230   4.554   2.495
32852SOL    HW298583   6.092   4.471   2.466
32853SOL     OW98584   7.363   4.066   3.504
32853SOL    HW198585   7.346   4.097   3.410
32853SOL    HW298586   7.279   4.029   3.542
32854SOL     OW98587   7.316   4.658   3.379
32854SOL    HW198588   7.354   4.749   3.394
32854SOL    HW298589   7.308   4.641   3.280
32855SOL     OW98590   6.445   5.098   1.878
32855SOL    HW198591   6.399   5.113   1.966
32855SOL    HW298592   6.489   5.183   1.848
32856SOL     OW98593   6.247   5.514   2.815
32856SOL    HW198594   6.201   5.602   2.802
32856SOL    HW298595   6.346   5.526   2.808
32857SOL     OW98596   6.445   4.680   2.723
32857SOL    HW198597   6.499   4.611   2.771
32857SOL    HW298598   6.413   4.749   2.789
32858SOL     OW98599   6.669   4.708   1.949
32858SOL    HW198600   6.646   4.761   1.867
32858SOL    HW298601   6.750   4.652   1.930
32859SOL     OW98602   7.447   5.293   2.713
32859SOL    HW198603   7.376   5.281   2.643
32859SOL    HW298604   7.448   5.214   2.773
32860SOL     OW98605   5.807   5.038   3.706
32860SOL    HW198606   5.742   4.965   3.685
32860SOL    HW298607   5.811   5.052   3.804
32861SOL     OW98608   5.665   4.964   2.515
32861SOL    HW198609   5.664   4.917   2.603
32861SOL    HW298610   5.747   4.936   2.464
32862SOL     OW98611   6.258   5.115   3.486
32862SOL    HW198612   6.180   5.065   3.524
32862SOL    HW298613   6.255   5.210   3.517
32863SOL     OW98614   7.410   3.916   3.089
32863SOL    HW198615   7.406   3.826   3.133
32863SOL    HW298616   7.413   3.905   2.990
32864SOL     OW98617   6.014   4.148   2.382
32864SOL    HW198618   6.044   4.076   2.320
32864SOL    HW298619   5.975   4.108   2.465
32865SOL     OW98620   7.291   5.211   2.966
32865SOL    HW198621   7.198   5.186   2.939
32865SOL    HW298622   7.317   5.161   3.048
32866SOL     OW98623   5.903   4.271   3.142
32866SOL    HW198624   5.941   4.212   3.214
32866SOL    HW298625   5.943   4.245   3.054
32867SOL     OW98626   6.398   5.310   2.549
32867SOL    HW198627   6.430   5.320   2.455
32867SOL    HW298628   6.319   5.248   2.551
32868SOL     OW98629   7.010   3.938   2.974
32868SOL    HW198630   7.062   3.873   3.029
32868SOL    HW298631   6.961   4.001   3.035
32869SOL     OW98632   6.587   3.758   3.016
32869SOL    HW198633   6.524   3.686   2.985
32869SOL    HW298634   6.680   3.722   3.016
32870SOL     OW98635   6.356   5.054   2.163
32870SOL    HW198636   6.310   4.967   2.180
32870SOL    HW298637   6.447   5.051   2.204
32871SOL     OW98638   6.204   5.291   3.146
32871SOL    HW198639   6.199   5.373   3.203
32871SOL    HW298640   6.293   5.288   3.101
32872SOL     OW98641   6.938   3.776   2.030
32872SOL    HW198642   6.973   3.735   1.946
32872SOL    HW298643   6.848   3.738   2.050
32873SOL     OW98644   6.886   4.177   2.553
32873SOL    HW198645   6.827   4.257   2.557
32873SOL    HW298646   6.901   4.142   2.646
32874SOL     OW98647   7.179   3.945   2.744
32874SOL    HW198648   7.095   3.944   2.798
32874SOL    HW298649   7.181   4.028   2.688
32875SOL     OW98650   5.625   4.801   2.162
32875SOL    HW198651   5.724   4.790   2.153
32875SOL    HW298652   5.585   4.715   2.194
32876SOL     OW98653   6.461   5.370   2.199
32876SOL    HW198654   6.384   5.335   2.145
32876SOL    HW298655   6.429   5.441   2.261
32877SOL     OW98656   5.816   4.352   3.837
32877SOL    HW198657   5.723   4.350   3.874
32877SOL    HW298658   5.817   4.313   3.745
32878SOL     OW98659   5.811   3.999   4.720
32878SOL    HW198660   5.846   3.982   4.812
32878SOL    HW298661   5.723   3.954   4.708
32879SOL     OW98662   5.605   4.092   4.371
32879SOL    HW198663   5.523   4.135   4.410
32879SOL    HW298664   5.577   4.019   4.308
32880SOL     OW98665   6.155   4.999   4.889
32880SOL    HW198666   6.062   4.992   4.852
32880SOL    HW298667   6.166   5.088   4.933
32881SOL     OW98668   7.141   5.235   4.427
32881SOL    HW198669   7.084   5.219   4.508
32881SOL    HW298670   7.082   5.245   4.347
32882SOL     OW98671   6.721   4.427   4.441
32882SOL    HW198672   6.778   4.505   4.416
32882SOL    HW298673   6.661   4.453   4.517
32883SOL     OW98674   7.341   4.331   3.955
32883SOL    HW198675   7.329   4.318   3.856
32883SOL    HW298676   7.311   4.250   4.004
32884SOL     OW98677   6.354   4.868   4.747
32884SOL    HW198678   6.276   4.885   4.807
32884SOL    HW298679   6.388   4.955   4.711
32885SOL     OW98680   6.436   4.522   5.547
32885SOL    HW198681   6.432   4.598   5.612
32885SOL    HW298682   6.458   4.558   5.456
32886SOL     OW98683   6.271   4.736   4.389
32886SOL    HW198684   6.340   4.720   4.459
32886SOL    HW298685   6.198   4.793   4.427
32887SOL     OW98686   6.272   4.885   5.527
32887SOL    HW198687   6.332   4.964   5.541
32887SOL    HW298688   6.186   4.916   5.486
32888SOL     OW98689   5.921   5.159   4.785
32888SOL    HW198690   5.843   5.128   4.732
32888SOL    HW298691   5.979   5.217   4.728
32889SOL     OW98692   7.046   5.229   5.063
32889SOL    HW198693   7.070   5.323   5.089
32889SOL    HW298694   7.030   5.175   5.145
32890SOL     OW98695   6.024   4.116   5.223
32890SOL    HW198696   6.106   4.060   5.232
32890SOL    HW298697   5.943   4.058   5.227
32891SOL     OW98698   7.189   4.171   4.461
32891SOL    HW198699   7.115   4.217   4.411
32891SOL    HW298700   7.240   4.239   4.514
32892SOL     OW98701   5.817   5.437   4.207
32892SOL    HW198702   5.851   5.514   4.261
32892SOL    HW298703   5.861   5.437   4.117
32893SOL     OW98704   6.713   5.065   5.414
32893SOL    HW198705   6.760   5.065   5.502
32893SOL    HW298706   6.665   4.978   5.403
32894SOL     OW98707   5.816   5.158   4.262
32894SOL    HW198708   5.790   5.254   4.262
32894SOL    HW298709   5.745   5.104   4.307
32895SOL     OW98710   5.826   4.815   4.610
32895SOL    HW198711   5.840   4.731   4.662
32895SOL    HW298712   5.771   4.879   4.665
32896SOL     OW98713   6.206   5.510   5.163
32896SOL    HW198714   6.114   5.493   5.198
32896SOL    HW298715   6.234   5.602   5.189
32897SOL     OW98716   6.192   4.688   3.847
32897SOL    HW198717   6.199   4.772   3.793
32897SOL    HW298718   6.238   4.701   3.935
32898SOL     OW98719   7.180   3.838   5.204
32898SOL    HW198720   7.162   3.905   5.132
32898SOL    HW298721   7.177   3.884   5.293
32899SOL     OW98722   5.708   4.367   4.287
32899SOL    HW198723   5.663   4.279   4.304
32899SOL    HW298724   5.707   4.421   4.371
32900SOL     OW98725   7.428   5.491   4.083
32900SOL    HW198726   7.482   5.462   4.163
32900SOL    HW298727   7.458   5.581   4.054
32901SOL     OW98728   5.613   5.320   3.841
32901SOL    HW198729   5.594   5.224   3.862
32901SOL    HW298730   5.580   5.378   3.916
32902SOL     OW98731   7.275   4.646   4.336
32902SOL    HW198732   7.370   4.617   4.344
32902SOL    HW298733   7.267   4.711   4.261
32903SOL     OW98734   7.227   4.832   4.156
32903SOL    HW198735   7.313   4.834   4.104
32903SOL    HW298736   7.241   4.879   4.244
32904SOL     OW98737   5.699   4.461   5.321
32904SOL    HW198738   5.787   4.448   5.366
32904SOL    HW298739   5.686   4.558   5.299
32905SOL     OW98740   6.199   5.089   4.450
32905SOL    HW198741   6.150   5.002   4.459
32905SOL    HW298742   6.176   5.132   4.363
32906SOL     OW98743   6.879   4.952   5.147
32906SOL    HW198744   6.916   4.879   5.089
32906SOL    HW298745   6.931   4.957   5.232
32907SOL     OW98746   6.395   3.728   4.226
32907SOL    HW198747   6.435   3.819   4.217
32907SOL    HW298748   6.295   3.736   4.232
32908SOL     OW98749   5.783   4.700   4.988
32908SOL    HW198750   5.872   4.655   4.974
32908SOL    HW298751   5.710   4.635   4.969
32909SOL     OW98752   7.111   4.723   3.914
32909SOL    HW198753   7.048   4.647   3.927
32909SOL    HW298754   7.159   4.741   4.000
32910SOL     OW98755   5.903   3.975   5.525
32910SOL    HW198756   5.974   4.046   5.531
32910SOL    HW298757   5.815   4.014   5.553
32911SOL     OW98758   7.052   5.141   4.677
32911SOL    HW198759   6.993   5.147   4.757
32911SOL    HW298760   7.037   5.053   4.631
32912SOL     OW98761   7.253   5.438   4.296
32912SOL    HW198762   7.212   5.415   4.208
32912SOL    HW298763   7.235   5.364   4.361
32913SOL     OW98764   6.184   4.453   3.994
32913SOL    HW198765   6.208   4.522   3.926
32913SOL    HW298766   6.106   4.486   4.048
32914SOL     OW98767   6.867   4.069   4.668
32914SOL    HW198768   6.781   4.019   4.655
32914SOL    HW298769   6.929   4.015   4.724
32915SOL     OW98770   7.162   5.386   4.031
32915SOL    HW198771   7.251   5.432   4.034
32915SOL    HW298772   7.141   5.362   3.936
32916SOL     OW98773   6.393   4.329   5.189
32916SOL    HW198774   6.346   4.326   5.278
32916SOL    HW298775   6.342   4.274   5.123
32917SOL     OW98776   6.980   4.193   5.398
32917SOL    HW198777   6.960   4.236   5.486
32917SOL    HW298778   7.058   4.131   5.407
32918SOL     OW98779   6.559   4.614   5.296
32918SOL    HW198780   6.605   4.530   5.267
32918SOL    HW298781   6.503   4.648   5.221
32919SOL     OW98782   6.577   4.134   4.966
32919SOL    HW198783   6.500   4.168   5.020
32919SOL    HW298784   6.543   4.083   4.887
32920SOL     OW98785   6.627   4.425   4.153
32920SOL    HW198786   6.653   4.421   4.249
32920SOL    HW298787   6.542   4.374   4.139
32921SOL     OW98788   5.662   4.535   4.513
32921SOL    HW198789   5.761   4.523   4.522
32921SOL    HW298790   5.638   4.630   4.534
32922SOL     OW98791   5.716   5.545   5.295
32922SOL    HW198792   5.706   5.530   5.394
32922SOL    HW298793   5.630   5.581   5.259
32923SOL     OW98794   6.451   4.072   3.919
32923SOL    HW198795   6.510   4.135   3.870
32923SOL    HW298796   6.470   3.978   3.890
32924SOL     OW98797   7.305   4.309   5.555
32924SOL    HW198798   7.279   4.398   5.519
32924SOL    HW298799   7.303   4.241   5.482
32925SOL     OW98800   6.948   4.868   4.269
32925SOL    HW198801   7.031   4.839   4.221
32925SOL    HW298802   6.899   4.935   4.213
32926SOL     OW98803   6.136   3.920   4.609
32926SOL    HW198804   6.131   3.915   4.709
32926SOL    HW298805   6.138   4.016   4.580
32927SOL     OW98806   6.594   5.180   4.201
32927SOL    HW198807   6.548   5.252   4.149
32927SOL    HW298808   6.590   5.200   4.299
32928SOL     OW98809   5.937   5.525   4.577
32928SOL    HW198810   5.987   5.439   4.583
32928SOL    HW298811   6.002   5.602   4.574
32929SOL     OW98812   7.381   4.790   4.597
32929SOL    HW198813   7.319   4.775   4.521
32929SOL    HW298814   7.329   4.801   4.682
32930SOL     OW98815   6.813   5.274   5.230
32930SOL    HW198816   6.819   5.197   5.294
32930SOL    HW298817   6.761   5.248   5.150
32931SOL     OW98818   5.907   4.667   3.966
32931SOL    HW198819   5.989   4.706   3.924
32931SOL    HW298820   5.880   4.585   3.917
32932SOL     OW98821   7.044   4.459   4.452
32932SOL    HW198822   7.039   4.394   4.527
32932SOL    HW298823   7.124   4.518   4.465
32933SOL     OW98824   6.047   4.990   5.451
32933SOL    HW198825   5.997   4.991   5.365
32933SOL    HW298826   5.984   4.972   5.527
32934SOL     OW98827   6.697   5.500   3.961
32934SOL    HW198828   6.637   5.438   4.011
32934SOL    HW298829   6.728   5.456   3.876
32935SOL     OW98830   5.788   4.009   5.222
32935SOL    HW198831   5.708   4.069   5.209
32935SOL    HW298832   5.778   3.960   5.308
32936SOL     OW98833   7.218   5.101   3.805
32936SOL    HW198834   7.186   5.195   3.795
32936SOL    HW298835   7.142   5.038   3.793
32937SOL     OW98836   6.050   5.467   4.047
32937SOL    HW198837   6.083   5.506   4.133
32937SOL    HW298838   6.126   5.460   3.982
32938SOL     OW98839   6.986   3.831   4.150
32938SOL    HW198840   6.962   3.794   4.060
32938SOL    HW298841   7.085   3.847   4.154
32939SOL     OW98842   5.835   5.509   4.965
32939SOL    HW198843   5.892   5.444   5.015
32939SOL    HW298844   5.819   5.476   4.872
32940SOL     OW98845   6.526   5.422   4.628
32940SOL    HW198846   6.606   5.365   4.649
32940SOL    HW298847   6.477   5.382   4.551
32941SOL     OW98848   5.968   4.424   4.204
32941SOL    HW198849   6.013   4.334   4.201
32941SOL    HW298850   5.874   4.413   4.237
32942SOL     OW98851   7.133   3.946   5.453
32942SOL    HW198852   7.128   3.983   5.545
32942SOL    HW298853   7.061   3.877   5.441
32943SOL     OW98854   6.200   3.846   3.841
32943SOL    HW198855   6.298   3.824   3.848
32943SOL    HW298856   6.169   3.829   3.748
32944SOL     OW98857   6.367   3.988   5.473
32944SOL    HW198858   6.434   3.927   5.516
32944SOL    HW298859   6.294   4.007   5.538
32945SOL     OW98860   6.474   5.238   4.919
32945SOL    HW198861   6.451   5.213   4.825
32945SOL    HW298862   6.535   5.169   4.958
32946SOL     OW98863   6.937   4.314   5.157
32946SOL    HW198864   6.965   4.271   5.242
32946SOL    HW298865   6.962   4.410   5.158
32947SOL     OW98866   6.389   5.126   4.648
32947SOL    HW198867   6.479   5.140   4.606
32947SOL    HW298868   6.318   5.128   4.577
32948SOL     OW98869   6.508   4.227   4.623
32948SOL    HW198870   6.483   4.218   4.527
32948SOL    HW298871   6.556   4.145   4.654
32949SOL     OW98872   6.125   3.788   4.236
32949SOL    HW198873   6.044   3.789   4.294
32949SOL    HW298874   6.128   3.871   4.181
32950SOL     OW98875   7.020   4.912   3.765
32950SOL    HW198876   7.052   4.836   3.822
32950SOL    HW298877   6.928   4.939   3.795
32951SOL     OW98878   5.883   3.759   3.895
32951SOL    HW198879   5.932   3.843   3.874
32951SOL    HW298880   5.945   3.694   3.940
32952SOL     OW98881   6.521   3.960   4.204
32952SOL    HW198882   6.473   4.001   4.126
32952SOL    HW298883   6.620   3.958   4.185
32953SOL     OW98884   6.662   4.407   5.188
32953SOL    HW198885   6.582   4.346   5.191
32953SOL    HW298886   6.743   4.354   5.164
32954SOL     OW98887   6.813   5.294   4.517
32954SOL    HW198888   6.834   5.368   4.452
32954SOL    HW298889   6.881   5.294   4.590
32955SOL     OW98890   6.045   4.876   4.465
32955SOL    HW198891   5.974   4.849   4.530
32955SOL    HW298892   6.019   4.848   4.372
32956SOL     OW98893   6.857   5.521   4.315
32956SOL    HW198894   6.901   5.585   4.251
32956SOL    HW298895   6.807   5.573   4.385
32957SOL     OW98896   6.618   4.273   3.740
32957SOL    HW198897   6.577   4.355   3.701
32957SOL    HW298898   6.682   4.299   3.813
32958SOL     OW98899   5.664   4.280   5.110
32958SOL    HW198900   5.756   4.279   5.069
32958SOL    HW298901   5.658   4.354   5.177
32959SOL     OW98902   6.147   3.946   4.871
32959SOL    HW198903   6.185   3.862   4.908
32959SOL    HW298904   6.059   3.965   4.915
32960SOL     OW98905   6.452   4.178   4.366
32960SOL    HW198906   6.420   4.250   4.304
32960SOL    HW298907   6.476   4.097   4.313
32961SOL     OW98908   6.603   3.763   4.477
32961SOL    HW198909   6.531   3.768   4.408
32961SOL    HW298910   6.579   3.694   4.546
32962SOL     OW98911   7.015   4.897   4.591
32962SOL    HW198912   6.960   4.813   4.584
32962SOL    HW298913   7.041   4.926   4.499
32963SOL     OW98914   7.052   4.314   4.716
32963SOL    HW198915   7.022   4.219   4.723
32963SOL    HW298916   7.125   4.330   4.782
32964SOL     OW98917   7.443   4.557   4.101
32964SOL    HW198918   7.485   4.493   4.165
32964SOL    HW298919   7.405   4.506   4.023
32965SOL     OW98920   6.074   5.109   3.898
32965SOL    HW198921   5.987   5.094   3.945
32965SOL    HW298922   6.057   5.135   3.803
32966SOL     OW98923   7.250   5.004   4.381
32966SOL    HW198924   7.349   5.012   4.395
32966SOL    HW298925   7.205   5.088   4.412
32967SOL     OW98926   6.976   4.299   3.802
32967SOL    HW198927   6.922   4.278   3.883
32967SOL    HW298928   7.067   4.258   3.811
32968SOL     OW98929   6.113   3.980   4.052
32968SOL    HW198930   6.140   3.921   3.977
32968SOL    HW298931   6.113   4.075   4.021
32969SOL     OW98932   7.340   4.947   5.312
32969SOL    HW198933   7.431   4.908   5.299
32969SOL    HW298934   7.348   5.043   5.336
32970SOL     OW98935   6.650   5.071   5.064
32970SOL    HW198936   6.570   5.048   5.119
32970SOL    HW298937   6.733   5.045   5.113
32971SOL     OW98938   7.178   5.353   5.349
32971SOL    HW198939   7.205   5.387   5.259
32971SOL    HW298940   7.257   5.315   5.395
32972SOL     OW98941   6.697   4.919   4.824
32972SOL    HW198942   6.657   4.963   4.905
32972SOL    HW298943   6.656   4.956   4.741
32973SOL     OW98944   7.224   4.823   4.803
32973SOL    HW198945   7.229   4.904   4.862
32973SOL    HW298946   7.138   4.825   4.752
32974SOL     OW98947   6.501   3.813   5.126
32974SOL    HW198948   6.526   3.793   5.031
32974SOL    HW298949   6.573   3.869   5.168
32975SOL     OW98950   6.566   4.840   5.443
32975SOL    HW198951   6.467   4.846   5.453
32975SOL    HW298952   6.589   4.760   5.387
32976SOL     OW98953   6.291   4.774   4.092
32976SOL    HW198954   6.277   4.781   4.191
32976SOL    HW298955   6.375   4.723   4.074
32977SOL     OW98956   5.996   4.537   4.975
32977SOL    HW198957   6.082   4.549   5.025
32977SOL    HW298958   5.954   4.450   5.002
32978SOL     OW98959   6.860   4.110   4.986
32978SOL    HW198960   6.881   4.184   5.050
32978SOL    HW298961   6.771   4.127   4.943
32979SOL     OW98962   5.650   5.288   5.055
32979SOL    HW198963   5.604   5.370   5.021
32979SOL    HW298964   5.748   5.307   5.064
32980SOL     OW98965   5.953   4.824   4.225
32980SOL    HW198966   5.946   4.907   4.169
32980SOL    HW298967   5.957   4.744   4.165
32981SOL     OW98968   6.152   4.261   4.589
32981SOL    HW198969   6.164   4.327   4.515
32981SOL    HW298970   6.198   4.295   4.672
32982SOL     OW98971   6.838   5.072   4.112
32982SOL    HW198972   6.888   5.149   4.152
32982SOL    HW298973   6.743   5.074   4.144
32983SOL     OW98974   6.858   5.169   4.866
32983SOL    HW198975   6.905   5.182   4.953
32983SOL    HW298976   6.792   5.095   4.875
32984SOL     OW98977   7.168   4.363   4.196
32984SOL    HW198978   7.137   4.424   4.269
32984SOL    HW298979   7.218   4.415   4.127
32985SOL     OW98980   5.940   5.234   5.053
32985SOL    HW198981   5.919   5.190   4.966
32985SOL    HW298982   6.037   5.260   5.056
32986SOL     OW98983   5.988   4.475   5.322
32986SOL    HW198984   6.056   4.530   5.275
32986SOL    HW298985   6.028   4.387   5.349
32987SOL     OW98986   7.173   4.503   5.394
32987SOL    HW198987   7.081   4.541   5.389
32987SOL    HW298988   7.233   4.550   5.329
32988SOL     OW98989   6.599   3.829   5.494
32988SOL    HW198990   6.605   3.914   5.442
32988SOL    HW298991   6.631   3.753   5.437
32989SOL     OW98992   6.090   3.774   5.464
32989SOL    HW198993   6.048   3.717   5.394
32989SOL    HW298994   6.024   3.843   5.496
32990SOL     OW98995   6.159   4.594   4.753
32990SOL    HW198996   6.203   4.683   4.744
32990SOL    HW298997   6.096   4.594   4.830
32991SOL     OW98998   6.946   4.586   4.769
32991SOL    HW198999   6.871   4.586   4.703
32991SOL    HW299000   6.983   4.494   4.778
32992SOL     OW99001   6.795   4.249   3.999
32992SOL    HW199002   6.808   4.165   4.053
32992SOL    HW299003   6.766   4.323   4.059
32993SOL     OW99004   5.893   3.937   4.955
32993SOL    HW199005   5.870   3.974   5.045
32993SOL    HW299006   5.863   3.842   4.949
32994SOL     OW99007   5.623   5.034   5.006
32994SOL    HW199008   5.676   4.985   5.074
32994SOL    HW299009   5.645   5.132   5.011
32995SOL     OW99010   6.318   4.358   4.788
32995SOL    HW199011   6.377   4.332   4.712
32995SOL    HW299012   6.290   4.454   4.777
32996SOL     OW99013   7.314   4.659   5.578
32996SOL    HW199014   7.268   4.652   5.489
32996SOL    HW299015   7.252   4.703   5.644
32997SOL     OW99016   5.893   3.787   4.342
32997SOL    HW199017   5.882   3.881   4.375
32997SOL    HW299018   5.888   3.724   4.419
32998SOL     OW99019   7.208   4.091   4.098
32998SOL    HW199020   7.210   4.015   4.162
32998SOL    HW299021   7.160   4.168   4.138
32999SOL     OW99022   6.609   4.490   4.690
32999SOL    HW199023   6.624   4.511   4.786
32999SOL    HW299024   6.579   4.395   4.681
33000SOL     OW99025   6.566   5.297   5.424
33000SOL    HW199026   6.546   5.341   5.336
33000SOL    HW299027   6.605   5.206   5.408
33001SOL     OW99028   7.445   5.242   5.329
33001SOL    HW199029   7.459   5.269   5.234
33001SOL    HW299030   7.528   5.264   5.382
33002SOL     OW99031   5.936   4.622   5.528
33002SOL    HW199032   6.012   4.666   5.576
33002SOL    HW299033   5.971   4.575   5.446
33003SOL     OW99034   7.126   3.998   3.849
33003SOL    HW199035   7.065   3.923   3.872
33003SOL    HW299036   7.148   4.050   3.932
33004SOL     OW99037   6.889   4.562   3.766
33004SOL    HW199038   6.923   4.469   3.781
33004SOL    HW299039   6.907   4.589   3.671
33005SOL     OW99040   6.654   5.057   4.573
33005SOL    HW199041   6.661   4.973   4.518
33005SOL    HW299042   6.716   5.126   4.537
33006SOL     OW99043   5.905   4.534   4.673
33006SOL    HW199044   5.998   4.570   4.678
33006SOL    HW299045   5.899   4.449   4.725
33007SOL     OW99046   5.925   4.233   4.730
33007SOL    HW199047   5.873   4.150   4.713
33007SOL    HW299048   6.002   4.238   4.666
33008SOL     OW99049   6.724   4.104   5.402
33008SOL    HW199050   6.679   4.167   5.466
33008SOL    HW299051   6.817   4.135   5.385
33009SOL     OW99052   6.746   3.931   5.201
33009SOL    HW199053   6.746   3.995   5.278
33009SOL    HW299054   6.774   3.979   5.118
33010SOL     OW99055   5.594   5.050   3.924
33010SOL    HW199056   5.501   5.071   3.893
33010SOL    HW299057   5.604   4.951   3.937
33011SOL     OW99058   5.674   5.525   4.651
33011SOL    HW199059   5.632   5.439   4.624
33011SOL    HW299060   5.768   5.528   4.617
33012SOL     OW99061   6.090   5.292   4.634
33012SOL    HW199062   6.156   5.366   4.643
33012SOL    HW299063   6.134   5.213   4.592
33013SOL     OW99064   6.588   4.520   4.962
33013SOL    HW199065   6.629   4.488   5.048
33013SOL    HW299066   6.492   4.493   4.959
33014SOL     OW99067   5.626   4.268   4.838
33014SOL    HW199068   5.711   4.235   4.797
33014SOL    HW299069   5.639   4.283   4.936
33015SOL     OW99070   5.775   4.244   5.446
33015SOL    HW199071   5.834   4.204   5.376
33015SOL    HW299072   5.717   4.315   5.405
33016SOL     OW99073   6.955   4.674   5.384
33016SOL    HW199074   6.994   4.763   5.404
33016SOL    HW299075   6.965   4.654   5.287
33017SOL     OW99076   6.401   4.296   4.049
33017SOL    HW199077   6.408   4.207   4.003
33017SOL    HW299078   6.307   4.330   4.041
33018SOL     OW99079   7.243   4.328   4.930
33018SOL    HW199080   7.205   4.259   4.992
33018SOL    HW299081   7.325   4.292   4.886
33019SOL     OW99082   5.838   5.288   5.468
33019SOL    HW199083   5.808   5.345   5.544
33019SOL    HW299084   5.831   5.191   5.494
33020SOL     OW99085   6.257   4.188   4.993
33020SOL    HW199086   6.223   4.099   4.963
33020SOL    HW299087   6.283   4.242   4.913
33021SOL     OW99088   6.516   5.402   5.189
33021SOL    HW199089   6.492   5.384   5.094
33021SOL    HW299090   6.546   5.496   5.199
33022SOL     OW99091   6.059   4.224   3.915
33022SOL    HW199092   6.120   4.304   3.919
33022SOL    HW299093   5.964   4.255   3.922
33023SOL     OW99094   5.745   4.861   5.190
33023SOL    HW199095   5.767   4.800   5.266
33023SOL    HW299096   5.755   4.812   5.104
33024SOL     OW99097   6.933   4.783   4.958
33024SOL    HW199098   6.957   4.720   4.884
33024SOL    HW299099   6.843   4.823   4.940
33025SOL     OW99100   6.888   4.579   4.033
33025SOL    HW199101   6.802   4.548   4.075
33025SOL    HW299102   6.884   4.565   3.934
33026SOL     OW99103   7.345   5.471   4.878
33026SOL    HW199104   7.406   5.501   4.805
33026SOL    HW299105   7.307   5.382   4.856
33027SOL     OW99106   6.838   5.455   4.852
33027SOL    HW199107   6.922   5.460   4.798
33027SOL    HW299108   6.815   5.359   4.870
33028SOL     OW99109   5.669   4.982   4.746
33028SOL    HW199110   5.664   4.981   4.846
33028SOL    HW299111   5.586   4.941   4.708
33029SOL     OW99112   6.274   5.386   5.440
33029SOL    HW199113   6.218   5.467   5.449
33029SOL    HW299114   6.326   5.390   5.354
33030SOL     OW99115   7.312   3.859   4.247
33030SOL    HW199116   7.385   3.842   4.180
33030SOL    HW299117   7.281   3.772   4.285
33031SOL     OW99118   6.974   5.297   4.201
33031SOL    HW199119   7.041   5.309   4.127
33031SOL    HW299120   6.934   5.386   4.224
33032SOL     OW99121   5.716   5.518   5.575
33032SOL    HW199122   5.675   5.444   5.628
33032SOL    HW299123   5.780   5.569   5.633
33033SOL     OW99124   6.866   4.651   4.396
33033SOL    HW199125   6.926   4.570   4.398
33033SOL    HW299126   6.906   4.720   4.336
33034SOL     OW99127   6.416   4.997   5.146
33034SOL    HW199128   6.411   5.030   5.241
33034SOL    HW299129   6.330   5.016   5.100
33035SOL     OW99130   6.258   5.340   3.878
33035SOL    HW199131   6.267   5.350   3.779
33035SOL    HW299132   6.218   5.251   3.899
33036SOL     OW99133   7.236   5.444   5.118
33036SOL    HW199134   7.289   5.454   5.034
33036SOL    HW299135   7.209   5.534   5.152
33037SOL     OW99136   7.427   3.899   4.687
33037SOL    HW199137   7.466   3.814   4.651
33037SOL    HW299138   7.329   3.901   4.668
33038SOL     OW99139   5.849   4.050   4.444
33038SOL    HW199140   5.770   4.101   4.410
33038SOL    HW299141   5.840   4.035   4.542
33039SOL     OW99142   6.780   5.336   3.755
33039SOL    HW199143   6.786   5.243   3.792
33039SOL    HW299144   6.721   5.336   3.675
33040SOL     OW99145   6.408   4.726   5.096
33040SOL    HW199146   6.448   4.725   5.004
33040SOL    HW299147   6.418   4.818   5.136
33041SOL     OW99148   6.502   4.634   4.015
33041SOL    HW199149   6.565   4.672   3.947
33041SOL    HW299150   6.542   4.551   4.054
33042SOL     OW99151   7.090   5.331   3.768
33042SOL    HW199152   6.998   5.368   3.775
33042SOL    HW299153   7.128   5.351   3.678
33043SOL     OW99154   5.958   5.012   5.214
33043SOL    HW199155   5.945   5.105   5.180
33043SOL    HW299156   5.874   4.960   5.201
33044SOL     OW99157   7.200   5.016   5.013
33044SOL    HW199158   7.260   5.019   5.093
33044SOL    HW299159   7.125   5.080   5.026
33045SOL     OW99160   6.625   4.822   4.420
33045SOL    HW199161   6.555   4.775   4.474
33045SOL    HW299162   6.684   4.754   4.377
33046SOL     OW99163   6.600   3.960   4.695
33046SOL    HW199164   6.592   3.924   4.602
33046SOL    HW299165   6.598   3.884   4.760
33047SOL     OW99166   6.176   5.211   4.215
33047SOL    HW199167   6.218   5.153   4.145
33047SOL    HW299168   6.132   5.290   4.171
33048SOL     OW99169   7.295   4.109   5.105
33048SOL    HW199170   7.368   4.178   5.109
33048SOL    HW299171   7.323   4.034   5.046
33049SOL     OW99172   5.841   5.072   4.014
33049SOL    HW199173   5.745   5.073   3.987
33049SOL    HW299174   5.853   5.125   4.098
33050SOL     OW99175   5.691   4.737   5.450
33050SOL    HW199176   5.614   4.704   5.504
33050SOL    HW299177   5.776   4.707   5.492
33051SOL     OW99178   6.258   3.927   5.213
33051SOL    HW199179   6.348   3.911   5.173
33051SOL    HW299180   6.266   3.932   5.312
33052SOL     OW99181   5.661   4.069   3.757
33052SOL    HW199182   5.569   4.041   3.728
33052SOL    HW299183   5.692   4.146   3.701
33053SOL     OW99184   7.026   4.580   5.122
33053SOL    HW199185   6.969   4.632   5.059
33053SOL    HW299186   7.122   4.592   5.098
33054SOL     OW99187   5.658   3.890   4.042
33054SOL    HW199188   5.641   3.973   3.988
33054SOL    HW299189   5.748   3.853   4.020
33055SOL     OW99190   6.769   5.059   3.843
33055SOL    HW199191   6.670   5.048   3.845
33055SOL    HW299192   6.803   5.074   3.936
33056SOL     OW99193   6.199   4.566   5.155
33056SOL    HW199194   6.255   4.647   5.138
33056SOL    HW299195   6.258   4.486   5.158
33057SOL     OW99196   7.079   5.491   4.683
33057SOL    HW199197   7.112   5.555   4.614
33057SOL    HW299198   7.145   5.485   4.758
33058SOL     OW99199   6.302   4.289   5.432
33058SOL    HW199200   6.321   4.354   5.506
33058SOL    HW299201   6.362   4.209   5.441
33059SOL     OW99202   7.036   4.944   5.357
33059SOL    HW199203   7.027   4.934   5.456
33059SOL    HW299204   7.132   4.937   5.331
33060SOL     OW99205   5.976   5.465   5.284
33060SOL    HW199206   5.885   5.506   5.282
33060SOL    HW299207   5.969   5.371   5.316
33061SOL     OW99208   7.260   4.607   4.978
33061SOL    HW199209   7.233   4.518   4.941
33061SOL    HW299210   7.261   4.675   4.905
33062SOL     OW99211   6.811   4.049   4.173
33062SOL    HW199212   6.876   3.975   4.162
33062SOL    HW299213   6.831   4.099   4.257
33063SOL     OW99214   6.180   4.469   4.376
33063SOL    HW199215   6.230   4.554   4.357
33063SOL    HW299216   6.092   4.471   4.328
33064SOL     OW99217   7.363   4.066   5.366
33064SOL    HW199218   7.346   4.097   5.272
33064SOL    HW299219   7.279   4.029   5.404
33065SOL     OW99220   7.316   4.658   5.241
33065SOL    HW199221   7.354   4.749   5.256
33065SOL    HW299222   7.308   4.641   5.142
33066SOL     OW99223   6.445   5.098   3.740
33066SOL    HW199224   6.399   5.113   3.828
33066SOL    HW299225   6.489   5.183   3.710
33067SOL     OW99226   6.247   5.514   4.677
33067SOL    HW199227   6.201   5.602   4.664
33067SOL    HW299228   6.346   5.526   4.670
33068SOL     OW99229   6.445   4.680   4.585
33068SOL    HW199230   6.499   4.611   4.633
33068SOL    HW299231   6.413   4.749   4.651
33069SOL     OW99232   6.669   4.708   3.811
33069SOL    HW199233   6.646   4.761   3.729
33069SOL    HW299234   6.750   4.652   3.792
33070SOL     OW99235   7.447   5.293   4.575
33070SOL    HW199236   7.376   5.281   4.505
33070SOL    HW299237   7.448   5.214   4.635
33071SOL     OW99238   5.807   5.038   5.568
33071SOL    HW199239   5.742   4.965   5.547
33071SOL    HW299240   5.811   5.052   5.666
33072SOL     OW99241   5.665   4.964   4.377
33072SOL    HW199242   5.664   4.917   4.465
33072SOL    HW299243   5.747   4.936   4.326
33073SOL     OW99244   6.258   5.115   5.348
33073SOL    HW199245   6.180   5.065   5.386
33073SOL    HW299246   6.255   5.210   5.379
33074SOL     OW99247   7.410   3.916   4.951
33074SOL    HW199248   7.406   3.826   4.995
33074SOL    HW299249   7.413   3.905   4.852
33075SOL     OW99250   6.014   4.148   4.244
33075SOL    HW199251   6.044   4.076   4.182
33075SOL    HW299252   5.975   4.108   4.327
33076SOL     OW99253   7.291   5.211   4.828
33076SOL    HW199254   7.198   5.186   4.801
33076SOL    HW299255   7.317   5.161   4.910
33077SOL     OW99256   5.903   4.271   5.004
33077SOL    HW199257   5.941   4.212   5.076
33077SOL    HW299258   5.943   4.245   4.916
33078SOL     OW99259   6.398   5.310   4.411
33078SOL    HW199260   6.430   5.320   4.317
33078SOL    HW299261   6.319   5.248   4.413
33079SOL     OW99262   7.010   3.938   4.836
33079SOL    HW199263   7.062   3.873   4.891
33079SOL    HW299264   6.961   4.001   4.897
33080SOL     OW99265   6.587   3.758   4.878
33080SOL    HW199266   6.524   3.686   4.847
33080SOL    HW299267   6.680   3.722   4.878
33081SOL     OW99268   6.356   5.054   4.025
33081SOL    HW199269   6.310   4.967   4.042
33081SOL    HW299270   6.447   5.051   4.066
33082SOL     OW99271   6.204   5.291   5.008
33082SOL    HW199272   6.199   5.373   5.065
33082SOL    HW299273   6.293   5.288   4.963
33083SOL     OW99274   6.938   3.776   3.892
33083SOL    HW199275   6.973   3.735   3.808
33083SOL    HW299276   6.848   3.738   3.912
33084SOL     OW99277   6.886   4.177   4.415
33084SOL    HW199278   6.827   4.257   4.419
33084SOL    HW299279   6.901   4.142   4.508
33085SOL     OW99280   7.179   3.945   4.606
33085SOL    HW199281   7.095   3.944   4.660
33085SOL    HW299282   7.181   4.028   4.550
33086SOL     OW99283   5.625   4.801   4.024
33086SOL    HW199284   5.724   4.790   4.015
33086SOL    HW299285   5.585   4.715   4.056
33087SOL     OW99286   6.461   5.370   4.061
33087SOL    HW199287   6.384   5.335   4.007
33087SOL    HW299288   6.429   5.441   4.123
33088SOL     OW99289   5.816   4.352   5.699
33088SOL    HW199290   5.723   4.350   5.736
33088SOL    HW299291   5.817   4.313   5.607
33089SOL     OW99292   5.811   3.999   6.582
33089SOL    HW199293   5.846   3.982   6.674
33089SOL    HW299294   5.723   3.954   6.570
33090SOL     OW99295   5.605   4.092   6.233
33090SOL    HW199296   5.523   4.135   6.272
33090SOL    HW299297   5.577   4.019   6.170
33091SOL     OW99298   6.155   4.999   6.751
33091SOL    HW199299   6.062   4.992   6.714
33091SOL    HW299300   6.166   5.088   6.795
33092SOL     OW99301   7.141   5.235   6.289
33092SOL    HW199302   7.084   5.219   6.370
33092SOL    HW299303   7.082   5.245   6.209
33093SOL     OW99304   6.721   4.427   6.303
33093SOL    HW199305   6.778   4.505   6.278
33093SOL    HW299306   6.661   4.453   6.379
33094SOL     OW99307   7.341   4.331   5.817
33094SOL    HW199308   7.329   4.318   5.718
33094SOL    HW299309   7.311   4.250   5.866
33095SOL     OW99310   6.354   4.868   6.609
33095SOL    HW199311   6.276   4.885   6.669
33095SOL    HW299312   6.388   4.955   6.573
33096SOL     OW99313   6.436   4.522   7.409
33096SOL    HW199314   6.432   4.598   7.474
33096SOL    HW299315   6.458   4.558   7.318
33097SOL     OW99316   6.271   4.736   6.251
33097SOL    HW199317   6.340   4.720   6.321
33097SOL    HW299318   6.198   4.793   6.289
33098SOL     OW99319   6.272   4.885   7.389
33098SOL    HW199320   6.332   4.964   7.403
33098SOL    HW299321   6.186   4.916   7.348
33099SOL     OW99322   5.921   5.159   6.647
33099SOL    HW199323   5.843   5.128   6.594
33099SOL    HW299324   5.979   5.217   6.590
33100SOL     OW99325   7.046   5.229   6.925
33100SOL    HW199326   7.070   5.323   6.951
33100SOL    HW299327   7.030   5.175   7.007
33101SOL     OW99328   6.024   4.116   7.085
33101SOL    HW199329   6.106   4.060   7.094
33101SOL    HW299330   5.943   4.058   7.089
33102SOL     OW99331   7.189   4.171   6.323
33102SOL    HW199332   7.115   4.217   6.273
33102SOL    HW299333   7.240   4.239   6.376
33103SOL     OW99334   5.817   5.437   6.069
33103SOL    HW199335   5.851   5.514   6.123
33103SOL    HW299336   5.861   5.437   5.979
33104SOL     OW99337   6.713   5.065   7.276
33104SOL    HW199338   6.760   5.065   7.364
33104SOL    HW299339   6.665   4.978   7.265
33105SOL     OW99340   5.816   5.158   6.124
33105SOL    HW199341   5.790   5.254   6.124
33105SOL    HW299342   5.745   5.104   6.169
33106SOL     OW99343   5.826   4.815   6.472
33106SOL    HW199344   5.840   4.731   6.524
33106SOL    HW299345   5.771   4.879   6.527
33107SOL     OW99346   6.206   5.510   7.025
33107SOL    HW199347   6.114   5.493   7.060
33107SOL    HW299348   6.234   5.602   7.051
33108SOL     OW99349   6.192   4.688   5.709
33108SOL    HW199350   6.199   4.772   5.655
33108SOL    HW299351   6.238   4.701   5.797
33109SOL     OW99352   7.180   3.838   7.066
33109SOL    HW199353   7.162   3.905   6.994
33109SOL    HW299354   7.177   3.884   7.155
33110SOL     OW99355   5.708   4.367   6.149
33110SOL    HW199356   5.663   4.279   6.166
33110SOL    HW299357   5.707   4.421   6.233
33111SOL     OW99358   7.428   5.491   5.945
33111SOL    HW199359   7.482   5.462   6.025
33111SOL    HW299360   7.458   5.581   5.916
33112SOL     OW99361   5.613   5.320   5.703
33112SOL    HW199362   5.594   5.224   5.724
33112SOL    HW299363   5.580   5.378   5.778
33113SOL     OW99364   7.275   4.646   6.198
33113SOL    HW199365   7.370   4.617   6.206
33113SOL    HW299366   7.267   4.711   6.123
33114SOL     OW99367   7.227   4.832   6.018
33114SOL    HW199368   7.313   4.834   5.966
33114SOL    HW299369   7.241   4.879   6.106
33115SOL     OW99370   5.699   4.461   7.183
33115SOL    HW199371   5.787   4.448   7.228
33115SOL    HW299372   5.686   4.558   7.161
33116SOL     OW99373   6.199   5.089   6.312
33116SOL    HW199374   6.150   5.002   6.321
33116SOL    HW299375   6.176   5.132   6.225
33117SOL     OW99376   6.879   4.952   7.009
33117SOL    HW199377   6.916   4.879   6.951
33117SOL    HW299378   6.931   4.957   7.094
33118SOL     OW99379   6.395   3.728   6.088
33118SOL    HW199380   6.435   3.819   6.079
33118SOL    HW299381   6.295   3.736   6.094
33119SOL     OW99382   5.783   4.700   6.850
33119SOL    HW199383   5.872   4.655   6.836
33119SOL    HW299384   5.710   4.635   6.831
33120SOL     OW99385   7.111   4.723   5.776
33120SOL    HW199386   7.048   4.647   5.789
33120SOL    HW299387   7.159   4.741   5.862
33121SOL     OW99388   6.773   5.516   7.202
33121SOL    HW199389   6.797   5.576   7.126
33121SOL    HW299390   6.780   5.421   7.172
33122SOL     OW99391   5.903   3.975   7.387
33122SOL    HW199392   5.974   4.046   7.393
33122SOL    HW299393   5.815   4.014   7.415
33123SOL     OW99394   7.052   5.141   6.539
33123SOL    HW199395   6.993   5.147   6.619
33123SOL    HW299396   7.037   5.053   6.493
33124SOL     OW99397   7.253   5.438   6.158
33124SOL    HW199398   7.212   5.415   6.070
33124SOL    HW299399   7.235   5.364   6.223
33125SOL     OW99400   6.184   4.453   5.856
33125SOL    HW199401   6.208   4.522   5.788
33125SOL    HW299402   6.106   4.486   5.910
33126SOL     OW99403   6.867   4.069   6.530
33126SOL    HW199404   6.781   4.019   6.517
33126SOL    HW299405   6.929   4.015   6.586
33127SOL     OW99406   7.162   5.386   5.893
33127SOL    HW199407   7.251   5.432   5.896
33127SOL    HW299408   7.141   5.362   5.798
33128SOL     OW99409   6.393   4.329   7.051
33128SOL    HW199410   6.346   4.326   7.140
33128SOL    HW299411   6.342   4.274   6.985
33129SOL     OW99412   6.980   4.193   7.260
33129SOL    HW199413   6.960   4.236   7.348
33129SOL    HW299414   7.058   4.131   7.269
33130SOL     OW99415   6.559   4.614   7.158
33130SOL    HW199416   6.605   4.530   7.129
33130SOL    HW299417   6.503   4.648   7.083
33131SOL     OW99418   6.577   4.134   6.828
33131SOL    HW199419   6.500   4.168   6.882
33131SOL    HW299420   6.543   4.083   6.749
33132SOL     OW99421   6.627   4.425   6.015
33132SOL    HW199422   6.653   4.421   6.111
33132SOL    HW299423   6.542   4.374   6.001
33133SOL     OW99424   5.662   4.535   6.375
33133SOL    HW199425   5.761   4.523   6.384
33133SOL    HW299426   5.638   4.630   6.396
33134SOL     OW99427   5.716   5.545   7.157
33134SOL    HW199428   5.706   5.530   7.256
33134SOL    HW299429   5.630   5.581   7.121
33135SOL     OW99430   6.451   4.072   5.781
33135SOL    HW199431   6.510   4.135   5.732
33135SOL    HW299432   6.470   3.978   5.752
33136SOL     OW99433   7.305   4.309   7.417
33136SOL    HW199434   7.279   4.398   7.381
33136SOL    HW299435   7.303   4.241   7.344
33137SOL     OW99436   6.948   4.868   6.131
33137SOL    HW199437   7.031   4.839   6.083
33137SOL    HW299438   6.899   4.935   6.075
33138SOL     OW99439   6.136   3.920   6.471
33138SOL    HW199440   6.131   3.915   6.571
33138SOL    HW299441   6.138   4.016   6.442
33139SOL     OW99442   6.594   5.180   6.063
33139SOL    HW199443   6.548   5.252   6.011
33139SOL    HW299444   6.590   5.200   6.161
33140SOL     OW99445   5.937   5.525   6.439
33140SOL    HW199446   5.987   5.439   6.445
33140SOL    HW299447   6.002   5.602   6.436
33141SOL     OW99448   7.381   4.790   6.459
33141SOL    HW199449   7.319   4.775   6.383
33141SOL    HW299450   7.329   4.801   6.544
33142SOL     OW99451   6.813   5.274   7.092
33142SOL    HW199452   6.819   5.197   7.156
33142SOL    HW299453   6.761   5.248   7.012
33143SOL     OW99454   5.907   4.667   5.828
33143SOL    HW199455   5.989   4.706   5.786
33143SOL    HW299456   5.880   4.585   5.779
33144SOL     OW99457   7.044   4.459   6.314
33144SOL    HW199458   7.039   4.394   6.389
33144SOL    HW299459   7.124   4.518   6.327
33145SOL     OW99460   6.047   4.990   7.313
33145SOL    HW199461   5.997   4.991   7.227
33145SOL    HW299462   5.984   4.972   7.389
33146SOL     OW99463   6.697   5.500   5.823
33146SOL    HW199464   6.637   5.438   5.873
33146SOL    HW299465   6.728   5.456   5.738
33147SOL     OW99466   5.788   4.009   7.084
33147SOL    HW199467   5.708   4.069   7.071
33147SOL    HW299468   5.778   3.960   7.170
33148SOL     OW99469   7.218   5.101   5.667
33148SOL    HW199470   7.186   5.195   5.657
33148SOL    HW299471   7.142   5.038   5.655
33149SOL     OW99472   6.050   5.467   5.909
33149SOL    HW199473   6.083   5.506   5.995
33149SOL    HW299474   6.126   5.460   5.844
33150SOL     OW99475   6.986   3.831   6.012
33150SOL    HW199476   6.962   3.794   5.922
33150SOL    HW299477   7.085   3.847   6.016
33151SOL     OW99478   5.835   5.509   6.827
33151SOL    HW199479   5.892   5.444   6.877
33151SOL    HW299480   5.819   5.476   6.734
33152SOL     OW99481   6.526   5.422   6.490
33152SOL    HW199482   6.606   5.365   6.511
33152SOL    HW299483   6.477   5.382   6.413
33153SOL     OW99484   5.968   4.424   6.066
33153SOL    HW199485   6.013   4.334   6.063
33153SOL    HW299486   5.874   4.413   6.099
33154SOL     OW99487   7.133   3.946   7.315
33154SOL    HW199488   7.128   3.983   7.407
33154SOL    HW299489   7.061   3.877   7.303
33155SOL     OW99490   6.200   3.846   5.703
33155SOL    HW199491   6.298   3.824   5.710
33155SOL    HW299492   6.169   3.829   5.610
33156SOL     OW99493   6.367   3.988   7.335
33156SOL    HW199494   6.434   3.927   7.378
33156SOL    HW299495   6.294   4.007   7.400
33157SOL     OW99496   6.474   5.238   6.781
33157SOL    HW199497   6.451   5.213   6.687
33157SOL    HW299498   6.535   5.169   6.820
33158SOL     OW99499   6.937   4.314   7.019
33158SOL    HW199500   6.965   4.271   7.104
33158SOL    HW299501   6.962   4.410   7.020
33159SOL     OW99502   6.389   5.126   6.510
33159SOL    HW199503   6.479   5.140   6.468
33159SOL    HW299504   6.318   5.128   6.439
33160SOL     OW99505   6.508   4.227   6.485
33160SOL    HW199506   6.483   4.218   6.389
33160SOL    HW299507   6.556   4.145   6.516
33161SOL     OW99508   6.125   3.788   6.098
33161SOL    HW199509   6.044   3.789   6.156
33161SOL    HW299510   6.128   3.871   6.043
33162SOL     OW99511   7.020   4.912   5.627
33162SOL    HW199512   7.052   4.836   5.684
33162SOL    HW299513   6.928   4.939   5.657
33163SOL     OW99514   5.883   3.759   5.757
33163SOL    HW199515   5.932   3.843   5.736
33163SOL    HW299516   5.945   3.694   5.802
33164SOL     OW99517   6.521   3.960   6.066
33164SOL    HW199518   6.473   4.001   5.988
33164SOL    HW299519   6.620   3.958   6.047
33165SOL     OW99520   6.662   4.407   7.050
33165SOL    HW199521   6.582   4.346   7.053
33165SOL    HW299522   6.743   4.354   7.026
33166SOL     OW99523   6.813   5.294   6.379
33166SOL    HW199524   6.834   5.368   6.314
33166SOL    HW299525   6.881   5.294   6.452
33167SOL     OW99526   6.045   4.876   6.327
33167SOL    HW199527   5.974   4.849   6.392
33167SOL    HW299528   6.019   4.848   6.234
33168SOL     OW99529   6.857   5.521   6.177
33168SOL    HW199530   6.901   5.585   6.113
33168SOL    HW299531   6.807   5.573   6.247
33169SOL     OW99532   6.618   4.273   5.602
33169SOL    HW199533   6.577   4.355   5.563
33169SOL    HW299534   6.682   4.299   5.675
33170SOL     OW99535   5.664   4.280   6.972
33170SOL    HW199536   5.756   4.279   6.931
33170SOL    HW299537   5.658   4.354   7.039
33171SOL     OW99538   6.147   3.946   6.733
33171SOL    HW199539   6.185   3.862   6.770
33171SOL    HW299540   6.059   3.965   6.777
33172SOL     OW99541   6.452   4.178   6.228
33172SOL    HW199542   6.420   4.250   6.166
33172SOL    HW299543   6.476   4.097   6.175
33173SOL     OW99544   6.603   3.763   6.339
33173SOL    HW199545   6.531   3.768   6.270
33173SOL    HW299546   6.579   3.694   6.408
33174SOL     OW99547   7.015   4.897   6.453
33174SOL    HW199548   6.960   4.813   6.446
33174SOL    HW299549   7.041   4.926   6.361
33175SOL     OW99550   7.052   4.314   6.578
33175SOL    HW199551   7.022   4.219   6.585
33175SOL    HW299552   7.125   4.330   6.644
33176SOL     OW99553   7.443   4.557   5.963
33176SOL    HW199554   7.485   4.493   6.027
33176SOL    HW299555   7.405   4.506   5.885
33177SOL     OW99556   6.074   5.109   5.760
33177SOL    HW199557   5.987   5.094   5.807
33177SOL    HW299558   6.057   5.135   5.665
33178SOL     OW99559   7.250   5.004   6.243
33178SOL    HW199560   7.349   5.012   6.257
33178SOL    HW299561   7.205   5.088   6.274
33179SOL     OW99562   6.976   4.299   5.664
33179SOL    HW199563   6.922   4.278   5.745
33179SOL    HW299564   7.067   4.258   5.673
33180SOL     OW99565   6.113   3.980   5.914
33180SOL    HW199566   6.140   3.921   5.839
33180SOL    HW299567   6.113   4.075   5.883
33181SOL     OW99568   7.340   4.947   7.174
33181SOL    HW199569   7.431   4.908   7.161
33181SOL    HW299570   7.348   5.043   7.198
33182SOL     OW99571   6.650   5.071   6.926
33182SOL    HW199572   6.570   5.048   6.981
33182SOL    HW299573   6.733   5.045   6.975
33183SOL     OW99574   7.178   5.353   7.211
33183SOL    HW199575   7.205   5.387   7.121
33183SOL    HW299576   7.257   5.315   7.257
33184SOL     OW99577   6.697   4.919   6.686
33184SOL    HW199578   6.657   4.963   6.767
33184SOL    HW299579   6.656   4.956   6.603
33185SOL     OW99580   7.224   4.823   6.665
33185SOL    HW199581   7.229   4.904   6.724
33185SOL    HW299582   7.138   4.825   6.614
33186SOL     OW99583   6.501   3.813   6.988
33186SOL    HW199584   6.526   3.793   6.893
33186SOL    HW299585   6.573   3.869   7.030
33187SOL     OW99586   6.566   4.840   7.305
33187SOL    HW199587   6.467   4.846   7.315
33187SOL    HW299588   6.589   4.760   7.249
33188SOL     OW99589   6.291   4.774   5.954
33188SOL    HW199590   6.277   4.781   6.053
33188SOL    HW299591   6.375   4.723   5.936
33189SOL     OW99592   5.996   4.537   6.837
33189SOL    HW199593   6.082   4.549   6.887
33189SOL    HW299594   5.954   4.450   6.864
33190SOL     OW99595   6.860   4.110   6.848
33190SOL    HW199596   6.881   4.184   6.912
33190SOL    HW299597   6.771   4.127   6.805
33191SOL     OW99598   5.650   5.288   6.917
33191SOL    HW199599   5.604   5.370   6.883
33191SOL    HW299600   5.748   5.307   6.926
33192SOL     OW99601   5.953   4.824   6.087
33192SOL    HW199602   5.946   4.907   6.031
33192SOL    HW299603   5.957   4.744   6.027
33193SOL     OW99604   6.152   4.261   6.451
33193SOL    HW199605   6.164   4.327   6.377
33193SOL    HW299606   6.198   4.295   6.534
33194SOL     OW99607   6.838   5.072   5.974
33194SOL    HW199608   6.888   5.149   6.014
33194SOL    HW299609   6.743   5.074   6.006
33195SOL     OW99610   6.858   5.169   6.728
33195SOL    HW199611   6.905   5.182   6.815
33195SOL    HW299612   6.792   5.095   6.737
33196SOL     OW99613   7.168   4.363   6.058
33196SOL    HW199614   7.137   4.424   6.131
33196SOL    HW299615   7.218   4.415   5.989
33197SOL     OW99616   5.940   5.234   6.915
33197SOL    HW199617   5.919   5.190   6.828
33197SOL    HW299618   6.037   5.260   6.918
33198SOL     OW99619   5.988   4.475   7.184
33198SOL    HW199620   6.056   4.530   7.137
33198SOL    HW299621   6.028   4.387   7.211
33199SOL     OW99622   7.173   4.503   7.256
33199SOL    HW199623   7.081   4.541   7.251
33199SOL    HW299624   7.233   4.550   7.191
33200SOL     OW99625   6.599   3.829   7.356
33200SOL    HW199626   6.605   3.914   7.304
33200SOL    HW299627   6.631   3.753   7.299
33201SOL     OW99628   6.090   3.774   7.326
33201SOL    HW199629   6.048   3.717   7.256
33201SOL    HW299630   6.024   3.843   7.358
33202SOL     OW99631   6.159   4.594   6.615
33202SOL    HW199632   6.203   4.683   6.606
33202SOL    HW299633   6.096   4.594   6.692
33203SOL     OW99634   6.946   4.586   6.631
33203SOL    HW199635   6.871   4.586   6.565
33203SOL    HW299636   6.983   4.494   6.640
33204SOL     OW99637   6.795   4.249   5.861
33204SOL    HW199638   6.808   4.165   5.915
33204SOL    HW299639   6.766   4.323   5.921
33205SOL     OW99640   5.893   3.937   6.817
33205SOL    HW199641   5.870   3.974   6.907
33205SOL    HW299642   5.863   3.842   6.811
33206SOL     OW99643   5.623   5.034   6.868
33206SOL    HW199644   5.676   4.985   6.936
33206SOL    HW299645   5.645   5.132   6.873
33207SOL     OW99646   6.318   4.358   6.650
33207SOL    HW199647   6.377   4.332   6.574
33207SOL    HW299648   6.290   4.454   6.639
33208SOL     OW99649   7.314   4.659   7.440
33208SOL    HW199650   7.268   4.652   7.351
33208SOL    HW299651   7.252   4.703   7.506
33209SOL     OW99652   5.893   3.787   6.204
33209SOL    HW199653   5.882   3.881   6.237
33209SOL    HW299654   5.888   3.724   6.281
33210SOL     OW99655   7.208   4.091   5.960
33210SOL    HW199656   7.210   4.015   6.024
33210SOL    HW299657   7.160   4.168   6.000
33211SOL     OW99658   6.609   4.490   6.552
33211SOL    HW199659   6.624   4.511   6.648
33211SOL    HW299660   6.579   4.395   6.543
33212SOL     OW99661   6.566   5.297   7.286
33212SOL    HW199662   6.546   5.341   7.198
33212SOL    HW299663   6.605   5.206   7.270
33213SOL     OW99664   7.445   5.242   7.191
33213SOL    HW199665   7.459   5.269   7.096
33213SOL    HW299666   7.528   5.264   7.244
33214SOL     OW99667   5.936   4.622   7.390
33214SOL    HW199668   6.012   4.666   7.438
33214SOL    HW299669   5.971   4.575   7.308
33215SOL     OW99670   7.126   3.998   5.711
33215SOL    HW199671   7.065   3.923   5.734
33215SOL    HW299672   7.148   4.050   5.794
33216SOL     OW99673   6.889   4.562   5.628
33216SOL    HW199674   6.923   4.469   5.643
33216SOL    HW299675   6.907   4.589   5.533
33217SOL     OW99676   6.654   5.057   6.435
33217SOL    HW199677   6.661   4.973   6.380
33217SOL    HW299678   6.716   5.126   6.399
33218SOL     OW99679   5.905   4.534   6.535
33218SOL    HW199680   5.998   4.570   6.540
33218SOL    HW299681   5.899   4.449   6.587
33219SOL     OW99682   5.925   4.233   6.592
33219SOL    HW199683   5.873   4.150   6.575
33219SOL    HW299684   6.002   4.238   6.528
33220SOL     OW99685   6.724   4.104   7.264
33220SOL    HW199686   6.679   4.167   7.328
33220SOL    HW299687   6.817   4.135   7.247
33221SOL     OW99688   6.746   3.931   7.063
33221SOL    HW199689   6.746   3.995   7.140
33221SOL    HW299690   6.774   3.979   6.980
33222SOL     OW99691   5.594   5.050   5.786
33222SOL    HW199692   5.501   5.071   5.755
33222SOL    HW299693   5.604   4.951   5.799
33223SOL     OW99694   5.674   5.525   6.513
33223SOL    HW199695   5.632   5.439   6.486
33223SOL    HW299696   5.768   5.528   6.479
33224SOL     OW99697   6.090   5.292   6.496
33224SOL    HW199698   6.156   5.366   6.505
33224SOL    HW299699   6.134   5.213   6.454
33225SOL     OW99700   6.588   4.520   6.824
33225SOL    HW199701   6.629   4.488   6.910
33225SOL    HW299702   6.492   4.493   6.821
33226SOL     OW99703   5.626   4.268   6.700
33226SOL    HW199704   5.711   4.235   6.659
33226SOL    HW299705   5.639   4.283   6.798
33227SOL     OW99706   5.775   4.244   7.308
33227SOL    HW199707   5.834   4.204   7.238
33227SOL    HW299708   5.717   4.315   7.267
33228SOL     OW99709   6.955   4.674   7.246
33228SOL    HW199710   6.994   4.763   7.266
33228SOL    HW299711   6.965   4.654   7.149
33229SOL     OW99712   6.401   4.296   5.911
33229SOL    HW199713   6.408   4.207   5.865
33229SOL    HW299714   6.307   4.330   5.903
33230SOL     OW99715   7.243   4.328   6.792
33230SOL    HW199716   7.205   4.259   6.854
33230SOL    HW299717   7.325   4.292   6.748
33231SOL     OW99718   5.838   5.288   7.330
33231SOL    HW199719   5.808   5.345   7.406
33231SOL    HW299720   5.831   5.191   7.356
33232SOL     OW99721   6.257   4.188   6.855
33232SOL    HW199722   6.223   4.099   6.825
33232SOL    HW299723   6.283   4.242   6.775
33233SOL     OW99724   6.516   5.402   7.051
33233SOL    HW199725   6.492   5.384   6.956
33233SOL    HW299726   6.546   5.496   7.061
33234SOL     OW99727   6.059   4.224   5.777
33234SOL    HW199728   6.120   4.304   5.781
33234SOL    HW299729   5.964   4.255   5.784
33235SOL     OW99730   5.745   4.861   7.052
33235SOL    HW199731   5.767   4.800   7.128
33235SOL    HW299732   5.755   4.812   6.966
33236SOL     OW99733   6.933   4.783   6.820
33236SOL    HW199734   6.957   4.720   6.746
33236SOL    HW299735   6.843   4.823   6.802
33237SOL     OW99736   6.888   4.579   5.895
33237SOL    HW199737   6.802   4.548   5.937
33237SOL    HW299738   6.884   4.565   5.796
33238SOL     OW99739   7.345   5.471   6.740
33238SOL    HW199740   7.406   5.501   6.667
33238SOL    HW299741   7.307   5.382   6.718
33239SOL     OW99742   6.838   5.455   6.714
33239SOL    HW199743   6.922   5.460   6.660
33239SOL    HW299744   6.815   5.359   6.732
33240SOL     OW99745   5.669   4.982   6.608
33240SOL    HW199746   5.664   4.981   6.708
33240SOL    HW299747   5.586   4.941   6.570
33241SOL     OW99748   6.274   5.386   7.302
33241SOL    HW199749   6.218   5.467   7.311
33241SOL    HW299750   6.326   5.390   7.216
33242SOL     OW99751   7.312   3.859   6.109
33242SOL    HW199752   7.385   3.842   6.042
33242SOL    HW299753   7.281   3.772   6.147
33243SOL     OW99754   6.974   5.297   6.063
33243SOL    HW199755   7.041   5.309   5.989
33243SOL    HW299756   6.934   5.386   6.086
33244SOL     OW99757   5.716   5.518   7.437
33244SOL    HW199758   5.675   5.444   7.490
33244SOL    HW299759   5.780   5.569   7.495
33245SOL     OW99760   6.866   4.651   6.258
33245SOL    HW199761   6.926   4.570   6.260
33245SOL    HW299762   6.906   4.720   6.198
33246SOL     OW99763   6.416   4.997   7.008
33246SOL    HW199764   6.411   5.030   7.103
33246SOL    HW299765   6.330   5.016   6.962
33247SOL     OW99766   6.258   5.340   5.740
33247SOL    HW199767   6.267   5.350   5.641
33247SOL    HW299768   6.218   5.251   5.761
33248SOL     OW99769   7.236   5.444   6.980
33248SOL    HW199770   7.289   5.454   6.896
33248SOL    HW299771   7.209   5.534   7.014
33249SOL     OW99772   7.427   3.899   6.549
33249SOL    HW199773   7.466   3.814   6.513
33249SOL    HW299774   7.329   3.901   6.530
33250SOL     OW99775   5.849   4.050   6.306
33250SOL    HW199776   5.770   4.101   6.272
33250SOL    HW299777   5.840   4.035   6.404
33251SOL     OW99778   6.780   5.336   5.617
33251SOL    HW199779   6.786   5.243   5.654
33251SOL    HW299780   6.721   5.336   5.537
33252SOL     OW99781   6.408   4.726   6.958
33252SOL    HW199782   6.448   4.725   6.866
33252SOL    HW299783   6.418   4.818   6.998
33253SOL     OW99784   6.502   4.634   5.877
33253SOL    HW199785   6.565   4.672   5.809
33253SOL    HW299786   6.542   4.551   5.916
33254SOL     OW99787   7.090   5.331   5.630
33254SOL    HW199788   6.998   5.368   5.637
33254SOL    HW299789   7.128   5.351   5.540
33255SOL     OW99790   5.958   5.012   7.076
33255SOL    HW199791   5.945   5.105   7.042
33255SOL    HW299792   5.874   4.960   7.063
33256SOL     OW99793   7.200   5.016   6.875
33256SOL    HW199794   7.260   5.019   6.955
33256SOL    HW299795   7.125   5.080   6.888
33257SOL     OW99796   6.625   4.822   6.282
33257SOL    HW199797   6.555   4.775   6.336
33257SOL    HW299798   6.684   4.754   6.239
33258SOL     OW99799   6.600   3.960   6.557
33258SOL    HW199800   6.592   3.924   6.464
33258SOL    HW299801   6.598   3.884   6.622
33259SOL     OW99802   6.176   5.211   6.077
33259SOL    HW199803   6.218   5.153   6.007
33259SOL    HW299804   6.132   5.290   6.033
33260SOL     OW99805   7.295   4.109   6.967
33260SOL    HW199806   7.368   4.178   6.971
33260SOL    HW299807   7.323   4.034   6.908
33261SOL     OW99808   5.841   5.072   5.876
33261SOL    HW199809   5.745   5.073   5.849
33261SOL    HW299810   5.853   5.125   5.960
33262SOL     OW99811   5.691   4.737   7.312
33262SOL    HW199812   5.614   4.704   7.366
33262SOL    HW299813   5.776   4.707   7.354
33263SOL     OW99814   6.258   3.927   7.075
33263SOL    HW199815   6.348   3.911   7.035
33263SOL    HW299816   6.266   3.932   7.174
33264SOL     OW99817   5.661   4.069   5.619
33264SOL    HW199818   5.569   4.041   5.590
33264SOL    HW299819   5.692   4.146   5.563
33265SOL     OW99820   7.026   4.580   6.984
33265SOL    HW199821   6.969   4.632   6.921
33265SOL    HW299822   7.122   4.592   6.960
33266SOL     OW99823   5.658   3.890   5.904
33266SOL    HW199824   5.641   3.973   5.850
33266SOL    HW299825   5.748   3.853   5.882
33267SOL     OW99826   6.769   5.059   5.705
33267SOL    HW199827   6.670   5.048   5.707
33267SOL    HW299828   6.803   5.074   5.798
33268SOL     OW99829   6.199   4.566   7.017
33268SOL    HW199830   6.255   4.647   7.000
33268SOL    HW299831   6.258   4.486   7.020
33269SOL     OW99832   7.079   5.491   6.545
33269SOL    HW199833   7.112   5.555   6.476
33269SOL    HW299834   7.145   5.485   6.620
33270SOL     OW99835   6.302   4.289   7.294
33270SOL    HW199836   6.321   4.354   7.368
33270SOL    HW299837   6.362   4.209   7.303
33271SOL     OW99838   7.036   4.944   7.219
33271SOL    HW199839   7.027   4.934   7.318
33271SOL    HW299840   7.132   4.937   7.193
33272SOL     OW99841   5.976   5.465   7.146
33272SOL    HW199842   5.885   5.506   7.144
33272SOL    HW299843   5.969   5.371   7.178
33273SOL     OW99844   7.260   4.607   6.840
33273SOL    HW199845   7.233   4.518   6.803
33273SOL    HW299846   7.261   4.675   6.767
33274SOL     OW99847   6.811   4.049   6.035
33274SOL    HW199848   6.876   3.975   6.024
33274SOL    HW299849   6.831   4.099   6.119
33275SOL     OW99850   6.180   4.469   6.238
33275SOL    HW199851   6.230   4.554   6.219
33275SOL    HW299852   6.092   4.471   6.190
33276SOL     OW99853   7.363   4.066   7.228
33276SOL    HW199854   7.346   4.097   7.134
33276SOL    HW299855   7.279   4.029   7.266
33277SOL     OW99856   7.316   4.658   7.103
33277SOL    HW199857   7.354   4.749   7.118
33277SOL    HW299858   7.308   4.641   7.004
33278SOL     OW99859   6.445   5.098   5.602
33278SOL    HW199860   6.399   5.113   5.690
33278SOL    HW299861   6.489   5.183   5.572
33279SOL     OW99862   6.247   5.514   6.539
33279SOL    HW199863   6.201   5.602   6.526
33279SOL    HW299864   6.346   5.526   6.532
33280SOL     OW99865   6.445   4.680   6.447
33280SOL    HW199866   6.499   4.611   6.495
33280SOL    HW299867   6.413   4.749   6.513
33281SOL     OW99868   6.669   4.708   5.673
33281SOL    HW199869   6.646   4.761   5.591
33281SOL    HW299870   6.750   4.652   5.654
33282SOL     OW99871   7.447   5.293   6.437
33282SOL    HW199872   7.376   5.281   6.367
33282SOL    HW299873   7.448   5.214   6.497
33283SOL     OW99874   5.807   5.038   7.430
33283SOL    HW199875   5.742   4.965   7.409
33283SOL    HW299876   5.811   5.052   7.528
33284SOL     OW99877   5.665   4.964   6.239
33284SOL    HW199878   5.664   4.917   6.327
33284SOL    HW299879   5.747   4.936   6.188
33285SOL     OW99880   6.258   5.115   7.210
33285SOL    HW199881   6.180   5.065   7.248
33285SOL    HW299882   6.255   5.210   7.241
33286SOL     OW99883   7.410   3.916   6.813
33286SOL    HW199884   7.406   3.826   6.857
33286SOL    HW299885   7.413   3.905   6.714
33287SOL     OW99886   6.014   4.148   6.106
33287SOL    HW199887   6.044   4.076   6.044
33287SOL    HW299888   5.975   4.108   6.189
33288SOL     OW99889   7.291   5.211   6.690
33288SOL    HW199890   7.198   5.186   6.663
33288SOL    HW299891   7.317   5.161   6.772
33289SOL     OW99892   5.903   4.271   6.866
33289SOL    HW199893   5.941   4.212   6.938
33289SOL    HW299894   5.943   4.245   6.778
33290SOL     OW99895   6.398   5.310   6.273
33290SOL    HW199896   6.430   5.320   6.179
33290SOL    HW299897   6.319   5.248   6.275
33291SOL     OW99898   7.010   3.938   6.698
33291SOL    HW199899   7.062   3.873   6.753
33291SOL    HW299900   6.961   4.001   6.759
33292SOL     OW99901   6.587   3.758   6.740
33292SOL    HW199902   6.524   3.686   6.709
33292SOL    HW299903   6.680   3.722   6.740
33293SOL     OW99904   6.356   5.054   5.887
33293SOL    HW199905   6.310   4.967   5.904
33293SOL    HW299906   6.447   5.051   5.928
33294SOL     OW99907   6.204   5.291   6.870
33294SOL    HW199908   6.199   5.373   6.927
33294SOL    HW299909   6.293   5.288   6.825
33295SOL     OW99910   6.938   3.776   5.754
33295SOL    HW199911   6.973   3.735   5.670
33295SOL    HW299912   6.848   3.738   5.774
33296SOL     OW99913   6.886   4.177   6.277
33296SOL    HW199914   6.827   4.257   6.281
33296SOL    HW299915   6.901   4.142   6.370
33297SOL     OW99916   7.179   3.945   6.468
33297SOL    HW199917   7.095   3.944   6.522
33297SOL    HW299918   7.181   4.028   6.412
33298SOL     OW99919   5.625   4.801   5.886
33298SOL    HW199920   5.724   4.790   5.877
33298SOL    HW299921   5.585   4.715   5.918
33299SOL     OW99922   6.461   5.370   5.923
33299SOL    HW199923   6.384   5.335   5.869
33299SOL    HW299924   6.429   5.441   5.985
33300SOL     OW99925   5.816   4.352   7.561
33300SOL    HW199926   5.723   4.350   7.598
33300SOL    HW299927   5.817   4.313   7.469
33301SOL     OW99928   5.811   3.999   8.444
33301SOL    HW199929   5.846   3.982   8.536
33301SOL    HW299930   5.723   3.954   8.432
33302SOL     OW99931   5.605   4.092   8.095
33302SOL    HW199932   5.523   4.135   8.134
33302SOL    HW299933   5.577   4.019   8.032
33303SOL     OW99934   6.155   4.999   8.613
33303SOL    HW199935   6.062   4.992   8.576
33303SOL    HW299936   6.166   5.088   8.657
33304SOL     OW99937   7.141   5.235   8.151
33304SOL    HW199938   7.084   5.219   8.232
33304SOL    HW299939   7.082   5.245   8.071
33305SOL     OW99940   6.721   4.427   8.165
33305SOL    HW199941   6.778   4.505   8.140
33305SOL    HW299942   6.661   4.453   8.241
33306SOL     OW99943   7.341   4.331   7.679
33306SOL    HW199944   7.329   4.318   7.580
33306SOL    HW299945   7.311   4.250   7.728
33307SOL     OW99946   6.354   4.868   8.471
33307SOL    HW199947   6.276   4.885   8.531
33307SOL    HW299948   6.388   4.955   8.435
33308SOL     OW99949   6.436   4.522   9.271
33308SOL    HW199950   6.432   4.598   9.336
33308SOL    HW299951   6.458   4.558   9.180
33309SOL     OW99952   6.271   4.736   8.113
33309SOL    HW199953   6.340   4.720   8.183
33309SOL    HW299954   6.198   4.793   8.151
33310SOL     OW99955   6.272   4.885   9.251
33310SOL    HW199956   6.332   4.964   9.265
33310SOL    HW299957   6.186   4.916   9.210
33311SOL     OW99958   5.921   5.159   8.509
33311SOL    HW199959   5.843   5.128   8.456
33311SOL    HW299960   5.979   5.217   8.452
33312SOL     OW99961   7.046   5.229   8.787
33312SOL    HW199962   7.070   5.323   8.813
33312SOL    HW299963   7.030   5.175   8.869
33313SOL     OW99964   6.024   4.116   8.947
33313SOL    HW199965   6.106   4.060   8.956
33313SOL    HW299966   5.943   4.058   8.951
33314SOL     OW99967   7.189   4.171   8.185
33314SOL    HW199968   7.115   4.217   8.135
33314SOL    HW299969   7.240   4.239   8.238
33315SOL     OW99970   5.817   5.437   7.931
33315SOL    HW199971   5.851   5.514   7.985
33315SOL    HW299972   5.861   5.437   7.841
33316SOL     OW99973   6.713   5.065   9.138
33316SOL    HW199974   6.760   5.065   9.226
33316SOL    HW299975   6.665   4.978   9.127
33317SOL     OW99976   5.816   5.158   7.986
33317SOL    HW199977   5.790   5.254   7.986
33317SOL    HW299978   5.745   5.104   8.031
33318SOL     OW99979   5.826   4.815   8.334
33318SOL    HW199980   5.840   4.731   8.386
33318SOL    HW299981   5.771   4.879   8.389
33319SOL     OW99982   6.206   5.510   8.887
33319SOL    HW199983   6.114   5.493   8.922
33319SOL    HW299984   6.234   5.602   8.913
33320SOL     OW99985   6.192   4.688   7.571
33320SOL    HW199986   6.199   4.772   7.517
33320SOL    HW299987   6.238   4.701   7.659
33321SOL     OW99988   7.180   3.838   8.928
33321SOL    HW199989   7.162   3.905   8.856
33321SOL    HW299990   7.177   3.884   9.017
33322SOL     OW99991   5.708   4.367   8.011
33322SOL    HW199992   5.663   4.279   8.028
33322SOL    HW299993   5.707   4.421   8.095
33323SOL     OW99994   7.428   5.491   7.807
33323SOL    HW199995   7.482   5.462   7.887
33323SOL    HW299996   7.458   5.581   7.778
33324SOL     OW99997   5.613   5.320   7.565
33324SOL    HW199998   5.594   5.224   7.586
33324SOL    HW299999   5.580   5.378   7.640
33325SOL     OW    0   7.275   4.646   8.060
33325SOL    HW1    1   7.370   4.617   8.068
33325SOL    HW2    2   7.267   4.711   7.985
33326SOL     OW    3   7.227   4.832   7.880
33326SOL    HW1    4   7.313   4.834   7.828
33326SOL    HW2    5   7.241   4.879   7.968
33327SOL     OW    6   5.699   4.461   9.045
33327SOL    HW1    7   5.787   4.448   9.090
33327SOL    HW2    8   5.686   4.558   9.023
33328SOL     OW    9   6.199   5.089   8.174
33328SOL    HW1   10   6.150   5.002   8.183
33328SOL    HW2   11   6.176   5.132   8.087
33329SOL     OW   12   6.879   4.952   8.871
33329SOL    HW1   13   6.916   4.879   8.813
33329SOL    HW2   14   6.931   4.957   8.956
33330SOL     OW   15   6.395   3.728   7.950
33330SOL    HW1   16   6.435   3.819   7.941
33330SOL    HW2   17   6.295   3.736   7.956
33331SOL     OW   18   5.783   4.700   8.712
33331SOL    HW1   19   5.872   4.655   8.698
33331SOL    HW2   20   5.710   4.635   8.693
33332SOL     OW   21   7.111   4.723   7.638
33332SOL    HW1   22   7.048   4.647   7.651
33332SOL    HW2   23   7.159   4.741   7.724
33333SOL     OW   24   6.773   5.516   9.064
33333SOL    HW1   25   6.797   5.576   8.988
33333SOL    HW2   26   6.780   5.421   9.034
33334SOL     OW   27   5.903   3.975   9.249
33334SOL    HW1   28   5.974   4.046   9.255
33334SOL    HW2   29   5.815   4.014   9.277
33335SOL     OW   30   7.052   5.141   8.401
33335SOL    HW1   31   6.993   5.147   8.481
33335SOL    HW2   32   7.037   5.053   8.355
33336SOL     OW   33   7.253   5.438   8.020
33336SOL    HW1   34   7.212   5.415   7.932
33336SOL    HW2   35   7.235   5.364   8.085
33337SOL     OW   36   6.184   4.453   7.718
33337SOL    HW1   37   6.208   4.522   7.650
33337SOL    HW2   38   6.106   4.486   7.772
33338SOL     OW   39   6.867   4.069   8.392
33338SOL    HW1   40   6.781   4.019   8.379
33338SOL    HW2   41   6.929   4.015   8.448
33339SOL     OW   42   7.162   5.386   7.755
33339SOL    HW1   43   7.251   5.432   7.758
33339SOL    HW2   44   7.141   5.362   7.660
33340SOL     OW   45   6.393   4.329   8.913
33340SOL    HW1   46   6.346   4.326   9.002
33340SOL    HW2   47   6.342   4.274   8.847
33341SOL     OW   48   6.980   4.193   9.122
33341SOL    HW1   49   6.960   4.236   9.210
33341SOL    HW2   50   7.058   4.131   9.131
33342SOL     OW   51   6.559   4.614   9.020
33342SOL    HW1   52   6.605   4.530   8.991
33342SOL    HW2   53   6.503   4.648   8.945
33343SOL     OW   54   6.577   4.134   8.690
33343SOL    HW1   55   6.500   4.168   8.744
33343SOL    HW2   56   6.543   4.083   8.611
33344SOL     OW   57   6.627   4.425   7.877
33344SOL    HW1   58   6.653   4.421   7.973
33344SOL    HW2   59   6.542   4.374   7.863
33345SOL     OW   60   5.662   4.535   8.237
33345SOL    HW1   61   5.761   4.523   8.246
33345SOL    HW2   62   5.638   4.630   8.258
33346SOL     OW   63   5.716   5.545   9.019
33346SOL    HW1   64   5.706   5.530   9.118
33346SOL    HW2   65   5.630   5.581   8.983
33347SOL     OW   66   6.451   4.072   7.643
33347SOL    HW1   67   6.510   4.135   7.594
33347SOL    HW2   68   6.470   3.978   7.614
33348SOL     OW   69   7.305   4.309   9.279
33348SOL    HW1   70   7.279   4.398   9.243
33348SOL    HW2   71   7.303   4.241   9.206
33349SOL     OW   72   6.948   4.868   7.993
33349SOL    HW1   73   7.031   4.839   7.945
33349SOL    HW2   74   6.899   4.935   7.937
33350SOL     OW   75   6.136   3.920   8.333
33350SOL    HW1   76   6.131   3.915   8.433
33350SOL    HW2   77   6.138   4.016   8.304
33351SOL     OW   78   6.594   5.180   7.925
33351SOL    HW1   79   6.548   5.252   7.873
33351SOL    HW2   80   6.590   5.200   8.023
33352SOL     OW   81   5.937   5.525   8.301
33352SOL    HW1   82   5.987   5.439   8.307
33352SOL    HW2   83   6.002   5.602   8.298
33353SOL     OW   84   7.381   4.790   8.321
33353SOL    HW1   85   7.319   4.775   8.245
33353SOL    HW2   86   7.329   4.801   8.406
33354SOL     OW   87   6.813   5.274   8.954
33354SOL    HW1   88   6.819   5.197   9.018
33354SOL    HW2   89   6.761   5.248   8.874
33355SOL     OW   90   5.907   4.667   7.690
33355SOL    HW1   91   5.989   4.706   7.648
33355SOL    HW2   92   5.880   4.585   7.641
33356SOL     OW   93   7.044   4.459   8.176
33356SOL    HW1   94   7.039   4.394   8.251
33356SOL    HW2   95   7.124   4.518   8.189
33357SOL     OW   96   6.047   4.990   9.175
33357SOL    HW1   97   5.997   4.991   9.089
33357SOL    HW2   98   5.984   4.972   9.251
33358SOL     OW   99   6.697   5.500   7.685
33358SOL    HW1  100   6.637   5.438   7.735
33358SOL    HW2  101   6.728   5.456   7.600
33359SOL     OW  102   5.788   4.009   8.946
33359SOL    HW1  103   5.708   4.069   8.933
33359SOL    HW2  104   5.778   3.960   9.032
33360SOL     OW  105   7.218   5.101   7.529
33360SOL    HW1  106   7.186   5.195   7.519
33360SOL    HW2  107   7.142   5.038   7.517
33361SOL     OW  108   6.050   5.467   7.771
33361SOL    HW1  109   6.083   5.506   7.857
33361SOL    HW2  110   6.126   5.460   7.706
33362SOL     OW  111   6.986   3.831   7.874
33362SOL    HW1  112   6.962   3.794   7.784
33362SOL    HW2  113   7.085   3.847   7.878
33363SOL     OW  114   5.835   5.509   8.689
33363SOL    HW1  115   5.892   5.444   8.739
33363SOL    HW2  116   5.819   5.476   8.596
33364SOL     OW  117   6.526   5.422   8.352
33364SOL    HW1  118   6.606   5.365   8.373
33364SOL    HW2  119   6.477   5.382   8.275
33365SOL     OW  120   5.968   4.424   7.928
33365SOL    HW1  121   6.013   4.334   7.925
33365SOL    HW2  122   5.874   4.413   7.961
33366SOL     OW  123   7.133   3.946   9.177
33366SOL    HW1  124   7.128   3.983   9.269
33366SOL    HW2  125   7.061   3.877   9.165
33367SOL     OW  126   6.200   3.846   7.565
33367SOL    HW1  127   6.298   3.824   7.572
33367SOL    HW2  128   6.169   3.829   7.472
33368SOL     OW  129   6.367   3.988   9.197
33368SOL    HW1  130   6.434   3.927   9.240
33368SOL    HW2  131   6.294   4.007   9.262
33369SOL     OW  132   6.474   5.238   8.643
33369SOL    HW1  133   6.451   5.213   8.549
33369SOL    HW2  134   6.535   5.169   8.682
33370SOL     OW  135   6.937   4.314   8.881
33370SOL    HW1  136   6.965   4.271   8.966
33370SOL    HW2  137   6.962   4.410   8.882
33371SOL     OW  138   6.389   5.126   8.372
33371SOL    HW1  139   6.479   5.140   8.330
33371SOL    HW2  140   6.318   5.128   8.301
33372SOL     OW  141   6.508   4.227   8.347
33372SOL    HW1  142   6.483   4.218   8.251
33372SOL    HW2  143   6.556   4.145   8.378
33373SOL     OW  144   6.125   3.788   7.960
33373SOL    HW1  145   6.044   3.789   8.018
33373SOL    HW2  146   6.128   3.871   7.905
33374SOL     OW  147   7.020   4.912   7.489
33374SOL    HW1  148   7.052   4.836   7.546
33374SOL    HW2  149   6.928   4.939   7.519
33375SOL     OW  150   5.883   3.759   7.619
33375SOL    HW1  151   5.932   3.843   7.598
33375SOL    HW2  152   5.945   3.694   7.664
33376SOL     OW  153   6.521   3.960   7.928
33376SOL    HW1  154   6.473   4.001   7.850
33376SOL    HW2  155   6.620   3.958   7.909
33377SOL     OW  156   6.662   4.407   8.912
33377SOL    HW1  157   6.582   4.346   8.915
33377SOL    HW2  158   6.743   4.354   8.888
33378SOL     OW  159   6.813   5.294   8.241
33378SOL    HW1  160   6.834   5.368   8.176
33378SOL    HW2  161   6.881   5.294   8.314
33379SOL     OW  162   6.045   4.876   8.189
33379SOL    HW1  163   5.974   4.849   8.254
33379SOL    HW2  164   6.019   4.848   8.096
33380SOL     OW  165   6.857   5.521   8.039
33380SOL    HW1  166   6.901   5.585   7.975
33380SOL    HW2  167   6.807   5.573   8.109
33381SOL     OW  168   6.618   4.273   7.464
33381SOL    HW1  169   6.577   4.355   7.425
33381SOL    HW2  170   6.682   4.299   7.537
33382SOL     OW  171   5.664   4.280   8.834
33382SOL    HW1  172   5.756   4.279   8.793
33382SOL    HW2  173   5.658   4.354   8.901
33383SOL     OW  174   6.147   3.946   8.595
33383SOL    HW1  175   6.185   3.862   8.632
33383SOL    HW2  176   6.059   3.965   8.639
33384SOL     OW  177   6.452   4.178   8.090
33384SOL    HW1  178   6.420   4.250   8.028
33384SOL    HW2  179   6.476   4.097   8.037
33385SOL     OW  180   6.603   3.763   8.201
33385SOL    HW1  181   6.531   3.768   8.132
33385SOL    HW2  182   6.579   3.694   8.270
33386SOL     OW  183   7.015   4.897   8.315
33386SOL    HW1  184   6.960   4.813   8.308
33386SOL    HW2  185   7.041   4.926   8.223
33387SOL     OW  186   7.052   4.314   8.440
33387SOL    HW1  187   7.022   4.219   8.447
33387SOL    HW2  188   7.125   4.330   8.506
33388SOL     OW  189   7.443   4.557   7.825
33388SOL    HW1  190   7.485   4.493   7.889
33388SOL    HW2  191   7.405   4.506   7.747
33389SOL     OW  192   6.074   5.109   7.622
33389SOL    HW1  193   5.987   5.094   7.669
33389SOL    HW2  194   6.057   5.135   7.527
33390SOL     OW  195   7.250   5.004   8.105
33390SOL    HW1  196   7.349   5.012   8.119
33390SOL    HW2  197   7.205   5.088   8.136
33391SOL     OW  198   6.976   4.299   7.526
33391SOL    HW1  199   6.922   4.278   7.607
33391SOL    HW2  200   7.067   4.258   7.535
33392SOL     OW  201   6.113   3.980   7.776
33392SOL    HW1  202   6.140   3.921   7.701
33392SOL    HW2  203   6.113   4.075   7.745
33393SOL     OW  204   7.340   4.947   9.036
33393SOL    HW1  205   7.431   4.908   9.023
33393SOL    HW2  206   7.348   5.043   9.060
33394SOL     OW  207   6.650   5.071   8.788
33394SOL    HW1  208   6.570   5.048   8.843
33394SOL    HW2  209   6.733   5.045   8.837
33395SOL     OW  210   7.178   5.353   9.073
33395SOL    HW1  211   7.205   5.387   8.983
33395SOL    HW2  212   7.257   5.315   9.119
33396SOL     OW  213   6.697   4.919   8.548
33396SOL    HW1  214   6.657   4.963   8.629
33396SOL    HW2  215   6.656   4.956   8.465
33397SOL     OW  216   7.224   4.823   8.527
33397SOL    HW1  217   7.229   4.904   8.586
33397SOL    HW2  218   7.138   4.825   8.476
33398SOL     OW  219   6.501   3.813   8.850
33398SOL    HW1  220   6.526   3.793   8.755
33398SOL    HW2  221   6.573   3.869   8.892
33399SOL     OW  222   6.566   4.840   9.167
33399SOL    HW1  223   6.467   4.846   9.177
33399SOL    HW2  224   6.589   4.760   9.111
33400SOL     OW  225   6.291   4.774   7.816
33400SOL    HW1  226   6.277   4.781   7.915
33400SOL    HW2  227   6.375   4.723   7.798
33401SOL     OW  228   5.996   4.537   8.699
33401SOL    HW1  229   6.082   4.549   8.749
33401SOL    HW2  230   5.954   4.450   8.726
33402SOL     OW  231   6.860   4.110   8.710
33402SOL    HW1  232   6.881   4.184   8.774
33402SOL    HW2  233   6.771   4.127   8.667
33403SOL     OW  234   5.650   5.288   8.779
33403SOL    HW1  235   5.604   5.370   8.745
33403SOL    HW2  236   5.748   5.307   8.788
33404SOL     OW  237   5.953   4.824   7.949
33404SOL    HW1  238   5.946   4.907   7.893
33404SOL    HW2  239   5.957   4.744   7.889
33405SOL     OW  240   6.152   4.261   8.313
33405SOL    HW1  241   6.164   4.327   8.239
33405SOL    HW2  242   6.198   4.295   8.396
33406SOL     OW  243   6.838   5.072   7.836
33406SOL    HW1  244   6.888   5.149   7.876
33406SOL    HW2  245   6.743   5.074   7.868
33407SOL     OW  246   6.858   5.169   8.590
33407SOL    HW1  247   6.905   5.182   8.677
33407SOL    HW2  248   6.792   5.095   8.599
33408SOL     OW  249   7.168   4.363   7.920
33408SOL    HW1  250   7.137   4.424   7.993
33408SOL    HW2  251   7.218   4.415   7.851
33409SOL     OW  252   5.940   5.234   8.777
33409SOL    HW1  253   5.919   5.190   8.690
33409SOL    HW2  254   6.037   5.260   8.780
33410SOL     OW  255   5.988   4.475   9.046
33410SOL    HW1  256   6.056   4.530   8.999
33410SOL    HW2  257   6.028   4.387   9.073
33411SOL     OW  258   7.173   4.503   9.118
33411SOL    HW1  259   7.081   4.541   9.113
33411SOL    HW2  260   7.233   4.550   9.053
33412SOL     OW  261   6.599   3.829   9.218
33412SOL    HW1  262   6.605   3.914   9.166
33412SOL    HW2  263   6.631   3.753   9.161
33413SOL     OW  264   6.090   3.774   9.188
33413SOL    HW1  265   6.048   3.717   9.118
33413SOL    HW2  266   6.024   3.843   9.220
33414SOL     OW  267   6.159   4.594   8.477
33414SOL    HW1  268   6.203   4.683   8.468
33414SOL    HW2  269   6.096   4.594   8.554
33415SOL     OW  270   6.946   4.586   8.493
33415SOL    HW1  271   6.871   4.586   8.427
33415SOL    HW2  272   6.983   4.494   8.502
33416SOL     OW  273   6.795   4.249   7.723
33416SOL    HW1  274   6.808   4.165   7.777
33416SOL    HW2  275   6.766   4.323   7.783
33417SOL     OW  276   5.893   3.937   8.679
33417SOL    HW1  277   5.870   3.974   8.769
33417SOL    HW2  278   5.863   3.842   8.673
33418SOL     OW  279   5.623   5.034   8.730
33418SOL    HW1  280   5.676   4.985   8.798
33418SOL    HW2  281   5.645   5.132   8.735
33419SOL     OW  282   6.318   4.358   8.512
33419SOL    HW1  283   6.377   4.332   8.436
33419SOL    HW2  284   6.290   4.454   8.501
33420SOL     OW  285   7.314   4.659   9.302
33420SOL    HW1  286   7.268   4.652   9.213
33420SOL    HW2  287   7.252   4.703   9.368
33421SOL     OW  288   5.893   3.787   8.066
33421SOL    HW1  289   5.882   3.881   8.099
33421SOL    HW2  290   5.888   3.724   8.143
33422SOL     OW  291   7.208   4.091   7.822
33422SOL    HW1  292   7.210   4.015   7.886
33422SOL    HW2  293   7.160   4.168   7.862
33423SOL     OW  294   6.609   4.490   8.414
33423SOL    HW1  295   6.624   4.511   8.510
33423SOL    HW2  296   6.579   4.395   8.405
33424SOL     OW  297   6.566   5.297   9.148
33424SOL    HW1  298   6.546   5.341   9.060
33424SOL    HW2  299   6.605   5.206   9.132
33425SOL     OW  300   7.445   5.242   9.053
33425SOL    HW1  301   7.459   5.269   8.958
33425SOL    HW2  302   7.528   5.264   9.106
33426SOL     OW  303   5.936   4.622   9.252
33426SOL    HW1  304   6.012   4.666   9.300
33426SOL    HW2  305   5.971   4.575   9.170
33427SOL     OW  306   7.126   3.998   7.573
33427SOL    HW1  307   7.065   3.923   7.596
33427SOL    HW2  308   7.148   4.050   7.656
33428SOL     OW  309   6.889   4.562   7.490
33428SOL    HW1  310   6.923   4.469   7.505
33428SOL    HW2  311   6.907   4.589   7.395
33429SOL     OW  312   6.654   5.057   8.297
33429SOL    HW1  313   6.661   4.973   8.242
33429SOL    HW2  314   6.716   5.126   8.261
33430SOL     OW  315   5.905   4.534   8.397
33430SOL    HW1  316   5.998   4.570   8.402
33430SOL    HW2  317   5.899   4.449   8.449
33431SOL     OW  318   5.925   4.233   8.454
33431SOL    HW1  319   5.873   4.150   8.437
33431SOL    HW2  320   6.002   4.238   8.390
33432SOL     OW  321   6.724   4.104   9.126
33432SOL    HW1  322   6.679   4.167   9.190
33432SOL    HW2  323   6.817   4.135   9.109
33433SOL     OW  324   6.746   3.931   8.925
33433SOL    HW1  325   6.746   3.995   9.002
33433SOL    HW2  326   6.774   3.979   8.842
33434SOL     OW  327   5.594   5.050   7.648
33434SOL    HW1  328   5.501   5.071   7.617
33434SOL    HW2  329   5.604   4.951   7.661
33435SOL     OW  330   5.674   5.525   8.375
33435SOL    HW1  331   5.632   5.439   8.348
33435SOL    HW2  332   5.768   5.528   8.341
33436SOL     OW  333   6.090   5.292   8.358
33436SOL    HW1  334   6.156   5.366   8.367
33436SOL    HW2  335   6.134   5.213   8.316
33437SOL     OW  336   6.588   4.520   8.686
33437SOL    HW1  337   6.629   4.488   8.772
33437SOL    HW2  338   6.492   4.493   8.683
33438SOL     OW  339   5.626   4.268   8.562
33438SOL    HW1  340   5.711   4.235   8.521
33438SOL    HW2  341   5.639   4.283   8.660
33439SOL     OW  342   5.775   4.244   9.170
33439SOL    HW1  343   5.834   4.204   9.100
33439SOL    HW2  344   5.717   4.315   9.129
33440SOL     OW  345   6.955   4.674   9.108
33440SOL    HW1  346   6.994   4.763   9.128
33440SOL    HW2  347   6.965   4.654   9.011
33441SOL     OW  348   6.401   4.296   7.773
33441SOL    HW1  349   6.408   4.207   7.727
33441SOL    HW2  350   6.307   4.330   7.765
33442SOL     OW  351   7.243   4.328   8.654
33442SOL    HW1  352   7.205   4.259   8.716
33442SOL    HW2  353   7.325   4.292   8.610
33443SOL     OW  354   5.838   5.288   9.192
33443SOL    HW1  355   5.808   5.345   9.268
33443SOL    HW2  356   5.831   5.191   9.218
33444SOL     OW  357   6.257   4.188   8.717
33444SOL    HW1  358   6.223   4.099   8.687
33444SOL    HW2  359   6.283   4.242   8.637
33445SOL     OW  360   6.516   5.402   8.913
33445SOL    HW1  361   6.492   5.384   8.818
33445SOL    HW2  362   6.546   5.496   8.923
33446SOL     OW  363   6.059   4.224   7.639
33446SOL    HW1  364   6.120   4.304   7.643
33446SOL    HW2  365   5.964   4.255   7.646
33447SOL     OW  366   5.745   4.861   8.914
33447SOL    HW1  367   5.767   4.800   8.990
33447SOL    HW2  368   5.755   4.812   8.828
33448SOL     OW  369   6.933   4.783   8.682
33448SOL    HW1  370   6.957   4.720   8.608
33448SOL    HW2  371   6.843   4.823   8.664
33449SOL     OW  372   6.888   4.579   7.757
33449SOL    HW1  373   6.802   4.548   7.799
33449SOL    HW2  374   6.884   4.565   7.658
33450SOL     OW  375   7.345   5.471   8.602
33450SOL    HW1  376   7.406   5.501   8.529
33450SOL    HW2  377   7.307   5.382   8.580
33451SOL     OW  378   6.838   5.455   8.576
33451SOL    HW1  379   6.922   5.460   8.522
33451SOL    HW2  380   6.815   5.359   8.594
33452SOL     OW  381   5.669   4.982   8.470
33452SOL    HW1  382   5.664   4.981   8.570
33452SOL    HW2  383   5.586   4.941   8.432
33453SOL     OW  384   6.274   5.386   9.164
33453SOL    HW1  385   6.218   5.467   9.173
33453SOL    HW2  386   6.326   5.390   9.078
33454SOL     OW  387   7.312   3.859   7.971
33454SOL    HW1  388   7.385   3.842   7.904
33454SOL    HW2  389   7.281   3.772   8.009
33455SOL     OW  390   6.974   5.297   7.925
33455SOL    HW1  391   7.041   5.309   7.851
33455SOL    HW2  392   6.934   5.386   7.948
33456SOL     OW  393   5.716   5.518   9.299
33456SOL    HW1  394   5.675   5.444   9.352
33456SOL    HW2  395   5.780   5.569   9.357
33457SOL     OW  396   6.866   4.651   8.120
33457SOL    HW1  397   6.926   4.570   8.122
33457SOL    HW2  398   6.906   4.720   8.060
33458SOL     OW  399   6.416   4.997   8.870
33458SOL    HW1  400   6.411   5.030   8.965
33458SOL    HW2  401   6.330   5.016   8.824
33459SOL     OW  402   6.258   5.340   7.602
33459SOL    HW1  403   6.267   5.350   7.503
33459SOL    HW2  404   6.218   5.251   7.623
33460SOL     OW  405   7.236   5.444   8.842
33460SOL    HW1  406   7.289   5.454   8.758
33460SOL    HW2  407   7.209   5.534   8.876
33461SOL     OW  408   7.427   3.899   8.411
33461SOL    HW1  409   7.466   3.814   8.375
33461SOL    HW2  410   7.329   3.901   8.392
33462SOL     OW  411   5.849   4.050   8.168
33462SOL    HW1  412   5.770   4.101   8.134
33462SOL    HW2  413   5.840   4.035   8.266
33463SOL     OW  414   6.780   5.336   7.479
33463SOL    HW1  415   6.786   5.243   7.516
33463SOL    HW2  416   6.721   5.336   7.399
33464SOL     OW  417   6.408   4.726   8.820
33464SOL    HW1  418   6.448   4.725   8.728
33464SOL    HW2  419   6.418   4.818   8.860
33465SOL     OW  420   6.502   4.634   7.739
33465SOL    HW1  421   6.565   4.672   7.671
33465SOL    HW2  422   6.542   4.551   7.778
33466SOL     OW  423   7.090   5.331   7.492
33466SOL    HW1  424   6.998   5.368   7.499
33466SOL    HW2  425   7.128   5.351   7.402
33467SOL     OW  426   5.958   5.012   8.938
33467SOL    HW1  427   5.945   5.105   8.904
33467SOL    HW2  428   5.874   4.960   8.925
33468SOL     OW  429   6.625   4.822   8.144
33468SOL    HW1  430   6.555   4.775   8.198
33468SOL    HW2  431   6.684   4.754   8.101
33469SOL     OW  432   6.600   3.960   8.419
33469SOL    HW1  433   6.592   3.924   8.326
33469SOL    HW2  434   6.598   3.884   8.484
33470SOL     OW  435   6.176   5.211   7.939
33470SOL    HW1  436   6.218   5.153   7.869
33470SOL    HW2  437   6.132   5.290   7.895
33471SOL     OW  438   7.295   4.109   8.829
33471SOL    HW1  439   7.368   4.178   8.833
33471SOL    HW2  440   7.323   4.034   8.770
33472SOL     OW  441   5.841   5.072   7.738
33472SOL    HW1  442   5.745   5.073   7.711
33472SOL    HW2  443   5.853   5.125   7.822
33473SOL     OW  444   5.691   4.737   9.174
33473SOL    HW1  445   5.614   4.704   9.228
33473SOL    HW2  446   5.776   4.707   9.216
33474SOL     OW  447   6.258   3.927   8.937
33474SOL    HW1  448   6.348   3.911   8.897
33474SOL    HW2  449   6.266   3.932   9.036
33475SOL     OW  450   5.661   4.069   7.481
33475SOL    HW1  451   5.569   4.041   7.452
33475SOL    HW2  452   5.692   4.146   7.425
33476SOL     OW  453   7.026   4.580   8.846
33476SOL    HW1  454   6.969   4.632   8.783
33476SOL    HW2  455   7.122   4.592   8.822
33477SOL     OW  456   5.658   3.890   7.766
33477SOL    HW1  457   5.641   3.973   7.712
33477SOL    HW2  458   5.748   3.853   7.744
33478SOL     OW  459   6.199   4.566   8.879
33478SOL    HW1  460   6.255   4.647   8.862
33478SOL    HW2  461   6.258   4.486   8.882
33479SOL     OW  462   7.079   5.491   8.407
33479SOL    HW1  463   7.112   5.555   8.338
33479SOL    HW2  464   7.145   5.485   8.482
33480SOL     OW  465   6.302   4.289   9.156
33480SOL    HW1  466   6.321   4.354   9.230
33480SOL    HW2  467   6.362   4.209   9.165
33481SOL     OW  468   7.036   4.944   9.081
33481SOL    HW1  469   7.027   4.934   9.180
33481SOL    HW2  470   7.132   4.937   9.055
33482SOL     OW  471   5.976   5.465   9.008
33482SOL    HW1  472   5.885   5.506   9.006
33482SOL    HW2  473   5.969   5.371   9.040
33483SOL     OW  474   7.260   4.607   8.702
33483SOL    HW1  475   7.233   4.518   8.665
33483SOL    HW2  476   7.261   4.675   8.629
33484SOL     OW  477   6.811   4.049   7.897
33484SOL    HW1  478   6.876   3.975   7.886
33484SOL    HW2  479   6.831   4.099   7.981
33485SOL     OW  480   6.180   4.469   8.100
33485SOL    HW1  481   6.230   4.554   8.081
33485SOL    HW2  482   6.092   4.471   8.052
33486SOL     OW  483   7.363   4.066   9.090
33486SOL    HW1  484   7.346   4.097   8.996
33486SOL    HW2  485   7.279   4.029   9.128
33487SOL     OW  486   7.316   4.658   8.965
33487SOL    HW1  487   7.354   4.749   8.980
33487SOL    HW2  488   7.308   4.641   8.866
33488SOL     OW  489   6.445   5.098   7.464
33488SOL    HW1  490   6.399   5.113   7.552
33488SOL    HW2  491   6.489   5.183   7.434
33489SOL     OW  492   6.247   5.514   8.401
33489SOL    HW1  493   6.201   5.602   8.388
33489SOL    HW2  494   6.346   5.526   8.394
33490SOL     OW  495   6.445   4.680   8.309
33490SOL    HW1  496   6.499   4.611   8.357
33490SOL    HW2  497   6.413   4.749   8.375
33491SOL     OW  498   6.669   4.708   7.535
33491SOL    HW1  499   6.646   4.761   7.453
33491SOL    HW2  500   6.750   4.652   7.516
33492SOL     OW  501   7.447   5.293   8.299
33492SOL    HW1  502   7.376   5.281   8.229
33492SOL    HW2  503   7.448   5.214   8.359
33493SOL     OW  504   5.807   5.038   9.292
33493SOL    HW1  505   5.742   4.965   9.271
33493SOL    HW2  506   5.811   5.052   9.390
33494SOL     OW  507   5.665   4.964   8.101
33494SOL    HW1  508   5.664   4.917   8.189
33494SOL    HW2  509   5.747   4.936   8.050
33495SOL     OW  510   6.258   5.115   9.072
33495SOL    HW1  511   6.180   5.065   9.110
33495SOL    HW2  512   6.255   5.210   9.103
33496SOL     OW  513   7.410   3.916   8.675
33496SOL    HW1  514   7.406   3.826   8.719
33496SOL    HW2  515   7.413   3.905   8.576
33497SOL     OW  516   6.014   4.148   7.968
33497SOL    HW1  517   6.044   4.076   7.906
33497SOL    HW2  518   5.975   4.108   8.051
33498SOL     OW  519   7.291   5.211   8.552
33498SOL    HW1  520   7.198   5.186   8.525
33498SOL    HW2  521   7.317   5.161   8.634
33499SOL     OW  522   5.903   4.271   8.728
33499SOL    HW1  523   5.941   4.212   8.800
33499SOL    HW2  524   5.943   4.245   8.640
33500SOL     OW  525   6.398   5.310   8.135
33500SOL    HW1  526   6.430   5.320   8.041
33500SOL    HW2  527   6.319   5.248   8.137
33501SOL     OW  528   7.010   3.938   8.560
33501SOL    HW1  529   7.062   3.873   8.615
33501SOL    HW2  530   6.961   4.001   8.621
33502SOL     OW  531   6.587   3.758   8.602
33502SOL    HW1  532   6.524   3.686   8.571
33502SOL    HW2  533   6.680   3.722   8.602
33503SOL     OW  534   6.356   5.054   7.749
33503SOL    HW1  535   6.310   4.967   7.766
33503SOL    HW2  536   6.447   5.051   7.790
33504SOL     OW  537   6.204   5.291   8.732
33504SOL    HW1  538   6.199   5.373   8.789
33504SOL    HW2  539   6.293   5.288   8.687
33505SOL     OW  540   6.938   3.776   7.616
33505SOL    HW1  541   6.973   3.735   7.532
33505SOL    HW2  542   6.848   3.738   7.636
33506SOL     OW  543   6.886   4.177   8.139
33506SOL    HW1  544   6.827   4.257   8.143
33506SOL    HW2  545   6.901   4.142   8.232
33507SOL     OW  546   7.179   3.945   8.330
33507SOL    HW1  547   7.095   3.944   8.384
33507SOL    HW2  548   7.181   4.028   8.274
33508SOL     OW  549   5.625   4.801   7.748
33508SOL    HW1  550   5.724   4.790   7.739
33508SOL    HW2  551   5.585   4.715   7.780
33509SOL     OW  552   6.461   5.370   7.785
33509SOL    HW1  553   6.384   5.335   7.731
33509SOL    HW2  554   6.429   5.441   7.847
33510SOL     OW  555   5.816   4.352   9.423
33510SOL    HW1  556   5.723   4.350   9.460
33510SOL    HW2  557   5.817   4.313   9.331
33511SOL     OW  558   5.811   3.999  10.306
33511SOL    HW1  559   5.846   3.982  10.398
33511SOL    HW2  560   5.723   3.954  10.294
33512SOL     OW  561   5.605   4.092   9.957
33512SOL    HW1  562   5.523   4.135   9.996
33512SOL    HW2  563   5.577   4.019   9.894
33513SOL     OW  564   6.155   4.999  10.475
33513SOL    HW1  565   6.062   4.992  10.438
33513SOL    HW2  566   6.166   5.088  10.519
33514SOL     OW  567   7.141   5.235  10.013
33514SOL    HW1  568   7.084   5.219  10.094
33514SOL    HW2  569   7.082   5.245   9.933
33515SOL     OW  570   6.721   4.427  10.027
33515SOL    HW1  571   6.778   4.505  10.002
33515SOL    HW2  572   6.661   4.453  10.103
33516SOL     OW  573   7.341   4.331   9.541
33516SOL    HW1  574   7.329   4.318   9.442
33516SOL    HW2  575   7.311   4.250   9.590
33517SOL     OW  576   6.354   4.868  10.333
33517SOL    HW1  577   6.276   4.885  10.393
33517SOL    HW2  578   6.388   4.955  10.297
33518SOL     OW  579   6.436   4.522  11.133
33518SOL    HW1  580   6.432   4.598  11.198
33518SOL    HW2  581   6.458   4.558  11.042
33519SOL     OW  582   6.271   4.736   9.975
33519SOL    HW1  583   6.340   4.720  10.045
33519SOL    HW2  584   6.198   4.793  10.013
33520SOL     OW  585   6.272   4.885  11.113
33520SOL    HW1  586   6.332   4.964  11.127
33520SOL    HW2  587   6.186   4.916  11.072
33521SOL     OW  588   5.921   5.159  10.371
33521SOL    HW1  589   5.843   5.128  10.318
33521SOL    HW2  590   5.979   5.217  10.314
33522SOL     OW  591   7.046   5.229  10.649
33522SOL    HW1  592   7.070   5.323  10.675
33522SOL    HW2  593   7.030   5.175  10.731
33523SOL     OW  594   6.024   4.116  10.809
33523SOL    HW1  595   6.106   4.060  10.818
33523SOL    HW2  596   5.943   4.058  10.813
33524SOL     OW  597   7.189   4.171  10.047
33524SOL    HW1  598   7.115   4.217   9.997
33524SOL    HW2  599   7.240   4.239  10.100
33525SOL     OW  600   5.817   5.437   9.793
33525SOL    HW1  601   5.851   5.514   9.847
33525SOL    HW2  602   5.861   5.437   9.703
33526SOL     OW  603   6.713   5.065  11.000
33526SOL    HW1  604   6.760   5.065  11.088
33526SOL    HW2  605   6.665   4.978  10.989
33527SOL     OW  606   5.816   5.158   9.848
33527SOL    HW1  607   5.790   5.254   9.848
33527SOL    HW2  608   5.745   5.104   9.893
33528SOL     OW  609   5.826   4.815  10.196
33528SOL    HW1  610   5.840   4.731  10.248
33528SOL    HW2  611   5.771   4.879  10.251
33529SOL     OW  612   6.206   5.510  10.749
33529SOL    HW1  613   6.114   5.493  10.784
33529SOL    HW2  614   6.234   5.602  10.775
33530SOL     OW  615   6.192   4.688   9.433
33530SOL    HW1  616   6.199   4.772   9.379
33530SOL    HW2  617   6.238   4.701   9.521
33531SOL     OW  618   7.180   3.838  10.790
33531SOL    HW1  619   7.162   3.905  10.718
33531SOL    HW2  620   7.177   3.884  10.879
33532SOL     OW  621   5.708   4.367   9.873
33532SOL    HW1  622   5.663   4.279   9.890
33532SOL    HW2  623   5.707   4.421   9.957
33533SOL     OW  624   7.428   5.491   9.669
33533SOL    HW1  625   7.482   5.462   9.749
33533SOL    HW2  626   7.458   5.581   9.640
33534SOL     OW  627   5.613   5.320   9.427
33534SOL    HW1  628   5.594   5.224   9.448
33534SOL    HW2  629   5.580   5.378   9.502
33535SOL     OW  630   7.275   4.646   9.922
33535SOL    HW1  631   7.370   4.617   9.930
33535SOL    HW2  632   7.267   4.711   9.847
33536SOL     OW  633   7.227   4.832   9.742
33536SOL    HW1  634   7.313   4.834   9.690
33536SOL    HW2  635   7.241   4.879   9.830
33537SOL     OW  636   5.699   4.461  10.907
33537SOL    HW1  637   5.787   4.448  10.952
33537SOL    HW2  638   5.686   4.558  10.885
33538SOL     OW  639   6.199   5.089  10.036
33538SOL    HW1  640   6.150   5.002  10.045
33538SOL    HW2  641   6.176   5.132   9.949
33539SOL     OW  642   6.879   4.952  10.733
33539SOL    HW1  643   6.916   4.879  10.675
33539SOL    HW2  644   6.931   4.957  10.818
33540SOL     OW  645   6.395   3.728   9.812
33540SOL    HW1  646   6.435   3.819   9.803
33540SOL    HW2  647   6.295   3.736   9.818
33541SOL     OW  648   5.783   4.700  10.574
33541SOL    HW1  649   5.872   4.655  10.560
33541SOL    HW2  650   5.710   4.635  10.555
33542SOL     OW  651   7.111   4.723   9.500
33542SOL    HW1  652   7.048   4.647   9.513
33542SOL    HW2  653   7.159   4.741   9.586
33543SOL     OW  654   6.773   5.516  10.926
33543SOL    HW1  655   6.797   5.576  10.850
33543SOL    HW2  656   6.780   5.421  10.896
33544SOL     OW  657   5.903   3.975  11.111
33544SOL    HW1  658   5.974   4.046  11.117
33544SOL    HW2  659   5.815   4.014  11.139
33545SOL     OW  660   7.052   5.141  10.263
33545SOL    HW1  661   6.993   5.147  10.343
33545SOL    HW2  662   7.037   5.053  10.217
33546SOL     OW  663   7.253   5.438   9.882
33546SOL    HW1  664   7.212   5.415   9.794
33546SOL    HW2  665   7.235   5.364   9.947
33547SOL     OW  666   6.184   4.453   9.580
33547SOL    HW1  667   6.208   4.522   9.512
33547SOL    HW2  668   6.106   4.486   9.634
33548SOL     OW  669   6.867   4.069  10.254
33548SOL    HW1  670   6.781   4.019  10.241
33548SOL    HW2  671   6.929   4.015  10.310
33549SOL     OW  672   7.162   5.386   9.617
33549SOL    HW1  673   7.251   5.432   9.620
33549SOL    HW2  674   7.141   5.362   9.522
33550SOL     OW  675   6.393   4.329  10.775
33550SOL    HW1  676   6.346   4.326  10.864
33550SOL    HW2  677   6.342   4.274  10.709
33551SOL     OW  678   6.980   4.193  10.984
33551SOL    HW1  679   6.960   4.236  11.072
33551SOL    HW2  680   7.058   4.131  10.993
33552SOL     OW  681   6.559   4.614  10.882
33552SOL    HW1  682   6.605   4.530  10.853
33552SOL    HW2  683   6.503   4.648  10.807
33553SOL     OW  684   6.577   4.134  10.552
33553SOL    HW1  685   6.500   4.168  10.606
33553SOL    HW2  686   6.543   4.083  10.473
33554SOL     OW  687   6.627   4.425   9.739
33554SOL    HW1  688   6.653   4.421   9.835
33554SOL    HW2  689   6.542   4.374   9.725
33555SOL     OW  690   5.662   4.535  10.099
33555SOL    HW1  691   5.761   4.523  10.108
33555SOL    HW2  692   5.638   4.630  10.120
33556SOL     OW  693   5.716   5.545  10.881
33556SOL    HW1  694   5.706   5.530  10.980
33556SOL    HW2  695   5.630   5.581  10.845
33557SOL     OW  696   6.451   4.072   9.505
33557SOL    HW1  697   6.510   4.135   9.456
33557SOL    HW2  698   6.470   3.978   9.476
33558SOL     OW  699   7.305   4.309  11.141
33558SOL    HW1  700   7.279   4.398  11.105
33558SOL    HW2  701   7.303   4.241  11.068
33559SOL     OW  702   6.948   4.868   9.855
33559SOL    HW1  703   7.031   4.839   9.807
33559SOL    HW2  704   6.899   4.935   9.799
33560SOL     OW  705   6.136   3.920  10.195
33560SOL    HW1  706   6.131   3.915  10.295
33560SOL    HW2  707   6.138   4.016  10.166
33561SOL     OW  708   6.594   5.180   9.787
33561SOL    HW1  709   6.548   5.252   9.735
33561SOL    HW2  710   6.590   5.200   9.885
33562SOL     OW  711   5.937   5.525  10.163
33562SOL    HW1  712   5.987   5.439  10.169
33562SOL    HW2  713   6.002   5.602  10.160
33563SOL     OW  714   7.381   4.790  10.183
33563SOL    HW1  715   7.319   4.775  10.107
33563SOL    HW2  716   7.329   4.801  10.268
33564SOL     OW  717   6.813   5.274  10.816
33564SOL    HW1  718   6.819   5.197  10.880
33564SOL    HW2  719   6.761   5.248  10.736
33565SOL     OW  720   5.907   4.667   9.552
33565SOL    HW1  721   5.989   4.706   9.510
33565SOL    HW2  722   5.880   4.585   9.503
33566SOL     OW  723   7.044   4.459  10.038
33566SOL    HW1  724   7.039   4.394  10.113
33566SOL    HW2  725   7.124   4.518  10.051
33567SOL     OW  726   6.047   4.990  11.037
33567SOL    HW1  727   5.997   4.991  10.951
33567SOL    HW2  728   5.984   4.972  11.113
33568SOL     OW  729   6.697   5.500   9.547
33568SOL    HW1  730   6.637   5.438   9.597
33568SOL    HW2  731   6.728   5.456   9.462
33569SOL     OW  732   5.788   4.009  10.808
33569SOL    HW1  733   5.708   4.069  10.795
33569SOL    HW2  734   5.778   3.960  10.894
33570SOL     OW  735   7.218   5.101   9.391
33570SOL    HW1  736   7.186   5.195   9.381
33570SOL    HW2  737   7.142   5.038   9.379
33571SOL     OW  738   6.050   5.467   9.633
33571SOL    HW1  739   6.083   5.506   9.719
33571SOL    HW2  740   6.126   5.460   9.568
33572SOL     OW  741   6.986   3.831   9.736
33572SOL    HW1  742   6.962   3.794   9.646
33572SOL    HW2  743   7.085   3.847   9.740
33573SOL     OW  744   5.835   5.509  10.551
33573SOL    HW1  745   5.892   5.444  10.601
33573SOL    HW2  746   5.819   5.476  10.458
33574SOL     OW  747   6.526   5.422  10.214
33574SOL    HW1  748   6.606   5.365  10.235
33574SOL    HW2  749   6.477   5.382  10.137
33575SOL     OW  750   5.968   4.424   9.790
33575SOL    HW1  751   6.013   4.334   9.787
33575SOL    HW2  752   5.874   4.413   9.823
33576SOL     OW  753   7.133   3.946  11.039
33576SOL    HW1  754   7.128   3.983  11.131
33576SOL    HW2  755   7.061   3.877  11.027
33577SOL     OW  756   6.200   3.846   9.427
33577SOL    HW1  757   6.298   3.824   9.434
33577SOL    HW2  758   6.169   3.829   9.334
33578SOL     OW  759   6.367   3.988  11.059
33578SOL    HW1  760   6.434   3.927  11.102
33578SOL    HW2  761   6.294   4.007  11.124
33579SOL     OW  762   6.474   5.238  10.505
33579SOL    HW1  763   6.451   5.213  10.411
33579SOL    HW2  764   6.535   5.169  10.544
33580SOL     OW  765   6.937   4.314  10.743
33580SOL    HW1  766   6.965   4.271  10.828
33580SOL    HW2  767   6.962   4.410  10.744
33581SOL     OW  768   6.389   5.126  10.234
33581SOL    HW1  769   6.479   5.140  10.192
33581SOL    HW2  770   6.318   5.128  10.163
33582SOL     OW  771   6.508   4.227  10.209
33582SOL    HW1  772   6.483   4.218  10.113
33582SOL    HW2  773   6.556   4.145  10.240
33583SOL     OW  774   6.125   3.788   9.822
33583SOL    HW1  775   6.044   3.789   9.880
33583SOL    HW2  776   6.128   3.871   9.767
33584SOL     OW  777   7.020   4.912   9.351
33584SOL    HW1  778   7.052   4.836   9.408
33584SOL    HW2  779   6.928   4.939   9.381
33585SOL     OW  780   5.883   3.759   9.481
33585SOL    HW1  781   5.932   3.843   9.460
33585SOL    HW2  782   5.945   3.694   9.526
33586SOL     OW  783   6.521   3.960   9.790
33586SOL    HW1  784   6.473   4.001   9.712
33586SOL    HW2  785   6.620   3.958   9.771
33587SOL     OW  786   6.662   4.407  10.774
33587SOL    HW1  787   6.582   4.346  10.777
33587SOL    HW2  788   6.743   4.354  10.750
33588SOL     OW  789   6.813   5.294  10.103
33588SOL    HW1  790   6.834   5.368  10.038
33588SOL    HW2  791   6.881   5.294  10.176
33589SOL     OW  792   6.045   4.876  10.051
33589SOL    HW1  793   5.974   4.849  10.116
33589SOL    HW2  794   6.019   4.848   9.958
33590SOL     OW  795   6.857   5.521   9.901
33590SOL    HW1  796   6.901   5.585   9.837
33590SOL    HW2  797   6.807   5.573   9.971
33591SOL     OW  798   6.618   4.273   9.326
33591SOL    HW1  799   6.577   4.355   9.287
33591SOL    HW2  800   6.682   4.299   9.399
33592SOL     OW  801   5.664   4.280  10.696
33592SOL    HW1  802   5.756   4.279  10.655
33592SOL    HW2  803   5.658   4.354  10.763
33593SOL     OW  804   6.147   3.946  10.457
33593SOL    HW1  805   6.185   3.862  10.494
33593SOL    HW2  806   6.059   3.965  10.501
33594SOL     OW  807   6.452   4.178   9.952
33594SOL    HW1  808   6.420   4.250   9.890
33594SOL    HW2  809   6.476   4.097   9.899
33595SOL     OW  810   6.603   3.763  10.063
33595SOL    HW1  811   6.531   3.768   9.994
33595SOL    HW2  812   6.579   3.694  10.132
33596SOL     OW  813   7.015   4.897  10.177
33596SOL    HW1  814   6.960   4.813  10.170
33596SOL    HW2  815   7.041   4.926  10.085
33597SOL     OW  816   7.052   4.314  10.302
33597SOL    HW1  817   7.022   4.219  10.309
33597SOL    HW2  818   7.125   4.330  10.368
33598SOL     OW  819   7.443   4.557   9.687
33598SOL    HW1  820   7.485   4.493   9.751
33598SOL    HW2  821   7.405   4.506   9.609
33599SOL     OW  822   6.074   5.109   9.484
33599SOL    HW1  823   5.987   5.094   9.531
33599SOL    HW2  824   6.057   5.135   9.389
33600SOL     OW  825   7.250   5.004   9.967
33600SOL    HW1  826   7.349   5.012   9.981
33600SOL    HW2  827   7.205   5.088   9.998
33601SOL     OW  828   6.976   4.299   9.388
33601SOL    HW1  829   6.922   4.278   9.469
33601SOL    HW2  830   7.067   4.258   9.397
33602SOL     OW  831   6.113   3.980   9.638
33602SOL    HW1  832   6.140   3.921   9.563
33602SOL    HW2  833   6.113   4.075   9.607
33603SOL     OW  834   7.340   4.947  10.898
33603SOL    HW1  835   7.431   4.908  10.885
33603SOL    HW2  836   7.348   5.043  10.922
33604SOL     OW  837   6.650   5.071  10.650
33604SOL    HW1  838   6.570   5.048  10.705
33604SOL    HW2  839   6.733   5.045  10.699
33605SOL     OW  840   7.178   5.353  10.935
33605SOL    HW1  841   7.205   5.387  10.845
33605SOL    HW2  842   7.257   5.315  10.981
33606SOL     OW  843   6.697   4.919  10.410
33606SOL    HW1  844   6.657   4.963  10.491
33606SOL    HW2  845   6.656   4.956  10.327
33607SOL     OW  846   7.224   4.823  10.389
33607SOL    HW1  847   7.229   4.904  10.448
33607SOL    HW2  848   7.138   4.825  10.338
33608SOL     OW  849   6.501   3.813  10.712
33608SOL    HW1  850   6.526   3.793  10.617
33608SOL    HW2  851   6.573   3.869  10.754
33609SOL     OW  852   6.566   4.840  11.029
33609SOL    HW1  853   6.467   4.846  11.039
33609SOL    HW2  854   6.589   4.760  10.973
33610SOL     OW  855   6.291   4.774   9.678
33610SOL    HW1  856   6.277   4.781   9.777
33610SOL    HW2  857   6.375   4.723   9.660
33611SOL     OW  858   5.996   4.537  10.561
33611SOL    HW1  859   6.082   4.549  10.611
33611SOL    HW2  860   5.954   4.450  10.588
33612SOL     OW  861   6.860   4.110  10.572
33612SOL    HW1  862   6.881   4.184  10.636
33612SOL    HW2  863   6.771   4.127  10.529
33613SOL     OW  864   5.650   5.288  10.641
33613SOL    HW1  865   5.604   5.370  10.607
33613SOL    HW2  866   5.748   5.307  10.650
33614SOL     OW  867   5.953   4.824   9.811
33614SOL    HW1  868   5.946   4.907   9.755
33614SOL    HW2  869   5.957   4.744   9.751
33615SOL     OW  870   6.152   4.261  10.175
33615SOL    HW1  871   6.164   4.327  10.101
33615SOL    HW2  872   6.198   4.295  10.258
33616SOL     OW  873   6.838   5.072   9.698
33616SOL    HW1  874   6.888   5.149   9.738
33616SOL    HW2  875   6.743   5.074   9.730
33617SOL     OW  876   6.858   5.169  10.452
33617SOL    HW1  877   6.905   5.182  10.539
33617SOL    HW2  878   6.792   5.095  10.461
33618SOL     OW  879   7.168   4.363   9.782
33618SOL    HW1  880   7.137   4.424   9.855
33618SOL    HW2  881   7.218   4.415   9.713
33619SOL     OW  882   5.940   5.234  10.639
33619SOL    HW1  883   5.919   5.190  10.552
33619SOL    HW2  884   6.037   5.260  10.642
33620SOL     OW  885   5.988   4.475  10.908
33620SOL    HW1  886   6.056   4.530  10.861
33620SOL    HW2  887   6.028   4.387  10.935
33621SOL     OW  888   7.173   4.503  10.980
33621SOL    HW1  889   7.081   4.541  10.975
33621SOL    HW2  890   7.233   4.550  10.915
33622SOL     OW  891   6.599   3.829  11.080
33622SOL    HW1  892   6.605   3.914  11.028
33622SOL    HW2  893   6.631   3.753  11.023
33623SOL     OW  894   6.090   3.774  11.050
33623SOL    HW1  895   6.048   3.717  10.980
33623SOL    HW2  896   6.024   3.843  11.082
33624SOL     OW  897   6.159   4.594  10.339
33624SOL    HW1  898   6.203   4.683  10.330
33624SOL    HW2  899   6.096   4.594  10.416
33625SOL     OW  900   6.946   4.586  10.355
33625SOL    HW1  901   6.871   4.586  10.289
33625SOL    HW2  902   6.983   4.494  10.364
33626SOL     OW  903   6.795   4.249   9.585
33626SOL    HW1  904   6.808   4.165   9.639
33626SOL    HW2  905   6.766   4.323   9.645
33627SOL     OW  906   5.893   3.937  10.541
33627SOL    HW1  907   5.870   3.974  10.631
33627SOL    HW2  908   5.863   3.842  10.535
33628SOL     OW  909   5.623   5.034  10.592
33628SOL    HW1  910   5.676   4.985  10.660
33628SOL    HW2  911   5.645   5.132  10.597
33629SOL     OW  912   6.318   4.358  10.374
33629SOL    HW1  913   6.377   4.332  10.298
33629SOL    HW2  914   6.290   4.454  10.363
33630SOL     OW  915   7.314   4.659  11.164
33630SOL    HW1  916   7.268   4.652  11.075
33630SOL    HW2  917   7.252   4.703  11.230
33631SOL     OW  918   5.893   3.787   9.928
33631SOL    HW1  919   5.882   3.881   9.961
33631SOL    HW2  920   5.888   3.724  10.005
33632SOL     OW  921   7.208   4.091   9.684
33632SOL    HW1  922   7.210   4.015   9.748
33632SOL    HW2  923   7.160   4.168   9.724
33633SOL     OW  924   6.609   4.490  10.276
33633SOL    HW1  925   6.624   4.511  10.372
33633SOL    HW2  926   6.579   4.395  10.267
33634SOL     OW  927   6.566   5.297  11.010
33634SOL    HW1  928   6.546   5.341  10.922
33634SOL    HW2  929   6.605   5.206  10.994
33635SOL     OW  930   7.445   5.242  10.915
33635SOL    HW1  931   7.459   5.269  10.820
33635SOL    HW2  932   7.528   5.264  10.968
33636SOL     OW  933   5.936   4.622  11.114
33636SOL    HW1  934   6.012   4.666  11.162
33636SOL    HW2  935   5.971   4.575  11.032
33637SOL     OW  936   7.126   3.998   9.435
33637SOL    HW1  937   7.065   3.923   9.458
33637SOL    HW2  938   7.148   4.050   9.518
33638SOL     OW  939   6.889   4.562   9.352
33638SOL    HW1  940   6.923   4.469   9.367
33638SOL    HW2  941   6.907   4.589   9.257
33639SOL     OW  942   6.654   5.057  10.159
33639SOL    HW1  943   6.661   4.973  10.104
33639SOL    HW2  944   6.716   5.126  10.123
33640SOL     OW  945   5.905   4.534  10.259
33640SOL    HW1  946   5.998   4.570  10.264
33640SOL    HW2  947   5.899   4.449  10.311
33641SOL     OW  948   5.925   4.233  10.316
33641SOL    HW1  949   5.873   4.150  10.299
33641SOL    HW2  950   6.002   4.238  10.252
33642SOL     OW  951   6.724   4.104  10.988
33642SOL    HW1  952   6.679   4.167  11.052
33642SOL    HW2  953   6.817   4.135  10.971
33643SOL     OW  954   6.746   3.931  10.787
33643SOL    HW1  955   6.746   3.995  10.864
33643SOL    HW2  956   6.774   3.979  10.704
33644SOL     OW  957   5.594   5.050   9.510
33644SOL    HW1  958   5.501   5.071   9.479
33644SOL    HW2  959   5.604   4.951   9.523
33645SOL     OW  960   5.674   5.525  10.237
33645SOL    HW1  961   5.632   5.439  10.210
33645SOL    HW2  962   5.768   5.528  10.203
33646SOL     OW  963   6.090   5.292  10.220
33646SOL    HW1  964   6.156   5.366  10.229
33646SOL    HW2  965   6.134   5.213  10.178
33647SOL     OW  966   6.588   4.520  10.548
33647SOL    HW1  967   6.629   4.488  10.634
33647SOL    HW2  968   6.492   4.493  10.545
33648SOL     OW  969   5.626   4.268  10.424
33648SOL    HW1  970   5.711   4.235  10.383
33648SOL    HW2  971   5.639   4.283  10.522
33649SOL     OW  972   5.775   4.244  11.032
33649SOL    HW1  973   5.834   4.204  10.962
33649SOL    HW2  974   5.717   4.315  10.991
33650SOL     OW  975   6.955   4.674  10.970
33650SOL    HW1  976   6.994   4.763  10.990
33650SOL    HW2  977   6.965   4.654  10.873
33651SOL     OW  978   6.401   4.296   9.635
33651SOL    HW1  979   6.408   4.207   9.589
33651SOL    HW2  980   6.307   4.330   9.627
33652SOL     OW  981   7.243   4.328  10.516
33652SOL    HW1  982   7.205   4.259  10.578
33652SOL    HW2  983   7.325   4.292  10.472
33653SOL     OW  984   5.838   5.288  11.054
33653SOL    HW1  985   5.808   5.345  11.130
33653SOL    HW2  986   5.831   5.191  11.080
33654SOL     OW  987   6.257   4.188  10.579
33654SOL    HW1  988   6.223   4.099  10.549
33654SOL    HW2  989   6.283   4.242  10.499
33655SOL     OW  990   6.516   5.402  10.775
33655SOL    HW1  991   6.492   5.384  10.680
33655SOL    HW2  992   6.546   5.496  10.785
33656SOL     OW  993   6.059   4.224   9.501
33656SOL    HW1  994   6.120   4.304   9.505
33656SOL    HW2  995   5.964   4.255   9.508
33657SOL     OW  996   5.745   4.861  10.776
33657SOL    HW1  997   5.767   4.800  10.852
33657SOL    HW2  998   5.755   4.812  10.690
33658SOL     OW  999   6.933   4.783  10.544
33658SOL    HW1 1000   6.957   4.720  10.470
33658SOL    HW2 1001   6.843   4.823  10.526
33659SOL     OW 1002   6.888   4.579   9.619
33659SOL    HW1 1003   6.802   4.548   9.661
33659SOL    HW2 1004   6.884   4.565   9.520
33660SOL     OW 1005   7.345   5.471  10.464
33660SOL    HW1 1006   7.406   5.501  10.391
33660SOL    HW2 1007   7.307   5.382  10.442
33661SOL     OW 1008   6.838   5.455  10.438
33661SOL    HW1 1009   6.922   5.460  10.384
33661SOL    HW2 1010   6.815   5.359  10.456
33662SOL     OW 1011   5.669   4.982  10.332
33662SOL    HW1 1012   5.664   4.981  10.432
33662SOL    HW2 1013   5.586   4.941  10.294
33663SOL     OW 1014   6.274   5.386  11.026
33663SOL    HW1 1015   6.218   5.467  11.035
33663SOL    HW2 1016   6.326   5.390  10.940
33664SOL     OW 1017   7.312   3.859   9.833
33664SOL    HW1 1018   7.385   3.842   9.766
33664SOL    HW2 1019   7.281   3.772   9.871
33665SOL     OW 1020   6.974   5.297   9.787
33665SOL    HW1 1021   7.041   5.309   9.713
33665SOL    HW2 1022   6.934   5.386   9.810
33666SOL     OW 1023   5.716   5.518  11.161
33666SOL    HW1 1024   5.675   5.444  11.214
33666SOL    HW2 1025   5.780   5.569  11.219
33667SOL     OW 1026   6.866   4.651   9.982
33667SOL    HW1 1027   6.926   4.570   9.984
33667SOL    HW2 1028   6.906   4.720   9.922
33668SOL     OW 1029   6.416   4.997  10.732
33668SOL    HW1 1030   6.411   5.030  10.827
33668SOL    HW2 1031   6.330   5.016  10.686
33669SOL     OW 1032   6.258   5.340   9.464
33669SOL    HW1 1033   6.267   5.350   9.365
33669SOL    HW2 1034   6.218   5.251   9.485
33670SOL     OW 1035   7.236   5.444  10.704
33670SOL    HW1 1036   7.289   5.454  10.620
33670SOL    HW2 1037   7.209   5.534  10.738
33671SOL     OW 1038   7.427   3.899  10.273
33671SOL    HW1 1039   7.466   3.814  10.237
33671SOL    HW2 1040   7.329   3.901  10.254
33672SOL     OW 1041   5.849   4.050  10.030
33672SOL    HW1 1042   5.770   4.101   9.996
33672SOL    HW2 1043   5.840   4.035  10.128
33673SOL     OW 1044   6.780   5.336   9.341
33673SOL    HW1 1045   6.786   5.243   9.378
33673SOL    HW2 1046   6.721   5.336   9.261
33674SOL     OW 1047   6.502   4.634   9.601
33674SOL    HW1 1048   6.565   4.672   9.533
33674SOL    HW2 1049   6.542   4.551   9.640
33675SOL     OW 1050   7.090   5.331   9.354
33675SOL    HW1 1051   6.998   5.368   9.361
33675SOL    HW2 1052   7.128   5.351   9.264
33676SOL     OW 1053   5.958   5.012  10.800
33676SOL    HW1 1054   5.945   5.105  10.766
33676SOL    HW2 1055   5.874   4.960  10.787
33677SOL     OW 1056   7.200   5.016  10.599
33677SOL    HW1 1057   7.260   5.019  10.679
33677SOL    HW2 1058   7.125   5.080  10.612
33678SOL     OW 1059   6.625   4.822  10.006
33678SOL    HW1 1060   6.555   4.775  10.060
33678SOL    HW2 1061   6.684   4.754   9.963
33679SOL     OW 1062   6.600   3.960  10.281
33679SOL    HW1 1063   6.592   3.924  10.188
33679SOL    HW2 1064   6.598   3.884  10.346
33680SOL     OW 1065   6.176   5.211   9.801
33680SOL    HW1 1066   6.218   5.153   9.731
33680SOL    HW2 1067   6.132   5.290   9.757
33681SOL     OW 1068   7.295   4.109  10.691
33681SOL    HW1 1069   7.368   4.178  10.695
33681SOL    HW2 1070   7.323   4.034  10.632
33682SOL     OW 1071   5.841   5.072   9.600
33682SOL    HW1 1072   5.745   5.073   9.573
33682SOL    HW2 1073   5.853   5.125   9.684
33683SOL     OW 1074   5.691   4.737  11.036
33683SOL    HW1 1075   5.614   4.704  11.090
33683SOL    HW2 1076   5.776   4.707  11.078
33684SOL     OW 1077   6.258   3.927  10.799
33684SOL    HW1 1078   6.348   3.911  10.759
33684SOL    HW2 1079   6.266   3.932  10.898
33685SOL     OW 1080   5.661   4.069   9.343
33685SOL    HW1 1081   5.569   4.041   9.314
33685SOL    HW2 1082   5.692   4.146   9.287
33686SOL     OW 1083   7.026   4.580  10.708
33686SOL    HW1 1084   6.969   4.632  10.645
33686SOL    HW2 1085   7.122   4.592  10.684
33687SOL     OW 1086   5.658   3.890   9.628
33687SOL    HW1 1087   5.641   3.973   9.574
33687SOL    HW2 1088   5.748   3.853   9.606
33688SOL     OW 1089   6.769   5.059   9.429
33688SOL    HW1 1090   6.670   5.048   9.431
33688SOL    HW2 1091   6.803   5.074   9.522
33689SOL     OW 1092   6.199   4.566  10.741
33689SOL    HW1 1093   6.255   4.647  10.724
33689SOL    HW2 1094   6.258   4.486  10.744
33690SOL     OW 1095   7.079   5.491  10.269
33690SOL    HW1 1096   7.112   5.555  10.200
33690SOL    HW2 1097   7.145   5.485  10.344
33691SOL     OW 1098   6.302   4.289  11.018
33691SOL    HW1 1099   6.321   4.354  11.092
33691SOL    HW2 1100   6.362   4.209  11.027
33692SOL     OW 1101   7.036   4.944  10.943
33692SOL    HW1 1102   7.027   4.934  11.042
33692SOL    HW2 1103   7.132   4.937  10.917
33693SOL     OW 1104   5.976   5.465  10.870
33693SOL    HW1 1105   5.885   5.506  10.868
33693SOL    HW2 1106   5.969   5.371  10.902
33694SOL     OW 1107   7.260   4.607  10.564
33694SOL    HW1 1108   7.233   4.518  10.527
33694SOL    HW2 1109   7.261   4.675  10.491
33695SOL     OW 1110   6.811   4.049   9.759
33695SOL    HW1 1111   6.876   3.975   9.748
33695SOL    HW2 1112   6.831   4.099   9.843
33696SOL     OW 1113   6.180   4.469   9.962
33696SOL    HW1 1114   6.230   4.554   9.943
33696SOL    HW2 1115   6.092   4.471   9.914
33697SOL     OW 1116   7.363   4.066  10.952
33697SOL    HW1 1117   7.346   4.097  10.858
33697SOL    HW2 1118   7.279   4.029  10.990
33698SOL     OW 1119   7.316   4.658  10.827
33698SOL    HW1 1120   7.354   4.749  10.842
33698SOL    HW2 1121   7.308   4.641  10.728
33699SOL     OW 1122   6.445   5.098   9.326
33699SOL    HW1 1123   6.399   5.113   9.414
33699SOL    HW2 1124   6.489   5.183   9.296
33700SOL     OW 1125   6.247   5.514  10.263
33700SOL    HW1 1126   6.201   5.602  10.250
33700SOL    HW2 1127   6.346   5.526  10.256
33701SOL     OW 1128   6.445   4.680  10.171
33701SOL    HW1 1129   6.499   4.611  10.219
33701SOL    HW2 1130   6.413   4.749  10.237
33702SOL     OW 1131   6.669   4.708   9.397
33702SOL    HW1 1132   6.646   4.761   9.315
33702SOL    HW2 1133   6.750   4.652   9.378
33703SOL     OW 1134   7.447   5.293  10.161
33703SOL    HW1 1135   7.376   5.281  10.091
33703SOL    HW2 1136   7.448   5.214  10.221
33704SOL     OW 1137   5.807   5.038  11.154
33704SOL    HW1 1138   5.742   4.965  11.133
33704SOL    HW2 1139   5.811   5.052  11.252
33705SOL     OW 1140   5.665   4.964   9.963
33705SOL    HW1 1141   5.664   4.917  10.051
33705SOL    HW2 1142   5.747   4.936   9.912
33706SOL     OW 1143   6.258   5.115  10.934
33706SOL    HW1 1144   6.180   5.065  10.972
33706SOL    HW2 1145   6.255   5.210  10.965
33707SOL     OW 1146   7.410   3.916  10.537
33707SOL    HW1 1147   7.406   3.826  10.581
33707SOL    HW2 1148   7.413   3.905  10.438
33708SOL     OW 1149   6.014   4.148   9.830
33708SOL    HW1 1150   6.044   4.076   9.768
33708SOL    HW2 1151   5.975   4.108   9.913
33709SOL     OW 1152   7.291   5.211  10.414
33709SOL    HW1 1153   7.198   5.186  10.387
33709SOL    HW2 1154   7.317   5.161  10.496
33710SOL     OW 1155   5.903   4.271  10.590
33710SOL    HW1 1156   5.941   4.212  10.662
33710SOL    HW2 1157   5.943   4.245  10.502
33711SOL     OW 1158   6.398   5.310   9.997
33711SOL    HW1 1159   6.430   5.320   9.903
33711SOL    HW2 1160   6.319   5.248   9.999
33712SOL     OW 1161   7.010   3.938  10.422
33712SOL    HW1 1162   7.062   3.873  10.477
33712SOL    HW2 1163   6.961   4.001  10.483
33713SOL     OW 1164   6.587   3.758  10.464
33713SOL    HW1 1165   6.524   3.686  10.433
33713SOL    HW2 1166   6.680   3.722  10.464
33714SOL     OW 1167   6.356   5.054   9.611
33714SOL    HW1 1168   6.310   4.967   9.628
33714SOL    HW2 1169   6.447   5.051   9.652
33715SOL     OW 1170   6.204   5.291  10.594
33715SOL    HW1 1171   6.199   5.373  10.651
33715SOL    HW2 1172   6.293   5.288  10.549
33716SOL     OW 1173   6.938   3.776   9.478
33716SOL    HW1 1174   6.973   3.735   9.394
33716SOL    HW2 1175   6.848   3.738   9.498
33717SOL     OW 1176   6.886   4.177  10.001
33717SOL    HW1 1177   6.827   4.257  10.005
33717SOL    HW2 1178   6.901   4.142  10.094
33718SOL     OW 1179   7.179   3.945  10.192
33718SOL    HW1 1180   7.095   3.944  10.246
33718SOL    HW2 1181   7.181   4.028  10.136
33719SOL     OW 1182   5.625   4.801   9.610
33719SOL    HW1 1183   5.724   4.790   9.601
33719SOL    HW2 1184   5.585   4.715   9.642
33720SOL     OW 1185   6.461   5.370   9.647
33720SOL    HW1 1186   6.384   5.335   9.593
33720SOL    HW2 1187   6.429   5.441   9.709
33721SOL     OW 1188   5.816   4.352  11.285
33721SOL    HW1 1189   5.723   4.350  11.322
33721SOL    HW2 1190   5.817   4.313  11.193
33722SOL     OW 1191   5.811   3.999  12.168
33722SOL    HW1 1192   5.846   3.982  12.260
33722SOL    HW2 1193   5.723   3.954  12.156
33723SOL     OW 1194   5.605   4.092  11.819
33723SOL    HW1 1195   5.523   4.135  11.858
33723SOL    HW2 1196   5.577   4.019  11.756
33724SOL     OW 1197   6.155   4.999  12.337
33724SOL    HW1 1198   6.062   4.992  12.300
33724SOL    HW2 1199   6.166   5.088  12.381
33725SOL     OW 1200   7.141   5.235  11.875
33725SOL    HW1 1201   7.084   5.219  11.956
33725SOL    HW2 1202   7.082   5.245  11.795
33726SOL     OW 1203   6.721   4.427  11.889
33726SOL    HW1 1204   6.778   4.505  11.864
33726SOL    HW2 1205   6.661   4.453  11.965
33727SOL     OW 1206   7.341   4.331  11.403
33727SOL    HW1 1207   7.329   4.318  11.304
33727SOL    HW2 1208   7.311   4.250  11.452
33728SOL     OW 1209   6.354   4.868  12.195
33728SOL    HW1 1210   6.276   4.885  12.255
33728SOL    HW2 1211   6.388   4.955  12.159
33729SOL     OW 1212   6.271   4.736  11.837
33729SOL    HW1 1213   6.340   4.720  11.907
33729SOL    HW2 1214   6.198   4.793  11.875
33730SOL     OW 1215   5.921   5.159  12.233
33730SOL    HW1 1216   5.843   5.128  12.180
33730SOL    HW2 1217   5.979   5.217  12.176
33731SOL     OW 1218   7.046   5.229  12.511
33731SOL    HW1 1219   7.070   5.323  12.537
33731SOL    HW2 1220   7.030   5.175  12.593
33732SOL     OW 1221   6.024   4.116  12.671
33732SOL    HW1 1222   6.106   4.060  12.680
33732SOL    HW2 1223   5.943   4.058  12.675
33733SOL     OW 1224   7.189   4.171  11.909
33733SOL    HW1 1225   7.115   4.217  11.859
33733SOL    HW2 1226   7.240   4.239  11.962
33734SOL     OW 1227   5.817   5.437  11.655
33734SOL    HW1 1228   5.851   5.514  11.709
33734SOL    HW2 1229   5.861   5.437  11.565
33735SOL     OW 1230   5.816   5.158  11.710
33735SOL    HW1 1231   5.790   5.254  11.710
33735SOL    HW2 1232   5.745   5.104  11.755
33736SOL     OW 1233   5.826   4.815  12.058
33736SOL    HW1 1234   5.840   4.731  12.110
33736SOL    HW2 1235   5.771   4.879  12.113
33737SOL     OW 1236   6.206   5.510  12.611
33737SOL    HW1 1237   6.114   5.493  12.646
33737SOL    HW2 1238   6.234   5.602  12.637
33738SOL     OW 1239   6.192   4.688  11.295
33738SOL    HW1 1240   6.199   4.772  11.241
33738SOL    HW2 1241   6.238   4.701  11.383
33739SOL     OW 1242   7.180   3.838  12.652
33739SOL    HW1 1243   7.162   3.905  12.580
33739SOL    HW2 1244   7.177   3.884  12.741
33740SOL     OW 1245   7.428   5.491  11.531
33740SOL    HW1 1246   7.482   5.462  11.611
33740SOL    HW2 1247   7.458   5.581  11.502
33741SOL     OW 1248   5.613   5.320  11.289
33741SOL    HW1 1249   5.594   5.224  11.310
33741SOL    HW2 1250   5.580   5.378  11.364
33742SOL     OW 1251   7.275   4.646  11.784
33742SOL    HW1 1252   7.370   4.617  11.792
33742SOL    HW2 1253   7.267   4.711  11.709
33743SOL     OW 1254   7.227   4.832  11.604
33743SOL    HW1 1255   7.313   4.834  11.552
33743SOL    HW2 1256   7.241   4.879  11.692
33744SOL     OW 1257   6.199   5.089  11.898
33744SOL    HW1 1258   6.150   5.002  11.907
33744SOL    HW2 1259   6.176   5.132  11.811
33745SOL     OW 1260   6.395   3.728  11.674
33745SOL    HW1 1261   6.435   3.819  11.665
33745SOL    HW2 1262   6.295   3.736  11.680
33746SOL     OW 1263   5.783   4.700  12.436
33746SOL    HW1 1264   5.872   4.655  12.422
33746SOL    HW2 1265   5.710   4.635  12.417
33747SOL     OW 1266   7.111   4.723  11.362
33747SOL    HW1 1267   7.048   4.647  11.375
33747SOL    HW2 1268   7.159   4.741  11.448
33748SOL     OW 1269   5.903   3.975  12.973
33748SOL    HW1 1270   5.974   4.046  12.979
33748SOL    HW2 1271   5.815   4.014  13.001
33749SOL     OW 1272   7.052   5.141  12.125
33749SOL    HW1 1273   6.993   5.147  12.205
33749SOL    HW2 1274   7.037   5.053  12.079
33750SOL     OW 1275   7.253   5.438  11.744
33750SOL    HW1 1276   7.212   5.415  11.656
33750SOL    HW2 1277   7.235   5.364  11.809
33751SOL     OW 1278   6.184   4.453  11.442
33751SOL    HW1 1279   6.208   4.522  11.374
33751SOL    HW2 1280   6.106   4.486  11.496
33752SOL     OW 1281   6.867   4.069  12.116
33752SOL    HW1 1282   6.781   4.019  12.103
33752SOL    HW2 1283   6.929   4.015  12.172
33753SOL     OW 1284   7.162   5.386  11.479
33753SOL    HW1 1285   7.251   5.432  11.482
33753SOL    HW2 1286   7.141   5.362  11.384
33754SOL     OW 1287   6.393   4.329  12.637
33754SOL    HW1 1288   6.346   4.326  12.726
33754SOL    HW2 1289   6.342   4.274  12.571
33755SOL     OW 1290   6.577   4.134  12.414
33755SOL    HW1 1291   6.500   4.168  12.468
33755SOL    HW2 1292   6.543   4.083  12.335
33756SOL     OW 1293   6.627   4.425  11.601
33756SOL    HW1 1294   6.653   4.421  11.697
33756SOL    HW2 1295   6.542   4.374  11.587
33757SOL     OW 1296   5.662   4.535  11.961
33757SOL    HW1 1297   5.761   4.523  11.970
33757SOL    HW2 1298   5.638   4.630  11.982
33758SOL     OW 1299   5.716   5.545  12.743
33758SOL    HW1 1300   5.706   5.530  12.842
33758SOL    HW2 1301   5.630   5.581  12.707
33759SOL     OW 1302   6.451   4.072  11.367
33759SOL    HW1 1303   6.510   4.135  11.318
33759SOL    HW2 1304   6.470   3.978  11.338
33760SOL     OW 1305   6.948   4.868  11.717
33760SOL    HW1 1306   7.031   4.839  11.669
33760SOL    HW2 1307   6.899   4.935  11.661
33761SOL     OW 1308   6.136   3.920  12.057
33761SOL    HW1 1309   6.131   3.915  12.157
33761SOL    HW2 1310   6.138   4.016  12.028
33762SOL     OW 1311   6.594   5.180  11.649
33762SOL    HW1 1312   6.548   5.252  11.597
33762SOL    HW2 1313   6.590   5.200  11.747
33763SOL     OW 1314   5.937   5.525  12.025
33763SOL    HW1 1315   5.987   5.439  12.031
33763SOL    HW2 1316   6.002   5.602  12.022
33764SOL     OW 1317   7.381   4.790  12.045
33764SOL    HW1 1318   7.319   4.775  11.969
33764SOL    HW2 1319   7.329   4.801  12.130
33765SOL     OW 1320   5.907   4.667  11.414
33765SOL    HW1 1321   5.989   4.706  11.372
33765SOL    HW2 1322   5.880   4.585  11.365
33766SOL     OW 1323   7.044   4.459  11.900
33766SOL    HW1 1324   7.039   4.394  11.975
33766SOL    HW2 1325   7.124   4.518  11.913
33767SOL     OW 1326   6.697   5.500  11.409
33767SOL    HW1 1327   6.637   5.438  11.459
33767SOL    HW2 1328   6.728   5.456  11.324
33768SOL     OW 1329   5.788   4.009  12.670
33768SOL    HW1 1330   5.708   4.069  12.657
33768SOL    HW2 1331   5.778   3.960  12.756
33769SOL     OW 1332   7.218   5.101  11.253
33769SOL    HW1 1333   7.186   5.195  11.243
33769SOL    HW2 1334   7.142   5.038  11.241
33770SOL     OW 1335   6.050   5.467  11.495
33770SOL    HW1 1336   6.083   5.506  11.581
33770SOL    HW2 1337   6.126   5.460  11.430
33771SOL     OW 1338   6.986   3.831  11.598
33771SOL    HW1 1339   6.962   3.794  11.508
33771SOL    HW2 1340   7.085   3.847  11.602
33772SOL     OW 1341   5.835   5.509  12.413
33772SOL    HW1 1342   5.892   5.444  12.463
33772SOL    HW2 1343   5.819   5.476  12.320
33773SOL     OW 1344   6.526   5.422  12.076
33773SOL    HW1 1345   6.606   5.365  12.097
33773SOL    HW2 1346   6.477   5.382  11.999
33774SOL     OW 1347   5.968   4.424  11.652
33774SOL    HW1 1348   6.013   4.334  11.649
33774SOL    HW2 1349   5.874   4.413  11.685
33775SOL     OW 1350   6.200   3.846  11.289
33775SOL    HW1 1351   6.298   3.824  11.296
33775SOL    HW2 1352   6.169   3.829  11.196
33776SOL     OW 1353   6.474   5.238  12.367
33776SOL    HW1 1354   6.451   5.213  12.273
33776SOL    HW2 1355   6.535   5.169  12.406
33777SOL     OW 1356   6.389   5.126  12.096
33777SOL    HW1 1357   6.479   5.140  12.054
33777SOL    HW2 1358   6.318   5.128  12.025
33778SOL     OW 1359   6.508   4.227  12.071
33778SOL    HW1 1360   6.483   4.218  11.975
33778SOL    HW2 1361   6.556   4.145  12.102
33779SOL     OW 1362   6.125   3.788  11.684
33779SOL    HW1 1363   6.044   3.789  11.742
33779SOL    HW2 1364   6.128   3.871  11.629
33780SOL     OW 1365   7.020   4.912  11.213
33780SOL    HW1 1366   7.052   4.836  11.270
33780SOL    HW2 1367   6.928   4.939  11.243
33781SOL     OW 1368   5.883   3.759  11.343
33781SOL    HW1 1369   5.932   3.843  11.322
33781SOL    HW2 1370   5.945   3.694  11.388
33782SOL     OW 1371   6.521   3.960  11.652
33782SOL    HW1 1372   6.473   4.001  11.574
33782SOL    HW2 1373   6.620   3.958  11.633
33783SOL     OW 1374   6.813   5.294  11.965
33783SOL    HW1 1375   6.834   5.368  11.900
33783SOL    HW2 1376   6.881   5.294  12.038
33784SOL     OW 1377   6.045   4.876  11.913
33784SOL    HW1 1378   5.974   4.849  11.978
33784SOL    HW2 1379   6.019   4.848  11.820
33785SOL     OW 1380   6.857   5.521  11.763
33785SOL    HW1 1381   6.901   5.585  11.699
33785SOL    HW2 1382   6.807   5.573  11.833
33786SOL     OW 1383   6.618   4.273  11.188
33786SOL    HW1 1384   6.577   4.355  11.149
33786SOL    HW2 1385   6.682   4.299  11.261
33787SOL     OW 1386   5.664   4.280  12.558
33787SOL    HW1 1387   5.756   4.279  12.517
33787SOL    HW2 1388   5.658   4.354  12.625
33788SOL     OW 1389   6.147   3.946  12.319
33788SOL    HW1 1390   6.185   3.862  12.356
33788SOL    HW2 1391   6.059   3.965  12.363
33789SOL     OW 1392   6.452   4.178  11.814
33789SOL    HW1 1393   6.420   4.250  11.752
33789SOL    HW2 1394   6.476   4.097  11.761
33790SOL     OW 1395   6.603   3.763  11.925
33790SOL    HW1 1396   6.531   3.768  11.856
33790SOL    HW2 1397   6.579   3.694  11.994
33791SOL     OW 1398   7.015   4.897  12.039
33791SOL    HW1 1399   6.960   4.813  12.032
33791SOL    HW2 1400   7.041   4.926  11.947
33792SOL     OW 1401   7.052   4.314  12.164
33792SOL    HW1 1402   7.022   4.219  12.171
33792SOL    HW2 1403   7.125   4.330  12.230
33793SOL     OW 1404   7.443   4.557  11.549
33793SOL    HW1 1405   7.485   4.493  11.613
33793SOL    HW2 1406   7.405   4.506  11.471
33794SOL     OW 1407   6.074   5.109  11.346
33794SOL    HW1 1408   5.987   5.094  11.393
33794SOL    HW2 1409   6.057   5.135  11.251
33795SOL     OW 1410   7.250   5.004  11.829
33795SOL    HW1 1411   7.349   5.012  11.843
33795SOL    HW2 1412   7.205   5.088  11.860
33796SOL     OW 1413   6.976   4.299  11.250
33796SOL    HW1 1414   6.922   4.278  11.331
33796SOL    HW2 1415   7.067   4.258  11.259
33797SOL     OW 1416   6.113   3.980  11.500
33797SOL    HW1 1417   6.140   3.921  11.425
33797SOL    HW2 1418   6.113   4.075  11.469
33798SOL     OW 1419   6.650   5.071  12.512
33798SOL    HW1 1420   6.570   5.048  12.567
33798SOL    HW2 1421   6.733   5.045  12.561
33799SOL     OW 1422   6.697   4.919  12.272
33799SOL    HW1 1423   6.657   4.963  12.353
33799SOL    HW2 1424   6.656   4.956  12.189
33800SOL     OW 1425   6.501   3.813  12.574
33800SOL    HW1 1426   6.526   3.793  12.479
33800SOL    HW2 1427   6.573   3.869  12.616
33801SOL     OW 1428   6.291   4.774  11.540
33801SOL    HW1 1429   6.277   4.781  11.639
33801SOL    HW2 1430   6.375   4.723  11.522
33802SOL     OW 1431   5.996   4.537  12.423
33802SOL    HW1 1432   6.082   4.549  12.473
33802SOL    HW2 1433   5.954   4.450  12.450
33803SOL     OW 1434   6.860   4.110  12.434
33803SOL    HW1 1435   6.881   4.184  12.498
33803SOL    HW2 1436   6.771   4.127  12.391
33804SOL     OW 1437   5.650   5.288  12.503
33804SOL    HW1 1438   5.604   5.370  12.469
33804SOL    HW2 1439   5.748   5.307  12.512
33805SOL     OW 1440   5.953   4.824  11.673
33805SOL    HW1 1441   5.946   4.907  11.617
33805SOL    HW2 1442   5.957   4.744  11.613
33806SOL     OW 1443   6.152   4.261  12.037
33806SOL    HW1 1444   6.164   4.327  11.963
33806SOL    HW2 1445   6.198   4.295  12.120
33807SOL     OW 1446   6.838   5.072  11.560
33807SOL    HW1 1447   6.888   5.149  11.600
33807SOL    HW2 1448   6.743   5.074  11.592
33808SOL     OW 1449   6.858   5.169  12.314
33808SOL    HW1 1450   6.905   5.182  12.401
33808SOL    HW2 1451   6.792   5.095  12.323
33809SOL     OW 1452   7.168   4.363  11.644
33809SOL    HW1 1453   7.137   4.424  11.717
33809SOL    HW2 1454   7.218   4.415  11.575
33810SOL     OW 1455   5.940   5.234  12.501
33810SOL    HW1 1456   5.919   5.190  12.414
33810SOL    HW2 1457   6.037   5.260  12.504
33811SOL     OW 1458   5.988   4.475  12.770
33811SOL    HW1 1459   6.056   4.530  12.723
33811SOL    HW2 1460   6.028   4.387  12.797
33812SOL     OW 1461   7.173   4.503  12.842
33812SOL    HW1 1462   7.081   4.541  12.837
33812SOL    HW2 1463   7.233   4.550  12.777
33813SOL     OW 1464   6.159   4.594  12.201
33813SOL    HW1 1465   6.203   4.683  12.192
33813SOL    HW2 1466   6.096   4.594  12.278
33814SOL     OW 1467   6.946   4.586  12.217
33814SOL    HW1 1468   6.871   4.586  12.151
33814SOL    HW2 1469   6.983   4.494  12.226
33815SOL     OW 1470   6.795   4.249  11.447
33815SOL    HW1 1471   6.808   4.165  11.501
33815SOL    HW2 1472   6.766   4.323  11.507
33816SOL     OW 1473   5.893   3.937  12.403
33816SOL    HW1 1474   5.870   3.974  12.493
33816SOL    HW2 1475   5.863   3.842  12.397
33817SOL     OW 1476   5.623   5.034  12.454
33817SOL    HW1 1477   5.676   4.985  12.522
33817SOL    HW2 1478   5.645   5.132  12.459
33818SOL     OW 1479   6.318   4.358  12.236
33818SOL    HW1 1480   6.377   4.332  12.160
33818SOL    HW2 1481   6.290   4.454  12.225
33819SOL     OW 1482   5.893   3.787  11.790
33819SOL    HW1 1483   5.882   3.881  11.823
33819SOL    HW2 1484   5.888   3.724  11.867
33820SOL     OW 1485   7.208   4.091  11.546
33820SOL    HW1 1486   7.210   4.015  11.610
33820SOL    HW2 1487   7.160   4.168  11.586
33821SOL     OW 1488   6.609   4.490  12.138
33821SOL    HW1 1489   6.624   4.511  12.234
33821SOL    HW2 1490   6.579   4.395  12.129
33822SOL     OW 1491   6.566   5.297  12.872
33822SOL    HW1 1492   6.546   5.341  12.784
33822SOL    HW2 1493   6.605   5.206  12.856
33823SOL     OW 1494   7.126   3.998  11.297
33823SOL    HW1 1495   7.065   3.923  11.320
33823SOL    HW2 1496   7.148   4.050  11.380
33824SOL     OW 1497   6.889   4.562  11.214
33824SOL    HW1 1498   6.923   4.469  11.229
33824SOL    HW2 1499   6.907   4.589  11.119
33825SOL     OW 1500   6.654   5.057  12.021
33825SOL    HW1 1501   6.661   4.973  11.966
33825SOL    HW2 1502   6.716   5.126  11.985
33826SOL     OW 1503   5.905   4.534  12.121
33826SOL    HW1 1504   5.998   4.570  12.126
33826SOL    HW2 1505   5.899   4.449  12.173
33827SOL     OW 1506   5.925   4.233  12.178
33827SOL    HW1 1507   5.873   4.150  12.161
33827SOL    HW2 1508   6.002   4.238  12.114
33828SOL     OW 1509   6.724   4.104  12.850
33828SOL    HW1 1510   6.679   4.167  12.914
33828SOL    HW2 1511   6.817   4.135  12.833
33829SOL     OW 1512   6.746   3.931  12.649
33829SOL    HW1 1513   6.746   3.995  12.726
33829SOL    HW2 1514   6.774   3.979  12.566
33830SOL     OW 1515   5.594   5.050  11.372
33830SOL    HW1 1516   5.501   5.071  11.341
33830SOL    HW2 1517   5.604   4.951  11.385
33831SOL     OW 1518   5.674   5.525  12.099
33831SOL    HW1 1519   5.632   5.439  12.072
33831SOL    HW2 1520   5.768   5.528  12.065
33832SOL     OW 1521   6.090   5.292  12.082
33832SOL    HW1 1522   6.156   5.366  12.091
33832SOL    HW2 1523   6.134   5.213  12.040
33833SOL     OW 1524   6.588   4.520  12.410
33833SOL    HW1 1525   6.629   4.488  12.496
33833SOL    HW2 1526   6.492   4.493  12.407
33834SOL     OW 1527   5.626   4.268  12.286
33834SOL    HW1 1528   5.711   4.235  12.245
33834SOL    HW2 1529   5.639   4.283  12.384
33835SOL     OW 1530   6.401   4.296  11.497
33835SOL    HW1 1531   6.408   4.207  11.451
33835SOL    HW2 1532   6.307   4.330  11.489
33836SOL     OW 1533   7.243   4.328  12.378
33836SOL    HW1 1534   7.205   4.259  12.440
33836SOL    HW2 1535   7.325   4.292  12.334
33837SOL     OW 1536   6.257   4.188  12.441
33837SOL    HW1 1537   6.223   4.099  12.411
33837SOL    HW2 1538   6.283   4.242  12.361
33838SOL     OW 1539   6.516   5.402  12.637
33838SOL    HW1 1540   6.492   5.384  12.542
33838SOL    HW2 1541   6.546   5.496  12.647
33839SOL     OW 1542   6.059   4.224  11.363
33839SOL    HW1 1543   6.120   4.304  11.367
33839SOL    HW2 1544   5.964   4.255  11.370
33840SOL     OW 1545   5.745   4.861  12.638
33840SOL    HW1 1546   5.767   4.800  12.714
33840SOL    HW2 1547   5.755   4.812  12.552
33841SOL     OW 1548   6.933   4.783  12.406
33841SOL    HW1 1549   6.957   4.720  12.332
33841SOL    HW2 1550   6.843   4.823  12.388
33842SOL     OW 1551   6.888   4.579  11.481
33842SOL    HW1 1552   6.802   4.548  11.523
33842SOL    HW2 1553   6.884   4.565  11.382
33843SOL     OW 1554   7.345   5.471  12.326
33843SOL    HW1 1555   7.406   5.501  12.253
33843SOL    HW2 1556   7.307   5.382  12.304
33844SOL     OW 1557   6.838   5.455  12.300
33844SOL    HW1 1558   6.922   5.460  12.246
33844SOL    HW2 1559   6.815   5.359  12.318
33845SOL     OW 1560   5.669   4.982  12.194
33845SOL    HW1 1561   5.664   4.981  12.294
33845SOL    HW2 1562   5.586   4.941  12.156
33846SOL     OW 1563   7.312   3.859  11.695
33846SOL    HW1 1564   7.385   3.842  11.628
33846SOL    HW2 1565   7.281   3.772  11.733
33847SOL     OW 1566   6.974   5.297  11.649
33847SOL    HW1 1567   7.041   5.309  11.575
33847SOL    HW2 1568   6.934   5.386  11.672
33848SOL     OW 1569   6.866   4.651  11.844
33848SOL    HW1 1570   6.926   4.570  11.846
33848SOL    HW2 1571   6.906   4.720  11.784
33849SOL     OW 1572   6.258   5.340  11.326
33849SOL    HW1 1573   6.267   5.350  11.227
33849SOL    HW2 1574   6.218   5.251  11.347
33850SOL     OW 1575   7.236   5.444  12.566
33850SOL    HW1 1576   7.289   5.454  12.482
33850SOL    HW2 1577   7.209   5.534  12.600
33851SOL     OW 1578   7.427   3.899  12.135
33851SOL    HW1 1579   7.466   3.814  12.099
33851SOL    HW2 1580   7.329   3.901  12.116
33852SOL     OW 1581   5.849   4.050  11.892
33852SOL    HW1 1582   5.770   4.101  11.858
33852SOL    HW2 1583   5.840   4.035  11.990
33853SOL     OW 1584   6.780   5.336  11.203
33853SOL    HW1 1585   6.786   5.243  11.240
33853SOL    HW2 1586   6.721   5.336  11.123
33854SOL     OW 1587   6.408   4.726  12.544
33854SOL    HW1 1588   6.448   4.725  12.452
33854SOL    HW2 1589   6.418   4.818  12.584
33855SOL     OW 1590   6.502   4.634  11.463
33855SOL    HW1 1591   6.565   4.672  11.395
33855SOL    HW2 1592   6.542   4.551  11.502
33856SOL     OW 1593   7.090   5.331  11.216
33856SOL    HW1 1594   6.998   5.368  11.223
33856SOL    HW2 1595   7.128   5.351  11.126
33857SOL     OW 1596   5.958   5.012  12.662
33857SOL    HW1 1597   5.945   5.105  12.628
33857SOL    HW2 1598   5.874   4.960  12.649
33858SOL     OW 1599   7.200   5.016  12.461
33858SOL    HW1 1600   7.260   5.019  12.541
33858SOL    HW2 1601   7.125   5.080  12.474
33859SOL     OW 1602   6.625   4.822  11.868
33859SOL    HW1 1603   6.555   4.775  11.922
33859SOL    HW2 1604   6.684   4.754  11.825
33860SOL     OW 1605   6.600   3.960  12.143
33860SOL    HW1 1606   6.592   3.924  12.050
33860SOL    HW2 1607   6.598   3.884  12.208
33861SOL     OW 1608   6.176   5.211  11.663
33861SOL    HW1 1609   6.218   5.153  11.593
33861SOL    HW2 1610   6.132   5.290  11.619
33862SOL     OW 1611   7.295   4.109  12.553
33862SOL    HW1 1612   7.368   4.178  12.557
33862SOL    HW2 1613   7.323   4.034  12.494
33863SOL     OW 1614   5.841   5.072  11.462
33863SOL    HW1 1615   5.745   5.073  11.435
33863SOL    HW2 1616   5.853   5.125  11.546
33864SOL     OW 1617   5.661   4.069  11.205
33864SOL    HW1 1618   5.569   4.041  11.176
33864SOL    HW2 1619   5.692   4.146  11.149
33865SOL     OW 1620   7.026   4.580  12.570
33865SOL    HW1 1621   6.969   4.632  12.507
33865SOL    HW2 1622   7.122   4.592  12.546
33866SOL     OW 1623   5.658   3.890  11.490
33866SOL    HW1 1624   5.641   3.973  11.436
33866SOL    HW2 1625   5.748   3.853  11.468
33867SOL     OW 1626   6.769   5.059  11.291
33867SOL    HW1 1627   6.670   5.048  11.293
33867SOL    HW2 1628   6.803   5.074  11.384
33868SOL     OW 1629   6.199   4.566  12.603
33868SOL    HW1 1630   6.255   4.647  12.586
33868SOL    HW2 1631   6.258   4.486  12.606
33869SOL     OW 1632   7.079   5.491  12.131
33869SOL    HW1 1633   7.112   5.555  12.062
33869SOL    HW2 1634   7.145   5.485  12.206
33870SOL     OW 1635   5.976   5.465  12.732
33870SOL    HW1 1636   5.885   5.506  12.730
33870SOL    HW2 1637   5.969   5.371  12.764
33871SOL     OW 1638   7.260   4.607  12.426
33871SOL    HW1 1639   7.233   4.518  12.389
33871SOL    HW2 1640   7.261   4.675  12.353
33872SOL     OW 1641   6.811   4.049  11.621
33872SOL    HW1 1642   6.876   3.975  11.610
33872SOL    HW2 1643   6.831   4.099  11.705
33873SOL     OW 1644   6.180   4.469  11.824
33873SOL    HW1 1645   6.230   4.554  11.805
33873SOL    HW2 1646   6.092   4.471  11.776
33874SOL     OW 1647   7.363   4.066  12.814
33874SOL    HW1 1648   7.346   4.097  12.720
33874SOL    HW2 1649   7.279   4.029  12.852
33875SOL     OW 1650   7.316   4.658  12.689
33875SOL    HW1 1651   7.354   4.749  12.704
33875SOL    HW2 1652   7.308   4.641  12.590
33876SOL     OW 1653   6.445   5.098  11.188
33876SOL    HW1 1654   6.399   5.113  11.276
33876SOL    HW2 1655   6.489   5.183  11.158
33877SOL     OW 1656   6.247   5.514  12.125
33877SOL    HW1 1657   6.201   5.602  12.112
33877SOL    HW2 1658   6.346   5.526  12.118
33878SOL     OW 1659   6.445   4.680  12.033
33878SOL    HW1 1660   6.499   4.611  12.081
33878SOL    HW2 1661   6.413   4.749  12.099
33879SOL     OW 1662   6.669   4.708  11.259
33879SOL    HW1 1663   6.646   4.761  11.177
33879SOL    HW2 1664   6.750   4.652  11.240
33880SOL     OW 1665   7.447   5.293  12.023
33880SOL    HW1 1666   7.376   5.281  11.953
33880SOL    HW2 1667   7.448   5.214  12.083
33881SOL     OW 1668   5.665   4.964  11.825
33881SOL    HW1 1669   5.664   4.917  11.913
33881SOL    HW2 1670   5.747   4.936  11.774
33882SOL     OW 1671   7.410   3.916  12.399
33882SOL    HW1 1672   7.406   3.826  12.443
33882SOL    HW2 1673   7.413   3.905  12.300
33883SOL     OW 1674   6.014   4.148  11.692
33883SOL    HW1 1675   6.044   4.076  11.630
33883SOL    HW2 1676   5.975   4.108  11.775
33884SOL     OW 1677   7.291   5.211  12.276
33884SOL    HW1 1678   7.198   5.186  12.249
33884SOL    HW2 1679   7.317   5.161  12.358
33885SOL     OW 1680   5.903   4.271  12.452
33885SOL    HW1 1681   5.941   4.212  12.524
33885SOL    HW2 1682   5.943   4.245  12.364
33886SOL     OW 1683   6.398   5.310  11.859
33886SOL    HW1 1684   6.430   5.320  11.765
33886SOL    HW2 1685   6.319   5.248  11.861
33887SOL     OW 1686   7.010   3.938  12.284
33887SOL    HW1 1687   7.062   3.873  12.339
33887SOL    HW2 1688   6.961   4.001  12.345
33888SOL     OW 1689   6.587   3.758  12.326
33888SOL    HW1 1690   6.524   3.686  12.295
33888SOL    HW2 1691   6.680   3.722  12.326
33889SOL     OW 1692   6.356   5.054  11.473
33889SOL    HW1 1693   6.310   4.967  11.490
33889SOL    HW2 1694   6.447   5.051  11.514
33890SOL     OW 1695   6.204   5.291  12.456
33890SOL    HW1 1696   6.199   5.373  12.513
33890SOL    HW2 1697   6.293   5.288  12.411
33891SOL     OW 1698   6.938   3.776  11.340
33891SOL    HW1 1699   6.973   3.735  11.256
33891SOL    HW2 1700   6.848   3.738  11.360
33892SOL     OW 1701   6.886   4.177  11.863
33892SOL    HW1 1702   6.827   4.257  11.867
33892SOL    HW2 1703   6.901   4.142  11.956
33893SOL     OW 1704   7.179   3.945  12.054
33893SOL    HW1 1705   7.095   3.944  12.108
33893SOL    HW2 1706   7.181   4.028  11.998
33894SOL     OW 1707   5.625   4.801  11.472
33894SOL    HW1 1708   5.724   4.790  11.463
33894SOL    HW2 1709   5.585   4.715  11.504
33895SOL     OW 1710   6.461   5.370  11.509
33895SOL    HW1 1711   6.384   5.335  11.455
33895SOL    HW2 1712   6.429   5.441  11.571
33896SOL     OW 1713   5.816   6.214   0.113
33896SOL    HW1 1714   5.723   6.212   0.150
33896SOL    HW2 1715   5.817   6.175   0.021
33897SOL     OW 1716   5.811   5.861   0.996
33897SOL    HW1 1717   5.846   5.844   1.088
33897SOL    HW2 1718   5.723   5.816   0.984
33898SOL     OW 1719   5.605   5.954   0.647
33898SOL    HW1 1720   5.523   5.997   0.686
33898SOL    HW2 1721   5.577   5.881   0.584
33899SOL     OW 1722   6.155   6.861   1.165
33899SOL    HW1 1723   6.062   6.854   1.128
33899SOL    HW2 1724   6.166   6.950   1.209
33900SOL     OW 1725   7.141   7.097   0.703
33900SOL    HW1 1726   7.084   7.081   0.784
33900SOL    HW2 1727   7.082   7.107   0.623
33901SOL     OW 1728   6.721   6.289   0.717
33901SOL    HW1 1729   6.778   6.367   0.692
33901SOL    HW2 1730   6.661   6.315   0.793
33902SOL     OW 1731   7.341   6.193   0.231
33902SOL    HW1 1732   7.329   6.180   0.132
33902SOL    HW2 1733   7.311   6.112   0.280
33903SOL     OW 1734   6.354   6.730   1.023
33903SOL    HW1 1735   6.276   6.747   1.083
33903SOL    HW2 1736   6.388   6.817   0.987
33904SOL     OW 1737   6.436   6.384   1.823
33904SOL    HW1 1738   6.432   6.460   1.888
33904SOL    HW2 1739   6.458   6.420   1.732
33905SOL     OW 1740   6.271   6.598   0.665
33905SOL    HW1 1741   6.340   6.582   0.735
33905SOL    HW2 1742   6.198   6.655   0.703
33906SOL     OW 1743   6.272   6.747   1.803
33906SOL    HW1 1744   6.332   6.826   1.817
33906SOL    HW2 1745   6.186   6.778   1.762
33907SOL     OW 1746   5.921   7.021   1.061
33907SOL    HW1 1747   5.843   6.990   1.008
33907SOL    HW2 1748   5.979   7.079   1.004
33908SOL     OW 1749   7.046   7.091   1.339
33908SOL    HW1 1750   7.070   7.185   1.365
33908SOL    HW2 1751   7.030   7.037   1.421
33909SOL     OW 1752   6.024   5.978   1.499
33909SOL    HW1 1753   6.106   5.922   1.508
33909SOL    HW2 1754   5.943   5.920   1.503
33910SOL     OW 1755   7.189   6.033   0.737
33910SOL    HW1 1756   7.115   6.079   0.687
33910SOL    HW2 1757   7.240   6.101   0.790
33911SOL     OW 1758   5.817   7.299   0.483
33911SOL    HW1 1759   5.851   7.376   0.537
33911SOL    HW2 1760   5.861   7.299   0.393
33912SOL     OW 1761   6.713   6.927   1.690
33912SOL    HW1 1762   6.760   6.927   1.778
33912SOL    HW2 1763   6.665   6.840   1.679
33913SOL     OW 1764   5.816   7.020   0.538
33913SOL    HW1 1765   5.790   7.116   0.538
33913SOL    HW2 1766   5.745   6.966   0.583
33914SOL     OW 1767   5.826   6.677   0.886
33914SOL    HW1 1768   5.840   6.593   0.938
33914SOL    HW2 1769   5.771   6.741   0.941
33915SOL     OW 1770   6.206   7.372   1.439
33915SOL    HW1 1771   6.114   7.355   1.474
33915SOL    HW2 1772   6.234   7.464   1.465
33916SOL     OW 1773   6.192   6.550   0.123
33916SOL    HW1 1774   6.199   6.634   0.069
33916SOL    HW2 1775   6.238   6.563   0.211
33917SOL     OW 1776   7.180   5.700   1.480
33917SOL    HW1 1777   7.162   5.767   1.408
33917SOL    HW2 1778   7.177   5.746   1.569
33918SOL     OW 1779   5.708   6.229   0.563
33918SOL    HW1 1780   5.663   6.141   0.580
33918SOL    HW2 1781   5.707   6.283   0.647
33919SOL     OW 1782   7.428   7.353   0.359
33919SOL    HW1 1783   7.482   7.324   0.439
33919SOL    HW2 1784   7.458   7.443   0.330
33920SOL     OW 1785   5.613   7.182   0.117
33920SOL    HW1 1786   5.594   7.086   0.138
33920SOL    HW2 1787   5.580   7.240   0.192
33921SOL     OW 1788   7.275   6.508   0.612
33921SOL    HW1 1789   7.370   6.479   0.620
33921SOL    HW2 1790   7.267   6.573   0.537
33922SOL     OW 1791   7.227   6.694   0.432
33922SOL    HW1 1792   7.313   6.696   0.380
33922SOL    HW2 1793   7.241   6.741   0.520
33923SOL     OW 1794   5.699   6.323   1.597
33923SOL    HW1 1795   5.787   6.310   1.642
33923SOL    HW2 1796   5.686   6.420   1.575
33924SOL     OW 1797   6.199   6.951   0.726
33924SOL    HW1 1798   6.150   6.864   0.735
33924SOL    HW2 1799   6.176   6.994   0.639
33925SOL     OW 1800   6.879   6.814   1.423
33925SOL    HW1 1801   6.916   6.741   1.365
33925SOL    HW2 1802   6.931   6.819   1.508
33926SOL     OW 1803   6.395   5.590   0.502
33926SOL    HW1 1804   6.435   5.681   0.493
33926SOL    HW2 1805   6.295   5.598   0.508
33927SOL     OW 1806   5.783   6.562   1.264
33927SOL    HW1 1807   5.872   6.517   1.250
33927SOL    HW2 1808   5.710   6.497   1.245
33928SOL     OW 1809   7.111   6.585   0.190
33928SOL    HW1 1810   7.048   6.509   0.203
33928SOL    HW2 1811   7.159   6.603   0.276
33929SOL     OW 1812   6.773   7.378   1.616
33929SOL    HW1 1813   6.797   7.438   1.540
33929SOL    HW2 1814   6.780   7.283   1.586
33930SOL     OW 1815   5.903   5.837   1.801
33930SOL    HW1 1816   5.974   5.908   1.807
33930SOL    HW2 1817   5.815   5.876   1.829
33931SOL     OW 1818   7.052   7.003   0.953
33931SOL    HW1 1819   6.993   7.009   1.033
33931SOL    HW2 1820   7.037   6.915   0.907
33932SOL     OW 1821   7.253   7.300   0.572
33932SOL    HW1 1822   7.212   7.277   0.484
33932SOL    HW2 1823   7.235   7.226   0.637
33933SOL     OW 1824   6.184   6.315   0.270
33933SOL    HW1 1825   6.208   6.384   0.202
33933SOL    HW2 1826   6.106   6.348   0.324
33934SOL     OW 1827   6.867   5.931   0.944
33934SOL    HW1 1828   6.781   5.881   0.931
33934SOL    HW2 1829   6.929   5.877   1.000
33935SOL     OW 1830   7.162   7.248   0.307
33935SOL    HW1 1831   7.251   7.294   0.310
33935SOL    HW2 1832   7.141   7.224   0.212
33936SOL     OW 1833   6.393   6.191   1.465
33936SOL    HW1 1834   6.346   6.188   1.554
33936SOL    HW2 1835   6.342   6.136   1.399
33937SOL     OW 1836   6.980   6.055   1.674
33937SOL    HW1 1837   6.960   6.098   1.762
33937SOL    HW2 1838   7.058   5.993   1.683
33938SOL     OW 1839   6.559   6.476   1.572
33938SOL    HW1 1840   6.605   6.392   1.543
33938SOL    HW2 1841   6.503   6.510   1.497
33939SOL     OW 1842   6.577   5.996   1.242
33939SOL    HW1 1843   6.500   6.030   1.296
33939SOL    HW2 1844   6.543   5.945   1.163
33940SOL     OW 1845   6.627   6.287   0.429
33940SOL    HW1 1846   6.653   6.283   0.525
33940SOL    HW2 1847   6.542   6.236   0.415
33941SOL     OW 1848   5.662   6.397   0.789
33941SOL    HW1 1849   5.761   6.385   0.798
33941SOL    HW2 1850   5.638   6.492   0.810
33942SOL     OW 1851   5.716   7.407   1.571
33942SOL    HW1 1852   5.706   7.392   1.670
33942SOL    HW2 1853   5.630   7.443   1.535
33943SOL     OW 1854   6.451   5.934   0.195
33943SOL    HW1 1855   6.510   5.997   0.146
33943SOL    HW2 1856   6.470   5.840   0.166
33944SOL     OW 1857   7.305   6.171   1.831
33944SOL    HW1 1858   7.279   6.260   1.795
33944SOL    HW2 1859   7.303   6.103   1.758
33945SOL     OW 1860   6.948   6.730   0.545
33945SOL    HW1 1861   7.031   6.701   0.497
33945SOL    HW2 1862   6.899   6.797   0.489
33946SOL     OW 1863   6.136   5.782   0.885
33946SOL    HW1 1864   6.131   5.777   0.985
33946SOL    HW2 1865   6.138   5.878   0.856
33947SOL     OW 1866   6.594   7.042   0.477
33947SOL    HW1 1867   6.548   7.114   0.425
33947SOL    HW2 1868   6.590   7.062   0.575
33948SOL     OW 1869   5.937   7.387   0.853
33948SOL    HW1 1870   5.987   7.301   0.859
33948SOL    HW2 1871   6.002   7.464   0.850
33949SOL     OW 1872   7.381   6.652   0.873
33949SOL    HW1 1873   7.319   6.637   0.797
33949SOL    HW2 1874   7.329   6.663   0.958
33950SOL     OW 1875   6.813   7.136   1.506
33950SOL    HW1 1876   6.819   7.059   1.570
33950SOL    HW2 1877   6.761   7.110   1.426
33951SOL     OW 1878   5.907   6.529   0.242
33951SOL    HW1 1879   5.989   6.568   0.200
33951SOL    HW2 1880   5.880   6.447   0.193
33952SOL     OW 1881   7.044   6.321   0.728
33952SOL    HW1 1882   7.039   6.256   0.803
33952SOL    HW2 1883   7.124   6.380   0.741
33953SOL     OW 1884   6.047   6.852   1.727
33953SOL    HW1 1885   5.997   6.853   1.641
33953SOL    HW2 1886   5.984   6.834   1.803
33954SOL     OW 1887   6.697   7.362   0.237
33954SOL    HW1 1888   6.637   7.300   0.287
33954SOL    HW2 1889   6.728   7.318   0.152
33955SOL     OW 1890   5.788   5.871   1.498
33955SOL    HW1 1891   5.708   5.931   1.485
33955SOL    HW2 1892   5.778   5.822   1.584
33956SOL     OW 1893   7.218   6.963   0.081
33956SOL    HW1 1894   7.186   7.057   0.071
33956SOL    HW2 1895   7.142   6.900   0.069
33957SOL     OW 1896   6.050   7.329   0.323
33957SOL    HW1 1897   6.083   7.368   0.409
33957SOL    HW2 1898   6.126   7.322   0.258
33958SOL     OW 1899   6.986   5.693   0.426
33958SOL    HW1 1900   6.962   5.656   0.336
33958SOL    HW2 1901   7.085   5.709   0.430
33959SOL     OW 1902   5.835   7.371   1.241
33959SOL    HW1 1903   5.892   7.306   1.291
33959SOL    HW2 1904   5.819   7.338   1.148
33960SOL     OW 1905   6.526   7.284   0.904
33960SOL    HW1 1906   6.606   7.227   0.925
33960SOL    HW2 1907   6.477   7.244   0.827
33961SOL     OW 1908   5.968   6.286   0.480
33961SOL    HW1 1909   6.013   6.196   0.477
33961SOL    HW2 1910   5.874   6.275   0.513
33962SOL     OW 1911   7.133   5.808   1.729
33962SOL    HW1 1912   7.128   5.845   1.821
33962SOL    HW2 1913   7.061   5.739   1.717
33963SOL     OW 1914   6.200   5.708   0.117
33963SOL    HW1 1915   6.298   5.686   0.124
33963SOL    HW2 1916   6.169   5.691   0.024
33964SOL     OW 1917   6.367   5.850   1.749
33964SOL    HW1 1918   6.434   5.789   1.792
33964SOL    HW2 1919   6.294   5.869   1.814
33965SOL     OW 1920   6.474   7.100   1.195
33965SOL    HW1 1921   6.451   7.075   1.101
33965SOL    HW2 1922   6.535   7.031   1.234
33966SOL     OW 1923   6.937   6.176   1.433
33966SOL    HW1 1924   6.965   6.133   1.518
33966SOL    HW2 1925   6.962   6.272   1.434
33967SOL     OW 1926   6.389   6.988   0.924
33967SOL    HW1 1927   6.479   7.002   0.882
33967SOL    HW2 1928   6.318   6.990   0.853
33968SOL     OW 1929   6.508   6.089   0.899
33968SOL    HW1 1930   6.483   6.080   0.803
33968SOL    HW2 1931   6.556   6.007   0.930
33969SOL     OW 1932   6.125   5.650   0.512
33969SOL    HW1 1933   6.044   5.651   0.570
33969SOL    HW2 1934   6.128   5.733   0.457
33970SOL     OW 1935   7.020   6.774   0.041
33970SOL    HW1 1936   7.052   6.698   0.098
33970SOL    HW2 1937   6.928   6.801   0.071
33971SOL     OW 1938   5.883   5.621   0.171
33971SOL    HW1 1939   5.932   5.705   0.150
33971SOL    HW2 1940   5.945   5.556   0.216
33972SOL     OW 1941   6.521   5.822   0.480
33972SOL    HW1 1942   6.473   5.863   0.402
33972SOL    HW2 1943   6.620   5.820   0.461
33973SOL     OW 1944   6.662   6.269   1.464
33973SOL    HW1 1945   6.582   6.208   1.467
33973SOL    HW2 1946   6.743   6.216   1.440
33974SOL     OW 1947   6.813   7.156   0.793
33974SOL    HW1 1948   6.834   7.230   0.728
33974SOL    HW2 1949   6.881   7.156   0.866
33975SOL     OW 1950   6.045   6.738   0.741
33975SOL    HW1 1951   5.974   6.711   0.806
33975SOL    HW2 1952   6.019   6.710   0.648
33976SOL     OW 1953   6.857   7.383   0.591
33976SOL    HW1 1954   6.901   7.447   0.527
33976SOL    HW2 1955   6.807   7.435   0.661
33977SOL     OW 1956   6.618   6.135   0.016
33977SOL    HW1 1957   6.577   6.217  -0.023
33977SOL    HW2 1958   6.682   6.161   0.089
33978SOL     OW 1959   5.664   6.142   1.386
33978SOL    HW1 1960   5.756   6.141   1.345
33978SOL    HW2 1961   5.658   6.216   1.453
33979SOL     OW 1962   6.147   5.808   1.147
33979SOL    HW1 1963   6.185   5.724   1.184
33979SOL    HW2 1964   6.059   5.827   1.191
33980SOL     OW 1965   6.452   6.040   0.642
33980SOL    HW1 1966   6.420   6.112   0.580
33980SOL    HW2 1967   6.476   5.959   0.589
33981SOL     OW 1968   6.603   5.625   0.753
33981SOL    HW1 1969   6.531   5.630   0.684
33981SOL    HW2 1970   6.579   5.556   0.822
33982SOL     OW 1971   7.015   6.759   0.867
33982SOL    HW1 1972   6.960   6.675   0.860
33982SOL    HW2 1973   7.041   6.788   0.775
33983SOL     OW 1974   7.052   6.176   0.992
33983SOL    HW1 1975   7.022   6.081   0.999
33983SOL    HW2 1976   7.125   6.192   1.058
33984SOL     OW 1977   7.443   6.419   0.377
33984SOL    HW1 1978   7.485   6.355   0.441
33984SOL    HW2 1979   7.405   6.368   0.299
33985SOL     OW 1980   6.074   6.971   0.174
33985SOL    HW1 1981   5.987   6.956   0.221
33985SOL    HW2 1982   6.057   6.997   0.079
33986SOL     OW 1983   7.250   6.866   0.657
33986SOL    HW1 1984   7.349   6.874   0.671
33986SOL    HW2 1985   7.205   6.950   0.688
33987SOL     OW 1986   6.976   6.161   0.078
33987SOL    HW1 1987   6.922   6.140   0.159
33987SOL    HW2 1988   7.067   6.120   0.087
33988SOL     OW 1989   6.113   5.842   0.328
33988SOL    HW1 1990   6.140   5.783   0.253
33988SOL    HW2 1991   6.113   5.937   0.297
33989SOL     OW 1992   7.340   6.809   1.588
33989SOL    HW1 1993   7.431   6.770   1.575
33989SOL    HW2 1994   7.348   6.905   1.612
33990SOL     OW 1995   6.650   6.933   1.340
33990SOL    HW1 1996   6.570   6.910   1.395
33990SOL    HW2 1997   6.733   6.907   1.389
33991SOL     OW 1998   7.178   7.215   1.625
33991SOL    HW1 1999   7.205   7.249   1.535
33991SOL    HW2 2000   7.257   7.177   1.671
33992SOL     OW 2001   6.697   6.781   1.100
33992SOL    HW1 2002   6.657   6.825   1.181
33992SOL    HW2 2003   6.656   6.818   1.017
33993SOL     OW 2004   7.224   6.685   1.079
33993SOL    HW1 2005   7.229   6.766   1.138
33993SOL    HW2 2006   7.138   6.687   1.028
33994SOL     OW 2007   6.501   5.675   1.402
33994SOL    HW1 2008   6.526   5.655   1.307
33994SOL    HW2 2009   6.573   5.731   1.444
33995SOL     OW 2010   6.566   6.702   1.719
33995SOL    HW1 2011   6.467   6.708   1.729
33995SOL    HW2 2012   6.589   6.622   1.663
33996SOL     OW 2013   6.291   6.636   0.368
33996SOL    HW1 2014   6.277   6.643   0.467
33996SOL    HW2 2015   6.375   6.585   0.350
33997SOL     OW 2016   5.996   6.399   1.251
33997SOL    HW1 2017   6.082   6.411   1.301
33997SOL    HW2 2018   5.954   6.312   1.278
33998SOL     OW 2019   6.860   5.972   1.262
33998SOL    HW1 2020   6.881   6.046   1.326
33998SOL    HW2 2021   6.771   5.989   1.219
33999SOL     OW 2022   5.650   7.150   1.331
33999SOL    HW1 2023   5.604   7.232   1.297
33999SOL    HW2 2024   5.748   7.169   1.340
34000SOL     OW 2025   5.953   6.686   0.501
34000SOL    HW1 2026   5.946   6.769   0.445
34000SOL    HW2 2027   5.957   6.606   0.441
34001SOL     OW 2028   6.152   6.123   0.865
34001SOL    HW1 2029   6.164   6.189   0.791
34001SOL    HW2 2030   6.198   6.157   0.948
34002SOL     OW 2031   6.838   6.934   0.388
34002SOL    HW1 2032   6.888   7.011   0.428
34002SOL    HW2 2033   6.743   6.936   0.420
34003SOL     OW 2034   6.858   7.031   1.142
34003SOL    HW1 2035   6.905   7.044   1.229
34003SOL    HW2 2036   6.792   6.957   1.151
34004SOL     OW 2037   7.168   6.225   0.472
34004SOL    HW1 2038   7.137   6.286   0.545
34004SOL    HW2 2039   7.218   6.277   0.403
34005SOL     OW 2040   5.940   7.096   1.329
34005SOL    HW1 2041   5.919   7.052   1.242
34005SOL    HW2 2042   6.037   7.122   1.332
34006SOL     OW 2043   5.988   6.337   1.598
34006SOL    HW1 2044   6.056   6.392   1.551
34006SOL    HW2 2045   6.028   6.249   1.625
34007SOL     OW 2046   7.173   6.365   1.670
34007SOL    HW1 2047   7.081   6.403   1.665
34007SOL    HW2 2048   7.233   6.412   1.605
34008SOL     OW 2049   6.599   5.691   1.770
34008SOL    HW1 2050   6.605   5.776   1.718
34008SOL    HW2 2051   6.631   5.615   1.713
34009SOL     OW 2052   6.090   5.636   1.740
34009SOL    HW1 2053   6.048   5.579   1.670
34009SOL    HW2 2054   6.024   5.705   1.772
34010SOL     OW 2055   6.159   6.456   1.029
34010SOL    HW1 2056   6.203   6.545   1.020
34010SOL    HW2 2057   6.096   6.456   1.106
34011SOL     OW 2058   6.946   6.448   1.045
34011SOL    HW1 2059   6.871   6.448   0.979
34011SOL    HW2 2060   6.983   6.356   1.054
34012SOL     OW 2061   6.795   6.111   0.275
34012SOL    HW1 2062   6.808   6.027   0.329
34012SOL    HW2 2063   6.766   6.185   0.335
34013SOL     OW 2064   5.893   5.799   1.231
34013SOL    HW1 2065   5.870   5.836   1.321
34013SOL    HW2 2066   5.863   5.704   1.225
34014SOL     OW 2067   5.623   6.896   1.282
34014SOL    HW1 2068   5.676   6.847   1.350
34014SOL    HW2 2069   5.645   6.994   1.287
34015SOL     OW 2070   6.318   6.220   1.064
34015SOL    HW1 2071   6.377   6.194   0.988
34015SOL    HW2 2072   6.290   6.316   1.053
34016SOL     OW 2073   7.314   6.521   1.854
34016SOL    HW1 2074   7.268   6.514   1.765
34016SOL    HW2 2075   7.252   6.565   1.920
34017SOL     OW 2076   5.893   5.649   0.618
34017SOL    HW1 2077   5.882   5.743   0.651
34017SOL    HW2 2078   5.888   5.586   0.695
34018SOL     OW 2079   7.208   5.953   0.374
34018SOL    HW1 2080   7.210   5.877   0.438
34018SOL    HW2 2081   7.160   6.030   0.414
34019SOL     OW 2082   6.609   6.352   0.966
34019SOL    HW1 2083   6.624   6.373   1.062
34019SOL    HW2 2084   6.579   6.257   0.957
34020SOL     OW 2085   6.566   7.159   1.700
34020SOL    HW1 2086   6.546   7.203   1.612
34020SOL    HW2 2087   6.605   7.068   1.684
34021SOL     OW 2088   7.445   7.104   1.605
34021SOL    HW1 2089   7.459   7.131   1.510
34021SOL    HW2 2090   7.528   7.126   1.658
34022SOL     OW 2091   5.936   6.484   1.804
34022SOL    HW1 2092   6.012   6.528   1.852
34022SOL    HW2 2093   5.971   6.437   1.722
34023SOL     OW 2094   7.126   5.860   0.125
34023SOL    HW1 2095   7.065   5.785   0.148
34023SOL    HW2 2096   7.148   5.912   0.208
34024SOL     OW 2097   6.889   6.424   0.042
34024SOL    HW1 2098   6.923   6.331   0.057
34024SOL    HW2 2099   6.907   6.451  -0.053
34025SOL     OW 2100   6.654   6.919   0.849
34025SOL    HW1 2101   6.661   6.835   0.794
34025SOL    HW2 2102   6.716   6.988   0.813
34026SOL     OW 2103   5.905   6.396   0.949
34026SOL    HW1 2104   5.998   6.432   0.954
34026SOL    HW2 2105   5.899   6.311   1.001
34027SOL     OW 2106   5.925   6.095   1.006
34027SOL    HW1 2107   5.873   6.012   0.989
34027SOL    HW2 2108   6.002   6.100   0.942
34028SOL     OW 2109   6.724   5.966   1.678
34028SOL    HW1 2110   6.679   6.029   1.742
34028SOL    HW2 2111   6.817   5.997   1.661
34029SOL     OW 2112   6.746   5.793   1.477
34029SOL    HW1 2113   6.746   5.857   1.554
34029SOL    HW2 2114   6.774   5.841   1.394
34030SOL     OW 2115   5.594   6.912   0.200
34030SOL    HW1 2116   5.501   6.933   0.169
34030SOL    HW2 2117   5.604   6.813   0.213
34031SOL     OW 2118   5.674   7.387   0.927
34031SOL    HW1 2119   5.632   7.301   0.900
34031SOL    HW2 2120   5.768   7.390   0.893
34032SOL     OW 2121   6.090   7.154   0.910
34032SOL    HW1 2122   6.156   7.228   0.919
34032SOL    HW2 2123   6.134   7.075   0.868
34033SOL     OW 2124   6.588   6.382   1.238
34033SOL    HW1 2125   6.629   6.350   1.324
34033SOL    HW2 2126   6.492   6.355   1.235
34034SOL     OW 2127   5.626   6.130   1.114
34034SOL    HW1 2128   5.711   6.097   1.073
34034SOL    HW2 2129   5.639   6.145   1.212
34035SOL     OW 2130   5.775   6.106   1.722
34035SOL    HW1 2131   5.834   6.066   1.652
34035SOL    HW2 2132   5.717   6.177   1.681
34036SOL     OW 2133   6.955   6.536   1.660
34036SOL    HW1 2134   6.994   6.625   1.680
34036SOL    HW2 2135   6.965   6.516   1.563
34037SOL     OW 2136   6.401   6.158   0.325
34037SOL    HW1 2137   6.408   6.069   0.279
34037SOL    HW2 2138   6.307   6.192   0.317
34038SOL     OW 2139   7.243   6.190   1.206
34038SOL    HW1 2140   7.205   6.121   1.268
34038SOL    HW2 2141   7.325   6.154   1.162
34039SOL     OW 2142   5.838   7.150   1.744
34039SOL    HW1 2143   5.808   7.207   1.820
34039SOL    HW2 2144   5.831   7.053   1.770
34040SOL     OW 2145   6.257   6.050   1.269
34040SOL    HW1 2146   6.223   5.961   1.239
34040SOL    HW2 2147   6.283   6.104   1.189
34041SOL     OW 2148   6.516   7.264   1.465
34041SOL    HW1 2149   6.492   7.246   1.370
34041SOL    HW2 2150   6.546   7.358   1.475
34042SOL     OW 2151   6.059   6.086   0.191
34042SOL    HW1 2152   6.120   6.166   0.195
34042SOL    HW2 2153   5.964   6.117   0.198
34043SOL     OW 2154   5.745   6.723   1.466
34043SOL    HW1 2155   5.767   6.662   1.542
34043SOL    HW2 2156   5.755   6.674   1.380
34044SOL     OW 2157   6.933   6.645   1.234
34044SOL    HW1 2158   6.957   6.582   1.160
34044SOL    HW2 2159   6.843   6.685   1.216
34045SOL     OW 2160   6.888   6.441   0.309
34045SOL    HW1 2161   6.802   6.410   0.351
34045SOL    HW2 2162   6.884   6.427   0.210
34046SOL     OW 2163   7.345   7.333   1.154
34046SOL    HW1 2164   7.406   7.363   1.081
34046SOL    HW2 2165   7.307   7.244   1.132
34047SOL     OW 2166   6.838   7.317   1.128
34047SOL    HW1 2167   6.922   7.322   1.074
34047SOL    HW2 2168   6.815   7.221   1.146
34048SOL     OW 2169   5.669   6.844   1.022
34048SOL    HW1 2170   5.664   6.843   1.122
34048SOL    HW2 2171   5.586   6.803   0.984
34049SOL     OW 2172   6.274   7.248   1.716
34049SOL    HW1 2173   6.218   7.329   1.725
34049SOL    HW2 2174   6.326   7.252   1.630
34050SOL     OW 2175   6.489   5.672   0.133
34050SOL    HW1 2176   6.540   5.673   0.047
34050SOL    HW2 2177   6.545   5.630   0.204
34051SOL     OW 2178   7.312   5.721   0.523
34051SOL    HW1 2179   7.385   5.704   0.456
34051SOL    HW2 2180   7.281   5.634   0.561
34052SOL     OW 2181   6.974   7.159   0.477
34052SOL    HW1 2182   7.041   7.171   0.403
34052SOL    HW2 2183   6.934   7.248   0.500
34053SOL     OW 2184   5.716   7.380   1.851
34053SOL    HW1 2185   5.675   7.306   1.904
34053SOL    HW2 2186   5.780   7.431   1.909
34054SOL     OW 2187   6.866   6.513   0.672
34054SOL    HW1 2188   6.926   6.432   0.674
34054SOL    HW2 2189   6.906   6.582   0.612
34055SOL     OW 2190   6.416   6.859   1.422
34055SOL    HW1 2191   6.411   6.892   1.517
34055SOL    HW2 2192   6.330   6.878   1.376
34056SOL     OW 2193   6.258   7.202   0.154
34056SOL    HW1 2194   6.267   7.212   0.055
34056SOL    HW2 2195   6.218   7.113   0.175
34057SOL     OW 2196   7.236   7.306   1.394
34057SOL    HW1 2197   7.289   7.316   1.310
34057SOL    HW2 2198   7.209   7.396   1.428
34058SOL     OW 2199   7.427   5.761   0.963
34058SOL    HW1 2200   7.466   5.676   0.927
34058SOL    HW2 2201   7.329   5.763   0.944
34059SOL     OW 2202   5.849   5.912   0.720
34059SOL    HW1 2203   5.770   5.963   0.686
34059SOL    HW2 2204   5.840   5.897   0.818
34060SOL     OW 2205   6.780   7.198   0.031
34060SOL    HW1 2206   6.786   7.105   0.068
34060SOL    HW2 2207   6.721   7.198  -0.049
34061SOL     OW 2208   6.408   6.588   1.372
34061SOL    HW1 2209   6.448   6.587   1.280
34061SOL    HW2 2210   6.418   6.680   1.412
34062SOL     OW 2211   6.502   6.496   0.291
34062SOL    HW1 2212   6.565   6.534   0.223
34062SOL    HW2 2213   6.542   6.413   0.330
34063SOL     OW 2214   7.090   7.193   0.044
34063SOL    HW1 2215   6.998   7.230   0.051
34063SOL    HW2 2216   7.128   7.213  -0.046
34064SOL     OW 2217   5.958   6.874   1.490
34064SOL    HW1 2218   5.945   6.967   1.456
34064SOL    HW2 2219   5.874   6.822   1.477
34065SOL     OW 2220   7.200   6.878   1.289
34065SOL    HW1 2221   7.260   6.881   1.369
34065SOL    HW2 2222   7.125   6.942   1.302
34066SOL     OW 2223   6.625   6.684   0.696
34066SOL    HW1 2224   6.555   6.637   0.750
34066SOL    HW2 2225   6.684   6.616   0.653
34067SOL     OW 2226   6.600   5.822   0.971
34067SOL    HW1 2227   6.592   5.786   0.878
34067SOL    HW2 2228   6.598   5.746   1.036
34068SOL     OW 2229   6.176   7.073   0.491
34068SOL    HW1 2230   6.218   7.015   0.421
34068SOL    HW2 2231   6.132   7.152   0.447
34069SOL     OW 2232   7.295   5.971   1.381
34069SOL    HW1 2233   7.368   6.040   1.385
34069SOL    HW2 2234   7.323   5.896   1.322
34070SOL     OW 2235   5.841   6.934   0.290
34070SOL    HW1 2236   5.745   6.935   0.263
34070SOL    HW2 2237   5.853   6.987   0.374
34071SOL     OW 2238   5.691   6.599   1.726
34071SOL    HW1 2239   5.614   6.566   1.780
34071SOL    HW2 2240   5.776   6.569   1.768
34072SOL     OW 2241   6.258   5.789   1.489
34072SOL    HW1 2242   6.348   5.773   1.449
34072SOL    HW2 2243   6.266   5.794   1.588
34073SOL     OW 2244   5.661   5.931   0.033
34073SOL    HW1 2245   5.569   5.903   0.004
34073SOL    HW2 2246   5.692   6.008  -0.023
34074SOL     OW 2247   7.026   6.442   1.398
34074SOL    HW1 2248   6.969   6.494   1.335
34074SOL    HW2 2249   7.122   6.454   1.374
34075SOL     OW 2250   5.658   5.752   0.318
34075SOL    HW1 2251   5.641   5.835   0.264
34075SOL    HW2 2252   5.748   5.715   0.296
34076SOL     OW 2253   6.769   6.921   0.119
34076SOL    HW1 2254   6.670   6.910   0.121
34076SOL    HW2 2255   6.803   6.936   0.212
34077SOL     OW 2256   6.199   6.428   1.431
34077SOL    HW1 2257   6.255   6.509   1.414
34077SOL    HW2 2258   6.258   6.348   1.434
34078SOL     OW 2259   7.079   7.353   0.959
34078SOL    HW1 2260   7.112   7.417   0.890
34078SOL    HW2 2261   7.145   7.347   1.034
34079SOL     OW 2262   6.302   6.151   1.708
34079SOL    HW1 2263   6.321   6.216   1.782
34079SOL    HW2 2264   6.362   6.071   1.717
34080SOL     OW 2265   7.036   6.806   1.633
34080SOL    HW1 2266   7.027   6.796   1.732
34080SOL    HW2 2267   7.132   6.799   1.607
34081SOL     OW 2268   5.976   7.327   1.560
34081SOL    HW1 2269   5.885   7.368   1.558
34081SOL    HW2 2270   5.969   7.233   1.592
34082SOL     OW 2271   7.260   6.469   1.254
34082SOL    HW1 2272   7.233   6.380   1.217
34082SOL    HW2 2273   7.261   6.537   1.181
34083SOL     OW 2274   6.811   5.911   0.449
34083SOL    HW1 2275   6.876   5.837   0.438
34083SOL    HW2 2276   6.831   5.961   0.533
34084SOL     OW 2277   6.180   6.331   0.652
34084SOL    HW1 2278   6.230   6.416   0.633
34084SOL    HW2 2279   6.092   6.333   0.604
34085SOL     OW 2280   7.363   5.928   1.642
34085SOL    HW1 2281   7.346   5.959   1.548
34085SOL    HW2 2282   7.279   5.891   1.680
34086SOL     OW 2283   7.316   6.520   1.517
34086SOL    HW1 2284   7.354   6.611   1.532
34086SOL    HW2 2285   7.308   6.503   1.418
34087SOL     OW 2286   6.445   6.960   0.016
34087SOL    HW1 2287   6.399   6.975   0.104
34087SOL    HW2 2288   6.489   7.045  -0.014
34088SOL     OW 2289   6.247   7.376   0.953
34088SOL    HW1 2290   6.201   7.464   0.940
34088SOL    HW2 2291   6.346   7.388   0.946
34089SOL     OW 2292   6.445   6.542   0.861
34089SOL    HW1 2293   6.499   6.473   0.909
34089SOL    HW2 2294   6.413   6.611   0.927
34090SOL     OW 2295   6.669   6.570   0.087
34090SOL    HW1 2296   6.646   6.623   0.005
34090SOL    HW2 2297   6.750   6.514   0.068
34091SOL     OW 2298   7.447   7.155   0.851
34091SOL    HW1 2299   7.376   7.143   0.781
34091SOL    HW2 2300   7.448   7.076   0.911
34092SOL     OW 2301   5.807   6.900   1.844
34092SOL    HW1 2302   5.742   6.827   1.823
34092SOL    HW2 2303   5.811   6.914   1.942
34093SOL     OW 2304   5.665   6.826   0.653
34093SOL    HW1 2305   5.664   6.779   0.741
34093SOL    HW2 2306   5.747   6.798   0.602
34094SOL     OW 2307   6.258   6.977   1.624
34094SOL    HW1 2308   6.180   6.927   1.662
34094SOL    HW2 2309   6.255   7.072   1.655
34095SOL     OW 2310   7.410   5.778   1.227
34095SOL    HW1 2311   7.406   5.688   1.271
34095SOL    HW2 2312   7.413   5.767   1.128
34096SOL     OW 2313   6.014   6.010   0.520
34096SOL    HW1 2314   6.044   5.938   0.458
34096SOL    HW2 2315   5.975   5.970   0.603
34097SOL     OW 2316   7.291   7.073   1.104
34097SOL    HW1 2317   7.198   7.048   1.077
34097SOL    HW2 2318   7.317   7.023   1.186
34098SOL     OW 2319   5.903   6.133   1.280
34098SOL    HW1 2320   5.941   6.074   1.352
34098SOL    HW2 2321   5.943   6.107   1.192
34099SOL     OW 2322   6.398   7.172   0.687
34099SOL    HW1 2323   6.430   7.182   0.593
34099SOL    HW2 2324   6.319   7.110   0.689
34100SOL     OW 2325   7.010   5.800   1.112
34100SOL    HW1 2326   7.062   5.735   1.167
34100SOL    HW2 2327   6.961   5.863   1.173
34101SOL     OW 2328   6.587   5.620   1.154
34101SOL    HW1 2329   6.524   5.548   1.123
34101SOL    HW2 2330   6.680   5.584   1.154
34102SOL     OW 2331   6.356   6.916   0.301
34102SOL    HW1 2332   6.310   6.829   0.318
34102SOL    HW2 2333   6.447   6.913   0.342
34103SOL     OW 2334   6.204   7.153   1.284
34103SOL    HW1 2335   6.199   7.235   1.341
34103SOL    HW2 2336   6.293   7.150   1.239
34104SOL     OW 2337   6.938   5.638   0.168
34104SOL    HW1 2338   6.973   5.597   0.084
34104SOL    HW2 2339   6.848   5.600   0.188
34105SOL     OW 2340   6.886   6.039   0.691
34105SOL    HW1 2341   6.827   6.119   0.695
34105SOL    HW2 2342   6.901   6.004   0.784
34106SOL     OW 2343   7.179   5.807   0.882
34106SOL    HW1 2344   7.095   5.806   0.936
34106SOL    HW2 2345   7.181   5.890   0.826
34107SOL     OW 2346   5.625   6.663   0.300
34107SOL    HW1 2347   5.724   6.652   0.291
34107SOL    HW2 2348   5.585   6.577   0.332
34108SOL     OW 2349   6.461   7.232   0.337
34108SOL    HW1 2350   6.384   7.197   0.283
34108SOL    HW2 2351   6.429   7.303   0.399
34109SOL     OW 2352   5.816   6.214   1.975
34109SOL    HW1 2353   5.723   6.212   2.012
34109SOL    HW2 2354   5.817   6.175   1.883
34110SOL     OW 2355   5.811   5.861   2.858
34110SOL    HW1 2356   5.846   5.844   2.950
34110SOL    HW2 2357   5.723   5.816   2.846
34111SOL     OW 2358   5.605   5.954   2.509
34111SOL    HW1 2359   5.523   5.997   2.548
34111SOL    HW2 2360   5.577   5.881   2.446
34112SOL     OW 2361   6.155   6.861   3.027
34112SOL    HW1 2362   6.062   6.854   2.990
34112SOL    HW2 2363   6.166   6.950   3.071
34113SOL     OW 2364   7.141   7.097   2.565
34113SOL    HW1 2365   7.084   7.081   2.646
34113SOL    HW2 2366   7.082   7.107   2.485
34114SOL     OW 2367   6.721   6.289   2.579
34114SOL    HW1 2368   6.778   6.367   2.554
34114SOL    HW2 2369   6.661   6.315   2.655
34115SOL     OW 2370   7.341   6.193   2.093
34115SOL    HW1 2371   7.329   6.180   1.994
34115SOL    HW2 2372   7.311   6.112   2.142
34116SOL     OW 2373   6.354   6.730   2.885
34116SOL    HW1 2374   6.276   6.747   2.945
34116SOL    HW2 2375   6.388   6.817   2.849
34117SOL     OW 2376   6.436   6.384   3.685
34117SOL    HW1 2377   6.432   6.460   3.750
34117SOL    HW2 2378   6.458   6.420   3.594
34118SOL     OW 2379   6.271   6.598   2.527
34118SOL    HW1 2380   6.340   6.582   2.597
34118SOL    HW2 2381   6.198   6.655   2.565
34119SOL     OW 2382   6.272   6.747   3.665
34119SOL    HW1 2383   6.332   6.826   3.679
34119SOL    HW2 2384   6.186   6.778   3.624
34120SOL     OW 2385   5.921   7.021   2.923
34120SOL    HW1 2386   5.843   6.990   2.870
34120SOL    HW2 2387   5.979   7.079   2.866
34121SOL     OW 2388   7.046   7.091   3.201
34121SOL    HW1 2389   7.070   7.185   3.227
34121SOL    HW2 2390   7.030   7.037   3.283
34122SOL     OW 2391   6.024   5.978   3.361
34122SOL    HW1 2392   6.106   5.922   3.370
34122SOL    HW2 2393   5.943   5.920   3.365
34123SOL     OW 2394   7.189   6.033   2.599
34123SOL    HW1 2395   7.115   6.079   2.549
34123SOL    HW2 2396   7.240   6.101   2.652
34124SOL     OW 2397   5.817   7.299   2.345
34124SOL    HW1 2398   5.851   7.376   2.399
34124SOL    HW2 2399   5.861   7.299   2.255
34125SOL     OW 2400   6.713   6.927   3.552
34125SOL    HW1 2401   6.760   6.927   3.640
34125SOL    HW2 2402   6.665   6.840   3.541
34126SOL     OW 2403   5.816   7.020   2.400
34126SOL    HW1 2404   5.790   7.116   2.400
34126SOL    HW2 2405   5.745   6.966   2.445
34127SOL     OW 2406   5.826   6.677   2.748
34127SOL    HW1 2407   5.840   6.593   2.800
34127SOL    HW2 2408   5.771   6.741   2.803
34128SOL     OW 2409   6.206   7.372   3.301
34128SOL    HW1 2410   6.114   7.355   3.336
34128SOL    HW2 2411   6.234   7.464   3.327
34129SOL     OW 2412   6.192   6.550   1.985
34129SOL    HW1 2413   6.199   6.634   1.931
34129SOL    HW2 2414   6.238   6.563   2.073
34130SOL     OW 2415   7.180   5.700   3.342
34130SOL    HW1 2416   7.162   5.767   3.270
34130SOL    HW2 2417   7.177   5.746   3.431
34131SOL     OW 2418   5.708   6.229   2.425
34131SOL    HW1 2419   5.663   6.141   2.442
34131SOL    HW2 2420   5.707   6.283   2.509
34132SOL     OW 2421   7.428   7.353   2.221
34132SOL    HW1 2422   7.482   7.324   2.301
34132SOL    HW2 2423   7.458   7.443   2.192
34133SOL     OW 2424   5.613   7.182   1.979
34133SOL    HW1 2425   5.594   7.086   2.000
34133SOL    HW2 2426   5.580   7.240   2.054
34134SOL     OW 2427   7.275   6.508   2.474
34134SOL    HW1 2428   7.370   6.479   2.482
34134SOL    HW2 2429   7.267   6.573   2.399
34135SOL     OW 2430   7.227   6.694   2.294
34135SOL    HW1 2431   7.313   6.696   2.242
34135SOL    HW2 2432   7.241   6.741   2.382
34136SOL     OW 2433   5.699   6.323   3.459
34136SOL    HW1 2434   5.787   6.310   3.504
34136SOL    HW2 2435   5.686   6.420   3.437
34137SOL     OW 2436   6.199   6.951   2.588
34137SOL    HW1 2437   6.150   6.864   2.597
34137SOL    HW2 2438   6.176   6.994   2.501
34138SOL     OW 2439   6.879   6.814   3.285
34138SOL    HW1 2440   6.916   6.741   3.227
34138SOL    HW2 2441   6.931   6.819   3.370
34139SOL     OW 2442   6.395   5.590   2.364
34139SOL    HW1 2443   6.435   5.681   2.355
34139SOL    HW2 2444   6.295   5.598   2.370
34140SOL     OW 2445   5.783   6.562   3.126
34140SOL    HW1 2446   5.872   6.517   3.112
34140SOL    HW2 2447   5.710   6.497   3.107
34141SOL     OW 2448   7.111   6.585   2.052
34141SOL    HW1 2449   7.048   6.509   2.065
34141SOL    HW2 2450   7.159   6.603   2.138
34142SOL     OW 2451   6.773   7.378   3.478
34142SOL    HW1 2452   6.797   7.438   3.402
34142SOL    HW2 2453   6.780   7.283   3.448
34143SOL     OW 2454   5.903   5.837   3.663
34143SOL    HW1 2455   5.974   5.908   3.669
34143SOL    HW2 2456   5.815   5.876   3.691
34144SOL     OW 2457   7.052   7.003   2.815
34144SOL    HW1 2458   6.993   7.009   2.895
34144SOL    HW2 2459   7.037   6.915   2.769
34145SOL     OW 2460   7.253   7.300   2.434
34145SOL    HW1 2461   7.212   7.277   2.346
34145SOL    HW2 2462   7.235   7.226   2.499
34146SOL     OW 2463   6.184   6.315   2.132
34146SOL    HW1 2464   6.208   6.384   2.064
34146SOL    HW2 2465   6.106   6.348   2.186
34147SOL     OW 2466   6.867   5.931   2.806
34147SOL    HW1 2467   6.781   5.881   2.793
34147SOL    HW2 2468   6.929   5.877   2.862
34148SOL     OW 2469   7.162   7.248   2.169
34148SOL    HW1 2470   7.251   7.294   2.172
34148SOL    HW2 2471   7.141   7.224   2.074
34149SOL     OW 2472   6.393   6.191   3.327
34149SOL    HW1 2473   6.346   6.188   3.416
34149SOL    HW2 2474   6.342   6.136   3.261
34150SOL     OW 2475   6.980   6.055   3.536
34150SOL    HW1 2476   6.960   6.098   3.624
34150SOL    HW2 2477   7.058   5.993   3.545
34151SOL     OW 2478   6.559   6.476   3.434
34151SOL    HW1 2479   6.605   6.392   3.405
34151SOL    HW2 2480   6.503   6.510   3.359
34152SOL     OW 2481   6.577   5.996   3.104
34152SOL    HW1 2482   6.500   6.030   3.158
34152SOL    HW2 2483   6.543   5.945   3.025
34153SOL     OW 2484   6.627   6.287   2.291
34153SOL    HW1 2485   6.653   6.283   2.387
34153SOL    HW2 2486   6.542   6.236   2.277
34154SOL     OW 2487   5.662   6.397   2.651
34154SOL    HW1 2488   5.761   6.385   2.660
34154SOL    HW2 2489   5.638   6.492   2.672
34155SOL     OW 2490   5.716   7.407   3.433
34155SOL    HW1 2491   5.706   7.392   3.532
34155SOL    HW2 2492   5.630   7.443   3.397
34156SOL     OW 2493   6.451   5.934   2.057
34156SOL    HW1 2494   6.510   5.997   2.008
34156SOL    HW2 2495   6.470   5.840   2.028
34157SOL     OW 2496   7.305   6.171   3.693
34157SOL    HW1 2497   7.279   6.260   3.657
34157SOL    HW2 2498   7.303   6.103   3.620
34158SOL     OW 2499   6.948   6.730   2.407
34158SOL    HW1 2500   7.031   6.701   2.359
34158SOL    HW2 2501   6.899   6.797   2.351
34159SOL     OW 2502   6.136   5.782   2.747
34159SOL    HW1 2503   6.131   5.777   2.847
34159SOL    HW2 2504   6.138   5.878   2.718
34160SOL     OW 2505   6.594   7.042   2.339
34160SOL    HW1 2506   6.548   7.114   2.287
34160SOL    HW2 2507   6.590   7.062   2.437
34161SOL     OW 2508   5.937   7.387   2.715
34161SOL    HW1 2509   5.987   7.301   2.721
34161SOL    HW2 2510   6.002   7.464   2.712
34162SOL     OW 2511   7.381   6.652   2.735
34162SOL    HW1 2512   7.319   6.637   2.659
34162SOL    HW2 2513   7.329   6.663   2.820
34163SOL     OW 2514   6.813   7.136   3.368
34163SOL    HW1 2515   6.819   7.059   3.432
34163SOL    HW2 2516   6.761   7.110   3.288
34164SOL     OW 2517   5.907   6.529   2.104
34164SOL    HW1 2518   5.989   6.568   2.062
34164SOL    HW2 2519   5.880   6.447   2.055
34165SOL     OW 2520   7.044   6.321   2.590
34165SOL    HW1 2521   7.039   6.256   2.665
34165SOL    HW2 2522   7.124   6.380   2.603
34166SOL     OW 2523   6.047   6.852   3.589
34166SOL    HW1 2524   5.997   6.853   3.503
34166SOL    HW2 2525   5.984   6.834   3.665
34167SOL     OW 2526   6.697   7.362   2.099
34167SOL    HW1 2527   6.637   7.300   2.149
34167SOL    HW2 2528   6.728   7.318   2.014
34168SOL     OW 2529   5.788   5.871   3.360
34168SOL    HW1 2530   5.708   5.931   3.347
34168SOL    HW2 2531   5.778   5.822   3.446
34169SOL     OW 2532   7.218   6.963   1.943
34169SOL    HW1 2533   7.186   7.057   1.933
34169SOL    HW2 2534   7.142   6.900   1.931
34170SOL     OW 2535   6.050   7.329   2.185
34170SOL    HW1 2536   6.083   7.368   2.271
34170SOL    HW2 2537   6.126   7.322   2.120
34171SOL     OW 2538   6.986   5.693   2.288
34171SOL    HW1 2539   6.962   5.656   2.198
34171SOL    HW2 2540   7.085   5.709   2.292
34172SOL     OW 2541   5.835   7.371   3.103
34172SOL    HW1 2542   5.892   7.306   3.153
34172SOL    HW2 2543   5.819   7.338   3.010
34173SOL     OW 2544   6.526   7.284   2.766
34173SOL    HW1 2545   6.606   7.227   2.787
34173SOL    HW2 2546   6.477   7.244   2.689
34174SOL     OW 2547   5.968   6.286   2.342
34174SOL    HW1 2548   6.013   6.196   2.339
34174SOL    HW2 2549   5.874   6.275   2.375
34175SOL     OW 2550   7.133   5.808   3.591
34175SOL    HW1 2551   7.128   5.845   3.683
34175SOL    HW2 2552   7.061   5.739   3.579
34176SOL     OW 2553   6.200   5.708   1.979
34176SOL    HW1 2554   6.298   5.686   1.986
34176SOL    HW2 2555   6.169   5.691   1.886
34177SOL     OW 2556   6.367   5.850   3.611
34177SOL    HW1 2557   6.434   5.789   3.654
34177SOL    HW2 2558   6.294   5.869   3.676
34178SOL     OW 2559   6.474   7.100   3.057
34178SOL    HW1 2560   6.451   7.075   2.963
34178SOL    HW2 2561   6.535   7.031   3.096
34179SOL     OW 2562   6.937   6.176   3.295
34179SOL    HW1 2563   6.965   6.133   3.380
34179SOL    HW2 2564   6.962   6.272   3.296
34180SOL     OW 2565   6.389   6.988   2.786
34180SOL    HW1 2566   6.479   7.002   2.744
34180SOL    HW2 2567   6.318   6.990   2.715
34181SOL     OW 2568   6.508   6.089   2.761
34181SOL    HW1 2569   6.483   6.080   2.665
34181SOL    HW2 2570   6.556   6.007   2.792
34182SOL     OW 2571   6.125   5.650   2.374
34182SOL    HW1 2572   6.044   5.651   2.432
34182SOL    HW2 2573   6.128   5.733   2.319
34183SOL     OW 2574   7.020   6.774   1.903
34183SOL    HW1 2575   7.052   6.698   1.960
34183SOL    HW2 2576   6.928   6.801   1.933
34184SOL     OW 2577   5.883   5.621   2.033
34184SOL    HW1 2578   5.932   5.705   2.012
34184SOL    HW2 2579   5.945   5.556   2.078
34185SOL     OW 2580   6.521   5.822   2.342
34185SOL    HW1 2581   6.473   5.863   2.264
34185SOL    HW2 2582   6.620   5.820   2.323
34186SOL     OW 2583   6.662   6.269   3.326
34186SOL    HW1 2584   6.582   6.208   3.329
34186SOL    HW2 2585   6.743   6.216   3.302
34187SOL     OW 2586   6.813   7.156   2.655
34187SOL    HW1 2587   6.834   7.230   2.590
34187SOL    HW2 2588   6.881   7.156   2.728
34188SOL     OW 2589   6.045   6.738   2.603
34188SOL    HW1 2590   5.974   6.711   2.668
34188SOL    HW2 2591   6.019   6.710   2.510
34189SOL     OW 2592   6.857   7.383   2.453
34189SOL    HW1 2593   6.901   7.447   2.389
34189SOL    HW2 2594   6.807   7.435   2.523
34190SOL     OW 2595   6.618   6.135   1.878
34190SOL    HW1 2596   6.577   6.217   1.839
34190SOL    HW2 2597   6.682   6.161   1.951
34191SOL     OW 2598   6.147   5.808   3.009
34191SOL    HW1 2599   6.185   5.724   3.046
34191SOL    HW2 2600   6.059   5.827   3.053
34192SOL     OW 2601   6.452   6.040   2.504
34192SOL    HW1 2602   6.420   6.112   2.442
34192SOL    HW2 2603   6.476   5.959   2.451
34193SOL     OW 2604   6.603   5.625   2.615
34193SOL    HW1 2605   6.531   5.630   2.546
34193SOL    HW2 2606   6.579   5.556   2.684
34194SOL     OW 2607   7.015   6.759   2.729
34194SOL    HW1 2608   6.960   6.675   2.722
34194SOL    HW2 2609   7.041   6.788   2.637
34195SOL     OW 2610   7.052   6.176   2.854
34195SOL    HW1 2611   7.022   6.081   2.861
34195SOL    HW2 2612   7.125   6.192   2.920
34196SOL     OW 2613   7.443   6.419   2.239
34196SOL    HW1 2614   7.485   6.355   2.303
34196SOL    HW2 2615   7.405   6.368   2.161
34197SOL     OW 2616   6.074   6.971   2.036
34197SOL    HW1 2617   5.987   6.956   2.083
34197SOL    HW2 2618   6.057   6.997   1.941
34198SOL     OW 2619   7.250   6.866   2.519
34198SOL    HW1 2620   7.349   6.874   2.533
34198SOL    HW2 2621   7.205   6.950   2.550
34199SOL     OW 2622   6.976   6.161   1.940
34199SOL    HW1 2623   6.922   6.140   2.021
34199SOL    HW2 2624   7.067   6.120   1.949
34200SOL     OW 2625   6.113   5.842   2.190
34200SOL    HW1 2626   6.140   5.783   2.115
34200SOL    HW2 2627   6.113   5.937   2.159
34201SOL     OW 2628   7.340   6.809   3.450
34201SOL    HW1 2629   7.431   6.770   3.437
34201SOL    HW2 2630   7.348   6.905   3.474
34202SOL     OW 2631   6.650   6.933   3.202
34202SOL    HW1 2632   6.570   6.910   3.257
34202SOL    HW2 2633   6.733   6.907   3.251
34203SOL     OW 2634   7.178   7.215   3.487
34203SOL    HW1 2635   7.205   7.249   3.397
34203SOL    HW2 2636   7.257   7.177   3.533
34204SOL     OW 2637   6.697   6.781   2.962
34204SOL    HW1 2638   6.657   6.825   3.043
34204SOL    HW2 2639   6.656   6.818   2.879
34205SOL     OW 2640   7.224   6.685   2.941
34205SOL    HW1 2641   7.229   6.766   3.000
34205SOL    HW2 2642   7.138   6.687   2.890
34206SOL     OW 2643   6.501   5.675   3.264
34206SOL    HW1 2644   6.526   5.655   3.169
34206SOL    HW2 2645   6.573   5.731   3.306
34207SOL     OW 2646   6.566   6.702   3.581
34207SOL    HW1 2647   6.467   6.708   3.591
34207SOL    HW2 2648   6.589   6.622   3.525
34208SOL     OW 2649   6.291   6.636   2.230
34208SOL    HW1 2650   6.277   6.643   2.329
34208SOL    HW2 2651   6.375   6.585   2.212
34209SOL     OW 2652   5.996   6.399   3.113
34209SOL    HW1 2653   6.082   6.411   3.163
34209SOL    HW2 2654   5.954   6.312   3.140
34210SOL     OW 2655   6.860   5.972   3.124
34210SOL    HW1 2656   6.881   6.046   3.188
34210SOL    HW2 2657   6.771   5.989   3.081
34211SOL     OW 2658   5.650   7.150   3.193
34211SOL    HW1 2659   5.604   7.232   3.159
34211SOL    HW2 2660   5.748   7.169   3.202
34212SOL     OW 2661   5.953   6.686   2.363
34212SOL    HW1 2662   5.946   6.769   2.307
34212SOL    HW2 2663   5.957   6.606   2.303
34213SOL     OW 2664   6.152   6.123   2.727
34213SOL    HW1 2665   6.164   6.189   2.653
34213SOL    HW2 2666   6.198   6.157   2.810
34214SOL     OW 2667   6.838   6.934   2.250
34214SOL    HW1 2668   6.888   7.011   2.290
34214SOL    HW2 2669   6.743   6.936   2.282
34215SOL     OW 2670   6.858   7.031   3.004
34215SOL    HW1 2671   6.905   7.044   3.091
34215SOL    HW2 2672   6.792   6.957   3.013
34216SOL     OW 2673   7.168   6.225   2.334
34216SOL    HW1 2674   7.137   6.286   2.407
34216SOL    HW2 2675   7.218   6.277   2.265
34217SOL     OW 2676   5.940   7.096   3.191
34217SOL    HW1 2677   5.919   7.052   3.104
34217SOL    HW2 2678   6.037   7.122   3.194
34218SOL     OW 2679   5.988   6.337   3.460
34218SOL    HW1 2680   6.056   6.392   3.413
34218SOL    HW2 2681   6.028   6.249   3.487
34219SOL     OW 2682   7.173   6.365   3.532
34219SOL    HW1 2683   7.081   6.403   3.527
34219SOL    HW2 2684   7.233   6.412   3.467
34220SOL     OW 2685   6.599   5.691   3.632
34220SOL    HW1 2686   6.605   5.776   3.580
34220SOL    HW2 2687   6.631   5.615   3.575
34221SOL     OW 2688   6.090   5.636   3.602
34221SOL    HW1 2689   6.048   5.579   3.532
34221SOL    HW2 2690   6.024   5.705   3.634
34222SOL     OW 2691   6.159   6.456   2.891
34222SOL    HW1 2692   6.203   6.545   2.882
34222SOL    HW2 2693   6.096   6.456   2.968
34223SOL     OW 2694   6.946   6.448   2.907
34223SOL    HW1 2695   6.871   6.448   2.841
34223SOL    HW2 2696   6.983   6.356   2.916
34224SOL     OW 2697   6.795   6.111   2.137
34224SOL    HW1 2698   6.808   6.027   2.191
34224SOL    HW2 2699   6.766   6.185   2.197
34225SOL     OW 2700   5.893   5.799   3.093
34225SOL    HW1 2701   5.870   5.836   3.183
34225SOL    HW2 2702   5.863   5.704   3.087
34226SOL     OW 2703   5.623   6.896   3.144
34226SOL    HW1 2704   5.676   6.847   3.212
34226SOL    HW2 2705   5.645   6.994   3.149
34227SOL     OW 2706   6.318   6.220   2.926
34227SOL    HW1 2707   6.377   6.194   2.850
34227SOL    HW2 2708   6.290   6.316   2.915
34228SOL     OW 2709   7.314   6.521   3.716
34228SOL    HW1 2710   7.268   6.514   3.627
34228SOL    HW2 2711   7.252   6.565   3.782
34229SOL     OW 2712   5.893   5.649   2.480
34229SOL    HW1 2713   5.882   5.743   2.513
34229SOL    HW2 2714   5.888   5.586   2.557
34230SOL     OW 2715   7.208   5.953   2.236
34230SOL    HW1 2716   7.210   5.877   2.300
34230SOL    HW2 2717   7.160   6.030   2.276
34231SOL     OW 2718   6.609   6.352   2.828
34231SOL    HW1 2719   6.624   6.373   2.924
34231SOL    HW2 2720   6.579   6.257   2.819
34232SOL     OW 2721   6.566   7.159   3.562
34232SOL    HW1 2722   6.546   7.203   3.474
34232SOL    HW2 2723   6.605   7.068   3.546
34233SOL     OW 2724   7.445   7.104   3.467
34233SOL    HW1 2725   7.459   7.131   3.372
34233SOL    HW2 2726   7.528   7.126   3.520
34234SOL     OW 2727   5.936   6.484   3.666
34234SOL    HW1 2728   6.012   6.528   3.714
34234SOL    HW2 2729   5.971   6.437   3.584
34235SOL     OW 2730   7.126   5.860   1.987
34235SOL    HW1 2731   7.065   5.785   2.010
34235SOL    HW2 2732   7.148   5.912   2.070
34236SOL     OW 2733   6.889   6.424   1.904
34236SOL    HW1 2734   6.923   6.331   1.919
34236SOL    HW2 2735   6.907   6.451   1.809
34237SOL     OW 2736   6.654   6.919   2.711
34237SOL    HW1 2737   6.661   6.835   2.656
34237SOL    HW2 2738   6.716   6.988   2.675
34238SOL     OW 2739   5.905   6.396   2.811
34238SOL    HW1 2740   5.998   6.432   2.816
34238SOL    HW2 2741   5.899   6.311   2.863
34239SOL     OW 2742   5.925   6.095   2.868
34239SOL    HW1 2743   5.873   6.012   2.851
34239SOL    HW2 2744   6.002   6.100   2.804
34240SOL     OW 2745   6.724   5.966   3.540
34240SOL    HW1 2746   6.679   6.029   3.604
34240SOL    HW2 2747   6.817   5.997   3.523
34241SOL     OW 2748   6.746   5.793   3.339
34241SOL    HW1 2749   6.746   5.857   3.416
34241SOL    HW2 2750   6.774   5.841   3.256
34242SOL     OW 2751   5.594   6.912   2.062
34242SOL    HW1 2752   5.501   6.933   2.031
34242SOL    HW2 2753   5.604   6.813   2.075
34243SOL     OW 2754   5.674   7.387   2.789
34243SOL    HW1 2755   5.632   7.301   2.762
34243SOL    HW2 2756   5.768   7.390   2.755
34244SOL     OW 2757   6.090   7.154   2.772
34244SOL    HW1 2758   6.156   7.228   2.781
34244SOL    HW2 2759   6.134   7.075   2.730
34245SOL     OW 2760   6.588   6.382   3.100
34245SOL    HW1 2761   6.629   6.350   3.186
34245SOL    HW2 2762   6.492   6.355   3.097
34246SOL     OW 2763   5.626   6.130   2.976
34246SOL    HW1 2764   5.711   6.097   2.935
34246SOL    HW2 2765   5.639   6.145   3.074
34247SOL     OW 2766   5.775   6.106   3.584
34247SOL    HW1 2767   5.834   6.066   3.514
34247SOL    HW2 2768   5.717   6.177   3.543
34248SOL     OW 2769   6.955   6.536   3.522
34248SOL    HW1 2770   6.994   6.625   3.542
34248SOL    HW2 2771   6.965   6.516   3.425
34249SOL     OW 2772   6.401   6.158   2.187
34249SOL    HW1 2773   6.408   6.069   2.141
34249SOL    HW2 2774   6.307   6.192   2.179
34250SOL     OW 2775   7.243   6.190   3.068
34250SOL    HW1 2776   7.205   6.121   3.130
34250SOL    HW2 2777   7.325   6.154   3.024
34251SOL     OW 2778   5.838   7.150   3.606
34251SOL    HW1 2779   5.808   7.207   3.682
34251SOL    HW2 2780   5.831   7.053   3.632
34252SOL     OW 2781   6.257   6.050   3.131
34252SOL    HW1 2782   6.223   5.961   3.101
34252SOL    HW2 2783   6.283   6.104   3.051
34253SOL     OW 2784   6.516   7.264   3.327
34253SOL    HW1 2785   6.492   7.246   3.232
34253SOL    HW2 2786   6.546   7.358   3.337
34254SOL     OW 2787   5.745   6.723   3.328
34254SOL    HW1 2788   5.767   6.662   3.404
34254SOL    HW2 2789   5.755   6.674   3.242
34255SOL     OW 2790   6.933   6.645   3.096
34255SOL    HW1 2791   6.957   6.582   3.022
34255SOL    HW2 2792   6.843   6.685   3.078
34256SOL     OW 2793   6.888   6.441   2.171
34256SOL    HW1 2794   6.802   6.410   2.213
34256SOL    HW2 2795   6.884   6.427   2.072
34257SOL     OW 2796   7.345   7.333   3.016
34257SOL    HW1 2797   7.406   7.363   2.943
34257SOL    HW2 2798   7.307   7.244   2.994
34258SOL     OW 2799   6.838   7.317   2.990
34258SOL    HW1 2800   6.922   7.322   2.936
34258SOL    HW2 2801   6.815   7.221   3.008
34259SOL     OW 2802   5.669   6.844   2.884
34259SOL    HW1 2803   5.664   6.843   2.984
34259SOL    HW2 2804   5.586   6.803   2.846
34260SOL     OW 2805   6.274   7.248   3.578
34260SOL    HW1 2806   6.218   7.329   3.587
34260SOL    HW2 2807   6.326   7.252   3.492
34261SOL     OW 2808   7.312   5.721   2.385
34261SOL    HW1 2809   7.385   5.704   2.318
34261SOL    HW2 2810   7.281   5.634   2.423
34262SOL     OW 2811   6.974   7.159   2.339
34262SOL    HW1 2812   7.041   7.171   2.265
34262SOL    HW2 2813   6.934   7.248   2.362
34263SOL     OW 2814   5.716   7.380   3.713
34263SOL    HW1 2815   5.675   7.306   3.766
34263SOL    HW2 2816   5.780   7.431   3.771
34264SOL     OW 2817   6.866   6.513   2.534
34264SOL    HW1 2818   6.926   6.432   2.536
34264SOL    HW2 2819   6.906   6.582   2.474
34265SOL     OW 2820   6.416   6.859   3.284
34265SOL    HW1 2821   6.411   6.892   3.379
34265SOL    HW2 2822   6.330   6.878   3.238
34266SOL     OW 2823   6.258   7.202   2.016
34266SOL    HW1 2824   6.267   7.212   1.917
34266SOL    HW2 2825   6.218   7.113   2.037
34267SOL     OW 2826   7.236   7.306   3.256
34267SOL    HW1 2827   7.289   7.316   3.172
34267SOL    HW2 2828   7.209   7.396   3.290
34268SOL     OW 2829   7.427   5.761   2.825
34268SOL    HW1 2830   7.466   5.676   2.789
34268SOL    HW2 2831   7.329   5.763   2.806
34269SOL     OW 2832   5.849   5.912   2.582
34269SOL    HW1 2833   5.770   5.963   2.548
34269SOL    HW2 2834   5.840   5.897   2.680
34270SOL     OW 2835   6.780   7.198   1.893
34270SOL    HW1 2836   6.786   7.105   1.930
34270SOL    HW2 2837   6.721   7.198   1.813
34271SOL     OW 2838   6.408   6.588   3.234
34271SOL    HW1 2839   6.448   6.587   3.142
34271SOL    HW2 2840   6.418   6.680   3.274
34272SOL     OW 2841   6.502   6.496   2.153
34272SOL    HW1 2842   6.565   6.534   2.085
34272SOL    HW2 2843   6.542   6.413   2.192
34273SOL     OW 2844   7.090   7.193   1.906
34273SOL    HW1 2845   6.998   7.230   1.913
34273SOL    HW2 2846   7.128   7.213   1.816
34274SOL     OW 2847   5.958   6.874   3.352
34274SOL    HW1 2848   5.945   6.967   3.318
34274SOL    HW2 2849   5.874   6.822   3.339
34275SOL     OW 2850   7.200   6.878   3.151
34275SOL    HW1 2851   7.260   6.881   3.231
34275SOL    HW2 2852   7.125   6.942   3.164
34276SOL     OW 2853   6.625   6.684   2.558
34276SOL    HW1 2854   6.555   6.637   2.612
34276SOL    HW2 2855   6.684   6.616   2.515
34277SOL     OW 2856   6.600   5.822   2.833
34277SOL    HW1 2857   6.592   5.786   2.740
34277SOL    HW2 2858   6.598   5.746   2.898
34278SOL     OW 2859   6.176   7.073   2.353
34278SOL    HW1 2860   6.218   7.015   2.283
34278SOL    HW2 2861   6.132   7.152   2.309
34279SOL     OW 2862   7.295   5.971   3.243
34279SOL    HW1 2863   7.368   6.040   3.247
34279SOL    HW2 2864   7.323   5.896   3.184
34280SOL     OW 2865   5.841   6.934   2.152
34280SOL    HW1 2866   5.745   6.935   2.125
34280SOL    HW2 2867   5.853   6.987   2.236
34281SOL     OW 2868   5.691   6.599   3.588
34281SOL    HW1 2869   5.614   6.566   3.642
34281SOL    HW2 2870   5.776   6.569   3.630
34282SOL     OW 2871   6.258   5.789   3.351
34282SOL    HW1 2872   6.348   5.773   3.311
34282SOL    HW2 2873   6.266   5.794   3.450
34283SOL     OW 2874   5.661   5.931   1.895
34283SOL    HW1 2875   5.569   5.903   1.866
34283SOL    HW2 2876   5.692   6.008   1.839
34284SOL     OW 2877   7.026   6.442   3.260
34284SOL    HW1 2878   6.969   6.494   3.197
34284SOL    HW2 2879   7.122   6.454   3.236
34285SOL     OW 2880   5.658   5.752   2.180
34285SOL    HW1 2881   5.641   5.835   2.126
34285SOL    HW2 2882   5.748   5.715   2.158
34286SOL     OW 2883   6.769   6.921   1.981
34286SOL    HW1 2884   6.670   6.910   1.983
34286SOL    HW2 2885   6.803   6.936   2.074
34287SOL     OW 2886   6.199   6.428   3.293
34287SOL    HW1 2887   6.255   6.509   3.276
34287SOL    HW2 2888   6.258   6.348   3.296
34288SOL     OW 2889   7.079   7.353   2.821
34288SOL    HW1 2890   7.112   7.417   2.752
34288SOL    HW2 2891   7.145   7.347   2.896
34289SOL     OW 2892   6.302   6.151   3.570
34289SOL    HW1 2893   6.321   6.216   3.644
34289SOL    HW2 2894   6.362   6.071   3.579
34290SOL     OW 2895   7.036   6.806   3.495
34290SOL    HW1 2896   7.027   6.796   3.594
34290SOL    HW2 2897   7.132   6.799   3.469
34291SOL     OW 2898   5.976   7.327   3.422
34291SOL    HW1 2899   5.885   7.368   3.420
34291SOL    HW2 2900   5.969   7.233   3.454
34292SOL     OW 2901   7.260   6.469   3.116
34292SOL    HW1 2902   7.233   6.380   3.079
34292SOL    HW2 2903   7.261   6.537   3.043
34293SOL     OW 2904   6.811   5.911   2.311
34293SOL    HW1 2905   6.876   5.837   2.300
34293SOL    HW2 2906   6.831   5.961   2.395
34294SOL     OW 2907   6.180   6.331   2.514
34294SOL    HW1 2908   6.230   6.416   2.495
34294SOL    HW2 2909   6.092   6.333   2.466
34295SOL     OW 2910   7.363   5.928   3.504
34295SOL    HW1 2911   7.346   5.959   3.410
34295SOL    HW2 2912   7.279   5.891   3.542
34296SOL     OW 2913   7.316   6.520   3.379
34296SOL    HW1 2914   7.354   6.611   3.394
34296SOL    HW2 2915   7.308   6.503   3.280
34297SOL     OW 2916   6.445   6.960   1.878
34297SOL    HW1 2917   6.399   6.975   1.966
34297SOL    HW2 2918   6.489   7.045   1.848
34298SOL     OW 2919   6.247   7.376   2.815
34298SOL    HW1 2920   6.201   7.464   2.802
34298SOL    HW2 2921   6.346   7.388   2.808
34299SOL     OW 2922   6.445   6.542   2.723
34299SOL    HW1 2923   6.499   6.473   2.771
34299SOL    HW2 2924   6.413   6.611   2.789
34300SOL     OW 2925   6.669   6.570   1.949
34300SOL    HW1 2926   6.646   6.623   1.867
34300SOL    HW2 2927   6.750   6.514   1.930
34301SOL     OW 2928   7.447   7.155   2.713
34301SOL    HW1 2929   7.376   7.143   2.643
34301SOL    HW2 2930   7.448   7.076   2.773
34302SOL     OW 2931   5.807   6.900   3.706
34302SOL    HW1 2932   5.742   6.827   3.685
34302SOL    HW2 2933   5.811   6.914   3.804
34303SOL     OW 2934   5.665   6.826   2.515
34303SOL    HW1 2935   5.664   6.779   2.603
34303SOL    HW2 2936   5.747   6.798   2.464
34304SOL     OW 2937   6.258   6.977   3.486
34304SOL    HW1 2938   6.180   6.927   3.524
34304SOL    HW2 2939   6.255   7.072   3.517
34305SOL     OW 2940   7.410   5.778   3.089
34305SOL    HW1 2941   7.406   5.688   3.133
34305SOL    HW2 2942   7.413   5.767   2.990
34306SOL     OW 2943   6.014   6.010   2.382
34306SOL    HW1 2944   6.044   5.938   2.320
34306SOL    HW2 2945   5.975   5.970   2.465
34307SOL     OW 2946   7.291   7.073   2.966
34307SOL    HW1 2947   7.198   7.048   2.939
34307SOL    HW2 2948   7.317   7.023   3.048
34308SOL     OW 2949   5.903   6.133   3.142
34308SOL    HW1 2950   5.941   6.074   3.214
34308SOL    HW2 2951   5.943   6.107   3.054
34309SOL     OW 2952   6.398   7.172   2.549
34309SOL    HW1 2953   6.430   7.182   2.455
34309SOL    HW2 2954   6.319   7.110   2.551
34310SOL     OW 2955   7.010   5.800   2.974
34310SOL    HW1 2956   7.062   5.735   3.029
34310SOL    HW2 2957   6.961   5.863   3.035
34311SOL     OW 2958   6.587   5.620   3.016
34311SOL    HW1 2959   6.524   5.548   2.985
34311SOL    HW2 2960   6.680   5.584   3.016
34312SOL     OW 2961   6.356   6.916   2.163
34312SOL    HW1 2962   6.310   6.829   2.180
34312SOL    HW2 2963   6.447   6.913   2.204
34313SOL     OW 2964   6.204   7.153   3.146
34313SOL    HW1 2965   6.199   7.235   3.203
34313SOL    HW2 2966   6.293   7.150   3.101
34314SOL     OW 2967   6.938   5.638   2.030
34314SOL    HW1 2968   6.973   5.597   1.946
34314SOL    HW2 2969   6.848   5.600   2.050
34315SOL     OW 2970   6.886   6.039   2.553
34315SOL    HW1 2971   6.827   6.119   2.557
34315SOL    HW2 2972   6.901   6.004   2.646
34316SOL     OW 2973   7.179   5.807   2.744
34316SOL    HW1 2974   7.095   5.806   2.798
34316SOL    HW2 2975   7.181   5.890   2.688
34317SOL     OW 2976   5.625   6.663   2.162
34317SOL    HW1 2977   5.724   6.652   2.153
34317SOL    HW2 2978   5.585   6.577   2.194
34318SOL     OW 2979   6.461   7.232   2.199
34318SOL    HW1 2980   6.384   7.197   2.145
34318SOL    HW2 2981   6.429   7.303   2.261
34319SOL     OW 2982   5.816   6.214   3.837
34319SOL    HW1 2983   5.723   6.212   3.874
34319SOL    HW2 2984   5.817   6.175   3.745
34320SOL     OW 2985   5.811   5.861   4.720
34320SOL    HW1 2986   5.846   5.844   4.812
34320SOL    HW2 2987   5.723   5.816   4.708
34321SOL     OW 2988   5.605   5.954   4.371
34321SOL    HW1 2989   5.523   5.997   4.410
34321SOL    HW2 2990   5.577   5.881   4.308
34322SOL     OW 2991   6.155   6.861   4.889
34322SOL    HW1 2992   6.062   6.854   4.852
34322SOL    HW2 2993   6.166   6.950   4.933
34323SOL     OW 2994   7.141   7.097   4.427
34323SOL    HW1 2995   7.084   7.081   4.508
34323SOL    HW2 2996   7.082   7.107   4.347
34324SOL     OW 2997   6.721   6.289   4.441
34324SOL    HW1 2998   6.778   6.367   4.416
34324SOL    HW2 2999   6.661   6.315   4.517
34325SOL     OW 3000   7.341   6.193   3.955
34325SOL    HW1 3001   7.329   6.180   3.856
34325SOL    HW2 3002   7.311   6.112   4.004
34326SOL     OW 3003   6.354   6.730   4.747
34326SOL    HW1 3004   6.276   6.747   4.807
34326SOL    HW2 3005   6.388   6.817   4.711
34327SOL     OW 3006   6.436   6.384   5.547
34327SOL    HW1 3007   6.432   6.460   5.612
34327SOL    HW2 3008   6.458   6.420   5.456
34328SOL     OW 3009   6.271   6.598   4.389
34328SOL    HW1 3010   6.340   6.582   4.459
34328SOL    HW2 3011   6.198   6.655   4.427
34329SOL     OW 3012   6.272   6.747   5.527
34329SOL    HW1 3013   6.332   6.826   5.541
34329SOL    HW2 3014   6.186   6.778   5.486
34330SOL     OW 3015   5.921   7.021   4.785
34330SOL    HW1 3016   5.843   6.990   4.732
34330SOL    HW2 3017   5.979   7.079   4.728
34331SOL     OW 3018   7.046   7.091   5.063
34331SOL    HW1 3019   7.070   7.185   5.089
34331SOL    HW2 3020   7.030   7.037   5.145
34332SOL     OW 3021   6.024   5.978   5.223
34332SOL    HW1 3022   6.106   5.922   5.232
34332SOL    HW2 3023   5.943   5.920   5.227
34333SOL     OW 3024   7.189   6.033   4.461
34333SOL    HW1 3025   7.115   6.079   4.411
34333SOL    HW2 3026   7.240   6.101   4.514
34334SOL     OW 3027   5.817   7.299   4.207
34334SOL    HW1 3028   5.851   7.376   4.261
34334SOL    HW2 3029   5.861   7.299   4.117
34335SOL     OW 3030   6.713   6.927   5.414
34335SOL    HW1 3031   6.760   6.927   5.502
34335SOL    HW2 3032   6.665   6.840   5.403
34336SOL     OW 3033   5.816   7.020   4.262
34336SOL    HW1 3034   5.790   7.116   4.262
34336SOL    HW2 3035   5.745   6.966   4.307
34337SOL     OW 3036   5.826   6.677   4.610
34337SOL    HW1 3037   5.840   6.593   4.662
34337SOL    HW2 3038   5.771   6.741   4.665
34338SOL     OW 3039   6.206   7.372   5.163
34338SOL    HW1 3040   6.114   7.355   5.198
34338SOL    HW2 3041   6.234   7.464   5.189
34339SOL     OW 3042   6.192   6.550   3.847
34339SOL    HW1 3043   6.199   6.634   3.793
34339SOL    HW2 3044   6.238   6.563   3.935
34340SOL     OW 3045   7.180   5.700   5.204
34340SOL    HW1 3046   7.162   5.767   5.132
34340SOL    HW2 3047   7.177   5.746   5.293
34341SOL     OW 3048   5.708   6.229   4.287
34341SOL    HW1 3049   5.663   6.141   4.304
34341SOL    HW2 3050   5.707   6.283   4.371
34342SOL     OW 3051   7.428   7.353   4.083
34342SOL    HW1 3052   7.482   7.324   4.163
34342SOL    HW2 3053   7.458   7.443   4.054
34343SOL     OW 3054   5.613   7.182   3.841
34343SOL    HW1 3055   5.594   7.086   3.862
34343SOL    HW2 3056   5.580   7.240   3.916
34344SOL     OW 3057   7.275   6.508   4.336
34344SOL    HW1 3058   7.370   6.479   4.344
34344SOL    HW2 3059   7.267   6.573   4.261
34345SOL     OW 3060   7.227   6.694   4.156
34345SOL    HW1 3061   7.313   6.696   4.104
34345SOL    HW2 3062   7.241   6.741   4.244
34346SOL     OW 3063   5.699   6.323   5.321
34346SOL    HW1 3064   5.787   6.310   5.366
34346SOL    HW2 3065   5.686   6.420   5.299
34347SOL     OW 3066   6.199   6.951   4.450
34347SOL    HW1 3067   6.150   6.864   4.459
34347SOL    HW2 3068   6.176   6.994   4.363
34348SOL     OW 3069   6.879   6.814   5.147
34348SOL    HW1 3070   6.916   6.741   5.089
34348SOL    HW2 3071   6.931   6.819   5.232
34349SOL     OW 3072   6.395   5.590   4.226
34349SOL    HW1 3073   6.435   5.681   4.217
34349SOL    HW2 3074   6.295   5.598   4.232
34350SOL     OW 3075   5.783   6.562   4.988
34350SOL    HW1 3076   5.872   6.517   4.974
34350SOL    HW2 3077   5.710   6.497   4.969
34351SOL     OW 3078   7.111   6.585   3.914
34351SOL    HW1 3079   7.048   6.509   3.927
34351SOL    HW2 3080   7.159   6.603   4.000
34352SOL     OW 3081   6.773   7.378   5.340
34352SOL    HW1 3082   6.797   7.438   5.264
34352SOL    HW2 3083   6.780   7.283   5.310
34353SOL     OW 3084   5.903   5.837   5.525
34353SOL    HW1 3085   5.974   5.908   5.531
34353SOL    HW2 3086   5.815   5.876   5.553
34354SOL     OW 3087   7.052   7.003   4.677
34354SOL    HW1 3088   6.993   7.009   4.757
34354SOL    HW2 3089   7.037   6.915   4.631
34355SOL     OW 3090   7.253   7.300   4.296
34355SOL    HW1 3091   7.212   7.277   4.208
34355SOL    HW2 3092   7.235   7.226   4.361
34356SOL     OW 3093   6.184   6.315   3.994
34356SOL    HW1 3094   6.208   6.384   3.926
34356SOL    HW2 3095   6.106   6.348   4.048
34357SOL     OW 3096   6.867   5.931   4.668
34357SOL    HW1 3097   6.781   5.881   4.655
34357SOL    HW2 3098   6.929   5.877   4.724
34358SOL     OW 3099   7.162   7.248   4.031
34358SOL    HW1 3100   7.251   7.294   4.034
34358SOL    HW2 3101   7.141   7.224   3.936
34359SOL     OW 3102   6.393   6.191   5.189
34359SOL    HW1 3103   6.346   6.188   5.278
34359SOL    HW2 3104   6.342   6.136   5.123
34360SOL     OW 3105   6.980   6.055   5.398
34360SOL    HW1 3106   6.960   6.098   5.486
34360SOL    HW2 3107   7.058   5.993   5.407
34361SOL     OW 3108   6.559   6.476   5.296
34361SOL    HW1 3109   6.605   6.392   5.267
34361SOL    HW2 3110   6.503   6.510   5.221
34362SOL     OW 3111   6.577   5.996   4.966
34362SOL    HW1 3112   6.500   6.030   5.020
34362SOL    HW2 3113   6.543   5.945   4.887
34363SOL     OW 3114   6.627   6.287   4.153
34363SOL    HW1 3115   6.653   6.283   4.249
34363SOL    HW2 3116   6.542   6.236   4.139
34364SOL     OW 3117   5.662   6.397   4.513
34364SOL    HW1 3118   5.761   6.385   4.522
34364SOL    HW2 3119   5.638   6.492   4.534
34365SOL     OW 3120   5.716   7.407   5.295
34365SOL    HW1 3121   5.706   7.392   5.394
34365SOL    HW2 3122   5.630   7.443   5.259
34366SOL     OW 3123   6.451   5.934   3.919
34366SOL    HW1 3124   6.510   5.997   3.870
34366SOL    HW2 3125   6.470   5.840   3.890
34367SOL     OW 3126   7.305   6.171   5.555
34367SOL    HW1 3127   7.279   6.260   5.519
34367SOL    HW2 3128   7.303   6.103   5.482
34368SOL     OW 3129   6.948   6.730   4.269
34368SOL    HW1 3130   7.031   6.701   4.221
34368SOL    HW2 3131   6.899   6.797   4.213
34369SOL     OW 3132   6.136   5.782   4.609
34369SOL    HW1 3133   6.131   5.777   4.709
34369SOL    HW2 3134   6.138   5.878   4.580
34370SOL     OW 3135   6.594   7.042   4.201
34370SOL    HW1 3136   6.548   7.114   4.149
34370SOL    HW2 3137   6.590   7.062   4.299
34371SOL     OW 3138   5.937   7.387   4.577
34371SOL    HW1 3139   5.987   7.301   4.583
34371SOL    HW2 3140   6.002   7.464   4.574
34372SOL     OW 3141   7.381   6.652   4.597
34372SOL    HW1 3142   7.319   6.637   4.521
34372SOL    HW2 3143   7.329   6.663   4.682
34373SOL     OW 3144   6.813   7.136   5.230
34373SOL    HW1 3145   6.819   7.059   5.294
34373SOL    HW2 3146   6.761   7.110   5.150
34374SOL     OW 3147   5.907   6.529   3.966
34374SOL    HW1 3148   5.989   6.568   3.924
34374SOL    HW2 3149   5.880   6.447   3.917
34375SOL     OW 3150   7.044   6.321   4.452
34375SOL    HW1 3151   7.039   6.256   4.527
34375SOL    HW2 3152   7.124   6.380   4.465
34376SOL     OW 3153   6.047   6.852   5.451
34376SOL    HW1 3154   5.997   6.853   5.365
34376SOL    HW2 3155   5.984   6.834   5.527
34377SOL     OW 3156   6.697   7.362   3.961
34377SOL    HW1 3157   6.637   7.300   4.011
34377SOL    HW2 3158   6.728   7.318   3.876
34378SOL     OW 3159   5.788   5.871   5.222
34378SOL    HW1 3160   5.708   5.931   5.209
34378SOL    HW2 3161   5.778   5.822   5.308
34379SOL     OW 3162   7.218   6.963   3.805
34379SOL    HW1 3163   7.186   7.057   3.795
34379SOL    HW2 3164   7.142   6.900   3.793
34380SOL     OW 3165   6.050   7.329   4.047
34380SOL    HW1 3166   6.083   7.368   4.133
34380SOL    HW2 3167   6.126   7.322   3.982
34381SOL     OW 3168   6.986   5.693   4.150
34381SOL    HW1 3169   6.962   5.656   4.060
34381SOL    HW2 3170   7.085   5.709   4.154
34382SOL     OW 3171   5.835   7.371   4.965
34382SOL    HW1 3172   5.892   7.306   5.015
34382SOL    HW2 3173   5.819   7.338   4.872
34383SOL     OW 3174   6.526   7.284   4.628
34383SOL    HW1 3175   6.606   7.227   4.649
34383SOL    HW2 3176   6.477   7.244   4.551
34384SOL     OW 3177   5.968   6.286   4.204
34384SOL    HW1 3178   6.013   6.196   4.201
34384SOL    HW2 3179   5.874   6.275   4.237
34385SOL     OW 3180   7.133   5.808   5.453
34385SOL    HW1 3181   7.128   5.845   5.545
34385SOL    HW2 3182   7.061   5.739   5.441
34386SOL     OW 3183   6.200   5.708   3.841
34386SOL    HW1 3184   6.298   5.686   3.848
34386SOL    HW2 3185   6.169   5.691   3.748
34387SOL     OW 3186   6.367   5.850   5.473
34387SOL    HW1 3187   6.434   5.789   5.516
34387SOL    HW2 3188   6.294   5.869   5.538
34388SOL     OW 3189   6.474   7.100   4.919
34388SOL    HW1 3190   6.451   7.075   4.825
34388SOL    HW2 3191   6.535   7.031   4.958
34389SOL     OW 3192   6.937   6.176   5.157
34389SOL    HW1 3193   6.965   6.133   5.242
34389SOL    HW2 3194   6.962   6.272   5.158
34390SOL     OW 3195   6.389   6.988   4.648
34390SOL    HW1 3196   6.479   7.002   4.606
34390SOL    HW2 3197   6.318   6.990   4.577
34391SOL     OW 3198   6.508   6.089   4.623
34391SOL    HW1 3199   6.483   6.080   4.527
34391SOL    HW2 3200   6.556   6.007   4.654
34392SOL     OW 3201   6.125   5.650   4.236
34392SOL    HW1 3202   6.044   5.651   4.294
34392SOL    HW2 3203   6.128   5.733   4.181
34393SOL     OW 3204   7.020   6.774   3.765
34393SOL    HW1 3205   7.052   6.698   3.822
34393SOL    HW2 3206   6.928   6.801   3.795
34394SOL     OW 3207   5.883   5.621   3.895
34394SOL    HW1 3208   5.932   5.705   3.874
34394SOL    HW2 3209   5.945   5.556   3.940
34395SOL     OW 3210   6.521   5.822   4.204
34395SOL    HW1 3211   6.473   5.863   4.126
34395SOL    HW2 3212   6.620   5.820   4.185
34396SOL     OW 3213   6.662   6.269   5.188
34396SOL    HW1 3214   6.582   6.208   5.191
34396SOL    HW2 3215   6.743   6.216   5.164
34397SOL     OW 3216   6.813   7.156   4.517
34397SOL    HW1 3217   6.834   7.230   4.452
34397SOL    HW2 3218   6.881   7.156   4.590
34398SOL     OW 3219   6.045   6.738   4.465
34398SOL    HW1 3220   5.974   6.711   4.530
34398SOL    HW2 3221   6.019   6.710   4.372
34399SOL     OW 3222   6.857   7.383   4.315
34399SOL    HW1 3223   6.901   7.447   4.251
34399SOL    HW2 3224   6.807   7.435   4.385
34400SOL     OW 3225   6.618   6.135   3.740
34400SOL    HW1 3226   6.577   6.217   3.701
34400SOL    HW2 3227   6.682   6.161   3.813
34401SOL     OW 3228   5.664   6.142   5.110
34401SOL    HW1 3229   5.756   6.141   5.069
34401SOL    HW2 3230   5.658   6.216   5.177
34402SOL     OW 3231   6.147   5.808   4.871
34402SOL    HW1 3232   6.185   5.724   4.908
34402SOL    HW2 3233   6.059   5.827   4.915
34403SOL     OW 3234   6.452   6.040   4.366
34403SOL    HW1 3235   6.420   6.112   4.304
34403SOL    HW2 3236   6.476   5.959   4.313
34404SOL     OW 3237   6.603   5.625   4.477
34404SOL    HW1 3238   6.531   5.630   4.408
34404SOL    HW2 3239   6.579   5.556   4.546
34405SOL     OW 3240   7.015   6.759   4.591
34405SOL    HW1 3241   6.960   6.675   4.584
34405SOL    HW2 3242   7.041   6.788   4.499
34406SOL     OW 3243   7.052   6.176   4.716
34406SOL    HW1 3244   7.022   6.081   4.723
34406SOL    HW2 3245   7.125   6.192   4.782
34407SOL     OW 3246   7.443   6.419   4.101
34407SOL    HW1 3247   7.485   6.355   4.165
34407SOL    HW2 3248   7.405   6.368   4.023
34408SOL     OW 3249   6.074   6.971   3.898
34408SOL    HW1 3250   5.987   6.956   3.945
34408SOL    HW2 3251   6.057   6.997   3.803
34409SOL     OW 3252   7.250   6.866   4.381
34409SOL    HW1 3253   7.349   6.874   4.395
34409SOL    HW2 3254   7.205   6.950   4.412
34410SOL     OW 3255   6.976   6.161   3.802
34410SOL    HW1 3256   6.922   6.140   3.883
34410SOL    HW2 3257   7.067   6.120   3.811
34411SOL     OW 3258   6.113   5.842   4.052
34411SOL    HW1 3259   6.140   5.783   3.977
34411SOL    HW2 3260   6.113   5.937   4.021
34412SOL     OW 3261   7.340   6.809   5.312
34412SOL    HW1 3262   7.431   6.770   5.299
34412SOL    HW2 3263   7.348   6.905   5.336
34413SOL     OW 3264   6.650   6.933   5.064
34413SOL    HW1 3265   6.570   6.910   5.119
34413SOL    HW2 3266   6.733   6.907   5.113
34414SOL     OW 3267   7.178   7.215   5.349
34414SOL    HW1 3268   7.205   7.249   5.259
34414SOL    HW2 3269   7.257   7.177   5.395
34415SOL     OW 3270   6.697   6.781   4.824
34415SOL    HW1 3271   6.657   6.825   4.905
34415SOL    HW2 3272   6.656   6.818   4.741
34416SOL     OW 3273   7.224   6.685   4.803
34416SOL    HW1 3274   7.229   6.766   4.862
34416SOL    HW2 3275   7.138   6.687   4.752
34417SOL     OW 3276   6.501   5.675   5.126
34417SOL    HW1 3277   6.526   5.655   5.031
34417SOL    HW2 3278   6.573   5.731   5.168
34418SOL     OW 3279   6.566   6.702   5.443
34418SOL    HW1 3280   6.467   6.708   5.453
34418SOL    HW2 3281   6.589   6.622   5.387
34419SOL     OW 3282   6.291   6.636   4.092
34419SOL    HW1 3283   6.277   6.643   4.191
34419SOL    HW2 3284   6.375   6.585   4.074
34420SOL     OW 3285   5.996   6.399   4.975
34420SOL    HW1 3286   6.082   6.411   5.025
34420SOL    HW2 3287   5.954   6.312   5.002
34421SOL     OW 3288   6.860   5.972   4.986
34421SOL    HW1 3289   6.881   6.046   5.050
34421SOL    HW2 3290   6.771   5.989   4.943
34422SOL     OW 3291   5.650   7.150   5.055
34422SOL    HW1 3292   5.604   7.232   5.021
34422SOL    HW2 3293   5.748   7.169   5.064
34423SOL     OW 3294   5.953   6.686   4.225
34423SOL    HW1 3295   5.946   6.769   4.169
34423SOL    HW2 3296   5.957   6.606   4.165
34424SOL     OW 3297   6.152   6.123   4.589
34424SOL    HW1 3298   6.164   6.189   4.515
34424SOL    HW2 3299   6.198   6.157   4.672
34425SOL     OW 3300   6.838   6.934   4.112
34425SOL    HW1 3301   6.888   7.011   4.152
34425SOL    HW2 3302   6.743   6.936   4.144
34426SOL     OW 3303   6.858   7.031   4.866
34426SOL    HW1 3304   6.905   7.044   4.953
34426SOL    HW2 3305   6.792   6.957   4.875
34427SOL     OW 3306   7.168   6.225   4.196
34427SOL    HW1 3307   7.137   6.286   4.269
34427SOL    HW2 3308   7.218   6.277   4.127
34428SOL     OW 3309   5.940   7.096   5.053
34428SOL    HW1 3310   5.919   7.052   4.966
34428SOL    HW2 3311   6.037   7.122   5.056
34429SOL     OW 3312   5.988   6.337   5.322
34429SOL    HW1 3313   6.056   6.392   5.275
34429SOL    HW2 3314   6.028   6.249   5.349
34430SOL     OW 3315   7.173   6.365   5.394
34430SOL    HW1 3316   7.081   6.403   5.389
34430SOL    HW2 3317   7.233   6.412   5.329
34431SOL     OW 3318   6.599   5.691   5.494
34431SOL    HW1 3319   6.605   5.776   5.442
34431SOL    HW2 3320   6.631   5.615   5.437
34432SOL     OW 3321   6.090   5.636   5.464
34432SOL    HW1 3322   6.048   5.579   5.394
34432SOL    HW2 3323   6.024   5.705   5.496
34433SOL     OW 3324   6.159   6.456   4.753
34433SOL    HW1 3325   6.203   6.545   4.744
34433SOL    HW2 3326   6.096   6.456   4.830
34434SOL     OW 3327   6.946   6.448   4.769
34434SOL    HW1 3328   6.871   6.448   4.703
34434SOL    HW2 3329   6.983   6.356   4.778
34435SOL     OW 3330   6.795   6.111   3.999
34435SOL    HW1 3331   6.808   6.027   4.053
34435SOL    HW2 3332   6.766   6.185   4.059
34436SOL     OW 3333   5.893   5.799   4.955
34436SOL    HW1 3334   5.870   5.836   5.045
34436SOL    HW2 3335   5.863   5.704   4.949
34437SOL     OW 3336   5.623   6.896   5.006
34437SOL    HW1 3337   5.676   6.847   5.074
34437SOL    HW2 3338   5.645   6.994   5.011
34438SOL     OW 3339   6.318   6.220   4.788
34438SOL    HW1 3340   6.377   6.194   4.712
34438SOL    HW2 3341   6.290   6.316   4.777
34439SOL     OW 3342   7.314   6.521   5.578
34439SOL    HW1 3343   7.268   6.514   5.489
34439SOL    HW2 3344   7.252   6.565   5.644
34440SOL     OW 3345   5.893   5.649   4.342
34440SOL    HW1 3346   5.882   5.743   4.375
34440SOL    HW2 3347   5.888   5.586   4.419
34441SOL     OW 3348   7.208   5.953   4.098
34441SOL    HW1 3349   7.210   5.877   4.162
34441SOL    HW2 3350   7.160   6.030   4.138
34442SOL     OW 3351   6.609   6.352   4.690
34442SOL    HW1 3352   6.624   6.373   4.786
34442SOL    HW2 3353   6.579   6.257   4.681
34443SOL     OW 3354   6.566   7.159   5.424
34443SOL    HW1 3355   6.546   7.203   5.336
34443SOL    HW2 3356   6.605   7.068   5.408
34444SOL     OW 3357   7.445   7.104   5.329
34444SOL    HW1 3358   7.459   7.131   5.234
34444SOL    HW2 3359   7.528   7.126   5.382
34445SOL     OW 3360   5.936   6.484   5.528
34445SOL    HW1 3361   6.012   6.528   5.576
34445SOL    HW2 3362   5.971   6.437   5.446
34446SOL     OW 3363   7.126   5.860   3.849
34446SOL    HW1 3364   7.065   5.785   3.872
34446SOL    HW2 3365   7.148   5.912   3.932
34447SOL     OW 3366   6.889   6.424   3.766
34447SOL    HW1 3367   6.923   6.331   3.781
34447SOL    HW2 3368   6.907   6.451   3.671
34448SOL     OW 3369   6.654   6.919   4.573
34448SOL    HW1 3370   6.661   6.835   4.518
34448SOL    HW2 3371   6.716   6.988   4.537
34449SOL     OW 3372   5.905   6.396   4.673
34449SOL    HW1 3373   5.998   6.432   4.678
34449SOL    HW2 3374   5.899   6.311   4.725
34450SOL     OW 3375   5.925   6.095   4.730
34450SOL    HW1 3376   5.873   6.012   4.713
34450SOL    HW2 3377   6.002   6.100   4.666
34451SOL     OW 3378   6.724   5.966   5.402
34451SOL    HW1 3379   6.679   6.029   5.466
34451SOL    HW2 3380   6.817   5.997   5.385
34452SOL     OW 3381   6.746   5.793   5.201
34452SOL    HW1 3382   6.746   5.857   5.278
34452SOL    HW2 3383   6.774   5.841   5.118
34453SOL     OW 3384   5.594   6.912   3.924
34453SOL    HW1 3385   5.501   6.933   3.893
34453SOL    HW2 3386   5.604   6.813   3.937
34454SOL     OW 3387   5.674   7.387   4.651
34454SOL    HW1 3388   5.632   7.301   4.624
34454SOL    HW2 3389   5.768   7.390   4.617
34455SOL     OW 3390   6.090   7.154   4.634
34455SOL    HW1 3391   6.156   7.228   4.643
34455SOL    HW2 3392   6.134   7.075   4.592
34456SOL     OW 3393   6.588   6.382   4.962
34456SOL    HW1 3394   6.629   6.350   5.048
34456SOL    HW2 3395   6.492   6.355   4.959
34457SOL     OW 3396   5.626   6.130   4.838
34457SOL    HW1 3397   5.711   6.097   4.797
34457SOL    HW2 3398   5.639   6.145   4.936
34458SOL     OW 3399   5.775   6.106   5.446
34458SOL    HW1 3400   5.834   6.066   5.376
34458SOL    HW2 3401   5.717   6.177   5.405
34459SOL     OW 3402   6.955   6.536   5.384
34459SOL    HW1 3403   6.994   6.625   5.404
34459SOL    HW2 3404   6.965   6.516   5.287
34460SOL     OW 3405   6.401   6.158   4.049
34460SOL    HW1 3406   6.408   6.069   4.003
34460SOL    HW2 3407   6.307   6.192   4.041
34461SOL     OW 3408   7.243   6.190   4.930
34461SOL    HW1 3409   7.205   6.121   4.992
34461SOL    HW2 3410   7.325   6.154   4.886
34462SOL     OW 3411   5.838   7.150   5.468
34462SOL    HW1 3412   5.808   7.207   5.544
34462SOL    HW2 3413   5.831   7.053   5.494
34463SOL     OW 3414   6.257   6.050   4.993
34463SOL    HW1 3415   6.223   5.961   4.963
34463SOL    HW2 3416   6.283   6.104   4.913
34464SOL     OW 3417   6.516   7.264   5.189
34464SOL    HW1 3418   6.492   7.246   5.094
34464SOL    HW2 3419   6.546   7.358   5.199
34465SOL     OW 3420   6.059   6.086   3.915
34465SOL    HW1 3421   6.120   6.166   3.919
34465SOL    HW2 3422   5.964   6.117   3.922
34466SOL     OW 3423   5.745   6.723   5.190
34466SOL    HW1 3424   5.767   6.662   5.266
34466SOL    HW2 3425   5.755   6.674   5.104
34467SOL     OW 3426   6.933   6.645   4.958
34467SOL    HW1 3427   6.957   6.582   4.884
34467SOL    HW2 3428   6.843   6.685   4.940
34468SOL     OW 3429   6.888   6.441   4.033
34468SOL    HW1 3430   6.802   6.410   4.075
34468SOL    HW2 3431   6.884   6.427   3.934
34469SOL     OW 3432   7.345   7.333   4.878
34469SOL    HW1 3433   7.406   7.363   4.805
34469SOL    HW2 3434   7.307   7.244   4.856
34470SOL     OW 3435   6.838   7.317   4.852
34470SOL    HW1 3436   6.922   7.322   4.798
34470SOL    HW2 3437   6.815   7.221   4.870
34471SOL     OW 3438   5.669   6.844   4.746
34471SOL    HW1 3439   5.664   6.843   4.846
34471SOL    HW2 3440   5.586   6.803   4.708
34472SOL     OW 3441   6.274   7.248   5.440
34472SOL    HW1 3442   6.218   7.329   5.449
34472SOL    HW2 3443   6.326   7.252   5.354
34473SOL     OW 3444   7.312   5.721   4.247
34473SOL    HW1 3445   7.385   5.704   4.180
34473SOL    HW2 3446   7.281   5.634   4.285
34474SOL     OW 3447   6.974   7.159   4.201
34474SOL    HW1 3448   7.041   7.171   4.127
34474SOL    HW2 3449   6.934   7.248   4.224
34475SOL     OW 3450   5.716   7.380   5.575
34475SOL    HW1 3451   5.675   7.306   5.628
34475SOL    HW2 3452   5.780   7.431   5.633
34476SOL     OW 3453   6.866   6.513   4.396
34476SOL    HW1 3454   6.926   6.432   4.398
34476SOL    HW2 3455   6.906   6.582   4.336
34477SOL     OW 3456   6.416   6.859   5.146
34477SOL    HW1 3457   6.411   6.892   5.241
34477SOL    HW2 3458   6.330   6.878   5.100
34478SOL     OW 3459   6.258   7.202   3.878
34478SOL    HW1 3460   6.267   7.212   3.779
34478SOL    HW2 3461   6.218   7.113   3.899
34479SOL     OW 3462   7.236   7.306   5.118
34479SOL    HW1 3463   7.289   7.316   5.034
34479SOL    HW2 3464   7.209   7.396   5.152
34480SOL     OW 3465   7.427   5.761   4.687
34480SOL    HW1 3466   7.466   5.676   4.651
34480SOL    HW2 3467   7.329   5.763   4.668
34481SOL     OW 3468   5.849   5.912   4.444
34481SOL    HW1 3469   5.770   5.963   4.410
34481SOL    HW2 3470   5.840   5.897   4.542
34482SOL     OW 3471   6.780   7.198   3.755
34482SOL    HW1 3472   6.786   7.105   3.792
34482SOL    HW2 3473   6.721   7.198   3.675
34483SOL     OW 3474   6.408   6.588   5.096
34483SOL    HW1 3475   6.448   6.587   5.004
34483SOL    HW2 3476   6.418   6.680   5.136
34484SOL     OW 3477   6.502   6.496   4.015
34484SOL    HW1 3478   6.565   6.534   3.947
34484SOL    HW2 3479   6.542   6.413   4.054
34485SOL     OW 3480   7.090   7.193   3.768
34485SOL    HW1 3481   6.998   7.230   3.775
34485SOL    HW2 3482   7.128   7.213   3.678
34486SOL     OW 3483   5.958   6.874   5.214
34486SOL    HW1 3484   5.945   6.967   5.180
34486SOL    HW2 3485   5.874   6.822   5.201
34487SOL     OW 3486   7.200   6.878   5.013
34487SOL    HW1 3487   7.260   6.881   5.093
34487SOL    HW2 3488   7.125   6.942   5.026
34488SOL     OW 3489   6.625   6.684   4.420
34488SOL    HW1 3490   6.555   6.637   4.474
34488SOL    HW2 3491   6.684   6.616   4.377
34489SOL     OW 3492   6.600   5.822   4.695
34489SOL    HW1 3493   6.592   5.786   4.602
34489SOL    HW2 3494   6.598   5.746   4.760
34490SOL     OW 3495   6.176   7.073   4.215
34490SOL    HW1 3496   6.218   7.015   4.145
34490SOL    HW2 3497   6.132   7.152   4.171
34491SOL     OW 3498   7.295   5.971   5.105
34491SOL    HW1 3499   7.368   6.040   5.109
34491SOL    HW2 3500   7.323   5.896   5.046
34492SOL     OW 3501   5.841   6.934   4.014
34492SOL    HW1 3502   5.745   6.935   3.987
34492SOL    HW2 3503   5.853   6.987   4.098
34493SOL     OW 3504   5.691   6.599   5.450
34493SOL    HW1 3505   5.614   6.566   5.504
34493SOL    HW2 3506   5.776   6.569   5.492
34494SOL     OW 3507   6.258   5.789   5.213
34494SOL    HW1 3508   6.348   5.773   5.173
34494SOL    HW2 3509   6.266   5.794   5.312
34495SOL     OW 3510   5.661   5.931   3.757
34495SOL    HW1 3511   5.569   5.903   3.728
34495SOL    HW2 3512   5.692   6.008   3.701
34496SOL     OW 3513   7.026   6.442   5.122
34496SOL    HW1 3514   6.969   6.494   5.059
34496SOL    HW2 3515   7.122   6.454   5.098
34497SOL     OW 3516   5.658   5.752   4.042
34497SOL    HW1 3517   5.641   5.835   3.988
34497SOL    HW2 3518   5.748   5.715   4.020
34498SOL     OW 3519   6.769   6.921   3.843
34498SOL    HW1 3520   6.670   6.910   3.845
34498SOL    HW2 3521   6.803   6.936   3.936
34499SOL     OW 3522   6.199   6.428   5.155
34499SOL    HW1 3523   6.255   6.509   5.138
34499SOL    HW2 3524   6.258   6.348   5.158
34500SOL     OW 3525   7.079   7.353   4.683
34500SOL    HW1 3526   7.112   7.417   4.614
34500SOL    HW2 3527   7.145   7.347   4.758
34501SOL     OW 3528   6.302   6.151   5.432
34501SOL    HW1 3529   6.321   6.216   5.506
34501SOL    HW2 3530   6.362   6.071   5.441
34502SOL     OW 3531   7.036   6.806   5.357
34502SOL    HW1 3532   7.027   6.796   5.456
34502SOL    HW2 3533   7.132   6.799   5.331
34503SOL     OW 3534   5.976   7.327   5.284
34503SOL    HW1 3535   5.885   7.368   5.282
34503SOL    HW2 3536   5.969   7.233   5.316
34504SOL     OW 3537   7.260   6.469   4.978
34504SOL    HW1 3538   7.233   6.380   4.941
34504SOL    HW2 3539   7.261   6.537   4.905
34505SOL     OW 3540   6.811   5.911   4.173
34505SOL    HW1 3541   6.876   5.837   4.162
34505SOL    HW2 3542   6.831   5.961   4.257
34506SOL     OW 3543   6.180   6.331   4.376
34506SOL    HW1 3544   6.230   6.416   4.357
34506SOL    HW2 3545   6.092   6.333   4.328
34507SOL     OW 3546   7.363   5.928   5.366
34507SOL    HW1 3547   7.346   5.959   5.272
34507SOL    HW2 3548   7.279   5.891   5.404
34508SOL     OW 3549   7.316   6.520   5.241
34508SOL    HW1 3550   7.354   6.611   5.256
34508SOL    HW2 3551   7.308   6.503   5.142
34509SOL     OW 3552   6.445   6.960   3.740
34509SOL    HW1 3553   6.399   6.975   3.828
34509SOL    HW2 3554   6.489   7.045   3.710
34510SOL     OW 3555   6.247   7.376   4.677
34510SOL    HW1 3556   6.201   7.464   4.664
34510SOL    HW2 3557   6.346   7.388   4.670
34511SOL     OW 3558   6.445   6.542   4.585
34511SOL    HW1 3559   6.499   6.473   4.633
34511SOL    HW2 3560   6.413   6.611   4.651
34512SOL     OW 3561   6.669   6.570   3.811
34512SOL    HW1 3562   6.646   6.623   3.729
34512SOL    HW2 3563   6.750   6.514   3.792
34513SOL     OW 3564   7.447   7.155   4.575
34513SOL    HW1 3565   7.376   7.143   4.505
34513SOL    HW2 3566   7.448   7.076   4.635
34514SOL     OW 3567   5.807   6.900   5.568
34514SOL    HW1 3568   5.742   6.827   5.547
34514SOL    HW2 3569   5.811   6.914   5.666
34515SOL     OW 3570   5.665   6.826   4.377
34515SOL    HW1 3571   5.664   6.779   4.465
34515SOL    HW2 3572   5.747   6.798   4.326
34516SOL     OW 3573   6.258   6.977   5.348
34516SOL    HW1 3574   6.180   6.927   5.386
34516SOL    HW2 3575   6.255   7.072   5.379
34517SOL     OW 3576   7.410   5.778   4.951
34517SOL    HW1 3577   7.406   5.688   4.995
34517SOL    HW2 3578   7.413   5.767   4.852
34518SOL     OW 3579   6.014   6.010   4.244
34518SOL    HW1 3580   6.044   5.938   4.182
34518SOL    HW2 3581   5.975   5.970   4.327
34519SOL     OW 3582   7.291   7.073   4.828
34519SOL    HW1 3583   7.198   7.048   4.801
34519SOL    HW2 3584   7.317   7.023   4.910
34520SOL     OW 3585   5.903   6.133   5.004
34520SOL    HW1 3586   5.941   6.074   5.076
34520SOL    HW2 3587   5.943   6.107   4.916
34521SOL     OW 3588   6.398   7.172   4.411
34521SOL    HW1 3589   6.430   7.182   4.317
34521SOL    HW2 3590   6.319   7.110   4.413
34522SOL     OW 3591   7.010   5.800   4.836
34522SOL    HW1 3592   7.062   5.735   4.891
34522SOL    HW2 3593   6.961   5.863   4.897
34523SOL     OW 3594   6.587   5.620   4.878
34523SOL    HW1 3595   6.524   5.548   4.847
34523SOL    HW2 3596   6.680   5.584   4.878
34524SOL     OW 3597   6.356   6.916   4.025
34524SOL    HW1 3598   6.310   6.829   4.042
34524SOL    HW2 3599   6.447   6.913   4.066
34525SOL     OW 3600   6.204   7.153   5.008
34525SOL    HW1 3601   6.199   7.235   5.065
34525SOL    HW2 3602   6.293   7.150   4.963
34526SOL     OW 3603   6.938   5.638   3.892
34526SOL    HW1 3604   6.973   5.597   3.808
34526SOL    HW2 3605   6.848   5.600   3.912
34527SOL     OW 3606   6.886   6.039   4.415
34527SOL    HW1 3607   6.827   6.119   4.419
34527SOL    HW2 3608   6.901   6.004   4.508
34528SOL     OW 3609   7.179   5.807   4.606
34528SOL    HW1 3610   7.095   5.806   4.660
34528SOL    HW2 3611   7.181   5.890   4.550
34529SOL     OW 3612   5.625   6.663   4.024
34529SOL    HW1 3613   5.724   6.652   4.015
34529SOL    HW2 3614   5.585   6.577   4.056
34530SOL     OW 3615   6.461   7.232   4.061
34530SOL    HW1 3616   6.384   7.197   4.007
34530SOL    HW2 3617   6.429   7.303   4.123
34531SOL     OW 3618   5.816   6.214   5.699
34531SOL    HW1 3619   5.723   6.212   5.736
34531SOL    HW2 3620   5.817   6.175   5.607
34532SOL     OW 3621   5.811   5.861   6.582
34532SOL    HW1 3622   5.846   5.844   6.674
34532SOL    HW2 3623   5.723   5.816   6.570
34533SOL     OW 3624   5.605   5.954   6.233
34533SOL    HW1 3625   5.523   5.997   6.272
34533SOL    HW2 3626   5.577   5.881   6.170
34534SOL     OW 3627   6.155   6.861   6.751
34534SOL    HW1 3628   6.062   6.854   6.714
34534SOL    HW2 3629   6.166   6.950   6.795
34535SOL     OW 3630   7.141   7.097   6.289
34535SOL    HW1 3631   7.084   7.081   6.370
34535SOL    HW2 3632   7.082   7.107   6.209
34536SOL     OW 3633   7.341   6.193   5.817
34536SOL    HW1 3634   7.329   6.180   5.718
34536SOL    HW2 3635   7.311   6.112   5.866
34537SOL     OW 3636   6.436   6.384   7.409
34537SOL    HW1 3637   6.432   6.460   7.474
34537SOL    HW2 3638   6.458   6.420   7.318
34538SOL     OW 3639   6.272   6.747   7.389
34538SOL    HW1 3640   6.332   6.826   7.403
34538SOL    HW2 3641   6.186   6.778   7.348
34539SOL     OW 3642   5.921   7.021   6.647
34539SOL    HW1 3643   5.843   6.990   6.594
34539SOL    HW2 3644   5.979   7.079   6.590
34540SOL     OW 3645   7.046   7.091   6.925
34540SOL    HW1 3646   7.070   7.185   6.951
34540SOL    HW2 3647   7.030   7.037   7.007
34541SOL     OW 3648   6.024   5.978   7.085
34541SOL    HW1 3649   6.106   5.922   7.094
34541SOL    HW2 3650   5.943   5.920   7.089
34542SOL     OW 3651   7.189   6.033   6.323
34542SOL    HW1 3652   7.115   6.079   6.273
34542SOL    HW2 3653   7.240   6.101   6.376
34543SOL     OW 3654   5.817   7.299   6.069
34543SOL    HW1 3655   5.851   7.376   6.123
34543SOL    HW2 3656   5.861   7.299   5.979
34544SOL     OW 3657   6.713   6.927   7.276
34544SOL    HW1 3658   6.760   6.927   7.364
34544SOL    HW2 3659   6.665   6.840   7.265
34545SOL     OW 3660   5.816   7.020   6.124
34545SOL    HW1 3661   5.790   7.116   6.124
34545SOL    HW2 3662   5.745   6.966   6.169
34546SOL     OW 3663   5.826   6.677   6.472
34546SOL    HW1 3664   5.840   6.593   6.524
34546SOL    HW2 3665   5.771   6.741   6.527
34547SOL     OW 3666   6.206   7.372   7.025
34547SOL    HW1 3667   6.114   7.355   7.060
34547SOL    HW2 3668   6.234   7.464   7.051
34548SOL     OW 3669   6.192   6.550   5.709
34548SOL    HW1 3670   6.199   6.634   5.655
34548SOL    HW2 3671   6.238   6.563   5.797
34549SOL     OW 3672   7.180   5.700   7.066
34549SOL    HW1 3673   7.162   5.767   6.994
34549SOL    HW2 3674   7.177   5.746   7.155
34550SOL     OW 3675   5.708   6.229   6.149
34550SOL    HW1 3676   5.663   6.141   6.166
34550SOL    HW2 3677   5.707   6.283   6.233
34551SOL     OW 3678   7.428   7.353   5.945
34551SOL    HW1 3679   7.482   7.324   6.025
34551SOL    HW2 3680   7.458   7.443   5.916
34552SOL     OW 3681   5.613   7.182   5.703
34552SOL    HW1 3682   5.594   7.086   5.724
34552SOL    HW2 3683   5.580   7.240   5.778
34553SOL     OW 3684   7.275   6.508   6.198
34553SOL    HW1 3685   7.370   6.479   6.206
34553SOL    HW2 3686   7.267   6.573   6.123
34554SOL     OW 3687   7.227   6.694   6.018
34554SOL    HW1 3688   7.313   6.696   5.966
34554SOL    HW2 3689   7.241   6.741   6.106
34555SOL     OW 3690   5.699   6.323   7.183
34555SOL    HW1 3691   5.787   6.310   7.228
34555SOL    HW2 3692   5.686   6.420   7.161
34556SOL     OW 3693   6.199   6.951   6.312
34556SOL    HW1 3694   6.150   6.864   6.321
34556SOL    HW2 3695   6.176   6.994   6.225
34557SOL     OW 3696   6.879   6.814   7.009
34557SOL    HW1 3697   6.916   6.741   6.951
34557SOL    HW2 3698   6.931   6.819   7.094
34558SOL     OW 3699   6.395   5.590   6.088
34558SOL    HW1 3700   6.435   5.681   6.079
34558SOL    HW2 3701   6.295   5.598   6.094
34559SOL     OW 3702   5.783   6.562   6.850
34559SOL    HW1 3703   5.872   6.517   6.836
34559SOL    HW2 3704   5.710   6.497   6.831
34560SOL     OW 3705   7.111   6.585   5.776
34560SOL    HW1 3706   7.048   6.509   5.789
34560SOL    HW2 3707   7.159   6.603   5.862
34561SOL     OW 3708   6.773   7.378   7.202
34561SOL    HW1 3709   6.797   7.438   7.126
34561SOL    HW2 3710   6.780   7.283   7.172
34562SOL     OW 3711   5.903   5.837   7.387
34562SOL    HW1 3712   5.974   5.908   7.393
34562SOL    HW2 3713   5.815   5.876   7.415
34563SOL     OW 3714   7.052   7.003   6.539
34563SOL    HW1 3715   6.993   7.009   6.619
34563SOL    HW2 3716   7.037   6.915   6.493
34564SOL     OW 3717   7.253   7.300   6.158
34564SOL    HW1 3718   7.212   7.277   6.070
34564SOL    HW2 3719   7.235   7.226   6.223
34565SOL     OW 3720   6.184   6.315   5.856
34565SOL    HW1 3721   6.208   6.384   5.788
34565SOL    HW2 3722   6.106   6.348   5.910
34566SOL     OW 3723   6.867   5.931   6.530
34566SOL    HW1 3724   6.781   5.881   6.517
34566SOL    HW2 3725   6.929   5.877   6.586
34567SOL     OW 3726   7.162   7.248   5.893
34567SOL    HW1 3727   7.251   7.294   5.896
34567SOL    HW2 3728   7.141   7.224   5.798
34568SOL     OW 3729   6.393   6.191   7.051
34568SOL    HW1 3730   6.346   6.188   7.140
34568SOL    HW2 3731   6.342   6.136   6.985
34569SOL     OW 3732   6.980   6.055   7.260
34569SOL    HW1 3733   6.960   6.098   7.348
34569SOL    HW2 3734   7.058   5.993   7.269
34570SOL     OW 3735   6.559   6.476   7.158
34570SOL    HW1 3736   6.605   6.392   7.129
34570SOL    HW2 3737   6.503   6.510   7.083
34571SOL     OW 3738   6.577   5.996   6.828
34571SOL    HW1 3739   6.500   6.030   6.882
34571SOL    HW2 3740   6.543   5.945   6.749
34572SOL     OW 3741   5.662   6.397   6.375
34572SOL    HW1 3742   5.761   6.385   6.384
34572SOL    HW2 3743   5.638   6.492   6.396
34573SOL     OW 3744   5.716   7.407   7.157
34573SOL    HW1 3745   5.706   7.392   7.256
34573SOL    HW2 3746   5.630   7.443   7.121
34574SOL     OW 3747   6.451   5.934   5.781
34574SOL    HW1 3748   6.510   5.997   5.732
34574SOL    HW2 3749   6.470   5.840   5.752
34575SOL     OW 3750   7.305   6.171   7.417
34575SOL    HW1 3751   7.279   6.260   7.381
34575SOL    HW2 3752   7.303   6.103   7.344
34576SOL     OW 3753   6.948   6.730   6.131
34576SOL    HW1 3754   7.031   6.701   6.083
34576SOL    HW2 3755   6.899   6.797   6.075
34577SOL     OW 3756   6.136   5.782   6.471
34577SOL    HW1 3757   6.131   5.777   6.571
34577SOL    HW2 3758   6.138   5.878   6.442
34578SOL     OW 3759   6.594   7.042   6.063
34578SOL    HW1 3760   6.548   7.114   6.011
34578SOL    HW2 3761   6.590   7.062   6.161
34579SOL     OW 3762   5.937   7.387   6.439
34579SOL    HW1 3763   5.987   7.301   6.445
34579SOL    HW2 3764   6.002   7.464   6.436
34580SOL     OW 3765   7.381   6.652   6.459
34580SOL    HW1 3766   7.319   6.637   6.383
34580SOL    HW2 3767   7.329   6.663   6.544
34581SOL     OW 3768   6.813   7.136   7.092
34581SOL    HW1 3769   6.819   7.059   7.156
34581SOL    HW2 3770   6.761   7.110   7.012
34582SOL     OW 3771   5.907   6.529   5.828
34582SOL    HW1 3772   5.989   6.568   5.786
34582SOL    HW2 3773   5.880   6.447   5.779
34583SOL     OW 3774   7.044   6.321   6.314
34583SOL    HW1 3775   7.039   6.256   6.389
34583SOL    HW2 3776   7.124   6.380   6.327
34584SOL     OW 3777   6.047   6.852   7.313
34584SOL    HW1 3778   5.997   6.853   7.227
34584SOL    HW2 3779   5.984   6.834   7.389
34585SOL     OW 3780   6.697   7.362   5.823
34585SOL    HW1 3781   6.637   7.300   5.873
34585SOL    HW2 3782   6.728   7.318   5.738
34586SOL     OW 3783   5.788   5.871   7.084
34586SOL    HW1 3784   5.708   5.931   7.071
34586SOL    HW2 3785   5.778   5.822   7.170
34587SOL     OW 3786   7.218   6.963   5.667
34587SOL    HW1 3787   7.186   7.057   5.657
34587SOL    HW2 3788   7.142   6.900   5.655
34588SOL     OW 3789   6.050   7.329   5.909
34588SOL    HW1 3790   6.083   7.368   5.995
34588SOL    HW2 3791   6.126   7.322   5.844
34589SOL     OW 3792   6.986   5.693   6.012
34589SOL    HW1 3793   6.962   5.656   5.922
34589SOL    HW2 3794   7.085   5.709   6.016
34590SOL     OW 3795   5.835   7.371   6.827
34590SOL    HW1 3796   5.892   7.306   6.877
34590SOL    HW2 3797   5.819   7.338   6.734
34591SOL     OW 3798   6.526   7.284   6.490
34591SOL    HW1 3799   6.606   7.227   6.511
34591SOL    HW2 3800   6.477   7.244   6.413
34592SOL     OW 3801   5.968   6.286   6.066
34592SOL    HW1 3802   6.013   6.196   6.063
34592SOL    HW2 3803   5.874   6.275   6.099
34593SOL     OW 3804   7.133   5.808   7.315
34593SOL    HW1 3805   7.128   5.845   7.407
34593SOL    HW2 3806   7.061   5.739   7.303
34594SOL     OW 3807   6.200   5.708   5.703
34594SOL    HW1 3808   6.298   5.686   5.710
34594SOL    HW2 3809   6.169   5.691   5.610
34595SOL     OW 3810   6.367   5.850   7.335
34595SOL    HW1 3811   6.434   5.789   7.378
34595SOL    HW2 3812   6.294   5.869   7.400
34596SOL     OW 3813   6.474   7.100   6.781
34596SOL    HW1 3814   6.451   7.075   6.687
34596SOL    HW2 3815   6.535   7.031   6.820
34597SOL     OW 3816   6.937   6.176   7.019
34597SOL    HW1 3817   6.965   6.133   7.104
34597SOL    HW2 3818   6.962   6.272   7.020
34598SOL     OW 3819   6.389   6.988   6.510
34598SOL    HW1 3820   6.479   7.002   6.468
34598SOL    HW2 3821   6.318   6.990   6.439
34599SOL     OW 3822   6.125   5.650   6.098
34599SOL    HW1 3823   6.044   5.651   6.156
34599SOL    HW2 3824   6.128   5.733   6.043
34600SOL     OW 3825   7.020   6.774   5.627
34600SOL    HW1 3826   7.052   6.698   5.684
34600SOL    HW2 3827   6.928   6.801   5.657
34601SOL     OW 3828   5.883   5.621   5.757
34601SOL    HW1 3829   5.932   5.705   5.736
34601SOL    HW2 3830   5.945   5.556   5.802
34602SOL     OW 3831   6.521   5.822   6.066
34602SOL    HW1 3832   6.473   5.863   5.988
34602SOL    HW2 3833   6.620   5.820   6.047
34603SOL     OW 3834   6.662   6.269   7.050
34603SOL    HW1 3835   6.582   6.208   7.053
34603SOL    HW2 3836   6.743   6.216   7.026
34604SOL     OW 3837   6.813   7.156   6.379
34604SOL    HW1 3838   6.834   7.230   6.314
34604SOL    HW2 3839   6.881   7.156   6.452
34605SOL     OW 3840   6.857   7.383   6.177
34605SOL    HW1 3841   6.901   7.447   6.113
34605SOL    HW2 3842   6.807   7.435   6.247
34606SOL     OW 3843   6.618   6.135   5.602
34606SOL    HW1 3844   6.577   6.217   5.563
34606SOL    HW2 3845   6.682   6.161   5.675
34607SOL     OW 3846   5.664   6.142   6.972
34607SOL    HW1 3847   5.756   6.141   6.931
34607SOL    HW2 3848   5.658   6.216   7.039
34608SOL     OW 3849   6.147   5.808   6.733
34608SOL    HW1 3850   6.185   5.724   6.770
34608SOL    HW2 3851   6.059   5.827   6.777
34609SOL     OW 3852   6.603   5.625   6.339
34609SOL    HW1 3853   6.531   5.630   6.270
34609SOL    HW2 3854   6.579   5.556   6.408
34610SOL     OW 3855   7.015   6.759   6.453
34610SOL    HW1 3856   6.960   6.675   6.446
34610SOL    HW2 3857   7.041   6.788   6.361
34611SOL     OW 3858   7.052   6.176   6.578
34611SOL    HW1 3859   7.022   6.081   6.585
34611SOL    HW2 3860   7.125   6.192   6.644
34612SOL     OW 3861   7.443   6.419   5.963
34612SOL    HW1 3862   7.485   6.355   6.027
34612SOL    HW2 3863   7.405   6.368   5.885
34613SOL     OW 3864   6.074   6.971   5.760
34613SOL    HW1 3865   5.987   6.956   5.807
34613SOL    HW2 3866   6.057   6.997   5.665
34614SOL     OW 3867   7.250   6.866   6.243
34614SOL    HW1 3868   7.349   6.874   6.257
34614SOL    HW2 3869   7.205   6.950   6.274
34615SOL     OW 3870   6.976   6.161   5.664
34615SOL    HW1 3871   6.922   6.140   5.745
34615SOL    HW2 3872   7.067   6.120   5.673
34616SOL     OW 3873   6.113   5.842   5.914
34616SOL    HW1 3874   6.140   5.783   5.839
34616SOL    HW2 3875   6.113   5.937   5.883
34617SOL     OW 3876   7.340   6.809   7.174
34617SOL    HW1 3877   7.431   6.770   7.161
34617SOL    HW2 3878   7.348   6.905   7.198
34618SOL     OW 3879   6.650   6.933   6.926
34618SOL    HW1 3880   6.570   6.910   6.981
34618SOL    HW2 3881   6.733   6.907   6.975
34619SOL     OW 3882   7.178   7.215   7.211
34619SOL    HW1 3883   7.205   7.249   7.121
34619SOL    HW2 3884   7.257   7.177   7.257
34620SOL     OW 3885   6.697   6.781   6.686
34620SOL    HW1 3886   6.657   6.825   6.767
34620SOL    HW2 3887   6.656   6.818   6.603
34621SOL     OW 3888   7.224   6.685   6.665
34621SOL    HW1 3889   7.229   6.766   6.724
34621SOL    HW2 3890   7.138   6.687   6.614
34622SOL     OW 3891   6.501   5.675   6.988
34622SOL    HW1 3892   6.526   5.655   6.893
34622SOL    HW2 3893   6.573   5.731   7.030
34623SOL     OW 3894   6.566   6.702   7.305
34623SOL    HW1 3895   6.467   6.708   7.315
34623SOL    HW2 3896   6.589   6.622   7.249
34624SOL     OW 3897   5.996   6.399   6.837
34624SOL    HW1 3898   6.082   6.411   6.887
34624SOL    HW2 3899   5.954   6.312   6.864
34625SOL     OW 3900   6.860   5.972   6.848
34625SOL    HW1 3901   6.881   6.046   6.912
34625SOL    HW2 3902   6.771   5.989   6.805
34626SOL     OW 3903   5.650   7.150   6.917
34626SOL    HW1 3904   5.604   7.232   6.883
34626SOL    HW2 3905   5.748   7.169   6.926
34627SOL     OW 3906   6.152   6.123   6.451
34627SOL    HW1 3907   6.164   6.189   6.377
34627SOL    HW2 3908   6.198   6.157   6.534
34628SOL     OW 3909   6.838   6.934   5.974
34628SOL    HW1 3910   6.888   7.011   6.014
34628SOL    HW2 3911   6.743   6.936   6.006
34629SOL     OW 3912   6.858   7.031   6.728
34629SOL    HW1 3913   6.905   7.044   6.815
34629SOL    HW2 3914   6.792   6.957   6.737
34630SOL     OW 3915   7.168   6.225   6.058
34630SOL    HW1 3916   7.137   6.286   6.131
34630SOL    HW2 3917   7.218   6.277   5.989
34631SOL     OW 3918   5.940   7.096   6.915
34631SOL    HW1 3919   5.919   7.052   6.828
34631SOL    HW2 3920   6.037   7.122   6.918
34632SOL     OW 3921   5.988   6.337   7.184
34632SOL    HW1 3922   6.056   6.392   7.137
34632SOL    HW2 3923   6.028   6.249   7.211
34633SOL     OW 3924   7.173   6.365   7.256
34633SOL    HW1 3925   7.081   6.403   7.251
34633SOL    HW2 3926   7.233   6.412   7.191
34634SOL     OW 3927   6.599   5.691   7.356
34634SOL    HW1 3928   6.605   5.776   7.304
34634SOL    HW2 3929   6.631   5.615   7.299
34635SOL     OW 3930   6.090   5.636   7.326
34635SOL    HW1 3931   6.048   5.579   7.256
34635SOL    HW2 3932   6.024   5.705   7.358
34636SOL     OW 3933   6.946   6.448   6.631
34636SOL    HW1 3934   6.871   6.448   6.565
34636SOL    HW2 3935   6.983   6.356   6.640
34637SOL     OW 3936   6.795   6.111   5.861
34637SOL    HW1 3937   6.808   6.027   5.915
34637SOL    HW2 3938   6.766   6.185   5.921
34638SOL     OW 3939   5.893   5.799   6.817
34638SOL    HW1 3940   5.870   5.836   6.907
34638SOL    HW2 3941   5.863   5.704   6.811
34639SOL     OW 3942   5.623   6.896   6.868
34639SOL    HW1 3943   5.676   6.847   6.936
34639SOL    HW2 3944   5.645   6.994   6.873
34640SOL     OW 3945   7.314   6.521   7.440
34640SOL    HW1 3946   7.268   6.514   7.351
34640SOL    HW2 3947   7.252   6.565   7.506
34641SOL     OW 3948   5.893   5.649   6.204
34641SOL    HW1 3949   5.882   5.743   6.237
34641SOL    HW2 3950   5.888   5.586   6.281
34642SOL     OW 3951   7.208   5.953   5.960
34642SOL    HW1 3952   7.210   5.877   6.024
34642SOL    HW2 3953   7.160   6.030   6.000
34643SOL     OW 3954   6.566   7.159   7.286
34643SOL    HW1 3955   6.546   7.203   7.198
34643SOL    HW2 3956   6.605   7.068   7.270
34644SOL     OW 3957   7.445   7.104   7.191
34644SOL    HW1 3958   7.459   7.131   7.096
34644SOL    HW2 3959   7.528   7.126   7.244
34645SOL     OW 3960   5.936   6.484   7.390
34645SOL    HW1 3961   6.012   6.528   7.438
34645SOL    HW2 3962   5.971   6.437   7.308
34646SOL     OW 3963   7.126   5.860   5.711
34646SOL    HW1 3964   7.065   5.785   5.734
34646SOL    HW2 3965   7.148   5.912   5.794
34647SOL     OW 3966   6.889   6.424   5.628
34647SOL    HW1 3967   6.923   6.331   5.643
34647SOL    HW2 3968   6.907   6.451   5.533
34648SOL     OW 3969   6.654   6.919   6.435
34648SOL    HW1 3970   6.661   6.835   6.380
34648SOL    HW2 3971   6.716   6.988   6.399
34649SOL     OW 3972   5.925   6.095   6.592
34649SOL    HW1 3973   5.873   6.012   6.575
34649SOL    HW2 3974   6.002   6.100   6.528
34650SOL     OW 3975   6.724   5.966   7.264
34650SOL    HW1 3976   6.679   6.029   7.328
34650SOL    HW2 3977   6.817   5.997   7.247
34651SOL     OW 3978   6.746   5.793   7.063
34651SOL    HW1 3979   6.746   5.857   7.140
34651SOL    HW2 3980   6.774   5.841   6.980
34652SOL     OW 3981   5.594   6.912   5.786
34652SOL    HW1 3982   5.501   6.933   5.755
34652SOL    HW2 3983   5.604   6.813   5.799
34653SOL     OW 3984   5.674   7.387   6.513
34653SOL    HW1 3985   5.632   7.301   6.486
34653SOL    HW2 3986   5.768   7.390   6.479
34654SOL     OW 3987   6.090   7.154   6.496
34654SOL    HW1 3988   6.156   7.228   6.505
34654SOL    HW2 3989   6.134   7.075   6.454
34655SOL     OW 3990   6.588   6.382   6.824
34655SOL    HW1 3991   6.629   6.350   6.910
34655SOL    HW2 3992   6.492   6.355   6.821
34656SOL     OW 3993   5.626   6.130   6.700
34656SOL    HW1 3994   5.711   6.097   6.659
34656SOL    HW2 3995   5.639   6.145   6.798
34657SOL     OW 3996   5.775   6.106   7.308
34657SOL    HW1 3997   5.834   6.066   7.238
34657SOL    HW2 3998   5.717   6.177   7.267
34658SOL     OW 3999   6.955   6.536   7.246
34658SOL    HW1 4000   6.994   6.625   7.266
34658SOL    HW2 4001   6.965   6.516   7.149
34659SOL     OW 4002   7.243   6.190   6.792
34659SOL    HW1 4003   7.205   6.121   6.854
34659SOL    HW2 4004   7.325   6.154   6.748
34660SOL     OW 4005   5.838   7.150   7.330
34660SOL    HW1 4006   5.808   7.207   7.406
34660SOL    HW2 4007   5.831   7.053   7.356
34661SOL     OW 4008   6.257   6.050   6.855
34661SOL    HW1 4009   6.223   5.961   6.825
34661SOL    HW2 4010   6.283   6.104   6.775
34662SOL     OW 4011   6.516   7.264   7.051
34662SOL    HW1 4012   6.492   7.246   6.956
34662SOL    HW2 4013   6.546   7.358   7.061
34663SOL     OW 4014   6.059   6.086   5.777
34663SOL    HW1 4015   6.120   6.166   5.781
34663SOL    HW2 4016   5.964   6.117   5.784
34664SOL     OW 4017   5.745   6.723   7.052
34664SOL    HW1 4018   5.767   6.662   7.128
34664SOL    HW2 4019   5.755   6.674   6.966
34665SOL     OW 4020   6.933   6.645   6.820
34665SOL    HW1 4021   6.957   6.582   6.746
34665SOL    HW2 4022   6.843   6.685   6.802
34666SOL     OW 4023   6.888   6.441   5.895
34666SOL    HW1 4024   6.802   6.410   5.937
34666SOL    HW2 4025   6.884   6.427   5.796
34667SOL     OW 4026   7.345   7.333   6.740
34667SOL    HW1 4027   7.406   7.363   6.667
34667SOL    HW2 4028   7.307   7.244   6.718
34668SOL     OW 4029   6.838   7.317   6.714
34668SOL    HW1 4030   6.922   7.322   6.660
34668SOL    HW2 4031   6.815   7.221   6.732
34669SOL     OW 4032   5.669   6.844   6.608
34669SOL    HW1 4033   5.664   6.843   6.708
34669SOL    HW2 4034   5.586   6.803   6.570
34670SOL     OW 4035   6.274   7.248   7.302
34670SOL    HW1 4036   6.218   7.329   7.311
34670SOL    HW2 4037   6.326   7.252   7.216
34671SOL     OW 4038   7.312   5.721   6.109
34671SOL    HW1 4039   7.385   5.704   6.042
34671SOL    HW2 4040   7.281   5.634   6.147
34672SOL     OW 4041   6.974   7.159   6.063
34672SOL    HW1 4042   7.041   7.171   5.989
34672SOL    HW2 4043   6.934   7.248   6.086
34673SOL     OW 4044   5.716   7.380   7.437
34673SOL    HW1 4045   5.675   7.306   7.490
34673SOL    HW2 4046   5.780   7.431   7.495
34674SOL     OW 4047   6.866   6.513   6.258
34674SOL    HW1 4048   6.926   6.432   6.260
34674SOL    HW2 4049   6.906   6.582   6.198
34675SOL     OW 4050   6.416   6.859   7.008
34675SOL    HW1 4051   6.411   6.892   7.103
34675SOL    HW2 4052   6.330   6.878   6.962
34676SOL     OW 4053   6.258   7.202   5.740
34676SOL    HW1 4054   6.267   7.212   5.641
34676SOL    HW2 4055   6.218   7.113   5.761
34677SOL     OW 4056   7.236   7.306   6.980
34677SOL    HW1 4057   7.289   7.316   6.896
34677SOL    HW2 4058   7.209   7.396   7.014
34678SOL     OW 4059   7.427   5.761   6.549
34678SOL    HW1 4060   7.466   5.676   6.513
34678SOL    HW2 4061   7.329   5.763   6.530
34679SOL     OW 4062   5.849   5.912   6.306
34679SOL    HW1 4063   5.770   5.963   6.272
34679SOL    HW2 4064   5.840   5.897   6.404
34680SOL     OW 4065   6.780   7.198   5.617
34680SOL    HW1 4066   6.786   7.105   5.654
34680SOL    HW2 4067   6.721   7.198   5.537
34681SOL     OW 4068   6.408   6.588   6.958
34681SOL    HW1 4069   6.448   6.587   6.866
34681SOL    HW2 4070   6.418   6.680   6.998
34682SOL     OW 4071   6.502   6.496   5.877
34682SOL    HW1 4072   6.565   6.534   5.809
34682SOL    HW2 4073   6.542   6.413   5.916
34683SOL     OW 4074   7.090   7.193   5.630
34683SOL    HW1 4075   6.998   7.230   5.637
34683SOL    HW2 4076   7.128   7.213   5.540
34684SOL     OW 4077   5.958   6.874   7.076
34684SOL    HW1 4078   5.945   6.967   7.042
34684SOL    HW2 4079   5.874   6.822   7.063
34685SOL     OW 4080   7.200   6.878   6.875
34685SOL    HW1 4081   7.260   6.881   6.955
34685SOL    HW2 4082   7.125   6.942   6.888
34686SOL     OW 4083   6.625   6.684   6.282
34686SOL    HW1 4084   6.555   6.637   6.336
34686SOL    HW2 4085   6.684   6.616   6.239
34687SOL     OW 4086   6.600   5.822   6.557
34687SOL    HW1 4087   6.592   5.786   6.464
34687SOL    HW2 4088   6.598   5.746   6.622
34688SOL     OW 4089   6.176   7.073   6.077
34688SOL    HW1 4090   6.218   7.015   6.007
34688SOL    HW2 4091   6.132   7.152   6.033
34689SOL     OW 4092   7.295   5.971   6.967
34689SOL    HW1 4093   7.368   6.040   6.971
34689SOL    HW2 4094   7.323   5.896   6.908
34690SOL     OW 4095   5.841   6.934   5.876
34690SOL    HW1 4096   5.745   6.935   5.849
34690SOL    HW2 4097   5.853   6.987   5.960
34691SOL     OW 4098   5.691   6.599   7.312
34691SOL    HW1 4099   5.614   6.566   7.366
34691SOL    HW2 4100   5.776   6.569   7.354
34692SOL     OW 4101   6.258   5.789   7.075
34692SOL    HW1 4102   6.348   5.773   7.035
34692SOL    HW2 4103   6.266   5.794   7.174
34693SOL     OW 4104   5.661   5.931   5.619
34693SOL    HW1 4105   5.569   5.903   5.590
34693SOL    HW2 4106   5.692   6.008   5.563
34694SOL     OW 4107   7.026   6.442   6.984
34694SOL    HW1 4108   6.969   6.494   6.921
34694SOL    HW2 4109   7.122   6.454   6.960
34695SOL     OW 4110   5.658   5.752   5.904
34695SOL    HW1 4111   5.641   5.835   5.850
34695SOL    HW2 4112   5.748   5.715   5.882
34696SOL     OW 4113   6.769   6.921   5.705
34696SOL    HW1 4114   6.670   6.910   5.707
34696SOL    HW2 4115   6.803   6.936   5.798
34697SOL     OW 4116   6.199   6.428   7.017
34697SOL    HW1 4117   6.255   6.509   7.000
34697SOL    HW2 4118   6.258   6.348   7.020
34698SOL     OW 4119   7.079   7.353   6.545
34698SOL    HW1 4120   7.112   7.417   6.476
34698SOL    HW2 4121   7.145   7.347   6.620
34699SOL     OW 4122   6.302   6.151   7.294
34699SOL    HW1 4123   6.321   6.216   7.368
34699SOL    HW2 4124   6.362   6.071   7.303
34700SOL     OW 4125   7.036   6.806   7.219
34700SOL    HW1 4126   7.027   6.796   7.318
34700SOL    HW2 4127   7.132   6.799   7.193
34701SOL     OW 4128   5.976   7.327   7.146
34701SOL    HW1 4129   5.885   7.368   7.144
34701SOL    HW2 4130   5.969   7.233   7.178
34702SOL     OW 4131   7.260   6.469   6.840
34702SOL    HW1 4132   7.233   6.380   6.803
34702SOL    HW2 4133   7.261   6.537   6.767
34703SOL     OW 4134   6.811   5.911   6.035
34703SOL    HW1 4135   6.876   5.837   6.024
34703SOL    HW2 4136   6.831   5.961   6.119
34704SOL     OW 4137   7.363   5.928   7.228
34704SOL    HW1 4138   7.346   5.959   7.134
34704SOL    HW2 4139   7.279   5.891   7.266
34705SOL     OW 4140   7.316   6.520   7.103
34705SOL    HW1 4141   7.354   6.611   7.118
34705SOL    HW2 4142   7.308   6.503   7.004
34706SOL     OW 4143   6.445   6.960   5.602
34706SOL    HW1 4144   6.399   6.975   5.690
34706SOL    HW2 4145   6.489   7.045   5.572
34707SOL     OW 4146   6.247   7.376   6.539
34707SOL    HW1 4147   6.201   7.464   6.526
34707SOL    HW2 4148   6.346   7.388   6.532
34708SOL     OW 4149   6.669   6.570   5.673
34708SOL    HW1 4150   6.646   6.623   5.591
34708SOL    HW2 4151   6.750   6.514   5.654
34709SOL     OW 4152   7.447   7.155   6.437
34709SOL    HW1 4153   7.376   7.143   6.367
34709SOL    HW2 4154   7.448   7.076   6.497
34710SOL     OW 4155   5.807   6.900   7.430
34710SOL    HW1 4156   5.742   6.827   7.409
34710SOL    HW2 4157   5.811   6.914   7.528
34711SOL     OW 4158   5.665   6.826   6.239
34711SOL    HW1 4159   5.664   6.779   6.327
34711SOL    HW2 4160   5.747   6.798   6.188
34712SOL     OW 4161   6.258   6.977   7.210
34712SOL    HW1 4162   6.180   6.927   7.248
34712SOL    HW2 4163   6.255   7.072   7.241
34713SOL     OW 4164   7.410   5.778   6.813
34713SOL    HW1 4165   7.406   5.688   6.857
34713SOL    HW2 4166   7.413   5.767   6.714
34714SOL     OW 4167   6.014   6.010   6.106
34714SOL    HW1 4168   6.044   5.938   6.044
34714SOL    HW2 4169   5.975   5.970   6.189
34715SOL     OW 4170   7.291   7.073   6.690
34715SOL    HW1 4171   7.198   7.048   6.663
34715SOL    HW2 4172   7.317   7.023   6.772
34716SOL     OW 4173   5.903   6.133   6.866
34716SOL    HW1 4174   5.941   6.074   6.938
34716SOL    HW2 4175   5.943   6.107   6.778
34717SOL     OW 4176   6.398   7.172   6.273
34717SOL    HW1 4177   6.430   7.182   6.179
34717SOL    HW2 4178   6.319   7.110   6.275
34718SOL     OW 4179   7.010   5.800   6.698
34718SOL    HW1 4180   7.062   5.735   6.753
34718SOL    HW2 4181   6.961   5.863   6.759
34719SOL     OW 4182   6.587   5.620   6.740
34719SOL    HW1 4183   6.524   5.548   6.709
34719SOL    HW2 4184   6.680   5.584   6.740
34720SOL     OW 4185   6.356   6.916   5.887
34720SOL    HW1 4186   6.310   6.829   5.904
34720SOL    HW2 4187   6.447   6.913   5.928
34721SOL     OW 4188   6.204   7.153   6.870
34721SOL    HW1 4189   6.199   7.235   6.927
34721SOL    HW2 4190   6.293   7.150   6.825
34722SOL     OW 4191   6.938   5.638   5.754
34722SOL    HW1 4192   6.973   5.597   5.670
34722SOL    HW2 4193   6.848   5.600   5.774
34723SOL     OW 4194   6.886   6.039   6.277
34723SOL    HW1 4195   6.827   6.119   6.281
34723SOL    HW2 4196   6.901   6.004   6.370
34724SOL     OW 4197   7.179   5.807   6.468
34724SOL    HW1 4198   7.095   5.806   6.522
34724SOL    HW2 4199   7.181   5.890   6.412
34725SOL     OW 4200   5.625   6.663   5.886
34725SOL    HW1 4201   5.724   6.652   5.877
34725SOL    HW2 4202   5.585   6.577   5.918
34726SOL     OW 4203   6.461   7.232   5.923
34726SOL    HW1 4204   6.384   7.197   5.869
34726SOL    HW2 4205   6.429   7.303   5.985
34727SOL     OW 4206   5.816   6.214   7.561
34727SOL    HW1 4207   5.723   6.212   7.598
34727SOL    HW2 4208   5.817   6.175   7.469
34728SOL     OW 4209   5.811   5.861   8.444
34728SOL    HW1 4210   5.846   5.844   8.536
34728SOL    HW2 4211   5.723   5.816   8.432
34729SOL     OW 4212   5.605   5.954   8.095
34729SOL    HW1 4213   5.523   5.997   8.134
34729SOL    HW2 4214   5.577   5.881   8.032
34730SOL     OW 4215   6.155   6.861   8.613
34730SOL    HW1 4216   6.062   6.854   8.576
34730SOL    HW2 4217   6.166   6.950   8.657
34731SOL     OW 4218   7.141   7.097   8.151
34731SOL    HW1 4219   7.084   7.081   8.232
34731SOL    HW2 4220   7.082   7.107   8.071
34732SOL     OW 4221   6.721   6.289   8.165
34732SOL    HW1 4222   6.778   6.367   8.140
34732SOL    HW2 4223   6.661   6.315   8.241
34733SOL     OW 4224   7.341   6.193   7.679
34733SOL    HW1 4225   7.329   6.180   7.580
34733SOL    HW2 4226   7.311   6.112   7.728
34734SOL     OW 4227   6.354   6.730   8.471
34734SOL    HW1 4228   6.276   6.747   8.531
34734SOL    HW2 4229   6.388   6.817   8.435
34735SOL     OW 4230   6.436   6.384   9.271
34735SOL    HW1 4231   6.432   6.460   9.336
34735SOL    HW2 4232   6.458   6.420   9.180
34736SOL     OW 4233   6.271   6.598   8.113
34736SOL    HW1 4234   6.340   6.582   8.183
34736SOL    HW2 4235   6.198   6.655   8.151
34737SOL     OW 4236   6.272   6.747   9.251
34737SOL    HW1 4237   6.332   6.826   9.265
34737SOL    HW2 4238   6.186   6.778   9.210
34738SOL     OW 4239   5.921   7.021   8.509
34738SOL    HW1 4240   5.843   6.990   8.456
34738SOL    HW2 4241   5.979   7.079   8.452
34739SOL     OW 4242   7.046   7.091   8.787
34739SOL    HW1 4243   7.070   7.185   8.813
34739SOL    HW2 4244   7.030   7.037   8.869
34740SOL     OW 4245   6.024   5.978   8.947
34740SOL    HW1 4246   6.106   5.922   8.956
34740SOL    HW2 4247   5.943   5.920   8.951
34741SOL     OW 4248   7.189   6.033   8.185
34741SOL    HW1 4249   7.115   6.079   8.135
34741SOL    HW2 4250   7.240   6.101   8.238
34742SOL     OW 4251   5.817   7.299   7.931
34742SOL    HW1 4252   5.851   7.376   7.985
34742SOL    HW2 4253   5.861   7.299   7.841
34743SOL     OW 4254   6.713   6.927   9.138
34743SOL    HW1 4255   6.760   6.927   9.226
34743SOL    HW2 4256   6.665   6.840   9.127
34744SOL     OW 4257   5.816   7.020   7.986
34744SOL    HW1 4258   5.790   7.116   7.986
34744SOL    HW2 4259   5.745   6.966   8.031
34745SOL     OW 4260   5.826   6.677   8.334
34745SOL    HW1 4261   5.840   6.593   8.386
34745SOL    HW2 4262   5.771   6.741   8.389
34746SOL     OW 4263   6.206   7.372   8.887
34746SOL    HW1 4264   6.114   7.355   8.922
34746SOL    HW2 4265   6.234   7.464   8.913
34747SOL     OW 4266   6.192   6.550   7.571
34747SOL    HW1 4267   6.199   6.634   7.517
34747SOL    HW2 4268   6.238   6.563   7.659
34748SOL     OW 4269   7.180   5.700   8.928
34748SOL    HW1 4270   7.162   5.767   8.856
34748SOL    HW2 4271   7.177   5.746   9.017
34749SOL     OW 4272   5.708   6.229   8.011
34749SOL    HW1 4273   5.663   6.141   8.028
34749SOL    HW2 4274   5.707   6.283   8.095
34750SOL     OW 4275   7.428   7.353   7.807
34750SOL    HW1 4276   7.482   7.324   7.887
34750SOL    HW2 4277   7.458   7.443   7.778
34751SOL     OW 4278   7.275   6.508   8.060
34751SOL    HW1 4279   7.370   6.479   8.068
34751SOL    HW2 4280   7.267   6.573   7.985
34752SOL     OW 4281   7.227   6.694   7.880
34752SOL    HW1 4282   7.313   6.696   7.828
34752SOL    HW2 4283   7.241   6.741   7.968
34753SOL     OW 4284   5.699   6.323   9.045
34753SOL    HW1 4285   5.787   6.310   9.090
34753SOL    HW2 4286   5.686   6.420   9.023
34754SOL     OW 4287   6.199   6.951   8.174
34754SOL    HW1 4288   6.150   6.864   8.183
34754SOL    HW2 4289   6.176   6.994   8.087
34755SOL     OW 4290   6.879   6.814   8.871
34755SOL    HW1 4291   6.916   6.741   8.813
34755SOL    HW2 4292   6.931   6.819   8.956
34756SOL     OW 4293   6.395   5.590   7.950
34756SOL    HW1 4294   6.435   5.681   7.941
34756SOL    HW2 4295   6.295   5.598   7.956
34757SOL     OW 4296   5.783   6.562   8.712
34757SOL    HW1 4297   5.872   6.517   8.698
34757SOL    HW2 4298   5.710   6.497   8.693
34758SOL     OW 4299   7.111   6.585   7.638
34758SOL    HW1 4300   7.048   6.509   7.651
34758SOL    HW2 4301   7.159   6.603   7.724
34759SOL     OW 4302   6.773   7.378   9.064
34759SOL    HW1 4303   6.797   7.438   8.988
34759SOL    HW2 4304   6.780   7.283   9.034
34760SOL     OW 4305   5.903   5.837   9.249
34760SOL    HW1 4306   5.974   5.908   9.255
34760SOL    HW2 4307   5.815   5.876   9.277
34761SOL     OW 4308   7.052   7.003   8.401
34761SOL    HW1 4309   6.993   7.009   8.481
34761SOL    HW2 4310   7.037   6.915   8.355
34762SOL     OW 4311   7.253   7.300   8.020
34762SOL    HW1 4312   7.212   7.277   7.932
34762SOL    HW2 4313   7.235   7.226   8.085
34763SOL     OW 4314   6.184   6.315   7.718
34763SOL    HW1 4315   6.208   6.384   7.650
34763SOL    HW2 4316   6.106   6.348   7.772
34764SOL     OW 4317   6.867   5.931   8.392
34764SOL    HW1 4318   6.781   5.881   8.379
34764SOL    HW2 4319   6.929   5.877   8.448
34765SOL     OW 4320   7.162   7.248   7.755
34765SOL    HW1 4321   7.251   7.294   7.758
34765SOL    HW2 4322   7.141   7.224   7.660
34766SOL     OW 4323   6.393   6.191   8.913
34766SOL    HW1 4324   6.346   6.188   9.002
34766SOL    HW2 4325   6.342   6.136   8.847
34767SOL     OW 4326   6.980   6.055   9.122
34767SOL    HW1 4327   6.960   6.098   9.210
34767SOL    HW2 4328   7.058   5.993   9.131
34768SOL     OW 4329   6.559   6.476   9.020
34768SOL    HW1 4330   6.605   6.392   8.991
34768SOL    HW2 4331   6.503   6.510   8.945
34769SOL     OW 4332   6.577   5.996   8.690
34769SOL    HW1 4333   6.500   6.030   8.744
34769SOL    HW2 4334   6.543   5.945   8.611
34770SOL     OW 4335   6.627   6.287   7.877
34770SOL    HW1 4336   6.653   6.283   7.973
34770SOL    HW2 4337   6.542   6.236   7.863
34771SOL     OW 4338   5.662   6.397   8.237
34771SOL    HW1 4339   5.761   6.385   8.246
34771SOL    HW2 4340   5.638   6.492   8.258
34772SOL     OW 4341   5.716   7.407   9.019
34772SOL    HW1 4342   5.706   7.392   9.118
34772SOL    HW2 4343   5.630   7.443   8.983
34773SOL     OW 4344   6.451   5.934   7.643
34773SOL    HW1 4345   6.510   5.997   7.594
34773SOL    HW2 4346   6.470   5.840   7.614
34774SOL     OW 4347   7.305   6.171   9.279
34774SOL    HW1 4348   7.279   6.260   9.243
34774SOL    HW2 4349   7.303   6.103   9.206
34775SOL     OW 4350   6.948   6.730   7.993
34775SOL    HW1 4351   7.031   6.701   7.945
34775SOL    HW2 4352   6.899   6.797   7.937
34776SOL     OW 4353   6.136   5.782   8.333
34776SOL    HW1 4354   6.131   5.777   8.433
34776SOL    HW2 4355   6.138   5.878   8.304
34777SOL     OW 4356   6.594   7.042   7.925
34777SOL    HW1 4357   6.548   7.114   7.873
34777SOL    HW2 4358   6.590   7.062   8.023
34778SOL     OW 4359   5.937   7.387   8.301
34778SOL    HW1 4360   5.987   7.301   8.307
34778SOL    HW2 4361   6.002   7.464   8.298
34779SOL     OW 4362   7.381   6.652   8.321
34779SOL    HW1 4363   7.319   6.637   8.245
34779SOL    HW2 4364   7.329   6.663   8.406
34780SOL     OW 4365   6.813   7.136   8.954
34780SOL    HW1 4366   6.819   7.059   9.018
34780SOL    HW2 4367   6.761   7.110   8.874
34781SOL     OW 4368   5.907   6.529   7.690
34781SOL    HW1 4369   5.989   6.568   7.648
34781SOL    HW2 4370   5.880   6.447   7.641
34782SOL     OW 4371   7.044   6.321   8.176
34782SOL    HW1 4372   7.039   6.256   8.251
34782SOL    HW2 4373   7.124   6.380   8.189
34783SOL     OW 4374   6.047   6.852   9.175
34783SOL    HW1 4375   5.997   6.853   9.089
34783SOL    HW2 4376   5.984   6.834   9.251
34784SOL     OW 4377   6.697   7.362   7.685
34784SOL    HW1 4378   6.637   7.300   7.735
34784SOL    HW2 4379   6.728   7.318   7.600
34785SOL     OW 4380   5.788   5.871   8.946
34785SOL    HW1 4381   5.708   5.931   8.933
34785SOL    HW2 4382   5.778   5.822   9.032
34786SOL     OW 4383   7.218   6.963   7.529
34786SOL    HW1 4384   7.186   7.057   7.519
34786SOL    HW2 4385   7.142   6.900   7.517
34787SOL     OW 4386   6.050   7.329   7.771
34787SOL    HW1 4387   6.083   7.368   7.857
34787SOL    HW2 4388   6.126   7.322   7.706
34788SOL     OW 4389   6.986   5.693   7.874
34788SOL    HW1 4390   6.962   5.656   7.784
34788SOL    HW2 4391   7.085   5.709   7.878
34789SOL     OW 4392   5.835   7.371   8.689
34789SOL    HW1 4393   5.892   7.306   8.739
34789SOL    HW2 4394   5.819   7.338   8.596
34790SOL     OW 4395   6.526   7.284   8.352
34790SOL    HW1 4396   6.606   7.227   8.373
34790SOL    HW2 4397   6.477   7.244   8.275
34791SOL     OW 4398   5.968   6.286   7.928
34791SOL    HW1 4399   6.013   6.196   7.925
34791SOL    HW2 4400   5.874   6.275   7.961
34792SOL     OW 4401   7.133   5.808   9.177
34792SOL    HW1 4402   7.128   5.845   9.269
34792SOL    HW2 4403   7.061   5.739   9.165
34793SOL     OW 4404   6.200   5.708   7.565
34793SOL    HW1 4405   6.298   5.686   7.572
34793SOL    HW2 4406   6.169   5.691   7.472
34794SOL     OW 4407   6.367   5.850   9.197
34794SOL    HW1 4408   6.434   5.789   9.240
34794SOL    HW2 4409   6.294   5.869   9.262
34795SOL     OW 4410   6.474   7.100   8.643
34795SOL    HW1 4411   6.451   7.075   8.549
34795SOL    HW2 4412   6.535   7.031   8.682
34796SOL     OW 4413   6.937   6.176   8.881
34796SOL    HW1 4414   6.965   6.133   8.966
34796SOL    HW2 4415   6.962   6.272   8.882
34797SOL     OW 4416   6.389   6.988   8.372
34797SOL    HW1 4417   6.479   7.002   8.330
34797SOL    HW2 4418   6.318   6.990   8.301
34798SOL     OW 4419   6.508   6.089   8.347
34798SOL    HW1 4420   6.483   6.080   8.251
34798SOL    HW2 4421   6.556   6.007   8.378
34799SOL     OW 4422   6.125   5.650   7.960
34799SOL    HW1 4423   6.044   5.651   8.018
34799SOL    HW2 4424   6.128   5.733   7.905
34800SOL     OW 4425   7.020   6.774   7.489
34800SOL    HW1 4426   7.052   6.698   7.546
34800SOL    HW2 4427   6.928   6.801   7.519
34801SOL     OW 4428   5.883   5.621   7.619
34801SOL    HW1 4429   5.932   5.705   7.598
34801SOL    HW2 4430   5.945   5.556   7.664
34802SOL     OW 4431   6.521   5.822   7.928
34802SOL    HW1 4432   6.473   5.863   7.850
34802SOL    HW2 4433   6.620   5.820   7.909
34803SOL     OW 4434   6.662   6.269   8.912
34803SOL    HW1 4435   6.582   6.208   8.915
34803SOL    HW2 4436   6.743   6.216   8.888
34804SOL     OW 4437   6.813   7.156   8.241
34804SOL    HW1 4438   6.834   7.230   8.176
34804SOL    HW2 4439   6.881   7.156   8.314
34805SOL     OW 4440   6.045   6.738   8.189
34805SOL    HW1 4441   5.974   6.711   8.254
34805SOL    HW2 4442   6.019   6.710   8.096
34806SOL     OW 4443   6.857   7.383   8.039
34806SOL    HW1 4444   6.901   7.447   7.975
34806SOL    HW2 4445   6.807   7.435   8.109
34807SOL     OW 4446   6.618   6.135   7.464
34807SOL    HW1 4447   6.577   6.217   7.425
34807SOL    HW2 4448   6.682   6.161   7.537
34808SOL     OW 4449   5.664   6.142   8.834
34808SOL    HW1 4450   5.756   6.141   8.793
34808SOL    HW2 4451   5.658   6.216   8.901
34809SOL     OW 4452   6.147   5.808   8.595
34809SOL    HW1 4453   6.185   5.724   8.632
34809SOL    HW2 4454   6.059   5.827   8.639
34810SOL     OW 4455   6.452   6.040   8.090
34810SOL    HW1 4456   6.420   6.112   8.028
34810SOL    HW2 4457   6.476   5.959   8.037
34811SOL     OW 4458   6.603   5.625   8.201
34811SOL    HW1 4459   6.531   5.630   8.132
34811SOL    HW2 4460   6.579   5.556   8.270
34812SOL     OW 4461   7.015   6.759   8.315
34812SOL    HW1 4462   6.960   6.675   8.308
34812SOL    HW2 4463   7.041   6.788   8.223
34813SOL     OW 4464   7.052   6.176   8.440
34813SOL    HW1 4465   7.022   6.081   8.447
34813SOL    HW2 4466   7.125   6.192   8.506
34814SOL     OW 4467   7.443   6.419   7.825
34814SOL    HW1 4468   7.485   6.355   7.889
34814SOL    HW2 4469   7.405   6.368   7.747
34815SOL     OW 4470   6.074   6.971   7.622
34815SOL    HW1 4471   5.987   6.956   7.669
34815SOL    HW2 4472   6.057   6.997   7.527
34816SOL     OW 4473   7.250   6.866   8.105
34816SOL    HW1 4474   7.349   6.874   8.119
34816SOL    HW2 4475   7.205   6.950   8.136
34817SOL     OW 4476   6.976   6.161   7.526
34817SOL    HW1 4477   6.922   6.140   7.607
34817SOL    HW2 4478   7.067   6.120   7.535
34818SOL     OW 4479   6.113   5.842   7.776
34818SOL    HW1 4480   6.140   5.783   7.701
34818SOL    HW2 4481   6.113   5.937   7.745
34819SOL     OW 4482   7.340   6.809   9.036
34819SOL    HW1 4483   7.431   6.770   9.023
34819SOL    HW2 4484   7.348   6.905   9.060
34820SOL     OW 4485   6.650   6.933   8.788
34820SOL    HW1 4486   6.570   6.910   8.843
34820SOL    HW2 4487   6.733   6.907   8.837
34821SOL     OW 4488   7.178   7.215   9.073
34821SOL    HW1 4489   7.205   7.249   8.983
34821SOL    HW2 4490   7.257   7.177   9.119
34822SOL     OW 4491   6.697   6.781   8.548
34822SOL    HW1 4492   6.657   6.825   8.629
34822SOL    HW2 4493   6.656   6.818   8.465
34823SOL     OW 4494   7.224   6.685   8.527
34823SOL    HW1 4495   7.229   6.766   8.586
34823SOL    HW2 4496   7.138   6.687   8.476
34824SOL     OW 4497   6.501   5.675   8.850
34824SOL    HW1 4498   6.526   5.655   8.755
34824SOL    HW2 4499   6.573   5.731   8.892
34825SOL     OW 4500   6.566   6.702   9.167
34825SOL    HW1 4501   6.467   6.708   9.177
34825SOL    HW2 4502   6.589   6.622   9.111
34826SOL     OW 4503   6.291   6.636   7.816
34826SOL    HW1 4504   6.277   6.643   7.915
34826SOL    HW2 4505   6.375   6.585   7.798
34827SOL     OW 4506   5.996   6.399   8.699
34827SOL    HW1 4507   6.082   6.411   8.749
34827SOL    HW2 4508   5.954   6.312   8.726
34828SOL     OW 4509   6.860   5.972   8.710
34828SOL    HW1 4510   6.881   6.046   8.774
34828SOL    HW2 4511   6.771   5.989   8.667
34829SOL     OW 4512   5.650   7.150   8.779
34829SOL    HW1 4513   5.604   7.232   8.745
34829SOL    HW2 4514   5.748   7.169   8.788
34830SOL     OW 4515   5.953   6.686   7.949
34830SOL    HW1 4516   5.946   6.769   7.893
34830SOL    HW2 4517   5.957   6.606   7.889
34831SOL     OW 4518   6.152   6.123   8.313
34831SOL    HW1 4519   6.164   6.189   8.239
34831SOL    HW2 4520   6.198   6.157   8.396
34832SOL     OW 4521   6.838   6.934   7.836
34832SOL    HW1 4522   6.888   7.011   7.876
34832SOL    HW2 4523   6.743   6.936   7.868
34833SOL     OW 4524   6.858   7.031   8.590
34833SOL    HW1 4525   6.905   7.044   8.677
34833SOL    HW2 4526   6.792   6.957   8.599
34834SOL     OW 4527   7.168   6.225   7.920
34834SOL    HW1 4528   7.137   6.286   7.993
34834SOL    HW2 4529   7.218   6.277   7.851
34835SOL     OW 4530   5.940   7.096   8.777
34835SOL    HW1 4531   5.919   7.052   8.690
34835SOL    HW2 4532   6.037   7.122   8.780
34836SOL     OW 4533   5.988   6.337   9.046
34836SOL    HW1 4534   6.056   6.392   8.999
34836SOL    HW2 4535   6.028   6.249   9.073
34837SOL     OW 4536   7.173   6.365   9.118
34837SOL    HW1 4537   7.081   6.403   9.113
34837SOL    HW2 4538   7.233   6.412   9.053
34838SOL     OW 4539   6.599   5.691   9.218
34838SOL    HW1 4540   6.605   5.776   9.166
34838SOL    HW2 4541   6.631   5.615   9.161
34839SOL     OW 4542   6.090   5.636   9.188
34839SOL    HW1 4543   6.048   5.579   9.118
34839SOL    HW2 4544   6.024   5.705   9.220
34840SOL     OW 4545   6.159   6.456   8.477
34840SOL    HW1 4546   6.203   6.545   8.468
34840SOL    HW2 4547   6.096   6.456   8.554
34841SOL     OW 4548   6.946   6.448   8.493
34841SOL    HW1 4549   6.871   6.448   8.427
34841SOL    HW2 4550   6.983   6.356   8.502
34842SOL     OW 4551   6.795   6.111   7.723
34842SOL    HW1 4552   6.808   6.027   7.777
34842SOL    HW2 4553   6.766   6.185   7.783
34843SOL     OW 4554   5.893   5.799   8.679
34843SOL    HW1 4555   5.870   5.836   8.769
34843SOL    HW2 4556   5.863   5.704   8.673
34844SOL     OW 4557   5.623   6.896   8.730
34844SOL    HW1 4558   5.676   6.847   8.798
34844SOL    HW2 4559   5.645   6.994   8.735
34845SOL     OW 4560   6.318   6.220   8.512
34845SOL    HW1 4561   6.377   6.194   8.436
34845SOL    HW2 4562   6.290   6.316   8.501
34846SOL     OW 4563   7.314   6.521   9.302
34846SOL    HW1 4564   7.268   6.514   9.213
34846SOL    HW2 4565   7.252   6.565   9.368
34847SOL     OW 4566   5.893   5.649   8.066
34847SOL    HW1 4567   5.882   5.743   8.099
34847SOL    HW2 4568   5.888   5.586   8.143
34848SOL     OW 4569   7.208   5.953   7.822
34848SOL    HW1 4570   7.210   5.877   7.886
34848SOL    HW2 4571   7.160   6.030   7.862
34849SOL     OW 4572   6.609   6.352   8.414
34849SOL    HW1 4573   6.624   6.373   8.510
34849SOL    HW2 4574   6.579   6.257   8.405
34850SOL     OW 4575   6.566   7.159   9.148
34850SOL    HW1 4576   6.546   7.203   9.060
34850SOL    HW2 4577   6.605   7.068   9.132
34851SOL     OW 4578   7.445   7.104   9.053
34851SOL    HW1 4579   7.459   7.131   8.958
34851SOL    HW2 4580   7.528   7.126   9.106
34852SOL     OW 4581   5.936   6.484   9.252
34852SOL    HW1 4582   6.012   6.528   9.300
34852SOL    HW2 4583   5.971   6.437   9.170
34853SOL     OW 4584   7.126   5.860   7.573
34853SOL    HW1 4585   7.065   5.785   7.596
34853SOL    HW2 4586   7.148   5.912   7.656
34854SOL     OW 4587   6.889   6.424   7.490
34854SOL    HW1 4588   6.923   6.331   7.505
34854SOL    HW2 4589   6.907   6.451   7.395
34855SOL     OW 4590   6.654   6.919   8.297
34855SOL    HW1 4591   6.661   6.835   8.242
34855SOL    HW2 4592   6.716   6.988   8.261
34856SOL     OW 4593   5.905   6.396   8.397
34856SOL    HW1 4594   5.998   6.432   8.402
34856SOL    HW2 4595   5.899   6.311   8.449
34857SOL     OW 4596   5.925   6.095   8.454
34857SOL    HW1 4597   5.873   6.012   8.437
34857SOL    HW2 4598   6.002   6.100   8.390
34858SOL     OW 4599   6.724   5.966   9.126
34858SOL    HW1 4600   6.679   6.029   9.190
34858SOL    HW2 4601   6.817   5.997   9.109
34859SOL     OW 4602   6.746   5.793   8.925
34859SOL    HW1 4603   6.746   5.857   9.002
34859SOL    HW2 4604   6.774   5.841   8.842
34860SOL     OW 4605   5.594   6.912   7.648
34860SOL    HW1 4606   5.501   6.933   7.617
34860SOL    HW2 4607   5.604   6.813   7.661
34861SOL     OW 4608   5.674   7.387   8.375
34861SOL    HW1 4609   5.632   7.301   8.348
34861SOL    HW2 4610   5.768   7.390   8.341
34862SOL     OW 4611   6.090   7.154   8.358
34862SOL    HW1 4612   6.156   7.228   8.367
34862SOL    HW2 4613   6.134   7.075   8.316
34863SOL     OW 4614   6.588   6.382   8.686
34863SOL    HW1 4615   6.629   6.350   8.772
34863SOL    HW2 4616   6.492   6.355   8.683
34864SOL     OW 4617   5.626   6.130   8.562
34864SOL    HW1 4618   5.711   6.097   8.521
34864SOL    HW2 4619   5.639   6.145   8.660
34865SOL     OW 4620   5.775   6.106   9.170
34865SOL    HW1 4621   5.834   6.066   9.100
34865SOL    HW2 4622   5.717   6.177   9.129
34866SOL     OW 4623   6.955   6.536   9.108
34866SOL    HW1 4624   6.994   6.625   9.128
34866SOL    HW2 4625   6.965   6.516   9.011
34867SOL     OW 4626   6.401   6.158   7.773
34867SOL    HW1 4627   6.408   6.069   7.727
34867SOL    HW2 4628   6.307   6.192   7.765
34868SOL     OW 4629   7.243   6.190   8.654
34868SOL    HW1 4630   7.205   6.121   8.716
34868SOL    HW2 4631   7.325   6.154   8.610
34869SOL     OW 4632   5.838   7.150   9.192
34869SOL    HW1 4633   5.808   7.207   9.268
34869SOL    HW2 4634   5.831   7.053   9.218
34870SOL     OW 4635   6.257   6.050   8.717
34870SOL    HW1 4636   6.223   5.961   8.687
34870SOL    HW2 4637   6.283   6.104   8.637
34871SOL     OW 4638   6.516   7.264   8.913
34871SOL    HW1 4639   6.492   7.246   8.818
34871SOL    HW2 4640   6.546   7.358   8.923
34872SOL     OW 4641   6.059   6.086   7.639
34872SOL    HW1 4642   6.120   6.166   7.643
34872SOL    HW2 4643   5.964   6.117   7.646
34873SOL     OW 4644   5.745   6.723   8.914
34873SOL    HW1 4645   5.767   6.662   8.990
34873SOL    HW2 4646   5.755   6.674   8.828
34874SOL     OW 4647   6.933   6.645   8.682
34874SOL    HW1 4648   6.957   6.582   8.608
34874SOL    HW2 4649   6.843   6.685   8.664
34875SOL     OW 4650   6.888   6.441   7.757
34875SOL    HW1 4651   6.802   6.410   7.799
34875SOL    HW2 4652   6.884   6.427   7.658
34876SOL     OW 4653   7.345   7.333   8.602
34876SOL    HW1 4654   7.406   7.363   8.529
34876SOL    HW2 4655   7.307   7.244   8.580
34877SOL     OW 4656   6.838   7.317   8.576
34877SOL    HW1 4657   6.922   7.322   8.522
34877SOL    HW2 4658   6.815   7.221   8.594
34878SOL     OW 4659   5.669   6.844   8.470
34878SOL    HW1 4660   5.664   6.843   8.570
34878SOL    HW2 4661   5.586   6.803   8.432
34879SOL     OW 4662   6.274   7.248   9.164
34879SOL    HW1 4663   6.218   7.329   9.173
34879SOL    HW2 4664   6.326   7.252   9.078
34880SOL     OW 4665   7.312   5.721   7.971
34880SOL    HW1 4666   7.385   5.704   7.904
34880SOL    HW2 4667   7.281   5.634   8.009
34881SOL     OW 4668   6.974   7.159   7.925
34881SOL    HW1 4669   7.041   7.171   7.851
34881SOL    HW2 4670   6.934   7.248   7.948
34882SOL     OW 4671   5.716   7.380   9.299
34882SOL    HW1 4672   5.675   7.306   9.352
34882SOL    HW2 4673   5.780   7.431   9.357
34883SOL     OW 4674   6.866   6.513   8.120
34883SOL    HW1 4675   6.926   6.432   8.122
34883SOL    HW2 4676   6.906   6.582   8.060
34884SOL     OW 4677   6.416   6.859   8.870
34884SOL    HW1 4678   6.411   6.892   8.965
34884SOL    HW2 4679   6.330   6.878   8.824
34885SOL     OW 4680   6.258   7.202   7.602
34885SOL    HW1 4681   6.267   7.212   7.503
34885SOL    HW2 4682   6.218   7.113   7.623
34886SOL     OW 4683   7.236   7.306   8.842
34886SOL    HW1 4684   7.289   7.316   8.758
34886SOL    HW2 4685   7.209   7.396   8.876
34887SOL     OW 4686   7.427   5.761   8.411
34887SOL    HW1 4687   7.466   5.676   8.375
34887SOL    HW2 4688   7.329   5.763   8.392
34888SOL     OW 4689   5.849   5.912   8.168
34888SOL    HW1 4690   5.770   5.963   8.134
34888SOL    HW2 4691   5.840   5.897   8.266
34889SOL     OW 4692   6.780   7.198   7.479
34889SOL    HW1 4693   6.786   7.105   7.516
34889SOL    HW2 4694   6.721   7.198   7.399
34890SOL     OW 4695   6.408   6.588   8.820
34890SOL    HW1 4696   6.448   6.587   8.728
34890SOL    HW2 4697   6.418   6.680   8.860
34891SOL     OW 4698   6.502   6.496   7.739
34891SOL    HW1 4699   6.565   6.534   7.671
34891SOL    HW2 4700   6.542   6.413   7.778
34892SOL     OW 4701   7.090   7.193   7.492
34892SOL    HW1 4702   6.998   7.230   7.499
34892SOL    HW2 4703   7.128   7.213   7.402
34893SOL     OW 4704   5.958   6.874   8.938
34893SOL    HW1 4705   5.945   6.967   8.904
34893SOL    HW2 4706   5.874   6.822   8.925
34894SOL     OW 4707   7.200   6.878   8.737
34894SOL    HW1 4708   7.260   6.881   8.817
34894SOL    HW2 4709   7.125   6.942   8.750
34895SOL     OW 4710   6.625   6.684   8.144
34895SOL    HW1 4711   6.555   6.637   8.198
34895SOL    HW2 4712   6.684   6.616   8.101
34896SOL     OW 4713   6.600   5.822   8.419
34896SOL    HW1 4714   6.592   5.786   8.326
34896SOL    HW2 4715   6.598   5.746   8.484
34897SOL     OW 4716   6.176   7.073   7.939
34897SOL    HW1 4717   6.218   7.015   7.869
34897SOL    HW2 4718   6.132   7.152   7.895
34898SOL     OW 4719   7.295   5.971   8.829
34898SOL    HW1 4720   7.368   6.040   8.833
34898SOL    HW2 4721   7.323   5.896   8.770
34899SOL     OW 4722   5.841   6.934   7.738
34899SOL    HW1 4723   5.745   6.935   7.711
34899SOL    HW2 4724   5.853   6.987   7.822
34900SOL     OW 4725   5.691   6.599   9.174
34900SOL    HW1 4726   5.614   6.566   9.228
34900SOL    HW2 4727   5.776   6.569   9.216
34901SOL     OW 4728   6.258   5.789   8.937
34901SOL    HW1 4729   6.348   5.773   8.897
34901SOL    HW2 4730   6.266   5.794   9.036
34902SOL     OW 4731   5.661   5.931   7.481
34902SOL    HW1 4732   5.569   5.903   7.452
34902SOL    HW2 4733   5.692   6.008   7.425
34903SOL     OW 4734   7.026   6.442   8.846
34903SOL    HW1 4735   6.969   6.494   8.783
34903SOL    HW2 4736   7.122   6.454   8.822
34904SOL     OW 4737   5.658   5.752   7.766
34904SOL    HW1 4738   5.641   5.835   7.712
34904SOL    HW2 4739   5.748   5.715   7.744
34905SOL     OW 4740   6.769   6.921   7.567
34905SOL    HW1 4741   6.670   6.910   7.569
34905SOL    HW2 4742   6.803   6.936   7.660
34906SOL     OW 4743   6.199   6.428   8.879
34906SOL    HW1 4744   6.255   6.509   8.862
34906SOL    HW2 4745   6.258   6.348   8.882
34907SOL     OW 4746   7.079   7.353   8.407
34907SOL    HW1 4747   7.112   7.417   8.338
34907SOL    HW2 4748   7.145   7.347   8.482
34908SOL     OW 4749   6.302   6.151   9.156
34908SOL    HW1 4750   6.321   6.216   9.230
34908SOL    HW2 4751   6.362   6.071   9.165
34909SOL     OW 4752   7.036   6.806   9.081
34909SOL    HW1 4753   7.027   6.796   9.180
34909SOL    HW2 4754   7.132   6.799   9.055
34910SOL     OW 4755   5.976   7.327   9.008
34910SOL    HW1 4756   5.885   7.368   9.006
34910SOL    HW2 4757   5.969   7.233   9.040
34911SOL     OW 4758   7.260   6.469   8.702
34911SOL    HW1 4759   7.233   6.380   8.665
34911SOL    HW2 4760   7.261   6.537   8.629
34912SOL     OW 4761   6.811   5.911   7.897
34912SOL    HW1 4762   6.876   5.837   7.886
34912SOL    HW2 4763   6.831   5.961   7.981
34913SOL     OW 4764   6.180   6.331   8.100
34913SOL    HW1 4765   6.230   6.416   8.081
34913SOL    HW2 4766   6.092   6.333   8.052
34914SOL     OW 4767   7.363   5.928   9.090
34914SOL    HW1 4768   7.346   5.959   8.996
34914SOL    HW2 4769   7.279   5.891   9.128
34915SOL     OW 4770   7.316   6.520   8.965
34915SOL    HW1 4771   7.354   6.611   8.980
34915SOL    HW2 4772   7.308   6.503   8.866
34916SOL     OW 4773   6.445   6.960   7.464
34916SOL    HW1 4774   6.399   6.975   7.552
34916SOL    HW2 4775   6.489   7.045   7.434
34917SOL     OW 4776   6.247   7.376   8.401
34917SOL    HW1 4777   6.201   7.464   8.388
34917SOL    HW2 4778   6.346   7.388   8.394
34918SOL     OW 4779   6.445   6.542   8.309
34918SOL    HW1 4780   6.499   6.473   8.357
34918SOL    HW2 4781   6.413   6.611   8.375
34919SOL     OW 4782   6.669   6.570   7.535
34919SOL    HW1 4783   6.646   6.623   7.453
34919SOL    HW2 4784   6.750   6.514   7.516
34920SOL     OW 4785   7.447   7.155   8.299
34920SOL    HW1 4786   7.376   7.143   8.229
34920SOL    HW2 4787   7.448   7.076   8.359
34921SOL     OW 4788   5.807   6.900   9.292
34921SOL    HW1 4789   5.742   6.827   9.271
34921SOL    HW2 4790   5.811   6.914   9.390
34922SOL     OW 4791   5.665   6.826   8.101
34922SOL    HW1 4792   5.664   6.779   8.189
34922SOL    HW2 4793   5.747   6.798   8.050
34923SOL     OW 4794   6.258   6.977   9.072
34923SOL    HW1 4795   6.180   6.927   9.110
34923SOL    HW2 4796   6.255   7.072   9.103
34924SOL     OW 4797   7.410   5.778   8.675
34924SOL    HW1 4798   7.406   5.688   8.719
34924SOL    HW2 4799   7.413   5.767   8.576
34925SOL     OW 4800   6.014   6.010   7.968
34925SOL    HW1 4801   6.044   5.938   7.906
34925SOL    HW2 4802   5.975   5.970   8.051
34926SOL     OW 4803   7.291   7.073   8.552
34926SOL    HW1 4804   7.198   7.048   8.525
34926SOL    HW2 4805   7.317   7.023   8.634
34927SOL     OW 4806   5.903   6.133   8.728
34927SOL    HW1 4807   5.941   6.074   8.800
34927SOL    HW2 4808   5.943   6.107   8.640
34928SOL     OW 4809   6.398   7.172   8.135
34928SOL    HW1 4810   6.430   7.182   8.041
34928SOL    HW2 4811   6.319   7.110   8.137
34929SOL     OW 4812   7.010   5.800   8.560
34929SOL    HW1 4813   7.062   5.735   8.615
34929SOL    HW2 4814   6.961   5.863   8.621
34930SOL     OW 4815   6.587   5.620   8.602
34930SOL    HW1 4816   6.524   5.548   8.571
34930SOL    HW2 4817   6.680   5.584   8.602
34931SOL     OW 4818   6.356   6.916   7.749
34931SOL    HW1 4819   6.310   6.829   7.766
34931SOL    HW2 4820   6.447   6.913   7.790
34932SOL     OW 4821   6.204   7.153   8.732
34932SOL    HW1 4822   6.199   7.235   8.789
34932SOL    HW2 4823   6.293   7.150   8.687
34933SOL     OW 4824   6.938   5.638   7.616
34933SOL    HW1 4825   6.973   5.597   7.532
34933SOL    HW2 4826   6.848   5.600   7.636
34934SOL     OW 4827   6.886   6.039   8.139
34934SOL    HW1 4828   6.827   6.119   8.143
34934SOL    HW2 4829   6.901   6.004   8.232
34935SOL     OW 4830   7.179   5.807   8.330
34935SOL    HW1 4831   7.095   5.806   8.384
34935SOL    HW2 4832   7.181   5.890   8.274
34936SOL     OW 4833   5.625   6.663   7.748
34936SOL    HW1 4834   5.724   6.652   7.739
34936SOL    HW2 4835   5.585   6.577   7.780
34937SOL     OW 4836   5.816   6.214   9.423
34937SOL    HW1 4837   5.723   6.212   9.460
34937SOL    HW2 4838   5.817   6.175   9.331
34938SOL     OW 4839   5.811   5.861  10.306
34938SOL    HW1 4840   5.846   5.844  10.398
34938SOL    HW2 4841   5.723   5.816  10.294
34939SOL     OW 4842   5.605   5.954   9.957
34939SOL    HW1 4843   5.523   5.997   9.996
34939SOL    HW2 4844   5.577   5.881   9.894
34940SOL     OW 4845   6.155   6.861  10.475
34940SOL    HW1 4846   6.062   6.854  10.438
34940SOL    HW2 4847   6.166   6.950  10.519
34941SOL     OW 4848   7.141   7.097  10.013
34941SOL    HW1 4849   7.084   7.081  10.094
34941SOL    HW2 4850   7.082   7.107   9.933
34942SOL     OW 4851   6.721   6.289  10.027
34942SOL    HW1 4852   6.778   6.367  10.002
34942SOL    HW2 4853   6.661   6.315  10.103
34943SOL     OW 4854   7.341   6.193   9.541
34943SOL    HW1 4855   7.329   6.180   9.442
34943SOL    HW2 4856   7.311   6.112   9.590
34944SOL     OW 4857   6.354   6.730  10.333
34944SOL    HW1 4858   6.276   6.747  10.393
34944SOL    HW2 4859   6.388   6.817  10.297
34945SOL     OW 4860   6.436   6.384  11.133
34945SOL    HW1 4861   6.432   6.460  11.198
34945SOL    HW2 4862   6.458   6.420  11.042
34946SOL     OW 4863   6.271   6.598   9.975
34946SOL    HW1 4864   6.340   6.582  10.045
34946SOL    HW2 4865   6.198   6.655  10.013
34947SOL     OW 4866   6.272   6.747  11.113
34947SOL    HW1 4867   6.332   6.826  11.127
34947SOL    HW2 4868   6.186   6.778  11.072
34948SOL     OW 4869   5.921   7.021  10.371
34948SOL    HW1 4870   5.843   6.990  10.318
34948SOL    HW2 4871   5.979   7.079  10.314
34949SOL     OW 4872   7.046   7.091  10.649
34949SOL    HW1 4873   7.070   7.185  10.675
34949SOL    HW2 4874   7.030   7.037  10.731
34950SOL     OW 4875   6.024   5.978  10.809
34950SOL    HW1 4876   6.106   5.922  10.818
34950SOL    HW2 4877   5.943   5.920  10.813
34951SOL     OW 4878   7.189   6.033  10.047
34951SOL    HW1 4879   7.115   6.079   9.997
34951SOL    HW2 4880   7.240   6.101  10.100
34952SOL     OW 4881   5.817   7.299   9.793
34952SOL    HW1 4882   5.851   7.376   9.847
34952SOL    HW2 4883   5.861   7.299   9.703
34953SOL     OW 4884   6.713   6.927  11.000
34953SOL    HW1 4885   6.760   6.927  11.088
34953SOL    HW2 4886   6.665   6.840  10.989
34954SOL     OW 4887   5.816   7.020   9.848
34954SOL    HW1 4888   5.790   7.116   9.848
34954SOL    HW2 4889   5.745   6.966   9.893
34955SOL     OW 4890   5.826   6.677  10.196
34955SOL    HW1 4891   5.840   6.593  10.248
34955SOL    HW2 4892   5.771   6.741  10.251
34956SOL     OW 4893   6.206   7.372  10.749
34956SOL    HW1 4894   6.114   7.355  10.784
34956SOL    HW2 4895   6.234   7.464  10.775
34957SOL     OW 4896   6.192   6.550   9.433
34957SOL    HW1 4897   6.199   6.634   9.379
34957SOL    HW2 4898   6.238   6.563   9.521
34958SOL     OW 4899   7.180   5.700  10.790
34958SOL    HW1 4900   7.162   5.767  10.718
34958SOL    HW2 4901   7.177   5.746  10.879
34959SOL     OW 4902   5.708   6.229   9.873
34959SOL    HW1 4903   5.663   6.141   9.890
34959SOL    HW2 4904   5.707   6.283   9.957
34960SOL     OW 4905   7.428   7.353   9.669
34960SOL    HW1 4906   7.482   7.324   9.749
34960SOL    HW2 4907   7.458   7.443   9.640
34961SOL     OW 4908   5.613   7.182   9.427
34961SOL    HW1 4909   5.594   7.086   9.448
34961SOL    HW2 4910   5.580   7.240   9.502
34962SOL     OW 4911   7.275   6.508   9.922
34962SOL    HW1 4912   7.370   6.479   9.930
34962SOL    HW2 4913   7.267   6.573   9.847
34963SOL     OW 4914   7.227   6.694   9.742
34963SOL    HW1 4915   7.313   6.696   9.690
34963SOL    HW2 4916   7.241   6.741   9.830
34964SOL     OW 4917   5.699   6.323  10.907
34964SOL    HW1 4918   5.787   6.310  10.952
34964SOL    HW2 4919   5.686   6.420  10.885
34965SOL     OW 4920   6.199   6.951  10.036
34965SOL    HW1 4921   6.150   6.864  10.045
34965SOL    HW2 4922   6.176   6.994   9.949
34966SOL     OW 4923   6.879   6.814  10.733
34966SOL    HW1 4924   6.916   6.741  10.675
34966SOL    HW2 4925   6.931   6.819  10.818
34967SOL     OW 4926   6.395   5.590   9.812
34967SOL    HW1 4927   6.435   5.681   9.803
34967SOL    HW2 4928   6.295   5.598   9.818
34968SOL     OW 4929   5.783   6.562  10.574
34968SOL    HW1 4930   5.872   6.517  10.560
34968SOL    HW2 4931   5.710   6.497  10.555
34969SOL     OW 4932   7.111   6.585   9.500
34969SOL    HW1 4933   7.048   6.509   9.513
34969SOL    HW2 4934   7.159   6.603   9.586
34970SOL     OW 4935   6.773   7.378  10.926
34970SOL    HW1 4936   6.797   7.438  10.850
34970SOL    HW2 4937   6.780   7.283  10.896
34971SOL     OW 4938   5.903   5.837  11.111
34971SOL    HW1 4939   5.974   5.908  11.117
34971SOL    HW2 4940   5.815   5.876  11.139
34972SOL     OW 4941   7.052   7.003  10.263
34972SOL    HW1 4942   6.993   7.009  10.343
34972SOL    HW2 4943   7.037   6.915  10.217
34973SOL     OW 4944   7.253   7.300   9.882
34973SOL    HW1 4945   7.212   7.277   9.794
34973SOL    HW2 4946   7.235   7.226   9.947
34974SOL     OW 4947   6.184   6.315   9.580
34974SOL    HW1 4948   6.208   6.384   9.512
34974SOL    HW2 4949   6.106   6.348   9.634
34975SOL     OW 4950   6.867   5.931  10.254
34975SOL    HW1 4951   6.781   5.881  10.241
34975SOL    HW2 4952   6.929   5.877  10.310
34976SOL     OW 4953   7.162   7.248   9.617
34976SOL    HW1 4954   7.251   7.294   9.620
34976SOL    HW2 4955   7.141   7.224   9.522
34977SOL     OW 4956   6.393   6.191  10.775
34977SOL    HW1 4957   6.346   6.188  10.864
34977SOL    HW2 4958   6.342   6.136  10.709
34978SOL     OW 4959   6.980   6.055  10.984
34978SOL    HW1 4960   6.960   6.098  11.072
34978SOL    HW2 4961   7.058   5.993  10.993
34979SOL     OW 4962   6.559   6.476  10.882
34979SOL    HW1 4963   6.605   6.392  10.853
34979SOL    HW2 4964   6.503   6.510  10.807
34980SOL     OW 4965   6.577   5.996  10.552
34980SOL    HW1 4966   6.500   6.030  10.606
34980SOL    HW2 4967   6.543   5.945  10.473
34981SOL     OW 4968   6.627   6.287   9.739
34981SOL    HW1 4969   6.653   6.283   9.835
34981SOL    HW2 4970   6.542   6.236   9.725
34982SOL     OW 4971   5.662   6.397  10.099
34982SOL    HW1 4972   5.761   6.385  10.108
34982SOL    HW2 4973   5.638   6.492  10.120
34983SOL     OW 4974   5.716   7.407  10.881
34983SOL    HW1 4975   5.706   7.392  10.980
34983SOL    HW2 4976   5.630   7.443  10.845
34984SOL     OW 4977   6.451   5.934   9.505
34984SOL    HW1 4978   6.510   5.997   9.456
34984SOL    HW2 4979   6.470   5.840   9.476
34985SOL     OW 4980   7.305   6.171  11.141
34985SOL    HW1 4981   7.279   6.260  11.105
34985SOL    HW2 4982   7.303   6.103  11.068
34986SOL     OW 4983   6.948   6.730   9.855
34986SOL    HW1 4984   7.031   6.701   9.807
34986SOL    HW2 4985   6.899   6.797   9.799
34987SOL     OW 4986   6.136   5.782  10.195
34987SOL    HW1 4987   6.131   5.777  10.295
34987SOL    HW2 4988   6.138   5.878  10.166
34988SOL     OW 4989   6.594   7.042   9.787
34988SOL    HW1 4990   6.548   7.114   9.735
34988SOL    HW2 4991   6.590   7.062   9.885
34989SOL     OW 4992   5.937   7.387  10.163
34989SOL    HW1 4993   5.987   7.301  10.169
34989SOL    HW2 4994   6.002   7.464  10.160
34990SOL     OW 4995   7.381   6.652  10.183
34990SOL    HW1 4996   7.319   6.637  10.107
34990SOL    HW2 4997   7.329   6.663  10.268
34991SOL     OW 4998   6.813   7.136  10.816
34991SOL    HW1 4999   6.819   7.059  10.880
34991SOL    HW2 5000   6.761   7.110  10.736
34992SOL     OW 5001   5.907   6.529   9.552
34992SOL    HW1 5002   5.989   6.568   9.510
34992SOL    HW2 5003   5.880   6.447   9.503
34993SOL     OW 5004   7.044   6.321  10.038
34993SOL    HW1 5005   7.039   6.256  10.113
34993SOL    HW2 5006   7.124   6.380  10.051
34994SOL     OW 5007   6.047   6.852  11.037
34994SOL    HW1 5008   5.997   6.853  10.951
34994SOL    HW2 5009   5.984   6.834  11.113
34995SOL     OW 5010   6.697   7.362   9.547
34995SOL    HW1 5011   6.637   7.300   9.597
34995SOL    HW2 5012   6.728   7.318   9.462
34996SOL     OW 5013   5.788   5.871  10.808
34996SOL    HW1 5014   5.708   5.931  10.795
34996SOL    HW2 5015   5.778   5.822  10.894
34997SOL     OW 5016   7.218   6.963   9.391
34997SOL    HW1 5017   7.186   7.057   9.381
34997SOL    HW2 5018   7.142   6.900   9.379
34998SOL     OW 5019   6.050   7.329   9.633
34998SOL    HW1 5020   6.083   7.368   9.719
34998SOL    HW2 5021   6.126   7.322   9.568
34999SOL     OW 5022   6.986   5.693   9.736
34999SOL    HW1 5023   6.962   5.656   9.646
34999SOL    HW2 5024   7.085   5.709   9.740
35000SOL     OW 5025   5.835   7.371  10.551
35000SOL    HW1 5026   5.892   7.306  10.601
35000SOL    HW2 5027   5.819   7.338  10.458
35001SOL     OW 5028   6.526   7.284  10.214
35001SOL    HW1 5029   6.606   7.227  10.235
35001SOL    HW2 5030   6.477   7.244  10.137
35002SOL     OW 5031   5.968   6.286   9.790
35002SOL    HW1 5032   6.013   6.196   9.787
35002SOL    HW2 5033   5.874   6.275   9.823
35003SOL     OW 5034   7.133   5.808  11.039
35003SOL    HW1 5035   7.128   5.845  11.131
35003SOL    HW2 5036   7.061   5.739  11.027
35004SOL     OW 5037   6.200   5.708   9.427
35004SOL    HW1 5038   6.298   5.686   9.434
35004SOL    HW2 5039   6.169   5.691   9.334
35005SOL     OW 5040   6.367   5.850  11.059
35005SOL    HW1 5041   6.434   5.789  11.102
35005SOL    HW2 5042   6.294   5.869  11.124
35006SOL     OW 5043   6.474   7.100  10.505
35006SOL    HW1 5044   6.451   7.075  10.411
35006SOL    HW2 5045   6.535   7.031  10.544
35007SOL     OW 5046   6.937   6.176  10.743
35007SOL    HW1 5047   6.965   6.133  10.828
35007SOL    HW2 5048   6.962   6.272  10.744
35008SOL     OW 5049   6.389   6.988  10.234
35008SOL    HW1 5050   6.479   7.002  10.192
35008SOL    HW2 5051   6.318   6.990  10.163
35009SOL     OW 5052   6.508   6.089  10.209
35009SOL    HW1 5053   6.483   6.080  10.113
35009SOL    HW2 5054   6.556   6.007  10.240
35010SOL     OW 5055   6.125   5.650   9.822
35010SOL    HW1 5056   6.044   5.651   9.880
35010SOL    HW2 5057   6.128   5.733   9.767
35011SOL     OW 5058   7.020   6.774   9.351
35011SOL    HW1 5059   7.052   6.698   9.408
35011SOL    HW2 5060   6.928   6.801   9.381
35012SOL     OW 5061   5.883   5.621   9.481
35012SOL    HW1 5062   5.932   5.705   9.460
35012SOL    HW2 5063   5.945   5.556   9.526
35013SOL     OW 5064   6.521   5.822   9.790
35013SOL    HW1 5065   6.473   5.863   9.712
35013SOL    HW2 5066   6.620   5.820   9.771
35014SOL     OW 5067   6.662   6.269  10.774
35014SOL    HW1 5068   6.582   6.208  10.777
35014SOL    HW2 5069   6.743   6.216  10.750
35015SOL     OW 5070   6.813   7.156  10.103
35015SOL    HW1 5071   6.834   7.230  10.038
35015SOL    HW2 5072   6.881   7.156  10.176
35016SOL     OW 5073   6.045   6.738  10.051
35016SOL    HW1 5074   5.974   6.711  10.116
35016SOL    HW2 5075   6.019   6.710   9.958
35017SOL     OW 5076   6.857   7.383   9.901
35017SOL    HW1 5077   6.901   7.447   9.837
35017SOL    HW2 5078   6.807   7.435   9.971
35018SOL     OW 5079   6.618   6.135   9.326
35018SOL    HW1 5080   6.577   6.217   9.287
35018SOL    HW2 5081   6.682   6.161   9.399
35019SOL     OW 5082   5.664   6.142  10.696
35019SOL    HW1 5083   5.756   6.141  10.655
35019SOL    HW2 5084   5.658   6.216  10.763
35020SOL     OW 5085   6.147   5.808  10.457
35020SOL    HW1 5086   6.185   5.724  10.494
35020SOL    HW2 5087   6.059   5.827  10.501
35021SOL     OW 5088   6.452   6.040   9.952
35021SOL    HW1 5089   6.420   6.112   9.890
35021SOL    HW2 5090   6.476   5.959   9.899
35022SOL     OW 5091   6.603   5.625  10.063
35022SOL    HW1 5092   6.531   5.630   9.994
35022SOL    HW2 5093   6.579   5.556  10.132
35023SOL     OW 5094   7.015   6.759  10.177
35023SOL    HW1 5095   6.960   6.675  10.170
35023SOL    HW2 5096   7.041   6.788  10.085
35024SOL     OW 5097   7.052   6.176  10.302
35024SOL    HW1 5098   7.022   6.081  10.309
35024SOL    HW2 5099   7.125   6.192  10.368
35025SOL     OW 5100   7.443   6.419   9.687
35025SOL    HW1 5101   7.485   6.355   9.751
35025SOL    HW2 5102   7.405   6.368   9.609
35026SOL     OW 5103   6.074   6.971   9.484
35026SOL    HW1 5104   5.987   6.956   9.531
35026SOL    HW2 5105   6.057   6.997   9.389
35027SOL     OW 5106   7.250   6.866   9.967
35027SOL    HW1 5107   7.349   6.874   9.981
35027SOL    HW2 5108   7.205   6.950   9.998
35028SOL     OW 5109   6.976   6.161   9.388
35028SOL    HW1 5110   6.922   6.140   9.469
35028SOL    HW2 5111   7.067   6.120   9.397
35029SOL     OW 5112   6.113   5.842   9.638
35029SOL    HW1 5113   6.140   5.783   9.563
35029SOL    HW2 5114   6.113   5.937   9.607
35030SOL     OW 5115   7.340   6.809  10.898
35030SOL    HW1 5116   7.431   6.770  10.885
35030SOL    HW2 5117   7.348   6.905  10.922
35031SOL     OW 5118   6.650   6.933  10.650
35031SOL    HW1 5119   6.570   6.910  10.705
35031SOL    HW2 5120   6.733   6.907  10.699
35032SOL     OW 5121   7.178   7.215  10.935
35032SOL    HW1 5122   7.205   7.249  10.845
35032SOL    HW2 5123   7.257   7.177  10.981
35033SOL     OW 5124   6.697   6.781  10.410
35033SOL    HW1 5125   6.657   6.825  10.491
35033SOL    HW2 5126   6.656   6.818  10.327
35034SOL     OW 5127   7.224   6.685  10.389
35034SOL    HW1 5128   7.229   6.766  10.448
35034SOL    HW2 5129   7.138   6.687  10.338
35035SOL     OW 5130   6.501   5.675  10.712
35035SOL    HW1 5131   6.526   5.655  10.617
35035SOL    HW2 5132   6.573   5.731  10.754
35036SOL     OW 5133   6.566   6.702  11.029
35036SOL    HW1 5134   6.467   6.708  11.039
35036SOL    HW2 5135   6.589   6.622  10.973
35037SOL     OW 5136   6.291   6.636   9.678
35037SOL    HW1 5137   6.277   6.643   9.777
35037SOL    HW2 5138   6.375   6.585   9.660
35038SOL     OW 5139   5.996   6.399  10.561
35038SOL    HW1 5140   6.082   6.411  10.611
35038SOL    HW2 5141   5.954   6.312  10.588
35039SOL     OW 5142   6.860   5.972  10.572
35039SOL    HW1 5143   6.881   6.046  10.636
35039SOL    HW2 5144   6.771   5.989  10.529
35040SOL     OW 5145   5.650   7.150  10.641
35040SOL    HW1 5146   5.604   7.232  10.607
35040SOL    HW2 5147   5.748   7.169  10.650
35041SOL     OW 5148   5.953   6.686   9.811
35041SOL    HW1 5149   5.946   6.769   9.755
35041SOL    HW2 5150   5.957   6.606   9.751
35042SOL     OW 5151   6.152   6.123  10.175
35042SOL    HW1 5152   6.164   6.189  10.101
35042SOL    HW2 5153   6.198   6.157  10.258
35043SOL     OW 5154   6.838   6.934   9.698
35043SOL    HW1 5155   6.888   7.011   9.738
35043SOL    HW2 5156   6.743   6.936   9.730
35044SOL     OW 5157   6.858   7.031  10.452
35044SOL    HW1 5158   6.905   7.044  10.539
35044SOL    HW2 5159   6.792   6.957  10.461
35045SOL     OW 5160   7.168   6.225   9.782
35045SOL    HW1 5161   7.137   6.286   9.855
35045SOL    HW2 5162   7.218   6.277   9.713
35046SOL     OW 5163   5.940   7.096  10.639
35046SOL    HW1 5164   5.919   7.052  10.552
35046SOL    HW2 5165   6.037   7.122  10.642
35047SOL     OW 5166   5.988   6.337  10.908
35047SOL    HW1 5167   6.056   6.392  10.861
35047SOL    HW2 5168   6.028   6.249  10.935
35048SOL     OW 5169   7.173   6.365  10.980
35048SOL    HW1 5170   7.081   6.403  10.975
35048SOL    HW2 5171   7.233   6.412  10.915
35049SOL     OW 5172   6.599   5.691  11.080
35049SOL    HW1 5173   6.605   5.776  11.028
35049SOL    HW2 5174   6.631   5.615  11.023
35050SOL     OW 5175   6.090   5.636  11.050
35050SOL    HW1 5176   6.048   5.579  10.980
35050SOL    HW2 5177   6.024   5.705  11.082
35051SOL     OW 5178   6.159   6.456  10.339
35051SOL    HW1 5179   6.203   6.545  10.330
35051SOL    HW2 5180   6.096   6.456  10.416
35052SOL     OW 5181   6.946   6.448  10.355
35052SOL    HW1 5182   6.871   6.448  10.289
35052SOL    HW2 5183   6.983   6.356  10.364
35053SOL     OW 5184   6.795   6.111   9.585
35053SOL    HW1 5185   6.808   6.027   9.639
35053SOL    HW2 5186   6.766   6.185   9.645
35054SOL     OW 5187   5.893   5.799  10.541
35054SOL    HW1 5188   5.870   5.836  10.631
35054SOL    HW2 5189   5.863   5.704  10.535
35055SOL     OW 5190   5.623   6.896  10.592
35055SOL    HW1 5191   5.676   6.847  10.660
35055SOL    HW2 5192   5.645   6.994  10.597
35056SOL     OW 5193   6.318   6.220  10.374
35056SOL    HW1 5194   6.377   6.194  10.298
35056SOL    HW2 5195   6.290   6.316  10.363
35057SOL     OW 5196   7.314   6.521  11.164
35057SOL    HW1 5197   7.268   6.514  11.075
35057SOL    HW2 5198   7.252   6.565  11.230
35058SOL     OW 5199   5.893   5.649   9.928
35058SOL    HW1 5200   5.882   5.743   9.961
35058SOL    HW2 5201   5.888   5.586  10.005
35059SOL     OW 5202   7.208   5.953   9.684
35059SOL    HW1 5203   7.210   5.877   9.748
35059SOL    HW2 5204   7.160   6.030   9.724
35060SOL     OW 5205   6.609   6.352  10.276
35060SOL    HW1 5206   6.624   6.373  10.372
35060SOL    HW2 5207   6.579   6.257  10.267
35061SOL     OW 5208   6.566   7.159  11.010
35061SOL    HW1 5209   6.546   7.203  10.922
35061SOL    HW2 5210   6.605   7.068  10.994
35062SOL     OW 5211   7.445   7.104  10.915
35062SOL    HW1 5212   7.459   7.131  10.820
35062SOL    HW2 5213   7.528   7.126  10.968
35063SOL     OW 5214   5.936   6.484  11.114
35063SOL    HW1 5215   6.012   6.528  11.162
35063SOL    HW2 5216   5.971   6.437  11.032
35064SOL     OW 5217   7.126   5.860   9.435
35064SOL    HW1 5218   7.065   5.785   9.458
35064SOL    HW2 5219   7.148   5.912   9.518
35065SOL     OW 5220   6.889   6.424   9.352
35065SOL    HW1 5221   6.923   6.331   9.367
35065SOL    HW2 5222   6.907   6.451   9.257
35066SOL     OW 5223   6.654   6.919  10.159
35066SOL    HW1 5224   6.661   6.835  10.104
35066SOL    HW2 5225   6.716   6.988  10.123
35067SOL     OW 5226   5.905   6.396  10.259
35067SOL    HW1 5227   5.998   6.432  10.264
35067SOL    HW2 5228   5.899   6.311  10.311
35068SOL     OW 5229   5.925   6.095  10.316
35068SOL    HW1 5230   5.873   6.012  10.299
35068SOL    HW2 5231   6.002   6.100  10.252
35069SOL     OW 5232   6.724   5.966  10.988
35069SOL    HW1 5233   6.679   6.029  11.052
35069SOL    HW2 5234   6.817   5.997  10.971
35070SOL     OW 5235   6.746   5.793  10.787
35070SOL    HW1 5236   6.746   5.857  10.864
35070SOL    HW2 5237   6.774   5.841  10.704
35071SOL     OW 5238   5.594   6.912   9.510
35071SOL    HW1 5239   5.501   6.933   9.479
35071SOL    HW2 5240   5.604   6.813   9.523
35072SOL     OW 5241   5.674   7.387  10.237
35072SOL    HW1 5242   5.632   7.301  10.210
35072SOL    HW2 5243   5.768   7.390  10.203
35073SOL     OW 5244   6.090   7.154  10.220
35073SOL    HW1 5245   6.156   7.228  10.229
35073SOL    HW2 5246   6.134   7.075  10.178
35074SOL     OW 5247   6.588   6.382  10.548
35074SOL    HW1 5248   6.629   6.350  10.634
35074SOL    HW2 5249   6.492   6.355  10.545
35075SOL     OW 5250   5.626   6.130  10.424
35075SOL    HW1 5251   5.711   6.097  10.383
35075SOL    HW2 5252   5.639   6.145  10.522
35076SOL     OW 5253   5.775   6.106  11.032
35076SOL    HW1 5254   5.834   6.066  10.962
35076SOL    HW2 5255   5.717   6.177  10.991
35077SOL     OW 5256   6.955   6.536  10.970
35077SOL    HW1 5257   6.994   6.625  10.990
35077SOL    HW2 5258   6.965   6.516  10.873
35078SOL     OW 5259   6.401   6.158   9.635
35078SOL    HW1 5260   6.408   6.069   9.589
35078SOL    HW2 5261   6.307   6.192   9.627
35079SOL     OW 5262   7.243   6.190  10.516
35079SOL    HW1 5263   7.205   6.121  10.578
35079SOL    HW2 5264   7.325   6.154  10.472
35080SOL     OW 5265   5.838   7.150  11.054
35080SOL    HW1 5266   5.808   7.207  11.130
35080SOL    HW2 5267   5.831   7.053  11.080
35081SOL     OW 5268   6.257   6.050  10.579
35081SOL    HW1 5269   6.223   5.961  10.549
35081SOL    HW2 5270   6.283   6.104  10.499
35082SOL     OW 5271   6.516   7.264  10.775
35082SOL    HW1 5272   6.492   7.246  10.680
35082SOL    HW2 5273   6.546   7.358  10.785
35083SOL     OW 5274   6.059   6.086   9.501
35083SOL    HW1 5275   6.120   6.166   9.505
35083SOL    HW2 5276   5.964   6.117   9.508
35084SOL     OW 5277   5.745   6.723  10.776
35084SOL    HW1 5278   5.767   6.662  10.852
35084SOL    HW2 5279   5.755   6.674  10.690
35085SOL     OW 5280   6.933   6.645  10.544
35085SOL    HW1 5281   6.957   6.582  10.470
35085SOL    HW2 5282   6.843   6.685  10.526
35086SOL     OW 5283   6.888   6.441   9.619
35086SOL    HW1 5284   6.802   6.410   9.661
35086SOL    HW2 5285   6.884   6.427   9.520
35087SOL     OW 5286   7.345   7.333  10.464
35087SOL    HW1 5287   7.406   7.363  10.391
35087SOL    HW2 5288   7.307   7.244  10.442
35088SOL     OW 5289   6.838   7.317  10.438
35088SOL    HW1 5290   6.922   7.322  10.384
35088SOL    HW2 5291   6.815   7.221  10.456
35089SOL     OW 5292   5.669   6.844  10.332
35089SOL    HW1 5293   5.664   6.843  10.432
35089SOL    HW2 5294   5.586   6.803  10.294
35090SOL     OW 5295   6.274   7.248  11.026
35090SOL    HW1 5296   6.218   7.329  11.035
35090SOL    HW2 5297   6.326   7.252  10.940
35091SOL     OW 5298   7.312   5.721   9.833
35091SOL    HW1 5299   7.385   5.704   9.766
35091SOL    HW2 5300   7.281   5.634   9.871
35092SOL     OW 5301   6.974   7.159   9.787
35092SOL    HW1 5302   7.041   7.171   9.713
35092SOL    HW2 5303   6.934   7.248   9.810
35093SOL     OW 5304   5.716   7.380  11.161
35093SOL    HW1 5305   5.675   7.306  11.214
35093SOL    HW2 5306   5.780   7.431  11.219
35094SOL     OW 5307   6.866   6.513   9.982
35094SOL    HW1 5308   6.926   6.432   9.984
35094SOL    HW2 5309   6.906   6.582   9.922
35095SOL     OW 5310   6.416   6.859  10.732
35095SOL    HW1 5311   6.411   6.892  10.827
35095SOL    HW2 5312   6.330   6.878  10.686
35096SOL     OW 5313   6.258   7.202   9.464
35096SOL    HW1 5314   6.267   7.212   9.365
35096SOL    HW2 5315   6.218   7.113   9.485
35097SOL     OW 5316   7.236   7.306  10.704
35097SOL    HW1 5317   7.289   7.316  10.620
35097SOL    HW2 5318   7.209   7.396  10.738
35098SOL     OW 5319   7.427   5.761  10.273
35098SOL    HW1 5320   7.466   5.676  10.237
35098SOL    HW2 5321   7.329   5.763  10.254
35099SOL     OW 5322   5.849   5.912  10.030
35099SOL    HW1 5323   5.770   5.963   9.996
35099SOL    HW2 5324   5.840   5.897  10.128
35100SOL     OW 5325   6.780   7.198   9.341
35100SOL    HW1 5326   6.786   7.105   9.378
35100SOL    HW2 5327   6.721   7.198   9.261
35101SOL     OW 5328   6.408   6.588  10.682
35101SOL    HW1 5329   6.448   6.587  10.590
35101SOL    HW2 5330   6.418   6.680  10.722
35102SOL     OW 5331   6.502   6.496   9.601
35102SOL    HW1 5332   6.565   6.534   9.533
35102SOL    HW2 5333   6.542   6.413   9.640
35103SOL     OW 5334   7.090   7.193   9.354
35103SOL    HW1 5335   6.998   7.230   9.361
35103SOL    HW2 5336   7.128   7.213   9.264
35104SOL     OW 5337   5.958   6.874  10.800
35104SOL    HW1 5338   5.945   6.967  10.766
35104SOL    HW2 5339   5.874   6.822  10.787
35105SOL     OW 5340   7.200   6.878  10.599
35105SOL    HW1 5341   7.260   6.881  10.679
35105SOL    HW2 5342   7.125   6.942  10.612
35106SOL     OW 5343   6.625   6.684  10.006
35106SOL    HW1 5344   6.555   6.637  10.060
35106SOL    HW2 5345   6.684   6.616   9.963
35107SOL     OW 5346   6.600   5.822  10.281
35107SOL    HW1 5347   6.592   5.786  10.188
35107SOL    HW2 5348   6.598   5.746  10.346
35108SOL     OW 5349   6.176   7.073   9.801
35108SOL    HW1 5350   6.218   7.015   9.731
35108SOL    HW2 5351   6.132   7.152   9.757
35109SOL     OW 5352   7.295   5.971  10.691
35109SOL    HW1 5353   7.368   6.040  10.695
35109SOL    HW2 5354   7.323   5.896  10.632
35110SOL     OW 5355   5.841   6.934   9.600
35110SOL    HW1 5356   5.745   6.935   9.573
35110SOL    HW2 5357   5.853   6.987   9.684
35111SOL     OW 5358   5.691   6.599  11.036
35111SOL    HW1 5359   5.614   6.566  11.090
35111SOL    HW2 5360   5.776   6.569  11.078
35112SOL     OW 5361   6.258   5.789  10.799
35112SOL    HW1 5362   6.348   5.773  10.759
35112SOL    HW2 5363   6.266   5.794  10.898
35113SOL     OW 5364   5.661   5.931   9.343
35113SOL    HW1 5365   5.569   5.903   9.314
35113SOL    HW2 5366   5.692   6.008   9.287
35114SOL     OW 5367   7.026   6.442  10.708
35114SOL    HW1 5368   6.969   6.494  10.645
35114SOL    HW2 5369   7.122   6.454  10.684
35115SOL     OW 5370   5.658   5.752   9.628
35115SOL    HW1 5371   5.641   5.835   9.574
35115SOL    HW2 5372   5.748   5.715   9.606
35116SOL     OW 5373   6.769   6.921   9.429
35116SOL    HW1 5374   6.670   6.910   9.431
35116SOL    HW2 5375   6.803   6.936   9.522
35117SOL     OW 5376   6.199   6.428  10.741
35117SOL    HW1 5377   6.255   6.509  10.724
35117SOL    HW2 5378   6.258   6.348  10.744
35118SOL     OW 5379   7.079   7.353  10.269
35118SOL    HW1 5380   7.112   7.417  10.200
35118SOL    HW2 5381   7.145   7.347  10.344
35119SOL     OW 5382   6.302   6.151  11.018
35119SOL    HW1 5383   6.321   6.216  11.092
35119SOL    HW2 5384   6.362   6.071  11.027
35120SOL     OW 5385   7.036   6.806  10.943
35120SOL    HW1 5386   7.027   6.796  11.042
35120SOL    HW2 5387   7.132   6.799  10.917
35121SOL     OW 5388   5.976   7.327  10.870
35121SOL    HW1 5389   5.885   7.368  10.868
35121SOL    HW2 5390   5.969   7.233  10.902
35122SOL     OW 5391   6.811   5.911   9.759
35122SOL    HW1 5392   6.876   5.837   9.748
35122SOL    HW2 5393   6.831   5.961   9.843
35123SOL     OW 5394   6.180   6.331   9.962
35123SOL    HW1 5395   6.230   6.416   9.943
35123SOL    HW2 5396   6.092   6.333   9.914
35124SOL     OW 5397   7.363   5.928  10.952
35124SOL    HW1 5398   7.346   5.959  10.858
35124SOL    HW2 5399   7.279   5.891  10.990
35125SOL     OW 5400   7.316   6.520  10.827
35125SOL    HW1 5401   7.354   6.611  10.842
35125SOL    HW2 5402   7.308   6.503  10.728
35126SOL     OW 5403   6.445   6.960   9.326
35126SOL    HW1 5404   6.399   6.975   9.414
35126SOL    HW2 5405   6.489   7.045   9.296
35127SOL     OW 5406   6.247   7.376  10.263
35127SOL    HW1 5407   6.201   7.464  10.250
35127SOL    HW2 5408   6.346   7.388  10.256
35128SOL     OW 5409   6.445   6.542  10.171
35128SOL    HW1 5410   6.499   6.473  10.219
35128SOL    HW2 5411   6.413   6.611  10.237
35129SOL     OW 5412   6.669   6.570   9.397
35129SOL    HW1 5413   6.646   6.623   9.315
35129SOL    HW2 5414   6.750   6.514   9.378
35130SOL     OW 5415   7.447   7.155  10.161
35130SOL    HW1 5416   7.376   7.143  10.091
35130SOL    HW2 5417   7.448   7.076  10.221
35131SOL     OW 5418   5.807   6.900  11.154
35131SOL    HW1 5419   5.742   6.827  11.133
35131SOL    HW2 5420   5.811   6.914  11.252
35132SOL     OW 5421   5.665   6.826   9.963
35132SOL    HW1 5422   5.664   6.779  10.051
35132SOL    HW2 5423   5.747   6.798   9.912
35133SOL     OW 5424   6.258   6.977  10.934
35133SOL    HW1 5425   6.180   6.927  10.972
35133SOL    HW2 5426   6.255   7.072  10.965
35134SOL     OW 5427   7.410   5.778  10.537
35134SOL    HW1 5428   7.406   5.688  10.581
35134SOL    HW2 5429   7.413   5.767  10.438
35135SOL     OW 5430   6.014   6.010   9.830
35135SOL    HW1 5431   6.044   5.938   9.768
35135SOL    HW2 5432   5.975   5.970   9.913
35136SOL     OW 5433   7.291   7.073  10.414
35136SOL    HW1 5434   7.198   7.048  10.387
35136SOL    HW2 5435   7.317   7.023  10.496
35137SOL     OW 5436   5.903   6.133  10.590
35137SOL    HW1 5437   5.941   6.074  10.662
35137SOL    HW2 5438   5.943   6.107  10.502
35138SOL     OW 5439   6.398   7.172   9.997
35138SOL    HW1 5440   6.430   7.182   9.903
35138SOL    HW2 5441   6.319   7.110   9.999
35139SOL     OW 5442   7.010   5.800  10.422
35139SOL    HW1 5443   7.062   5.735  10.477
35139SOL    HW2 5444   6.961   5.863  10.483
35140SOL     OW 5445   6.587   5.620  10.464
35140SOL    HW1 5446   6.524   5.548  10.433
35140SOL    HW2 5447   6.680   5.584  10.464
35141SOL     OW 5448   6.356   6.916   9.611
35141SOL    HW1 5449   6.310   6.829   9.628
35141SOL    HW2 5450   6.447   6.913   9.652
35142SOL     OW 5451   6.204   7.153  10.594
35142SOL    HW1 5452   6.199   7.235  10.651
35142SOL    HW2 5453   6.293   7.150  10.549
35143SOL     OW 5454   6.938   5.638   9.478
35143SOL    HW1 5455   6.973   5.597   9.394
35143SOL    HW2 5456   6.848   5.600   9.498
35144SOL     OW 5457   6.886   6.039  10.001
35144SOL    HW1 5458   6.827   6.119  10.005
35144SOL    HW2 5459   6.901   6.004  10.094
35145SOL     OW 5460   7.179   5.807  10.192
35145SOL    HW1 5461   7.095   5.806  10.246
35145SOL    HW2 5462   7.181   5.890  10.136
35146SOL     OW 5463   5.625   6.663   9.610
35146SOL    HW1 5464   5.724   6.652   9.601
35146SOL    HW2 5465   5.585   6.577   9.642
35147SOL     OW 5466   6.461   7.232   9.647
35147SOL    HW1 5467   6.384   7.197   9.593
35147SOL    HW2 5468   6.429   7.303   9.709
35148SOL     OW 5469   5.816   6.214  11.285
35148SOL    HW1 5470   5.723   6.212  11.322
35148SOL    HW2 5471   5.817   6.175  11.193
35149SOL     OW 5472   5.811   5.861  12.168
35149SOL    HW1 5473   5.846   5.844  12.260
35149SOL    HW2 5474   5.723   5.816  12.156
35150SOL     OW 5475   5.605   5.954  11.819
35150SOL    HW1 5476   5.523   5.997  11.858
35150SOL    HW2 5477   5.577   5.881  11.756
35151SOL     OW 5478   6.155   6.861  12.337
35151SOL    HW1 5479   6.062   6.854  12.300
35151SOL    HW2 5480   6.166   6.950  12.381
35152SOL     OW 5481   7.141   7.097  11.875
35152SOL    HW1 5482   7.084   7.081  11.956
35152SOL    HW2 5483   7.082   7.107  11.795
35153SOL     OW 5484   6.721   6.289  11.889
35153SOL    HW1 5485   6.778   6.367  11.864
35153SOL    HW2 5486   6.661   6.315  11.965
35154SOL     OW 5487   7.341   6.193  11.403
35154SOL    HW1 5488   7.329   6.180  11.304
35154SOL    HW2 5489   7.311   6.112  11.452
35155SOL     OW 5490   6.354   6.730  12.195
35155SOL    HW1 5491   6.276   6.747  12.255
35155SOL    HW2 5492   6.388   6.817  12.159
35156SOL     OW 5493   6.271   6.598  11.837
35156SOL    HW1 5494   6.340   6.582  11.907
35156SOL    HW2 5495   6.198   6.655  11.875
35157SOL     OW 5496   5.921   7.021  12.233
35157SOL    HW1 5497   5.843   6.990  12.180
35157SOL    HW2 5498   5.979   7.079  12.176
35158SOL     OW 5499   7.046   7.091  12.511
35158SOL    HW1 5500   7.070   7.185  12.537
35158SOL    HW2 5501   7.030   7.037  12.593
35159SOL     OW 5502   6.024   5.978  12.671
35159SOL    HW1 5503   6.106   5.922  12.680
35159SOL    HW2 5504   5.943   5.920  12.675
35160SOL     OW 5505   7.189   6.033  11.909
35160SOL    HW1 5506   7.115   6.079  11.859
35160SOL    HW2 5507   7.240   6.101  11.962
35161SOL     OW 5508   5.817   7.299  11.655
35161SOL    HW1 5509   5.851   7.376  11.709
35161SOL    HW2 5510   5.861   7.299  11.565
35162SOL     OW 5511   5.816   7.020  11.710
35162SOL    HW1 5512   5.790   7.116  11.710
35162SOL    HW2 5513   5.745   6.966  11.755
35163SOL     OW 5514   5.826   6.677  12.058
35163SOL    HW1 5515   5.840   6.593  12.110
35163SOL    HW2 5516   5.771   6.741  12.113
35164SOL     OW 5517   6.206   7.372  12.611
35164SOL    HW1 5518   6.114   7.355  12.646
35164SOL    HW2 5519   6.234   7.464  12.637
35165SOL     OW 5520   6.192   6.550  11.295
35165SOL    HW1 5521   6.199   6.634  11.241
35165SOL    HW2 5522   6.238   6.563  11.383
35166SOL     OW 5523   7.180   5.700  12.652
35166SOL    HW1 5524   7.162   5.767  12.580
35166SOL    HW2 5525   7.177   5.746  12.741
35167SOL     OW 5526   5.708   6.229  11.735
35167SOL    HW1 5527   5.663   6.141  11.752
35167SOL    HW2 5528   5.707   6.283  11.819
35168SOL     OW 5529   7.428   7.353  11.531
35168SOL    HW1 5530   7.482   7.324  11.611
35168SOL    HW2 5531   7.458   7.443  11.502
35169SOL     OW 5532   5.613   7.182  11.289
35169SOL    HW1 5533   5.594   7.086  11.310
35169SOL    HW2 5534   5.580   7.240  11.364
35170SOL     OW 5535   7.275   6.508  11.784
35170SOL    HW1 5536   7.370   6.479  11.792
35170SOL    HW2 5537   7.267   6.573  11.709
35171SOL     OW 5538   7.227   6.694  11.604
35171SOL    HW1 5539   7.313   6.696  11.552
35171SOL    HW2 5540   7.241   6.741  11.692
35172SOL     OW 5541   6.199   6.951  11.898
35172SOL    HW1 5542   6.150   6.864  11.907
35172SOL    HW2 5543   6.176   6.994  11.811
35173SOL     OW 5544   6.395   5.590  11.674
35173SOL    HW1 5545   6.435   5.681  11.665
35173SOL    HW2 5546   6.295   5.598  11.680
35174SOL     OW 5547   5.783   6.562  12.436
35174SOL    HW1 5548   5.872   6.517  12.422
35174SOL    HW2 5549   5.710   6.497  12.417
35175SOL     OW 5550   7.111   6.585  11.362
35175SOL    HW1 5551   7.048   6.509  11.375
35175SOL    HW2 5552   7.159   6.603  11.448
35176SOL     OW 5553   5.903   5.837  12.973
35176SOL    HW1 5554   5.974   5.908  12.979
35176SOL    HW2 5555   5.815   5.876  13.001
35177SOL     OW 5556   7.052   7.003  12.125
35177SOL    HW1 5557   6.993   7.009  12.205
35177SOL    HW2 5558   7.037   6.915  12.079
35178SOL     OW 5559   7.253   7.300  11.744
35178SOL    HW1 5560   7.212   7.277  11.656
35178SOL    HW2 5561   7.235   7.226  11.809
35179SOL     OW 5562   6.184   6.315  11.442
35179SOL    HW1 5563   6.208   6.384  11.374
35179SOL    HW2 5564   6.106   6.348  11.496
35180SOL     OW 5565   6.867   5.931  12.116
35180SOL    HW1 5566   6.781   5.881  12.103
35180SOL    HW2 5567   6.929   5.877  12.172
35181SOL     OW 5568   7.162   7.248  11.479
35181SOL    HW1 5569   7.251   7.294  11.482
35181SOL    HW2 5570   7.141   7.224  11.384
35182SOL     OW 5571   6.393   6.191  12.637
35182SOL    HW1 5572   6.346   6.188  12.726
35182SOL    HW2 5573   6.342   6.136  12.571
35183SOL     OW 5574   6.577   5.996  12.414
35183SOL    HW1 5575   6.500   6.030  12.468
35183SOL    HW2 5576   6.543   5.945  12.335
35184SOL     OW 5577   6.627   6.287  11.601
35184SOL    HW1 5578   6.653   6.283  11.697
35184SOL    HW2 5579   6.542   6.236  11.587
35185SOL     OW 5580   5.662   6.397  11.961
35185SOL    HW1 5581   5.761   6.385  11.970
35185SOL    HW2 5582   5.638   6.492  11.982
35186SOL     OW 5583   5.716   7.407  12.743
35186SOL    HW1 5584   5.706   7.392  12.842
35186SOL    HW2 5585   5.630   7.443  12.707
35187SOL     OW 5586   6.451   5.934  11.367
35187SOL    HW1 5587   6.510   5.997  11.318
35187SOL    HW2 5588   6.470   5.840  11.338
35188SOL     OW 5589   6.948   6.730  11.717
35188SOL    HW1 5590   7.031   6.701  11.669
35188SOL    HW2 5591   6.899   6.797  11.661
35189SOL     OW 5592   6.136   5.782  12.057
35189SOL    HW1 5593   6.131   5.777  12.157
35189SOL    HW2 5594   6.138   5.878  12.028
35190SOL     OW 5595   6.594   7.042  11.649
35190SOL    HW1 5596   6.548   7.114  11.597
35190SOL    HW2 5597   6.590   7.062  11.747
35191SOL     OW 5598   5.937   7.387  12.025
35191SOL    HW1 5599   5.987   7.301  12.031
35191SOL    HW2 5600   6.002   7.464  12.022
35192SOL     OW 5601   7.381   6.652  12.045
35192SOL    HW1 5602   7.319   6.637  11.969
35192SOL    HW2 5603   7.329   6.663  12.130
35193SOL     OW 5604   5.907   6.529  11.414
35193SOL    HW1 5605   5.989   6.568  11.372
35193SOL    HW2 5606   5.880   6.447  11.365
35194SOL     OW 5607   7.044   6.321  11.900
35194SOL    HW1 5608   7.039   6.256  11.975
35194SOL    HW2 5609   7.124   6.380  11.913
35195SOL     OW 5610   6.697   7.362  11.409
35195SOL    HW1 5611   6.637   7.300  11.459
35195SOL    HW2 5612   6.728   7.318  11.324
35196SOL     OW 5613   7.218   6.963  11.253
35196SOL    HW1 5614   7.186   7.057  11.243
35196SOL    HW2 5615   7.142   6.900  11.241
35197SOL     OW 5616   6.050   7.329  11.495
35197SOL    HW1 5617   6.083   7.368  11.581
35197SOL    HW2 5618   6.126   7.322  11.430
35198SOL     OW 5619   6.986   5.693  11.598
35198SOL    HW1 5620   6.962   5.656  11.508
35198SOL    HW2 5621   7.085   5.709  11.602
35199SOL     OW 5622   5.835   7.371  12.413
35199SOL    HW1 5623   5.892   7.306  12.463
35199SOL    HW2 5624   5.819   7.338  12.320
35200SOL     OW 5625   6.526   7.284  12.076
35200SOL    HW1 5626   6.606   7.227  12.097
35200SOL    HW2 5627   6.477   7.244  11.999
35201SOL     OW 5628   5.968   6.286  11.652
35201SOL    HW1 5629   6.013   6.196  11.649
35201SOL    HW2 5630   5.874   6.275  11.685
35202SOL     OW 5631   6.200   5.708  11.289
35202SOL    HW1 5632   6.298   5.686  11.296
35202SOL    HW2 5633   6.169   5.691  11.196
35203SOL     OW 5634   6.474   7.100  12.367
35203SOL    HW1 5635   6.451   7.075  12.273
35203SOL    HW2 5636   6.535   7.031  12.406
35204SOL     OW 5637   6.389   6.988  12.096
35204SOL    HW1 5638   6.479   7.002  12.054
35204SOL    HW2 5639   6.318   6.990  12.025
35205SOL     OW 5640   6.508   6.089  12.071
35205SOL    HW1 5641   6.483   6.080  11.975
35205SOL    HW2 5642   6.556   6.007  12.102
35206SOL     OW 5643   6.125   5.650  11.684
35206SOL    HW1 5644   6.044   5.651  11.742
35206SOL    HW2 5645   6.128   5.733  11.629
35207SOL     OW 5646   7.020   6.774  11.213
35207SOL    HW1 5647   7.052   6.698  11.270
35207SOL    HW2 5648   6.928   6.801  11.243
35208SOL     OW 5649   5.883   5.621  11.343
35208SOL    HW1 5650   5.932   5.705  11.322
35208SOL    HW2 5651   5.945   5.556  11.388
35209SOL     OW 5652   6.521   5.822  11.652
35209SOL    HW1 5653   6.473   5.863  11.574
35209SOL    HW2 5654   6.620   5.820  11.633
35210SOL     OW 5655   6.813   7.156  11.965
35210SOL    HW1 5656   6.834   7.230  11.900
35210SOL    HW2 5657   6.881   7.156  12.038
35211SOL     OW 5658   6.045   6.738  11.913
35211SOL    HW1 5659   5.974   6.711  11.978
35211SOL    HW2 5660   6.019   6.710  11.820
35212SOL     OW 5661   6.857   7.383  11.763
35212SOL    HW1 5662   6.901   7.447  11.699
35212SOL    HW2 5663   6.807   7.435  11.833
35213SOL     OW 5664   6.618   6.135  11.188
35213SOL    HW1 5665   6.577   6.217  11.149
35213SOL    HW2 5666   6.682   6.161  11.261
35214SOL     OW 5667   5.664   6.142  12.558
35214SOL    HW1 5668   5.756   6.141  12.517
35214SOL    HW2 5669   5.658   6.216  12.625
35215SOL     OW 5670   6.147   5.808  12.319
35215SOL    HW1 5671   6.185   5.724  12.356
35215SOL    HW2 5672   6.059   5.827  12.363
35216SOL     OW 5673   6.452   6.040  11.814
35216SOL    HW1 5674   6.420   6.112  11.752
35216SOL    HW2 5675   6.476   5.959  11.761
35217SOL     OW 5676   6.603   5.625  11.925
35217SOL    HW1 5677   6.531   5.630  11.856
35217SOL    HW2 5678   6.579   5.556  11.994
35218SOL     OW 5679   7.015   6.759  12.039
35218SOL    HW1 5680   6.960   6.675  12.032
35218SOL    HW2 5681   7.041   6.788  11.947
35219SOL     OW 5682   7.052   6.176  12.164
35219SOL    HW1 5683   7.022   6.081  12.171
35219SOL    HW2 5684   7.125   6.192  12.230
35220SOL     OW 5685   7.443   6.419  11.549
35220SOL    HW1 5686   7.485   6.355  11.613
35220SOL    HW2 5687   7.405   6.368  11.471
35221SOL     OW 5688   6.074   6.971  11.346
35221SOL    HW1 5689   5.987   6.956  11.393
35221SOL    HW2 5690   6.057   6.997  11.251
35222SOL     OW 5691   7.250   6.866  11.829
35222SOL    HW1 5692   7.349   6.874  11.843
35222SOL    HW2 5693   7.205   6.950  11.860
35223SOL     OW 5694   6.976   6.161  11.250
35223SOL    HW1 5695   6.922   6.140  11.331
35223SOL    HW2 5696   7.067   6.120  11.259
35224SOL     OW 5697   6.113   5.842  11.500
35224SOL    HW1 5698   6.140   5.783  11.425
35224SOL    HW2 5699   6.113   5.937  11.469
35225SOL     OW 5700   6.650   6.933  12.512
35225SOL    HW1 5701   6.570   6.910  12.567
35225SOL    HW2 5702   6.733   6.907  12.561
35226SOL     OW 5703   7.224   6.685  12.251
35226SOL    HW1 5704   7.229   6.766  12.310
35226SOL    HW2 5705   7.138   6.687  12.200
35227SOL     OW 5706   6.501   5.675  12.574
35227SOL    HW1 5707   6.526   5.655  12.479
35227SOL    HW2 5708   6.573   5.731  12.616
35228SOL     OW 5709   6.291   6.636  11.540
35228SOL    HW1 5710   6.277   6.643  11.639
35228SOL    HW2 5711   6.375   6.585  11.522
35229SOL     OW 5712   5.996   6.399  12.423
35229SOL    HW1 5713   6.082   6.411  12.473
35229SOL    HW2 5714   5.954   6.312  12.450
35230SOL     OW 5715   6.860   5.972  12.434
35230SOL    HW1 5716   6.881   6.046  12.498
35230SOL    HW2 5717   6.771   5.989  12.391
35231SOL     OW 5718   5.650   7.150  12.503
35231SOL    HW1 5719   5.604   7.232  12.469
35231SOL    HW2 5720   5.748   7.169  12.512
35232SOL     OW 5721   5.953   6.686  11.673
35232SOL    HW1 5722   5.946   6.769  11.617
35232SOL    HW2 5723   5.957   6.606  11.613
35233SOL     OW 5724   6.152   6.123  12.037
35233SOL    HW1 5725   6.164   6.189  11.963
35233SOL    HW2 5726   6.198   6.157  12.120
35234SOL     OW 5727   6.838   6.934  11.560
35234SOL    HW1 5728   6.888   7.011  11.600
35234SOL    HW2 5729   6.743   6.936  11.592
35235SOL     OW 5730   6.858   7.031  12.314
35235SOL    HW1 5731   6.905   7.044  12.401
35235SOL    HW2 5732   6.792   6.957  12.323
35236SOL     OW 5733   7.168   6.225  11.644
35236SOL    HW1 5734   7.137   6.286  11.717
35236SOL    HW2 5735   7.218   6.277  11.575
35237SOL     OW 5736   5.940   7.096  12.501
35237SOL    HW1 5737   5.919   7.052  12.414
35237SOL    HW2 5738   6.037   7.122  12.504
35238SOL     OW 5739   5.988   6.337  12.770
35238SOL    HW1 5740   6.056   6.392  12.723
35238SOL    HW2 5741   6.028   6.249  12.797
35239SOL     OW 5742   7.173   6.365  12.842
35239SOL    HW1 5743   7.081   6.403  12.837
35239SOL    HW2 5744   7.233   6.412  12.777
35240SOL     OW 5745   6.159   6.456  12.201
35240SOL    HW1 5746   6.203   6.545  12.192
35240SOL    HW2 5747   6.096   6.456  12.278
35241SOL     OW 5748   6.946   6.448  12.217
35241SOL    HW1 5749   6.871   6.448  12.151
35241SOL    HW2 5750   6.983   6.356  12.226
35242SOL     OW 5751   6.795   6.111  11.447
35242SOL    HW1 5752   6.808   6.027  11.501
35242SOL    HW2 5753   6.766   6.185  11.507
35243SOL     OW 5754   5.893   5.799  12.403
35243SOL    HW1 5755   5.870   5.836  12.493
35243SOL    HW2 5756   5.863   5.704  12.397
35244SOL     OW 5757   5.623   6.896  12.454
35244SOL    HW1 5758   5.676   6.847  12.522
35244SOL    HW2 5759   5.645   6.994  12.459
35245SOL     OW 5760   6.318   6.220  12.236
35245SOL    HW1 5761   6.377   6.194  12.160
35245SOL    HW2 5762   6.290   6.316  12.225
35246SOL     OW 5763   5.893   5.649  11.790
35246SOL    HW1 5764   5.882   5.743  11.823
35246SOL    HW2 5765   5.888   5.586  11.867
35247SOL     OW 5766   7.208   5.953  11.546
35247SOL    HW1 5767   7.210   5.877  11.610
35247SOL    HW2 5768   7.160   6.030  11.586
35248SOL     OW 5769   6.609   6.352  12.138
35248SOL    HW1 5770   6.624   6.373  12.234
35248SOL    HW2 5771   6.579   6.257  12.129
35249SOL     OW 5772   6.566   7.159  12.872
35249SOL    HW1 5773   6.546   7.203  12.784
35249SOL    HW2 5774   6.605   7.068  12.856
35250SOL     OW 5775   7.126   5.860  11.297
35250SOL    HW1 5776   7.065   5.785  11.320
35250SOL    HW2 5777   7.148   5.912  11.380
35251SOL     OW 5778   6.889   6.424  11.214
35251SOL    HW1 5779   6.923   6.331  11.229
35251SOL    HW2 5780   6.907   6.451  11.119
35252SOL     OW 5781   6.654   6.919  12.021
35252SOL    HW1 5782   6.661   6.835  11.966
35252SOL    HW2 5783   6.716   6.988  11.985
35253SOL     OW 5784   5.905   6.396  12.121
35253SOL    HW1 5785   5.998   6.432  12.126
35253SOL    HW2 5786   5.899   6.311  12.173
35254SOL     OW 5787   5.925   6.095  12.178
35254SOL    HW1 5788   5.873   6.012  12.161
35254SOL    HW2 5789   6.002   6.100  12.114
35255SOL     OW 5790   6.724   5.966  12.850
35255SOL    HW1 5791   6.679   6.029  12.914
35255SOL    HW2 5792   6.817   5.997  12.833
35256SOL     OW 5793   6.746   5.793  12.649
35256SOL    HW1 5794   6.746   5.857  12.726
35256SOL    HW2 5795   6.774   5.841  12.566
35257SOL     OW 5796   5.594   6.912  11.372
35257SOL    HW1 5797   5.501   6.933  11.341
35257SOL    HW2 5798   5.604   6.813  11.385
35258SOL     OW 5799   5.674   7.387  12.099
35258SOL    HW1 5800   5.632   7.301  12.072
35258SOL    HW2 5801   5.768   7.390  12.065
35259SOL     OW 5802   6.090   7.154  12.082
35259SOL    HW1 5803   6.156   7.228  12.091
35259SOL    HW2 5804   6.134   7.075  12.040
35260SOL     OW 5805   6.588   6.382  12.410
35260SOL    HW1 5806   6.629   6.350  12.496
35260SOL    HW2 5807   6.492   6.355  12.407
35261SOL     OW 5808   5.626   6.130  12.286
35261SOL    HW1 5809   5.711   6.097  12.245
35261SOL    HW2 5810   5.639   6.145  12.384
35262SOL     OW 5811   6.401   6.158  11.497
35262SOL    HW1 5812   6.408   6.069  11.451
35262SOL    HW2 5813   6.307   6.192  11.489
35263SOL     OW 5814   7.243   6.190  12.378
35263SOL    HW1 5815   7.205   6.121  12.440
35263SOL    HW2 5816   7.325   6.154  12.334
35264SOL     OW 5817   6.257   6.050  12.441
35264SOL    HW1 5818   6.223   5.961  12.411
35264SOL    HW2 5819   6.283   6.104  12.361
35265SOL     OW 5820   6.516   7.264  12.637
35265SOL    HW1 5821   6.492   7.246  12.542
35265SOL    HW2 5822   6.546   7.358  12.647
35266SOL     OW 5823   6.059   6.086  11.363
35266SOL    HW1 5824   6.120   6.166  11.367
35266SOL    HW2 5825   5.964   6.117  11.370
35267SOL     OW 5826   5.745   6.723  12.638
35267SOL    HW1 5827   5.767   6.662  12.714
35267SOL    HW2 5828   5.755   6.674  12.552
35268SOL     OW 5829   6.933   6.645  12.406
35268SOL    HW1 5830   6.957   6.582  12.332
35268SOL    HW2 5831   6.843   6.685  12.388
35269SOL     OW 5832   6.888   6.441  11.481
35269SOL    HW1 5833   6.802   6.410  11.523
35269SOL    HW2 5834   6.884   6.427  11.382
35270SOL     OW 5835   7.345   7.333  12.326
35270SOL    HW1 5836   7.406   7.363  12.253
35270SOL    HW2 5837   7.307   7.244  12.304
35271SOL     OW 5838   6.838   7.317  12.300
35271SOL    HW1 5839   6.922   7.322  12.246
35271SOL    HW2 5840   6.815   7.221  12.318
35272SOL     OW 5841   5.669   6.844  12.194
35272SOL    HW1 5842   5.664   6.843  12.294
35272SOL    HW2 5843   5.586   6.803  12.156
35273SOL     OW 5844   7.312   5.721  11.695
35273SOL    HW1 5845   7.385   5.704  11.628
35273SOL    HW2 5846   7.281   5.634  11.733
35274SOL     OW 5847   6.974   7.159  11.649
35274SOL    HW1 5848   7.041   7.171  11.575
35274SOL    HW2 5849   6.934   7.248  11.672
35275SOL     OW 5850   6.866   6.513  11.844
35275SOL    HW1 5851   6.926   6.432  11.846
35275SOL    HW2 5852   6.906   6.582  11.784
35276SOL     OW 5853   6.258   7.202  11.326
35276SOL    HW1 5854   6.267   7.212  11.227
35276SOL    HW2 5855   6.218   7.113  11.347
35277SOL     OW 5856   7.236   7.306  12.566
35277SOL    HW1 5857   7.289   7.316  12.482
35277SOL    HW2 5858   7.209   7.396  12.600
35278SOL     OW 5859   7.427   5.761  12.135
35278SOL    HW1 5860   7.466   5.676  12.099
35278SOL    HW2 5861   7.329   5.763  12.116
35279SOL     OW 5862   5.849   5.912  11.892
35279SOL    HW1 5863   5.770   5.963  11.858
35279SOL    HW2 5864   5.840   5.897  11.990
35280SOL     OW 5865   6.780   7.198  11.203
35280SOL    HW1 5866   6.786   7.105  11.240
35280SOL    HW2 5867   6.721   7.198  11.123
35281SOL     OW 5868   6.408   6.588  12.544
35281SOL    HW1 5869   6.448   6.587  12.452
35281SOL    HW2 5870   6.418   6.680  12.584
35282SOL     OW 5871   6.502   6.496  11.463
35282SOL    HW1 5872   6.565   6.534  11.395
35282SOL    HW2 5873   6.542   6.413  11.502
35283SOL     OW 5874   7.090   7.193  11.216
35283SOL    HW1 5875   6.998   7.230  11.223
35283SOL    HW2 5876   7.128   7.213  11.126
35284SOL     OW 5877   5.958   6.874  12.662
35284SOL    HW1 5878   5.945   6.967  12.628
35284SOL    HW2 5879   5.874   6.822  12.649
35285SOL     OW 5880   7.200   6.878  12.461
35285SOL    HW1 5881   7.260   6.881  12.541
35285SOL    HW2 5882   7.125   6.942  12.474
35286SOL     OW 5883   6.625   6.684  11.868
35286SOL    HW1 5884   6.555   6.637  11.922
35286SOL    HW2 5885   6.684   6.616  11.825
35287SOL     OW 5886   6.600   5.822  12.143
35287SOL    HW1 5887   6.592   5.786  12.050
35287SOL    HW2 5888   6.598   5.746  12.208
35288SOL     OW 5889   6.176   7.073  11.663
35288SOL    HW1 5890   6.218   7.015  11.593
35288SOL    HW2 5891   6.132   7.152  11.619
35289SOL     OW 5892   7.295   5.971  12.553
35289SOL    HW1 5893   7.368   6.040  12.557
35289SOL    HW2 5894   7.323   5.896  12.494
35290SOL     OW 5895   5.841   6.934  11.462
35290SOL    HW1 5896   5.745   6.935  11.435
35290SOL    HW2 5897   5.853   6.987  11.546
35291SOL     OW 5898   5.661   5.931  11.205
35291SOL    HW1 5899   5.569   5.903  11.176
35291SOL    HW2 5900   5.692   6.008  11.149
35292SOL     OW 5901   7.026   6.442  12.570
35292SOL    HW1 5902   6.969   6.494  12.507
35292SOL    HW2 5903   7.122   6.454  12.546
35293SOL     OW 5904   5.658   5.752  11.490
35293SOL    HW1 5905   5.641   5.835  11.436
35293SOL    HW2 5906   5.748   5.715  11.468
35294SOL     OW 5907   6.769   6.921  11.291
35294SOL    HW1 5908   6.670   6.910  11.293
35294SOL    HW2 5909   6.803   6.936  11.384
35295SOL     OW 5910   6.199   6.428  12.603
35295SOL    HW1 5911   6.255   6.509  12.586
35295SOL    HW2 5912   6.258   6.348  12.606
35296SOL     OW 5913   7.079   7.353  12.131
35296SOL    HW1 5914   7.112   7.417  12.062
35296SOL    HW2 5915   7.145   7.347  12.206
35297SOL     OW 5916   5.976   7.327  12.732
35297SOL    HW1 5917   5.885   7.368  12.730
35297SOL    HW2 5918   5.969   7.233  12.764
35298SOL     OW 5919   7.260   6.469  12.426
35298SOL    HW1 5920   7.233   6.380  12.389
35298SOL    HW2 5921   7.261   6.537  12.353
35299SOL     OW 5922   6.811   5.911  11.621
35299SOL    HW1 5923   6.876   5.837  11.610
35299SOL    HW2 5924   6.831   5.961  11.705
35300SOL     OW 5925   6.180   6.331  11.824
35300SOL    HW1 5926   6.230   6.416  11.805
35300SOL    HW2 5927   6.092   6.333  11.776
35301SOL     OW 5928   7.316   6.520  12.689
35301SOL    HW1 5929   7.354   6.611  12.704
35301SOL    HW2 5930   7.308   6.503  12.590
35302SOL     OW 5931   6.445   6.960  11.188
35302SOL    HW1 5932   6.399   6.975  11.276
35302SOL    HW2 5933   6.489   7.045  11.158
35303SOL     OW 5934   6.247   7.376  12.125
35303SOL    HW1 5935   6.201   7.464  12.112
35303SOL    HW2 5936   6.346   7.388  12.118
35304SOL     OW 5937   6.445   6.542  12.033
35304SOL    HW1 5938   6.499   6.473  12.081
35304SOL    HW2 5939   6.413   6.611  12.099
35305SOL     OW 5940   6.669   6.570  11.259
35305SOL    HW1 5941   6.646   6.623  11.177
35305SOL    HW2 5942   6.750   6.514  11.240
35306SOL     OW 5943   7.447   7.155  12.023
35306SOL    HW1 5944   7.376   7.143  11.953
35306SOL    HW2 5945   7.448   7.076  12.083
35307SOL     OW 5946   5.665   6.826  11.825
35307SOL    HW1 5947   5.664   6.779  11.913
35307SOL    HW2 5948   5.747   6.798  11.774
35308SOL     OW 5949   7.410   5.778  12.399
35308SOL    HW1 5950   7.406   5.688  12.443
35308SOL    HW2 5951   7.413   5.767  12.300
35309SOL     OW 5952   6.014   6.010  11.692
35309SOL    HW1 5953   6.044   5.938  11.630
35309SOL    HW2 5954   5.975   5.970  11.775
35310SOL     OW 5955   7.291   7.073  12.276
35310SOL    HW1 5956   7.198   7.048  12.249
35310SOL    HW2 5957   7.317   7.023  12.358
35311SOL     OW 5958   5.903   6.133  12.452
35311SOL    HW1 5959   5.941   6.074  12.524
35311SOL    HW2 5960   5.943   6.107  12.364
35312SOL     OW 5961   6.398   7.172  11.859
35312SOL    HW1 5962   6.430   7.182  11.765
35312SOL    HW2 5963   6.319   7.110  11.861
35313SOL     OW 5964   7.010   5.800  12.284
35313SOL    HW1 5965   7.062   5.735  12.339
35313SOL    HW2 5966   6.961   5.863  12.345
35314SOL     OW 5967   6.587   5.620  12.326
35314SOL    HW1 5968   6.524   5.548  12.295
35314SOL    HW2 5969   6.680   5.584  12.326
35315SOL     OW 5970   6.356   6.916  11.473
35315SOL    HW1 5971   6.310   6.829  11.490
35315SOL    HW2 5972   6.447   6.913  11.514
35316SOL     OW 5973   6.204   7.153  12.456
35316SOL    HW1 5974   6.199   7.235  12.513
35316SOL    HW2 5975   6.293   7.150  12.411
35317SOL     OW 5976   6.938   5.638  11.340
35317SOL    HW1 5977   6.973   5.597  11.256
35317SOL    HW2 5978   6.848   5.600  11.360
35318SOL     OW 5979   6.886   6.039  11.863
35318SOL    HW1 5980   6.827   6.119  11.867
35318SOL    HW2 5981   6.901   6.004  11.956
35319SOL     OW 5982   7.179   5.807  12.054
35319SOL    HW1 5983   7.095   5.806  12.108
35319SOL    HW2 5984   7.181   5.890  11.998
35320SOL     OW 5985   5.625   6.663  11.472
35320SOL    HW1 5986   5.724   6.652  11.463
35320SOL    HW2 5987   5.585   6.577  11.504
35321SOL     OW 5988   6.461   7.232  11.509
35321SOL    HW1 5989   6.384   7.197  11.455
35321SOL    HW2 5990   6.429   7.303  11.571
35322SOL     OW 5991   5.816   8.076   0.113
35322SOL    HW1 5992   5.723   8.074   0.150
35322SOL    HW2 5993   5.817   8.037   0.021
35323SOL     OW 5994   5.811   7.723   0.996
35323SOL    HW1 5995   5.846   7.706   1.088
35323SOL    HW2 5996   5.723   7.678   0.984
35324SOL     OW 5997   5.605   7.816   0.647
35324SOL    HW1 5998   5.523   7.859   0.686
35324SOL    HW2 5999   5.577   7.743   0.584
35325SOL     OW 6000   6.155   8.723   1.165
35325SOL    HW1 6001   6.062   8.716   1.128
35325SOL    HW2 6002   6.166   8.812   1.209
35326SOL     OW 6003   7.141   8.959   0.703
35326SOL    HW1 6004   7.084   8.943   0.784
35326SOL    HW2 6005   7.082   8.969   0.623
35327SOL     OW 6006   6.721   8.151   0.717
35327SOL    HW1 6007   6.778   8.229   0.692
35327SOL    HW2 6008   6.661   8.177   0.793
35328SOL     OW 6009   7.341   8.055   0.231
35328SOL    HW1 6010   7.329   8.042   0.132
35328SOL    HW2 6011   7.311   7.974   0.280
35329SOL     OW 6012   6.436   8.246   1.823
35329SOL    HW1 6013   6.432   8.322   1.888
35329SOL    HW2 6014   6.458   8.282   1.732
35330SOL     OW 6015   6.271   8.460   0.665
35330SOL    HW1 6016   6.340   8.444   0.735
35330SOL    HW2 6017   6.198   8.517   0.703
35331SOL     OW 6018   6.272   8.609   1.803
35331SOL    HW1 6019   6.332   8.688   1.817
35331SOL    HW2 6020   6.186   8.640   1.762
35332SOL     OW 6021   5.921   8.883   1.061
35332SOL    HW1 6022   5.843   8.852   1.008
35332SOL    HW2 6023   5.979   8.941   1.004
35333SOL     OW 6024   7.046   8.953   1.339
35333SOL    HW1 6025   7.070   9.047   1.365
35333SOL    HW2 6026   7.030   8.899   1.421
35334SOL     OW 6027   6.024   7.840   1.499
35334SOL    HW1 6028   6.106   7.784   1.508
35334SOL    HW2 6029   5.943   7.782   1.503
35335SOL     OW 6030   7.189   7.895   0.737
35335SOL    HW1 6031   7.115   7.941   0.687
35335SOL    HW2 6032   7.240   7.963   0.790
35336SOL     OW 6033   5.817   9.161   0.483
35336SOL    HW1 6034   5.851   9.238   0.537
35336SOL    HW2 6035   5.861   9.161   0.393
35337SOL     OW 6036   6.713   8.789   1.690
35337SOL    HW1 6037   6.760   8.789   1.778
35337SOL    HW2 6038   6.665   8.702   1.679
35338SOL     OW 6039   5.816   8.882   0.538
35338SOL    HW1 6040   5.790   8.978   0.538
35338SOL    HW2 6041   5.745   8.828   0.583
35339SOL     OW 6042   5.826   8.539   0.886
35339SOL    HW1 6043   5.840   8.455   0.938
35339SOL    HW2 6044   5.771   8.603   0.941
35340SOL     OW 6045   6.206   9.234   1.439
35340SOL    HW1 6046   6.114   9.217   1.474
35340SOL    HW2 6047   6.234   9.326   1.465
35341SOL     OW 6048   6.192   8.412   0.123
35341SOL    HW1 6049   6.199   8.496   0.069
35341SOL    HW2 6050   6.238   8.425   0.211
35342SOL     OW 6051   7.180   7.562   1.480
35342SOL    HW1 6052   7.162   7.629   1.408
35342SOL    HW2 6053   7.177   7.608   1.569
35343SOL     OW 6054   5.708   8.091   0.563
35343SOL    HW1 6055   5.663   8.003   0.580
35343SOL    HW2 6056   5.707   8.145   0.647
35344SOL     OW 6057   7.428   9.215   0.359
35344SOL    HW1 6058   7.482   9.186   0.439
35344SOL    HW2 6059   7.458   9.305   0.330
35345SOL     OW 6060   5.613   9.044   0.117
35345SOL    HW1 6061   5.594   8.948   0.138
35345SOL    HW2 6062   5.580   9.102   0.192
35346SOL     OW 6063   7.275   8.370   0.612
35346SOL    HW1 6064   7.370   8.341   0.620
35346SOL    HW2 6065   7.267   8.435   0.537
35347SOL     OW 6066   7.227   8.556   0.432
35347SOL    HW1 6067   7.313   8.558   0.380
35347SOL    HW2 6068   7.241   8.603   0.520
35348SOL     OW 6069   5.699   8.185   1.597
35348SOL    HW1 6070   5.787   8.172   1.642
35348SOL    HW2 6071   5.686   8.282   1.575
35349SOL     OW 6072   6.199   8.813   0.726
35349SOL    HW1 6073   6.150   8.726   0.735
35349SOL    HW2 6074   6.176   8.856   0.639
35350SOL     OW 6075   6.879   8.676   1.423
35350SOL    HW1 6076   6.916   8.603   1.365
35350SOL    HW2 6077   6.931   8.681   1.508
35351SOL     OW 6078   6.395   7.452   0.502
35351SOL    HW1 6079   6.435   7.543   0.493
35351SOL    HW2 6080   6.295   7.460   0.508
35352SOL     OW 6081   5.783   8.424   1.264
35352SOL    HW1 6082   5.872   8.379   1.250
35352SOL    HW2 6083   5.710   8.359   1.245
35353SOL     OW 6084   7.111   8.447   0.190
35353SOL    HW1 6085   7.048   8.371   0.203
35353SOL    HW2 6086   7.159   8.465   0.276
35354SOL     OW 6087   6.773   9.240   1.616
35354SOL    HW1 6088   6.797   9.300   1.540
35354SOL    HW2 6089   6.780   9.145   1.586
35355SOL     OW 6090   5.903   7.699   1.801
35355SOL    HW1 6091   5.974   7.770   1.807
35355SOL    HW2 6092   5.815   7.738   1.829
35356SOL     OW 6093   7.052   8.865   0.953
35356SOL    HW1 6094   6.993   8.871   1.033
35356SOL    HW2 6095   7.037   8.777   0.907
35357SOL     OW 6096   7.253   9.162   0.572
35357SOL    HW1 6097   7.212   9.139   0.484
35357SOL    HW2 6098   7.235   9.088   0.637
35358SOL     OW 6099   6.184   8.177   0.270
35358SOL    HW1 6100   6.208   8.246   0.202
35358SOL    HW2 6101   6.106   8.210   0.324
35359SOL     OW 6102   6.867   7.793   0.944
35359SOL    HW1 6103   6.781   7.743   0.931
35359SOL    HW2 6104   6.929   7.739   1.000
35360SOL     OW 6105   7.162   9.110   0.307
35360SOL    HW1 6106   7.251   9.156   0.310
35360SOL    HW2 6107   7.141   9.086   0.212
35361SOL     OW 6108   6.393   8.053   1.465
35361SOL    HW1 6109   6.346   8.050   1.554
35361SOL    HW2 6110   6.342   7.998   1.399
35362SOL     OW 6111   6.980   7.917   1.674
35362SOL    HW1 6112   6.960   7.960   1.762
35362SOL    HW2 6113   7.058   7.855   1.683
35363SOL     OW 6114   6.559   8.338   1.572
35363SOL    HW1 6115   6.605   8.254   1.543
35363SOL    HW2 6116   6.503   8.372   1.497
35364SOL     OW 6117   6.577   7.858   1.242
35364SOL    HW1 6118   6.500   7.892   1.296
35364SOL    HW2 6119   6.543   7.807   1.163
35365SOL     OW 6120   6.627   8.149   0.429
35365SOL    HW1 6121   6.653   8.145   0.525
35365SOL    HW2 6122   6.542   8.098   0.415
35366SOL     OW 6123   5.662   8.259   0.789
35366SOL    HW1 6124   5.761   8.247   0.798
35366SOL    HW2 6125   5.638   8.354   0.810
35367SOL     OW 6126   5.716   9.269   1.571
35367SOL    HW1 6127   5.706   9.254   1.670
35367SOL    HW2 6128   5.630   9.305   1.535
35368SOL     OW 6129   6.451   7.796   0.195
35368SOL    HW1 6130   6.510   7.859   0.146
35368SOL    HW2 6131   6.470   7.702   0.166
35369SOL     OW 6132   7.305   8.033   1.831
35369SOL    HW1 6133   7.279   8.122   1.795
35369SOL    HW2 6134   7.303   7.965   1.758
35370SOL     OW 6135   6.948   8.592   0.545
35370SOL    HW1 6136   7.031   8.563   0.497
35370SOL    HW2 6137   6.899   8.659   0.489
35371SOL     OW 6138   6.136   7.644   0.885
35371SOL    HW1 6139   6.131   7.639   0.985
35371SOL    HW2 6140   6.138   7.740   0.856
35372SOL     OW 6141   6.594   8.904   0.477
35372SOL    HW1 6142   6.548   8.976   0.425
35372SOL    HW2 6143   6.590   8.924   0.575
35373SOL     OW 6144   5.937   9.249   0.853
35373SOL    HW1 6145   5.987   9.163   0.859
35373SOL    HW2 6146   6.002   9.326   0.850
35374SOL     OW 6147   7.381   8.514   0.873
35374SOL    HW1 6148   7.319   8.499   0.797
35374SOL    HW2 6149   7.329   8.525   0.958
35375SOL     OW 6150   6.813   8.998   1.506
35375SOL    HW1 6151   6.819   8.921   1.570
35375SOL    HW2 6152   6.761   8.972   1.426
35376SOL     OW 6153   5.907   8.391   0.242
35376SOL    HW1 6154   5.989   8.430   0.200
35376SOL    HW2 6155   5.880   8.309   0.193
35377SOL     OW 6156   7.044   8.183   0.728
35377SOL    HW1 6157   7.039   8.118   0.803
35377SOL    HW2 6158   7.124   8.242   0.741
35378SOL     OW 6159   6.047   8.714   1.727
35378SOL    HW1 6160   5.997   8.715   1.641
35378SOL    HW2 6161   5.984   8.696   1.803
35379SOL     OW 6162   6.697   9.224   0.237
35379SOL    HW1 6163   6.637   9.162   0.287
35379SOL    HW2 6164   6.728   9.180   0.152
35380SOL     OW 6165   5.788   7.733   1.498
35380SOL    HW1 6166   5.708   7.793   1.485
35380SOL    HW2 6167   5.778   7.684   1.584
35381SOL     OW 6168   7.218   8.825   0.081
35381SOL    HW1 6169   7.186   8.919   0.071
35381SOL    HW2 6170   7.142   8.762   0.069
35382SOL     OW 6171   6.050   9.191   0.323
35382SOL    HW1 6172   6.083   9.230   0.409
35382SOL    HW2 6173   6.126   9.184   0.258
35383SOL     OW 6174   6.986   7.555   0.426
35383SOL    HW1 6175   6.962   7.518   0.336
35383SOL    HW2 6176   7.085   7.571   0.430
35384SOL     OW 6177   5.835   9.233   1.241
35384SOL    HW1 6178   5.892   9.168   1.291
35384SOL    HW2 6179   5.819   9.200   1.148
35385SOL     OW 6180   6.526   9.146   0.904
35385SOL    HW1 6181   6.606   9.089   0.925
35385SOL    HW2 6182   6.477   9.106   0.827
35386SOL     OW 6183   5.968   8.148   0.480
35386SOL    HW1 6184   6.013   8.058   0.477
35386SOL    HW2 6185   5.874   8.137   0.513
35387SOL     OW 6186   7.133   7.670   1.729
35387SOL    HW1 6187   7.128   7.707   1.821
35387SOL    HW2 6188   7.061   7.601   1.717
35388SOL     OW 6189   6.200   7.570   0.117
35388SOL    HW1 6190   6.298   7.548   0.124
35388SOL    HW2 6191   6.169   7.553   0.024
35389SOL     OW 6192   6.367   7.712   1.749
35389SOL    HW1 6193   6.434   7.651   1.792
35389SOL    HW2 6194   6.294   7.731   1.814
35390SOL     OW 6195   6.474   8.962   1.195
35390SOL    HW1 6196   6.451   8.937   1.101
35390SOL    HW2 6197   6.535   8.893   1.234
35391SOL     OW 6198   6.937   8.038   1.433
35391SOL    HW1 6199   6.965   7.995   1.518
35391SOL    HW2 6200   6.962   8.134   1.434
35392SOL     OW 6201   6.389   8.850   0.924
35392SOL    HW1 6202   6.479   8.864   0.882
35392SOL    HW2 6203   6.318   8.852   0.853
35393SOL     OW 6204   6.508   7.951   0.899
35393SOL    HW1 6205   6.483   7.942   0.803
35393SOL    HW2 6206   6.556   7.869   0.930
35394SOL     OW 6207   6.125   7.512   0.512
35394SOL    HW1 6208   6.044   7.513   0.570
35394SOL    HW2 6209   6.128   7.595   0.457
35395SOL     OW 6210   7.020   8.636   0.041
35395SOL    HW1 6211   7.052   8.560   0.098
35395SOL    HW2 6212   6.928   8.663   0.071
35396SOL     OW 6213   5.883   7.483   0.171
35396SOL    HW1 6214   5.932   7.567   0.150
35396SOL    HW2 6215   5.945   7.418   0.216
35397SOL     OW 6216   6.521   7.684   0.480
35397SOL    HW1 6217   6.473   7.725   0.402
35397SOL    HW2 6218   6.620   7.682   0.461
35398SOL     OW 6219   6.662   8.131   1.464
35398SOL    HW1 6220   6.582   8.070   1.467
35398SOL    HW2 6221   6.743   8.078   1.440
35399SOL     OW 6222   6.813   9.018   0.793
35399SOL    HW1 6223   6.834   9.092   0.728
35399SOL    HW2 6224   6.881   9.018   0.866
35400SOL     OW 6225   6.045   8.600   0.741
35400SOL    HW1 6226   5.974   8.573   0.806
35400SOL    HW2 6227   6.019   8.572   0.648
35401SOL     OW 6228   6.857   9.245   0.591
35401SOL    HW1 6229   6.901   9.309   0.527
35401SOL    HW2 6230   6.807   9.297   0.661
35402SOL     OW 6231   6.618   7.997   0.016
35402SOL    HW1 6232   6.577   8.079  -0.023
35402SOL    HW2 6233   6.682   8.023   0.089
35403SOL     OW 6234   5.664   8.004   1.386
35403SOL    HW1 6235   5.756   8.003   1.345
35403SOL    HW2 6236   5.658   8.078   1.453
35404SOL     OW 6237   6.147   7.670   1.147
35404SOL    HW1 6238   6.185   7.586   1.184
35404SOL    HW2 6239   6.059   7.689   1.191
35405SOL     OW 6240   6.452   7.902   0.642
35405SOL    HW1 6241   6.420   7.974   0.580
35405SOL    HW2 6242   6.476   7.821   0.589
35406SOL     OW 6243   6.603   7.487   0.753
35406SOL    HW1 6244   6.531   7.492   0.684
35406SOL    HW2 6245   6.579   7.418   0.822
35407SOL     OW 6246   7.015   8.621   0.867
35407SOL    HW1 6247   6.960   8.537   0.860
35407SOL    HW2 6248   7.041   8.650   0.775
35408SOL     OW 6249   7.052   8.038   0.992
35408SOL    HW1 6250   7.022   7.943   0.999
35408SOL    HW2 6251   7.125   8.054   1.058
35409SOL     OW 6252   7.443   8.281   0.377
35409SOL    HW1 6253   7.485   8.217   0.441
35409SOL    HW2 6254   7.405   8.230   0.299
35410SOL     OW 6255   6.074   8.833   0.174
35410SOL    HW1 6256   5.987   8.818   0.221
35410SOL    HW2 6257   6.057   8.859   0.079
35411SOL     OW 6258   7.250   8.728   0.657
35411SOL    HW1 6259   7.349   8.736   0.671
35411SOL    HW2 6260   7.205   8.812   0.688
35412SOL     OW 6261   6.976   8.023   0.078
35412SOL    HW1 6262   6.922   8.002   0.159
35412SOL    HW2 6263   7.067   7.982   0.087
35413SOL     OW 6264   6.113   7.704   0.328
35413SOL    HW1 6265   6.140   7.645   0.253
35413SOL    HW2 6266   6.113   7.799   0.297
35414SOL     OW 6267   7.340   8.671   1.588
35414SOL    HW1 6268   7.431   8.632   1.575
35414SOL    HW2 6269   7.348   8.767   1.612
35415SOL     OW 6270   6.650   8.795   1.340
35415SOL    HW1 6271   6.570   8.772   1.395
35415SOL    HW2 6272   6.733   8.769   1.389
35416SOL     OW 6273   7.178   9.077   1.625
35416SOL    HW1 6274   7.205   9.111   1.535
35416SOL    HW2 6275   7.257   9.039   1.671
35417SOL     OW 6276   6.697   8.643   1.100
35417SOL    HW1 6277   6.657   8.687   1.181
35417SOL    HW2 6278   6.656   8.680   1.017
35418SOL     OW 6279   7.224   8.547   1.079
35418SOL    HW1 6280   7.229   8.628   1.138
35418SOL    HW2 6281   7.138   8.549   1.028
35419SOL     OW 6282   6.501   7.537   1.402
35419SOL    HW1 6283   6.526   7.517   1.307
35419SOL    HW2 6284   6.573   7.593   1.444
35420SOL     OW 6285   6.566   8.564   1.719
35420SOL    HW1 6286   6.467   8.570   1.729
35420SOL    HW2 6287   6.589   8.484   1.663
35421SOL     OW 6288   6.291   8.498   0.368
35421SOL    HW1 6289   6.277   8.505   0.467
35421SOL    HW2 6290   6.375   8.447   0.350
35422SOL     OW 6291   5.996   8.261   1.251
35422SOL    HW1 6292   6.082   8.273   1.301
35422SOL    HW2 6293   5.954   8.174   1.278
35423SOL     OW 6294   6.860   7.834   1.262
35423SOL    HW1 6295   6.881   7.908   1.326
35423SOL    HW2 6296   6.771   7.851   1.219
35424SOL     OW 6297   5.650   9.012   1.331
35424SOL    HW1 6298   5.604   9.094   1.297
35424SOL    HW2 6299   5.748   9.031   1.340
35425SOL     OW 6300   5.953   8.548   0.501
35425SOL    HW1 6301   5.946   8.631   0.445
35425SOL    HW2 6302   5.957   8.468   0.441
35426SOL     OW 6303   6.152   7.985   0.865
35426SOL    HW1 6304   6.164   8.051   0.791
35426SOL    HW2 6305   6.198   8.019   0.948
35427SOL     OW 6306   6.838   8.796   0.388
35427SOL    HW1 6307   6.888   8.873   0.428
35427SOL    HW2 6308   6.743   8.798   0.420
35428SOL     OW 6309   6.858   8.893   1.142
35428SOL    HW1 6310   6.905   8.906   1.229
35428SOL    HW2 6311   6.792   8.819   1.151
35429SOL     OW 6312   7.168   8.087   0.472
35429SOL    HW1 6313   7.137   8.148   0.545
35429SOL    HW2 6314   7.218   8.139   0.403
35430SOL     OW 6315   5.940   8.958   1.329
35430SOL    HW1 6316   5.919   8.914   1.242
35430SOL    HW2 6317   6.037   8.984   1.332
35431SOL     OW 6318   5.988   8.199   1.598
35431SOL    HW1 6319   6.056   8.254   1.551
35431SOL    HW2 6320   6.028   8.111   1.625
35432SOL     OW 6321   7.173   8.227   1.670
35432SOL    HW1 6322   7.081   8.265   1.665
35432SOL    HW2 6323   7.233   8.274   1.605
35433SOL     OW 6324   6.599   7.553   1.770
35433SOL    HW1 6325   6.605   7.638   1.718
35433SOL    HW2 6326   6.631   7.477   1.713
35434SOL     OW 6327   6.090   7.498   1.740
35434SOL    HW1 6328   6.048   7.441   1.670
35434SOL    HW2 6329   6.024   7.567   1.772
35435SOL     OW 6330   6.159   8.318   1.029
35435SOL    HW1 6331   6.203   8.407   1.020
35435SOL    HW2 6332   6.096   8.318   1.106
35436SOL     OW 6333   6.946   8.310   1.045
35436SOL    HW1 6334   6.871   8.310   0.979
35436SOL    HW2 6335   6.983   8.218   1.054
35437SOL     OW 6336   6.795   7.973   0.275
35437SOL    HW1 6337   6.808   7.889   0.329
35437SOL    HW2 6338   6.766   8.047   0.335
35438SOL     OW 6339   5.893   7.661   1.231
35438SOL    HW1 6340   5.870   7.698   1.321
35438SOL    HW2 6341   5.863   7.566   1.225
35439SOL     OW 6342   5.623   8.758   1.282
35439SOL    HW1 6343   5.676   8.709   1.350
35439SOL    HW2 6344   5.645   8.856   1.287
35440SOL     OW 6345   6.318   8.082   1.064
35440SOL    HW1 6346   6.377   8.056   0.988
35440SOL    HW2 6347   6.290   8.178   1.053
35441SOL     OW 6348   7.314   8.383   1.854
35441SOL    HW1 6349   7.268   8.376   1.765
35441SOL    HW2 6350   7.252   8.427   1.920
35442SOL     OW 6351   5.893   7.511   0.618
35442SOL    HW1 6352   5.882   7.605   0.651
35442SOL    HW2 6353   5.888   7.448   0.695
35443SOL     OW 6354   7.208   7.815   0.374
35443SOL    HW1 6355   7.210   7.739   0.438
35443SOL    HW2 6356   7.160   7.892   0.414
35444SOL     OW 6357   6.609   8.214   0.966
35444SOL    HW1 6358   6.624   8.235   1.062
35444SOL    HW2 6359   6.579   8.119   0.957
35445SOL     OW 6360   6.566   9.021   1.700
35445SOL    HW1 6361   6.546   9.065   1.612
35445SOL    HW2 6362   6.605   8.930   1.684
35446SOL     OW 6363   7.445   8.966   1.605
35446SOL    HW1 6364   7.459   8.993   1.510
35446SOL    HW2 6365   7.528   8.988   1.658
35447SOL     OW 6366   5.936   8.346   1.804
35447SOL    HW1 6367   6.012   8.390   1.852
35447SOL    HW2 6368   5.971   8.299   1.722
35448SOL     OW 6369   7.126   7.722   0.125
35448SOL    HW1 6370   7.065   7.647   0.148
35448SOL    HW2 6371   7.148   7.774   0.208
35449SOL     OW 6372   6.889   8.286   0.042
35449SOL    HW1 6373   6.923   8.193   0.057
35449SOL    HW2 6374   6.907   8.313  -0.053
35450SOL     OW 6375   6.654   8.781   0.849
35450SOL    HW1 6376   6.661   8.697   0.794
35450SOL    HW2 6377   6.716   8.850   0.813
35451SOL     OW 6378   5.905   8.258   0.949
35451SOL    HW1 6379   5.998   8.294   0.954
35451SOL    HW2 6380   5.899   8.173   1.001
35452SOL     OW 6381   5.925   7.957   1.006
35452SOL    HW1 6382   5.873   7.874   0.989
35452SOL    HW2 6383   6.002   7.962   0.942
35453SOL     OW 6384   6.724   7.828   1.678
35453SOL    HW1 6385   6.679   7.891   1.742
35453SOL    HW2 6386   6.817   7.859   1.661
35454SOL     OW 6387   6.746   7.655   1.477
35454SOL    HW1 6388   6.746   7.719   1.554
35454SOL    HW2 6389   6.774   7.703   1.394
35455SOL     OW 6390   5.594   8.774   0.200
35455SOL    HW1 6391   5.501   8.795   0.169
35455SOL    HW2 6392   5.604   8.675   0.213
35456SOL     OW 6393   5.674   9.249   0.927
35456SOL    HW1 6394   5.632   9.163   0.900
35456SOL    HW2 6395   5.768   9.252   0.893
35457SOL     OW 6396   6.090   9.016   0.910
35457SOL    HW1 6397   6.156   9.090   0.919
35457SOL    HW2 6398   6.134   8.937   0.868
35458SOL     OW 6399   6.588   8.244   1.238
35458SOL    HW1 6400   6.629   8.212   1.324
35458SOL    HW2 6401   6.492   8.217   1.235
35459SOL     OW 6402   5.626   7.992   1.114
35459SOL    HW1 6403   5.711   7.959   1.073
35459SOL    HW2 6404   5.639   8.007   1.212
35460SOL     OW 6405   5.775   7.968   1.722
35460SOL    HW1 6406   5.834   7.928   1.652
35460SOL    HW2 6407   5.717   8.039   1.681
35461SOL     OW 6408   6.955   8.398   1.660
35461SOL    HW1 6409   6.994   8.487   1.680
35461SOL    HW2 6410   6.965   8.378   1.563
35462SOL     OW 6411   6.401   8.020   0.325
35462SOL    HW1 6412   6.408   7.931   0.279
35462SOL    HW2 6413   6.307   8.054   0.317
35463SOL     OW 6414   7.243   8.052   1.206
35463SOL    HW1 6415   7.205   7.983   1.268
35463SOL    HW2 6416   7.325   8.016   1.162
35464SOL     OW 6417   5.838   9.012   1.744
35464SOL    HW1 6418   5.808   9.069   1.820
35464SOL    HW2 6419   5.831   8.915   1.770
35465SOL     OW 6420   6.257   7.912   1.269
35465SOL    HW1 6421   6.223   7.823   1.239
35465SOL    HW2 6422   6.283   7.966   1.189
35466SOL     OW 6423   6.516   9.126   1.465
35466SOL    HW1 6424   6.492   9.108   1.370
35466SOL    HW2 6425   6.546   9.220   1.475
35467SOL     OW 6426   6.059   7.948   0.191
35467SOL    HW1 6427   6.120   8.028   0.195
35467SOL    HW2 6428   5.964   7.979   0.198
35468SOL     OW 6429   5.745   8.585   1.466
35468SOL    HW1 6430   5.767   8.524   1.542
35468SOL    HW2 6431   5.755   8.536   1.380
35469SOL     OW 6432   6.933   8.507   1.234
35469SOL    HW1 6433   6.957   8.444   1.160
35469SOL    HW2 6434   6.843   8.547   1.216
35470SOL     OW 6435   6.888   8.303   0.309
35470SOL    HW1 6436   6.802   8.272   0.351
35470SOL    HW2 6437   6.884   8.289   0.210
35471SOL     OW 6438   7.345   9.195   1.154
35471SOL    HW1 6439   7.406   9.225   1.081
35471SOL    HW2 6440   7.307   9.106   1.132
35472SOL     OW 6441   6.838   9.179   1.128
35472SOL    HW1 6442   6.922   9.184   1.074
35472SOL    HW2 6443   6.815   9.083   1.146
35473SOL     OW 6444   5.669   8.706   1.022
35473SOL    HW1 6445   5.664   8.705   1.122
35473SOL    HW2 6446   5.586   8.665   0.984
35474SOL     OW 6447   6.274   9.110   1.716
35474SOL    HW1 6448   6.218   9.191   1.725
35474SOL    HW2 6449   6.326   9.114   1.630
35475SOL     OW 6450   6.489   7.534   0.133
35475SOL    HW1 6451   6.540   7.535   0.047
35475SOL    HW2 6452   6.545   7.492   0.204
35476SOL     OW 6453   7.312   7.583   0.523
35476SOL    HW1 6454   7.385   7.566   0.456
35476SOL    HW2 6455   7.281   7.496   0.561
35477SOL     OW 6456   6.974   9.021   0.477
35477SOL    HW1 6457   7.041   9.033   0.403
35477SOL    HW2 6458   6.934   9.110   0.500
35478SOL     OW 6459   5.716   9.242   1.851
35478SOL    HW1 6460   5.675   9.168   1.904
35478SOL    HW2 6461   5.780   9.293   1.909
35479SOL     OW 6462   6.866   8.375   0.672
35479SOL    HW1 6463   6.926   8.294   0.674
35479SOL    HW2 6464   6.906   8.444   0.612
35480SOL     OW 6465   6.416   8.721   1.422
35480SOL    HW1 6466   6.411   8.754   1.517
35480SOL    HW2 6467   6.330   8.740   1.376
35481SOL     OW 6468   6.258   9.064   0.154
35481SOL    HW1 6469   6.267   9.074   0.055
35481SOL    HW2 6470   6.218   8.975   0.175
35482SOL     OW 6471   7.236   9.168   1.394
35482SOL    HW1 6472   7.289   9.178   1.310
35482SOL    HW2 6473   7.209   9.258   1.428
35483SOL     OW 6474   7.427   7.623   0.963
35483SOL    HW1 6475   7.466   7.538   0.927
35483SOL    HW2 6476   7.329   7.625   0.944
35484SOL     OW 6477   5.849   7.774   0.720
35484SOL    HW1 6478   5.770   7.825   0.686
35484SOL    HW2 6479   5.840   7.759   0.818
35485SOL     OW 6480   6.780   9.060   0.031
35485SOL    HW1 6481   6.786   8.967   0.068
35485SOL    HW2 6482   6.721   9.060  -0.049
35486SOL     OW 6483   6.408   8.450   1.372
35486SOL    HW1 6484   6.448   8.449   1.280
35486SOL    HW2 6485   6.418   8.542   1.412
35487SOL     OW 6486   6.502   8.358   0.291
35487SOL    HW1 6487   6.565   8.396   0.223
35487SOL    HW2 6488   6.542   8.275   0.330
35488SOL     OW 6489   7.090   9.055   0.044
35488SOL    HW1 6490   6.998   9.092   0.051
35488SOL    HW2 6491   7.128   9.075  -0.046
35489SOL     OW 6492   5.958   8.736   1.490
35489SOL    HW1 6493   5.945   8.829   1.456
35489SOL    HW2 6494   5.874   8.684   1.477
35490SOL     OW 6495   7.200   8.740   1.289
35490SOL    HW1 6496   7.260   8.743   1.369
35490SOL    HW2 6497   7.125   8.804   1.302
35491SOL     OW 6498   6.625   8.546   0.696
35491SOL    HW1 6499   6.555   8.499   0.750
35491SOL    HW2 6500   6.684   8.478   0.653
35492SOL     OW 6501   6.600   7.684   0.971
35492SOL    HW1 6502   6.592   7.648   0.878
35492SOL    HW2 6503   6.598   7.608   1.036
35493SOL     OW 6504   6.176   8.935   0.491
35493SOL    HW1 6505   6.218   8.877   0.421
35493SOL    HW2 6506   6.132   9.014   0.447
35494SOL     OW 6507   7.295   7.833   1.381
35494SOL    HW1 6508   7.368   7.902   1.385
35494SOL    HW2 6509   7.323   7.758   1.322
35495SOL     OW 6510   5.841   8.796   0.290
35495SOL    HW1 6511   5.745   8.797   0.263
35495SOL    HW2 6512   5.853   8.849   0.374
35496SOL     OW 6513   6.258   7.651   1.489
35496SOL    HW1 6514   6.348   7.635   1.449
35496SOL    HW2 6515   6.266   7.656   1.588
35497SOL     OW 6516   7.026   8.304   1.398
35497SOL    HW1 6517   6.969   8.356   1.335
35497SOL    HW2 6518   7.122   8.316   1.374
35498SOL     OW 6519   5.658   7.614   0.318
35498SOL    HW1 6520   5.641   7.697   0.264
35498SOL    HW2 6521   5.748   7.577   0.296
35499SOL     OW 6522   6.769   8.783   0.119
35499SOL    HW1 6523   6.670   8.772   0.121
35499SOL    HW2 6524   6.803   8.798   0.212
35500SOL     OW 6525   6.199   8.290   1.431
35500SOL    HW1 6526   6.255   8.371   1.414
35500SOL    HW2 6527   6.258   8.210   1.434
35501SOL     OW 6528   7.079   9.215   0.959
35501SOL    HW1 6529   7.112   9.279   0.890
35501SOL    HW2 6530   7.145   9.209   1.034
35502SOL     OW 6531   6.302   8.013   1.708
35502SOL    HW1 6532   6.321   8.078   1.782
35502SOL    HW2 6533   6.362   7.933   1.717
35503SOL     OW 6534   7.036   8.668   1.633
35503SOL    HW1 6535   7.027   8.658   1.732
35503SOL    HW2 6536   7.132   8.661   1.607
35504SOL     OW 6537   5.976   9.189   1.560
35504SOL    HW1 6538   5.885   9.230   1.558
35504SOL    HW2 6539   5.969   9.095   1.592
35505SOL     OW 6540   7.260   8.331   1.254
35505SOL    HW1 6541   7.233   8.242   1.217
35505SOL    HW2 6542   7.261   8.399   1.181
35506SOL     OW 6543   6.811   7.773   0.449
35506SOL    HW1 6544   6.876   7.699   0.438
35506SOL    HW2 6545   6.831   7.823   0.533
35507SOL     OW 6546   6.180   8.193   0.652
35507SOL    HW1 6547   6.230   8.278   0.633
35507SOL    HW2 6548   6.092   8.195   0.604
35508SOL     OW 6549   7.363   7.790   1.642
35508SOL    HW1 6550   7.346   7.821   1.548
35508SOL    HW2 6551   7.279   7.753   1.680
35509SOL     OW 6552   7.316   8.382   1.517
35509SOL    HW1 6553   7.354   8.473   1.532
35509SOL    HW2 6554   7.308   8.365   1.418
35510SOL     OW 6555   6.445   8.822   0.016
35510SOL    HW1 6556   6.399   8.837   0.104
35510SOL    HW2 6557   6.489   8.907  -0.014
35511SOL     OW 6558   6.247   9.238   0.953
35511SOL    HW1 6559   6.201   9.326   0.940
35511SOL    HW2 6560   6.346   9.250   0.946
35512SOL     OW 6561   6.445   8.404   0.861
35512SOL    HW1 6562   6.499   8.335   0.909
35512SOL    HW2 6563   6.413   8.473   0.927
35513SOL     OW 6564   6.669   8.432   0.087
35513SOL    HW1 6565   6.646   8.485   0.005
35513SOL    HW2 6566   6.750   8.376   0.068
35514SOL     OW 6567   7.447   9.017   0.851
35514SOL    HW1 6568   7.376   9.005   0.781
35514SOL    HW2 6569   7.448   8.938   0.911
35515SOL     OW 6570   5.807   8.762   1.844
35515SOL    HW1 6571   5.742   8.689   1.823
35515SOL    HW2 6572   5.811   8.776   1.942
35516SOL     OW 6573   5.665   8.688   0.653
35516SOL    HW1 6574   5.664   8.641   0.741
35516SOL    HW2 6575   5.747   8.660   0.602
35517SOL     OW 6576   6.258   8.839   1.624
35517SOL    HW1 6577   6.180   8.789   1.662
35517SOL    HW2 6578   6.255   8.934   1.655
35518SOL     OW 6579   7.410   7.640   1.227
35518SOL    HW1 6580   7.406   7.550   1.271
35518SOL    HW2 6581   7.413   7.629   1.128
35519SOL     OW 6582   6.014   7.872   0.520
35519SOL    HW1 6583   6.044   7.800   0.458
35519SOL    HW2 6584   5.975   7.832   0.603
35520SOL     OW 6585   7.291   8.935   1.104
35520SOL    HW1 6586   7.198   8.910   1.077
35520SOL    HW2 6587   7.317   8.885   1.186
35521SOL     OW 6588   5.903   7.995   1.280
35521SOL    HW1 6589   5.941   7.936   1.352
35521SOL    HW2 6590   5.943   7.969   1.192
35522SOL     OW 6591   6.398   9.034   0.687
35522SOL    HW1 6592   6.430   9.044   0.593
35522SOL    HW2 6593   6.319   8.972   0.689
35523SOL     OW 6594   7.010   7.662   1.112
35523SOL    HW1 6595   7.062   7.597   1.167
35523SOL    HW2 6596   6.961   7.725   1.173
35524SOL     OW 6597   6.587   7.482   1.154
35524SOL    HW1 6598   6.524   7.410   1.123
35524SOL    HW2 6599   6.680   7.446   1.154
35525SOL     OW 6600   6.356   8.778   0.301
35525SOL    HW1 6601   6.310   8.691   0.318
35525SOL    HW2 6602   6.447   8.775   0.342
35526SOL     OW 6603   6.204   9.015   1.284
35526SOL    HW1 6604   6.199   9.097   1.341
35526SOL    HW2 6605   6.293   9.012   1.239
35527SOL     OW 6606   6.938   7.500   0.168
35527SOL    HW1 6607   6.973   7.459   0.084
35527SOL    HW2 6608   6.848   7.462   0.188
35528SOL     OW 6609   6.886   7.901   0.691
35528SOL    HW1 6610   6.827   7.981   0.695
35528SOL    HW2 6611   6.901   7.866   0.784
35529SOL     OW 6612   7.179   7.669   0.882
35529SOL    HW1 6613   7.095   7.668   0.936
35529SOL    HW2 6614   7.181   7.752   0.826
35530SOL     OW 6615   5.625   8.525   0.300
35530SOL    HW1 6616   5.724   8.514   0.291
35530SOL    HW2 6617   5.585   8.439   0.332
35531SOL     OW 6618   6.461   9.094   0.337
35531SOL    HW1 6619   6.384   9.059   0.283
35531SOL    HW2 6620   6.429   9.165   0.399
35532SOL     OW 6621   5.816   8.076   1.975
35532SOL    HW1 6622   5.723   8.074   2.012
35532SOL    HW2 6623   5.817   8.037   1.883
35533SOL     OW 6624   5.811   7.723   2.858
35533SOL    HW1 6625   5.846   7.706   2.950
35533SOL    HW2 6626   5.723   7.678   2.846
35534SOL     OW 6627   5.605   7.816   2.509
35534SOL    HW1 6628   5.523   7.859   2.548
35534SOL    HW2 6629   5.577   7.743   2.446
35535SOL     OW 6630   6.155   8.723   3.027
35535SOL    HW1 6631   6.062   8.716   2.990
35535SOL    HW2 6632   6.166   8.812   3.071
35536SOL     OW 6633   7.141   8.959   2.565
35536SOL    HW1 6634   7.084   8.943   2.646
35536SOL    HW2 6635   7.082   8.969   2.485
35537SOL     OW 6636   6.721   8.151   2.579
35537SOL    HW1 6637   6.778   8.229   2.554
35537SOL    HW2 6638   6.661   8.177   2.655
35538SOL     OW 6639   7.341   8.055   2.093
35538SOL    HW1 6640   7.329   8.042   1.994
35538SOL    HW2 6641   7.311   7.974   2.142
35539SOL     OW 6642   6.354   8.592   2.885
35539SOL    HW1 6643   6.276   8.609   2.945
35539SOL    HW2 6644   6.388   8.679   2.849
35540SOL     OW 6645   6.436   8.246   3.685
35540SOL    HW1 6646   6.432   8.322   3.750
35540SOL    HW2 6647   6.458   8.282   3.594
35541SOL     OW 6648   6.271   8.460   2.527
35541SOL    HW1 6649   6.340   8.444   2.597
35541SOL    HW2 6650   6.198   8.517   2.565
35542SOL     OW 6651   6.272   8.609   3.665
35542SOL    HW1 6652   6.332   8.688   3.679
35542SOL    HW2 6653   6.186   8.640   3.624
35543SOL     OW 6654   5.921   8.883   2.923
35543SOL    HW1 6655   5.843   8.852   2.870
35543SOL    HW2 6656   5.979   8.941   2.866
35544SOL     OW 6657   7.046   8.953   3.201
35544SOL    HW1 6658   7.070   9.047   3.227
35544SOL    HW2 6659   7.030   8.899   3.283
35545SOL     OW 6660   6.024   7.840   3.361
35545SOL    HW1 6661   6.106   7.784   3.370
35545SOL    HW2 6662   5.943   7.782   3.365
35546SOL     OW 6663   7.189   7.895   2.599
35546SOL    HW1 6664   7.115   7.941   2.549
35546SOL    HW2 6665   7.240   7.963   2.652
35547SOL     OW 6666   5.817   9.161   2.345
35547SOL    HW1 6667   5.851   9.238   2.399
35547SOL    HW2 6668   5.861   9.161   2.255
35548SOL     OW 6669   6.713   8.789   3.552
35548SOL    HW1 6670   6.760   8.789   3.640
35548SOL    HW2 6671   6.665   8.702   3.541
35549SOL     OW 6672   5.816   8.882   2.400
35549SOL    HW1 6673   5.790   8.978   2.400
35549SOL    HW2 6674   5.745   8.828   2.445
35550SOL     OW 6675   5.826   8.539   2.748
35550SOL    HW1 6676   5.840   8.455   2.800
35550SOL    HW2 6677   5.771   8.603   2.803
35551SOL     OW 6678   6.206   9.234   3.301
35551SOL    HW1 6679   6.114   9.217   3.336
35551SOL    HW2 6680   6.234   9.326   3.327
35552SOL     OW 6681   6.192   8.412   1.985
35552SOL    HW1 6682   6.199   8.496   1.931
35552SOL    HW2 6683   6.238   8.425   2.073
35553SOL     OW 6684   7.180   7.562   3.342
35553SOL    HW1 6685   7.162   7.629   3.270
35553SOL    HW2 6686   7.177   7.608   3.431
35554SOL     OW 6687   5.708   8.091   2.425
35554SOL    HW1 6688   5.663   8.003   2.442
35554SOL    HW2 6689   5.707   8.145   2.509
35555SOL     OW 6690   7.428   9.215   2.221
35555SOL    HW1 6691   7.482   9.186   2.301
35555SOL    HW2 6692   7.458   9.305   2.192
35556SOL     OW 6693   5.613   9.044   1.979
35556SOL    HW1 6694   5.594   8.948   2.000
35556SOL    HW2 6695   5.580   9.102   2.054
35557SOL     OW 6696   7.275   8.370   2.474
35557SOL    HW1 6697   7.370   8.341   2.482
35557SOL    HW2 6698   7.267   8.435   2.399
35558SOL     OW 6699   7.227   8.556   2.294
35558SOL    HW1 6700   7.313   8.558   2.242
35558SOL    HW2 6701   7.241   8.603   2.382
35559SOL     OW 6702   5.699   8.185   3.459
35559SOL    HW1 6703   5.787   8.172   3.504
35559SOL    HW2 6704   5.686   8.282   3.437
35560SOL     OW 6705   6.199   8.813   2.588
35560SOL    HW1 6706   6.150   8.726   2.597
35560SOL    HW2 6707   6.176   8.856   2.501
35561SOL     OW 6708   6.879   8.676   3.285
35561SOL    HW1 6709   6.916   8.603   3.227
35561SOL    HW2 6710   6.931   8.681   3.370
35562SOL     OW 6711   6.395   7.452   2.364
35562SOL    HW1 6712   6.435   7.543   2.355
35562SOL    HW2 6713   6.295   7.460   2.370
35563SOL     OW 6714   5.783   8.424   3.126
35563SOL    HW1 6715   5.872   8.379   3.112
35563SOL    HW2 6716   5.710   8.359   3.107
35564SOL     OW 6717   7.111   8.447   2.052
35564SOL    HW1 6718   7.048   8.371   2.065
35564SOL    HW2 6719   7.159   8.465   2.138
35565SOL     OW 6720   6.773   9.240   3.478
35565SOL    HW1 6721   6.797   9.300   3.402
35565SOL    HW2 6722   6.780   9.145   3.448
35566SOL     OW 6723   5.903   7.699   3.663
35566SOL    HW1 6724   5.974   7.770   3.669
35566SOL    HW2 6725   5.815   7.738   3.691
35567SOL     OW 6726   7.052   8.865   2.815
35567SOL    HW1 6727   6.993   8.871   2.895
35567SOL    HW2 6728   7.037   8.777   2.769
35568SOL     OW 6729   7.253   9.162   2.434
35568SOL    HW1 6730   7.212   9.139   2.346
35568SOL    HW2 6731   7.235   9.088   2.499
35569SOL     OW 6732   6.184   8.177   2.132
35569SOL    HW1 6733   6.208   8.246   2.064
35569SOL    HW2 6734   6.106   8.210   2.186
35570SOL     OW 6735   6.867   7.793   2.806
35570SOL    HW1 6736   6.781   7.743   2.793
35570SOL    HW2 6737   6.929   7.739   2.862
35571SOL     OW 6738   7.162   9.110   2.169
35571SOL    HW1 6739   7.251   9.156   2.172
35571SOL    HW2 6740   7.141   9.086   2.074
35572SOL     OW 6741   6.393   8.053   3.327
35572SOL    HW1 6742   6.346   8.050   3.416
35572SOL    HW2 6743   6.342   7.998   3.261
35573SOL     OW 6744   6.980   7.917   3.536
35573SOL    HW1 6745   6.960   7.960   3.624
35573SOL    HW2 6746   7.058   7.855   3.545
35574SOL     OW 6747   6.559   8.338   3.434
35574SOL    HW1 6748   6.605   8.254   3.405
35574SOL    HW2 6749   6.503   8.372   3.359
35575SOL     OW 6750   6.577   7.858   3.104
35575SOL    HW1 6751   6.500   7.892   3.158
35575SOL    HW2 6752   6.543   7.807   3.025
35576SOL     OW 6753   6.627   8.149   2.291
35576SOL    HW1 6754   6.653   8.145   2.387
35576SOL    HW2 6755   6.542   8.098   2.277
35577SOL     OW 6756   5.662   8.259   2.651
35577SOL    HW1 6757   5.761   8.247   2.660
35577SOL    HW2 6758   5.638   8.354   2.672
35578SOL     OW 6759   5.716   9.269   3.433
35578SOL    HW1 6760   5.706   9.254   3.532
35578SOL    HW2 6761   5.630   9.305   3.397
35579SOL     OW 6762   6.451   7.796   2.057
35579SOL    HW1 6763   6.510   7.859   2.008
35579SOL    HW2 6764   6.470   7.702   2.028
35580SOL     OW 6765   7.305   8.033   3.693
35580SOL    HW1 6766   7.279   8.122   3.657
35580SOL    HW2 6767   7.303   7.965   3.620
35581SOL     OW 6768   6.948   8.592   2.407
35581SOL    HW1 6769   7.031   8.563   2.359
35581SOL    HW2 6770   6.899   8.659   2.351
35582SOL     OW 6771   6.136   7.644   2.747
35582SOL    HW1 6772   6.131   7.639   2.847
35582SOL    HW2 6773   6.138   7.740   2.718
35583SOL     OW 6774   6.594   8.904   2.339
35583SOL    HW1 6775   6.548   8.976   2.287
35583SOL    HW2 6776   6.590   8.924   2.437
35584SOL     OW 6777   5.937   9.249   2.715
35584SOL    HW1 6778   5.987   9.163   2.721
35584SOL    HW2 6779   6.002   9.326   2.712
35585SOL     OW 6780   7.381   8.514   2.735
35585SOL    HW1 6781   7.319   8.499   2.659
35585SOL    HW2 6782   7.329   8.525   2.820
35586SOL     OW 6783   6.813   8.998   3.368
35586SOL    HW1 6784   6.819   8.921   3.432
35586SOL    HW2 6785   6.761   8.972   3.288
35587SOL     OW 6786   5.907   8.391   2.104
35587SOL    HW1 6787   5.989   8.430   2.062
35587SOL    HW2 6788   5.880   8.309   2.055
35588SOL     OW 6789   7.044   8.183   2.590
35588SOL    HW1 6790   7.039   8.118   2.665
35588SOL    HW2 6791   7.124   8.242   2.603
35589SOL     OW 6792   6.047   8.714   3.589
35589SOL    HW1 6793   5.997   8.715   3.503
35589SOL    HW2 6794   5.984   8.696   3.665
35590SOL     OW 6795   6.697   9.224   2.099
35590SOL    HW1 6796   6.637   9.162   2.149
35590SOL    HW2 6797   6.728   9.180   2.014
35591SOL     OW 6798   5.788   7.733   3.360
35591SOL    HW1 6799   5.708   7.793   3.347
35591SOL    HW2 6800   5.778   7.684   3.446
35592SOL     OW 6801   7.218   8.825   1.943
35592SOL    HW1 6802   7.186   8.919   1.933
35592SOL    HW2 6803   7.142   8.762   1.931
35593SOL     OW 6804   6.050   9.191   2.185
35593SOL    HW1 6805   6.083   9.230   2.271
35593SOL    HW2 6806   6.126   9.184   2.120
35594SOL     OW 6807   6.986   7.555   2.288
35594SOL    HW1 6808   6.962   7.518   2.198
35594SOL    HW2 6809   7.085   7.571   2.292
35595SOL     OW 6810   5.835   9.233   3.103
35595SOL    HW1 6811   5.892   9.168   3.153
35595SOL    HW2 6812   5.819   9.200   3.010
35596SOL     OW 6813   6.526   9.146   2.766
35596SOL    HW1 6814   6.606   9.089   2.787
35596SOL    HW2 6815   6.477   9.106   2.689
35597SOL     OW 6816   5.968   8.148   2.342
35597SOL    HW1 6817   6.013   8.058   2.339
35597SOL    HW2 6818   5.874   8.137   2.375
35598SOL     OW 6819   7.133   7.670   3.591
35598SOL    HW1 6820   7.128   7.707   3.683
35598SOL    HW2 6821   7.061   7.601   3.579
35599SOL     OW 6822   6.200   7.570   1.979
35599SOL    HW1 6823   6.298   7.548   1.986
35599SOL    HW2 6824   6.169   7.553   1.886
35600SOL     OW 6825   6.367   7.712   3.611
35600SOL    HW1 6826   6.434   7.651   3.654
35600SOL    HW2 6827   6.294   7.731   3.676
35601SOL     OW 6828   6.474   8.962   3.057
35601SOL    HW1 6829   6.451   8.937   2.963
35601SOL    HW2 6830   6.535   8.893   3.096
35602SOL     OW 6831   6.937   8.038   3.295
35602SOL    HW1 6832   6.965   7.995   3.380
35602SOL    HW2 6833   6.962   8.134   3.296
35603SOL     OW 6834   6.389   8.850   2.786
35603SOL    HW1 6835   6.479   8.864   2.744
35603SOL    HW2 6836   6.318   8.852   2.715
35604SOL     OW 6837   6.508   7.951   2.761
35604SOL    HW1 6838   6.483   7.942   2.665
35604SOL    HW2 6839   6.556   7.869   2.792
35605SOL     OW 6840   6.125   7.512   2.374
35605SOL    HW1 6841   6.044   7.513   2.432
35605SOL    HW2 6842   6.128   7.595   2.319
35606SOL     OW 6843   7.020   8.636   1.903
35606SOL    HW1 6844   7.052   8.560   1.960
35606SOL    HW2 6845   6.928   8.663   1.933
35607SOL     OW 6846   5.883   7.483   2.033
35607SOL    HW1 6847   5.932   7.567   2.012
35607SOL    HW2 6848   5.945   7.418   2.078
35608SOL     OW 6849   6.521   7.684   2.342
35608SOL    HW1 6850   6.473   7.725   2.264
35608SOL    HW2 6851   6.620   7.682   2.323
35609SOL     OW 6852   6.662   8.131   3.326
35609SOL    HW1 6853   6.582   8.070   3.329
35609SOL    HW2 6854   6.743   8.078   3.302
35610SOL     OW 6855   6.813   9.018   2.655
35610SOL    HW1 6856   6.834   9.092   2.590
35610SOL    HW2 6857   6.881   9.018   2.728
35611SOL     OW 6858   6.045   8.600   2.603
35611SOL    HW1 6859   5.974   8.573   2.668
35611SOL    HW2 6860   6.019   8.572   2.510
35612SOL     OW 6861   6.857   9.245   2.453
35612SOL    HW1 6862   6.901   9.309   2.389
35612SOL    HW2 6863   6.807   9.297   2.523
35613SOL     OW 6864   6.618   7.997   1.878
35613SOL    HW1 6865   6.577   8.079   1.839
35613SOL    HW2 6866   6.682   8.023   1.951
35614SOL     OW 6867   5.664   8.004   3.248
35614SOL    HW1 6868   5.756   8.003   3.207
35614SOL    HW2 6869   5.658   8.078   3.315
35615SOL     OW 6870   6.147   7.670   3.009
35615SOL    HW1 6871   6.185   7.586   3.046
35615SOL    HW2 6872   6.059   7.689   3.053
35616SOL     OW 6873   6.452   7.902   2.504
35616SOL    HW1 6874   6.420   7.974   2.442
35616SOL    HW2 6875   6.476   7.821   2.451
35617SOL     OW 6876   6.603   7.487   2.615
35617SOL    HW1 6877   6.531   7.492   2.546
35617SOL    HW2 6878   6.579   7.418   2.684
35618SOL     OW 6879   7.015   8.621   2.729
35618SOL    HW1 6880   6.960   8.537   2.722
35618SOL    HW2 6881   7.041   8.650   2.637
35619SOL     OW 6882   7.052   8.038   2.854
35619SOL    HW1 6883   7.022   7.943   2.861
35619SOL    HW2 6884   7.125   8.054   2.920
35620SOL     OW 6885   7.443   8.281   2.239
35620SOL    HW1 6886   7.485   8.217   2.303
35620SOL    HW2 6887   7.405   8.230   2.161
35621SOL     OW 6888   6.074   8.833   2.036
35621SOL    HW1 6889   5.987   8.818   2.083
35621SOL    HW2 6890   6.057   8.859   1.941
35622SOL     OW 6891   7.250   8.728   2.519
35622SOL    HW1 6892   7.349   8.736   2.533
35622SOL    HW2 6893   7.205   8.812   2.550
35623SOL     OW 6894   6.976   8.023   1.940
35623SOL    HW1 6895   6.922   8.002   2.021
35623SOL    HW2 6896   7.067   7.982   1.949
35624SOL     OW 6897   6.113   7.704   2.190
35624SOL    HW1 6898   6.140   7.645   2.115
35624SOL    HW2 6899   6.113   7.799   2.159
35625SOL     OW 6900   7.340   8.671   3.450
35625SOL    HW1 6901   7.431   8.632   3.437
35625SOL    HW2 6902   7.348   8.767   3.474
35626SOL     OW 6903   6.650   8.795   3.202
35626SOL    HW1 6904   6.570   8.772   3.257
35626SOL    HW2 6905   6.733   8.769   3.251
35627SOL     OW 6906   7.178   9.077   3.487
35627SOL    HW1 6907   7.205   9.111   3.397
35627SOL    HW2 6908   7.257   9.039   3.533
35628SOL     OW 6909   6.697   8.643   2.962
35628SOL    HW1 6910   6.657   8.687   3.043
35628SOL    HW2 6911   6.656   8.680   2.879
35629SOL     OW 6912   7.224   8.547   2.941
35629SOL    HW1 6913   7.229   8.628   3.000
35629SOL    HW2 6914   7.138   8.549   2.890
35630SOL     OW 6915   6.501   7.537   3.264
35630SOL    HW1 6916   6.526   7.517   3.169
35630SOL    HW2 6917   6.573   7.593   3.306
35631SOL     OW 6918   6.566   8.564   3.581
35631SOL    HW1 6919   6.467   8.570   3.591
35631SOL    HW2 6920   6.589   8.484   3.525
35632SOL     OW 6921   6.291   8.498   2.230
35632SOL    HW1 6922   6.277   8.505   2.329
35632SOL    HW2 6923   6.375   8.447   2.212
35633SOL     OW 6924   5.996   8.261   3.113
35633SOL    HW1 6925   6.082   8.273   3.163
35633SOL    HW2 6926   5.954   8.174   3.140
35634SOL     OW 6927   6.860   7.834   3.124
35634SOL    HW1 6928   6.881   7.908   3.188
35634SOL    HW2 6929   6.771   7.851   3.081
35635SOL     OW 6930   5.650   9.012   3.193
35635SOL    HW1 6931   5.604   9.094   3.159
35635SOL    HW2 6932   5.748   9.031   3.202
35636SOL     OW 6933   5.953   8.548   2.363
35636SOL    HW1 6934   5.946   8.631   2.307
35636SOL    HW2 6935   5.957   8.468   2.303
35637SOL     OW 6936   6.152   7.985   2.727
35637SOL    HW1 6937   6.164   8.051   2.653
35637SOL    HW2 6938   6.198   8.019   2.810
35638SOL     OW 6939   6.838   8.796   2.250
35638SOL    HW1 6940   6.888   8.873   2.290
35638SOL    HW2 6941   6.743   8.798   2.282
35639SOL     OW 6942   6.858   8.893   3.004
35639SOL    HW1 6943   6.905   8.906   3.091
35639SOL    HW2 6944   6.792   8.819   3.013
35640SOL     OW 6945   7.168   8.087   2.334
35640SOL    HW1 6946   7.137   8.148   2.407
35640SOL    HW2 6947   7.218   8.139   2.265
35641SOL     OW 6948   5.940   8.958   3.191
35641SOL    HW1 6949   5.919   8.914   3.104
35641SOL    HW2 6950   6.037   8.984   3.194
35642SOL     OW 6951   5.988   8.199   3.460
35642SOL    HW1 6952   6.056   8.254   3.413
35642SOL    HW2 6953   6.028   8.111   3.487
35643SOL     OW 6954   7.173   8.227   3.532
35643SOL    HW1 6955   7.081   8.265   3.527
35643SOL    HW2 6956   7.233   8.274   3.467
35644SOL     OW 6957   6.599   7.553   3.632
35644SOL    HW1 6958   6.605   7.638   3.580
35644SOL    HW2 6959   6.631   7.477   3.575
35645SOL     OW 6960   6.090   7.498   3.602
35645SOL    HW1 6961   6.048   7.441   3.532
35645SOL    HW2 6962   6.024   7.567   3.634
35646SOL     OW 6963   6.159   8.318   2.891
35646SOL    HW1 6964   6.203   8.407   2.882
35646SOL    HW2 6965   6.096   8.318   2.968
35647SOL     OW 6966   6.946   8.310   2.907
35647SOL    HW1 6967   6.871   8.310   2.841
35647SOL    HW2 6968   6.983   8.218   2.916
35648SOL     OW 6969   6.795   7.973   2.137
35648SOL    HW1 6970   6.808   7.889   2.191
35648SOL    HW2 6971   6.766   8.047   2.197
35649SOL     OW 6972   5.893   7.661   3.093
35649SOL    HW1 6973   5.870   7.698   3.183
35649SOL    HW2 6974   5.863   7.566   3.087
35650SOL     OW 6975   5.623   8.758   3.144
35650SOL    HW1 6976   5.676   8.709   3.212
35650SOL    HW2 6977   5.645   8.856   3.149
35651SOL     OW 6978   6.318   8.082   2.926
35651SOL    HW1 6979   6.377   8.056   2.850
35651SOL    HW2 6980   6.290   8.178   2.915
35652SOL     OW 6981   7.314   8.383   3.716
35652SOL    HW1 6982   7.268   8.376   3.627
35652SOL    HW2 6983   7.252   8.427   3.782
35653SOL     OW 6984   5.893   7.511   2.480
35653SOL    HW1 6985   5.882   7.605   2.513
35653SOL    HW2 6986   5.888   7.448   2.557
35654SOL     OW 6987   7.208   7.815   2.236
35654SOL    HW1 6988   7.210   7.739   2.300
35654SOL    HW2 6989   7.160   7.892   2.276
35655SOL     OW 6990   6.609   8.214   2.828
35655SOL    HW1 6991   6.624   8.235   2.924
35655SOL    HW2 6992   6.579   8.119   2.819
35656SOL     OW 6993   6.566   9.021   3.562
35656SOL    HW1 6994   6.546   9.065   3.474
35656SOL    HW2 6995   6.605   8.930   3.546
35657SOL     OW 6996   7.445   8.966   3.467
35657SOL    HW1 6997   7.459   8.993   3.372
35657SOL    HW2 6998   7.528   8.988   3.520
35658SOL     OW 6999   5.936   8.346   3.666
35658SOL    HW1 7000   6.012   8.390   3.714
35658SOL    HW2 7001   5.971   8.299   3.584
35659SOL     OW 7002   7.126   7.722   1.987
35659SOL    HW1 7003   7.065   7.647   2.010
35659SOL    HW2 7004   7.148   7.774   2.070
35660SOL     OW 7005   6.889   8.286   1.904
35660SOL    HW1 7006   6.923   8.193   1.919
35660SOL    HW2 7007   6.907   8.313   1.809
35661SOL     OW 7008   6.654   8.781   2.711
35661SOL    HW1 7009   6.661   8.697   2.656
35661SOL    HW2 7010   6.716   8.850   2.675
35662SOL     OW 7011   5.905   8.258   2.811
35662SOL    HW1 7012   5.998   8.294   2.816
35662SOL    HW2 7013   5.899   8.173   2.863
35663SOL     OW 7014   5.925   7.957   2.868
35663SOL    HW1 7015   5.873   7.874   2.851
35663SOL    HW2 7016   6.002   7.962   2.804
35664SOL     OW 7017   6.724   7.828   3.540
35664SOL    HW1 7018   6.679   7.891   3.604
35664SOL    HW2 7019   6.817   7.859   3.523
35665SOL     OW 7020   6.746   7.655   3.339
35665SOL    HW1 7021   6.746   7.719   3.416
35665SOL    HW2 7022   6.774   7.703   3.256
35666SOL     OW 7023   5.594   8.774   2.062
35666SOL    HW1 7024   5.501   8.795   2.031
35666SOL    HW2 7025   5.604   8.675   2.075
35667SOL     OW 7026   5.674   9.249   2.789
35667SOL    HW1 7027   5.632   9.163   2.762
35667SOL    HW2 7028   5.768   9.252   2.755
35668SOL     OW 7029   6.090   9.016   2.772
35668SOL    HW1 7030   6.156   9.090   2.781
35668SOL    HW2 7031   6.134   8.937   2.730
35669SOL     OW 7032   5.626   7.992   2.976
35669SOL    HW1 7033   5.711   7.959   2.935
35669SOL    HW2 7034   5.639   8.007   3.074
35670SOL     OW 7035   5.775   7.968   3.584
35670SOL    HW1 7036   5.834   7.928   3.514
35670SOL    HW2 7037   5.717   8.039   3.543
35671SOL     OW 7038   6.955   8.398   3.522
35671SOL    HW1 7039   6.994   8.487   3.542
35671SOL    HW2 7040   6.965   8.378   3.425
35672SOL     OW 7041   6.401   8.020   2.187
35672SOL    HW1 7042   6.408   7.931   2.141
35672SOL    HW2 7043   6.307   8.054   2.179
35673SOL     OW 7044   7.243   8.052   3.068
35673SOL    HW1 7045   7.205   7.983   3.130
35673SOL    HW2 7046   7.325   8.016   3.024
35674SOL     OW 7047   5.838   9.012   3.606
35674SOL    HW1 7048   5.808   9.069   3.682
35674SOL    HW2 7049   5.831   8.915   3.632
35675SOL     OW 7050   6.257   7.912   3.131
35675SOL    HW1 7051   6.223   7.823   3.101
35675SOL    HW2 7052   6.283   7.966   3.051
35676SOL     OW 7053   6.516   9.126   3.327
35676SOL    HW1 7054   6.492   9.108   3.232
35676SOL    HW2 7055   6.546   9.220   3.337
35677SOL     OW 7056   6.059   7.948   2.053
35677SOL    HW1 7057   6.120   8.028   2.057
35677SOL    HW2 7058   5.964   7.979   2.060
35678SOL     OW 7059   5.745   8.585   3.328
35678SOL    HW1 7060   5.767   8.524   3.404
35678SOL    HW2 7061   5.755   8.536   3.242
35679SOL     OW 7062   6.933   8.507   3.096
35679SOL    HW1 7063   6.957   8.444   3.022
35679SOL    HW2 7064   6.843   8.547   3.078
35680SOL     OW 7065   6.888   8.303   2.171
35680SOL    HW1 7066   6.802   8.272   2.213
35680SOL    HW2 7067   6.884   8.289   2.072
35681SOL     OW 7068   7.345   9.195   3.016
35681SOL    HW1 7069   7.406   9.225   2.943
35681SOL    HW2 7070   7.307   9.106   2.994
35682SOL     OW 7071   6.838   9.179   2.990
35682SOL    HW1 7072   6.922   9.184   2.936
35682SOL    HW2 7073   6.815   9.083   3.008
35683SOL     OW 7074   5.669   8.706   2.884
35683SOL    HW1 7075   5.664   8.705   2.984
35683SOL    HW2 7076   5.586   8.665   2.846
35684SOL     OW 7077   6.274   9.110   3.578
35684SOL    HW1 7078   6.218   9.191   3.587
35684SOL    HW2 7079   6.326   9.114   3.492
35685SOL     OW 7080   7.312   7.583   2.385
35685SOL    HW1 7081   7.385   7.566   2.318
35685SOL    HW2 7082   7.281   7.496   2.423
35686SOL     OW 7083   6.974   9.021   2.339
35686SOL    HW1 7084   7.041   9.033   2.265
35686SOL    HW2 7085   6.934   9.110   2.362
35687SOL     OW 7086   5.716   9.242   3.713
35687SOL    HW1 7087   5.675   9.168   3.766
35687SOL    HW2 7088   5.780   9.293   3.771
35688SOL     OW 7089   6.866   8.375   2.534
35688SOL    HW1 7090   6.926   8.294   2.536
35688SOL    HW2 7091   6.906   8.444   2.474
35689SOL     OW 7092   6.416   8.721   3.284
35689SOL    HW1 7093   6.411   8.754   3.379
35689SOL    HW2 7094   6.330   8.740   3.238
35690SOL     OW 7095   6.258   9.064   2.016
35690SOL    HW1 7096   6.267   9.074   1.917
35690SOL    HW2 7097   6.218   8.975   2.037
35691SOL     OW 7098   7.236   9.168   3.256
35691SOL    HW1 7099   7.289   9.178   3.172
35691SOL    HW2 7100   7.209   9.258   3.290
35692SOL     OW 7101   7.427   7.623   2.825
35692SOL    HW1 7102   7.466   7.538   2.789
35692SOL    HW2 7103   7.329   7.625   2.806
35693SOL     OW 7104   5.849   7.774   2.582
35693SOL    HW1 7105   5.770   7.825   2.548
35693SOL    HW2 7106   5.840   7.759   2.680
35694SOL     OW 7107   6.408   8.450   3.234
35694SOL    HW1 7108   6.448   8.449   3.142
35694SOL    HW2 7109   6.418   8.542   3.274
35695SOL     OW 7110   6.502   8.358   2.153
35695SOL    HW1 7111   6.565   8.396   2.085
35695SOL    HW2 7112   6.542   8.275   2.192
35696SOL     OW 7113   7.090   9.055   1.906
35696SOL    HW1 7114   6.998   9.092   1.913
35696SOL    HW2 7115   7.128   9.075   1.816
35697SOL     OW 7116   5.958   8.736   3.352
35697SOL    HW1 7117   5.945   8.829   3.318
35697SOL    HW2 7118   5.874   8.684   3.339
35698SOL     OW 7119   7.200   8.740   3.151
35698SOL    HW1 7120   7.260   8.743   3.231
35698SOL    HW2 7121   7.125   8.804   3.164
35699SOL     OW 7122   6.625   8.546   2.558
35699SOL    HW1 7123   6.555   8.499   2.612
35699SOL    HW2 7124   6.684   8.478   2.515
35700SOL     OW 7125   6.600   7.684   2.833
35700SOL    HW1 7126   6.592   7.648   2.740
35700SOL    HW2 7127   6.598   7.608   2.898
35701SOL     OW 7128   6.176   8.935   2.353
35701SOL    HW1 7129   6.218   8.877   2.283
35701SOL    HW2 7130   6.132   9.014   2.309
35702SOL     OW 7131   7.295   7.833   3.243
35702SOL    HW1 7132   7.368   7.902   3.247
35702SOL    HW2 7133   7.323   7.758   3.184
35703SOL     OW 7134   5.841   8.796   2.152
35703SOL    HW1 7135   5.745   8.797   2.125
35703SOL    HW2 7136   5.853   8.849   2.236
35704SOL     OW 7137   5.691   8.461   3.588
35704SOL    HW1 7138   5.614   8.428   3.642
35704SOL    HW2 7139   5.776   8.431   3.630
35705SOL     OW 7140   6.258   7.651   3.351
35705SOL    HW1 7141   6.348   7.635   3.311
35705SOL    HW2 7142   6.266   7.656   3.450
35706SOL     OW 7143   5.661   7.793   1.895
35706SOL    HW1 7144   5.569   7.765   1.866
35706SOL    HW2 7145   5.692   7.870   1.839
35707SOL     OW 7146   7.026   8.304   3.260
35707SOL    HW1 7147   6.969   8.356   3.197
35707SOL    HW2 7148   7.122   8.316   3.236
35708SOL     OW 7149   5.658   7.614   2.180
35708SOL    HW1 7150   5.641   7.697   2.126
35708SOL    HW2 7151   5.748   7.577   2.158
35709SOL     OW 7152   6.769   8.783   1.981
35709SOL    HW1 7153   6.670   8.772   1.983
35709SOL    HW2 7154   6.803   8.798   2.074
35710SOL     OW 7155   6.199   8.290   3.293
35710SOL    HW1 7156   6.255   8.371   3.276
35710SOL    HW2 7157   6.258   8.210   3.296
35711SOL     OW 7158   7.079   9.215   2.821
35711SOL    HW1 7159   7.112   9.279   2.752
35711SOL    HW2 7160   7.145   9.209   2.896
35712SOL     OW 7161   6.302   8.013   3.570
35712SOL    HW1 7162   6.321   8.078   3.644
35712SOL    HW2 7163   6.362   7.933   3.579
35713SOL     OW 7164   7.036   8.668   3.495
35713SOL    HW1 7165   7.027   8.658   3.594
35713SOL    HW2 7166   7.132   8.661   3.469
35714SOL     OW 7167   5.976   9.189   3.422
35714SOL    HW1 7168   5.885   9.230   3.420
35714SOL    HW2 7169   5.969   9.095   3.454
35715SOL     OW 7170   7.260   8.331   3.116
35715SOL    HW1 7171   7.233   8.242   3.079
35715SOL    HW2 7172   7.261   8.399   3.043
35716SOL     OW 7173   6.811   7.773   2.311
35716SOL    HW1 7174   6.876   7.699   2.300
35716SOL    HW2 7175   6.831   7.823   2.395
35717SOL     OW 7176   6.180   8.193   2.514
35717SOL    HW1 7177   6.230   8.278   2.495
35717SOL    HW2 7178   6.092   8.195   2.466
35718SOL     OW 7179   7.363   7.790   3.504
35718SOL    HW1 7180   7.346   7.821   3.410
35718SOL    HW2 7181   7.279   7.753   3.542
35719SOL     OW 7182   7.316   8.382   3.379
35719SOL    HW1 7183   7.354   8.473   3.394
35719SOL    HW2 7184   7.308   8.365   3.280
35720SOL     OW 7185   6.445   8.822   1.878
35720SOL    HW1 7186   6.399   8.837   1.966
35720SOL    HW2 7187   6.489   8.907   1.848
35721SOL     OW 7188   6.247   9.238   2.815
35721SOL    HW1 7189   6.201   9.326   2.802
35721SOL    HW2 7190   6.346   9.250   2.808
35722SOL     OW 7191   6.445   8.404   2.723
35722SOL    HW1 7192   6.499   8.335   2.771
35722SOL    HW2 7193   6.413   8.473   2.789
35723SOL     OW 7194   6.669   8.432   1.949
35723SOL    HW1 7195   6.646   8.485   1.867
35723SOL    HW2 7196   6.750   8.376   1.930
35724SOL     OW 7197   7.447   9.017   2.713
35724SOL    HW1 7198   7.376   9.005   2.643
35724SOL    HW2 7199   7.448   8.938   2.773
35725SOL     OW 7200   5.807   8.762   3.706
35725SOL    HW1 7201   5.742   8.689   3.685
35725SOL    HW2 7202   5.811   8.776   3.804
35726SOL     OW 7203   5.665   8.688   2.515
35726SOL    HW1 7204   5.664   8.641   2.603
35726SOL    HW2 7205   5.747   8.660   2.464
35727SOL     OW 7206   6.258   8.839   3.486
35727SOL    HW1 7207   6.180   8.789   3.524
35727SOL    HW2 7208   6.255   8.934   3.517
35728SOL     OW 7209   7.410   7.640   3.089
35728SOL    HW1 7210   7.406   7.550   3.133
35728SOL    HW2 7211   7.413   7.629   2.990
35729SOL     OW 7212   6.014   7.872   2.382
35729SOL    HW1 7213   6.044   7.800   2.320
35729SOL    HW2 7214   5.975   7.832   2.465
35730SOL     OW 7215   7.291   8.935   2.966
35730SOL    HW1 7216   7.198   8.910   2.939
35730SOL    HW2 7217   7.317   8.885   3.048
35731SOL     OW 7218   5.903   7.995   3.142
35731SOL    HW1 7219   5.941   7.936   3.214
35731SOL    HW2 7220   5.943   7.969   3.054
35732SOL     OW 7221   6.398   9.034   2.549
35732SOL    HW1 7222   6.430   9.044   2.455
35732SOL    HW2 7223   6.319   8.972   2.551
35733SOL     OW 7224   7.010   7.662   2.974
35733SOL    HW1 7225   7.062   7.597   3.029
35733SOL    HW2 7226   6.961   7.725   3.035
35734SOL     OW 7227   6.587   7.482   3.016
35734SOL    HW1 7228   6.524   7.410   2.985
35734SOL    HW2 7229   6.680   7.446   3.016
35735SOL     OW 7230   6.356   8.778   2.163
35735SOL    HW1 7231   6.310   8.691   2.180
35735SOL    HW2 7232   6.447   8.775   2.204
35736SOL     OW 7233   6.204   9.015   3.146
35736SOL    HW1 7234   6.199   9.097   3.203
35736SOL    HW2 7235   6.293   9.012   3.101
35737SOL     OW 7236   6.938   7.500   2.030
35737SOL    HW1 7237   6.973   7.459   1.946
35737SOL    HW2 7238   6.848   7.462   2.050
35738SOL     OW 7239   6.886   7.901   2.553
35738SOL    HW1 7240   6.827   7.981   2.557
35738SOL    HW2 7241   6.901   7.866   2.646
35739SOL     OW 7242   7.179   7.669   2.744
35739SOL    HW1 7243   7.095   7.668   2.798
35739SOL    HW2 7244   7.181   7.752   2.688
35740SOL     OW 7245   5.625   8.525   2.162
35740SOL    HW1 7246   5.724   8.514   2.153
35740SOL    HW2 7247   5.585   8.439   2.194
35741SOL     OW 7248   6.461   9.094   2.199
35741SOL    HW1 7249   6.384   9.059   2.145
35741SOL    HW2 7250   6.429   9.165   2.261
35742SOL     OW 7251   5.816   8.076   3.837
35742SOL    HW1 7252   5.723   8.074   3.874
35742SOL    HW2 7253   5.817   8.037   3.745
35743SOL     OW 7254   5.811   7.723   4.720
35743SOL    HW1 7255   5.846   7.706   4.812
35743SOL    HW2 7256   5.723   7.678   4.708
35744SOL     OW 7257   5.605   7.816   4.371
35744SOL    HW1 7258   5.523   7.859   4.410
35744SOL    HW2 7259   5.577   7.743   4.308
35745SOL     OW 7260   6.155   8.723   4.889
35745SOL    HW1 7261   6.062   8.716   4.852
35745SOL    HW2 7262   6.166   8.812   4.933
35746SOL     OW 7263   7.141   8.959   4.427
35746SOL    HW1 7264   7.084   8.943   4.508
35746SOL    HW2 7265   7.082   8.969   4.347
35747SOL     OW 7266   6.721   8.151   4.441
35747SOL    HW1 7267   6.778   8.229   4.416
35747SOL    HW2 7268   6.661   8.177   4.517
35748SOL     OW 7269   7.341   8.055   3.955
35748SOL    HW1 7270   7.329   8.042   3.856
35748SOL    HW2 7271   7.311   7.974   4.004
35749SOL     OW 7272   6.354   8.592   4.747
35749SOL    HW1 7273   6.276   8.609   4.807
35749SOL    HW2 7274   6.388   8.679   4.711
35750SOL     OW 7275   6.436   8.246   5.547
35750SOL    HW1 7276   6.432   8.322   5.612
35750SOL    HW2 7277   6.458   8.282   5.456
35751SOL     OW 7278   6.271   8.460   4.389
35751SOL    HW1 7279   6.340   8.444   4.459
35751SOL    HW2 7280   6.198   8.517   4.427
35752SOL     OW 7281   6.272   8.609   5.527
35752SOL    HW1 7282   6.332   8.688   5.541
35752SOL    HW2 7283   6.186   8.640   5.486
35753SOL     OW 7284   5.921   8.883   4.785
35753SOL    HW1 7285   5.843   8.852   4.732
35753SOL    HW2 7286   5.979   8.941   4.728
35754SOL     OW 7287   7.046   8.953   5.063
35754SOL    HW1 7288   7.070   9.047   5.089
35754SOL    HW2 7289   7.030   8.899   5.145
35755SOL     OW 7290   6.024   7.840   5.223
35755SOL    HW1 7291   6.106   7.784   5.232
35755SOL    HW2 7292   5.943   7.782   5.227
35756SOL     OW 7293   7.189   7.895   4.461
35756SOL    HW1 7294   7.115   7.941   4.411
35756SOL    HW2 7295   7.240   7.963   4.514
35757SOL     OW 7296   5.817   9.161   4.207
35757SOL    HW1 7297   5.851   9.238   4.261
35757SOL    HW2 7298   5.861   9.161   4.117
35758SOL     OW 7299   6.713   8.789   5.414
35758SOL    HW1 7300   6.760   8.789   5.502
35758SOL    HW2 7301   6.665   8.702   5.403
35759SOL     OW 7302   5.816   8.882   4.262
35759SOL    HW1 7303   5.790   8.978   4.262
35759SOL    HW2 7304   5.745   8.828   4.307
35760SOL     OW 7305   5.826   8.539   4.610
35760SOL    HW1 7306   5.840   8.455   4.662
35760SOL    HW2 7307   5.771   8.603   4.665
35761SOL     OW 7308   6.206   9.234   5.163
35761SOL    HW1 7309   6.114   9.217   5.198
35761SOL    HW2 7310   6.234   9.326   5.189
35762SOL     OW 7311   6.192   8.412   3.847
35762SOL    HW1 7312   6.199   8.496   3.793
35762SOL    HW2 7313   6.238   8.425   3.935
35763SOL     OW 7314   7.180   7.562   5.204
35763SOL    HW1 7315   7.162   7.629   5.132
35763SOL    HW2 7316   7.177   7.608   5.293
35764SOL     OW 7317   5.708   8.091   4.287
35764SOL    HW1 7318   5.663   8.003   4.304
35764SOL    HW2 7319   5.707   8.145   4.371
35765SOL     OW 7320   7.428   9.215   4.083
35765SOL    HW1 7321   7.482   9.186   4.163
35765SOL    HW2 7322   7.458   9.305   4.054
35766SOL     OW 7323   5.613   9.044   3.841
35766SOL    HW1 7324   5.594   8.948   3.862
35766SOL    HW2 7325   5.580   9.102   3.916
35767SOL     OW 7326   7.275   8.370   4.336
35767SOL    HW1 7327   7.370   8.341   4.344
35767SOL    HW2 7328   7.267   8.435   4.261
35768SOL     OW 7329   7.227   8.556   4.156
35768SOL    HW1 7330   7.313   8.558   4.104
35768SOL    HW2 7331   7.241   8.603   4.244
35769SOL     OW 7332   5.699   8.185   5.321
35769SOL    HW1 7333   5.787   8.172   5.366
35769SOL    HW2 7334   5.686   8.282   5.299
35770SOL     OW 7335   6.199   8.813   4.450
35770SOL    HW1 7336   6.150   8.726   4.459
35770SOL    HW2 7337   6.176   8.856   4.363
35771SOL     OW 7338   6.879   8.676   5.147
35771SOL    HW1 7339   6.916   8.603   5.089
35771SOL    HW2 7340   6.931   8.681   5.232
35772SOL     OW 7341   6.395   7.452   4.226
35772SOL    HW1 7342   6.435   7.543   4.217
35772SOL    HW2 7343   6.295   7.460   4.232
35773SOL     OW 7344   5.783   8.424   4.988
35773SOL    HW1 7345   5.872   8.379   4.974
35773SOL    HW2 7346   5.710   8.359   4.969
35774SOL     OW 7347   7.111   8.447   3.914
35774SOL    HW1 7348   7.048   8.371   3.927
35774SOL    HW2 7349   7.159   8.465   4.000
35775SOL     OW 7350   6.773   9.240   5.340
35775SOL    HW1 7351   6.797   9.300   5.264
35775SOL    HW2 7352   6.780   9.145   5.310
35776SOL     OW 7353   5.903   7.699   5.525
35776SOL    HW1 7354   5.974   7.770   5.531
35776SOL    HW2 7355   5.815   7.738   5.553
35777SOL     OW 7356   7.052   8.865   4.677
35777SOL    HW1 7357   6.993   8.871   4.757
35777SOL    HW2 7358   7.037   8.777   4.631
35778SOL     OW 7359   7.253   9.162   4.296
35778SOL    HW1 7360   7.212   9.139   4.208
35778SOL    HW2 7361   7.235   9.088   4.361
35779SOL     OW 7362   6.184   8.177   3.994
35779SOL    HW1 7363   6.208   8.246   3.926
35779SOL    HW2 7364   6.106   8.210   4.048
35780SOL     OW 7365   6.867   7.793   4.668
35780SOL    HW1 7366   6.781   7.743   4.655
35780SOL    HW2 7367   6.929   7.739   4.724
35781SOL     OW 7368   7.162   9.110   4.031
35781SOL    HW1 7369   7.251   9.156   4.034
35781SOL    HW2 7370   7.141   9.086   3.936
35782SOL     OW 7371   6.393   8.053   5.189
35782SOL    HW1 7372   6.346   8.050   5.278
35782SOL    HW2 7373   6.342   7.998   5.123
35783SOL     OW 7374   6.980   7.917   5.398
35783SOL    HW1 7375   6.960   7.960   5.486
35783SOL    HW2 7376   7.058   7.855   5.407
35784SOL     OW 7377   6.559   8.338   5.296
35784SOL    HW1 7378   6.605   8.254   5.267
35784SOL    HW2 7379   6.503   8.372   5.221
35785SOL     OW 7380   6.577   7.858   4.966
35785SOL    HW1 7381   6.500   7.892   5.020
35785SOL    HW2 7382   6.543   7.807   4.887
35786SOL     OW 7383   6.627   8.149   4.153
35786SOL    HW1 7384   6.653   8.145   4.249
35786SOL    HW2 7385   6.542   8.098   4.139
35787SOL     OW 7386   5.662   8.259   4.513
35787SOL    HW1 7387   5.761   8.247   4.522
35787SOL    HW2 7388   5.638   8.354   4.534
35788SOL     OW 7389   5.716   9.269   5.295
35788SOL    HW1 7390   5.706   9.254   5.394
35788SOL    HW2 7391   5.630   9.305   5.259
35789SOL     OW 7392   6.451   7.796   3.919
35789SOL    HW1 7393   6.510   7.859   3.870
35789SOL    HW2 7394   6.470   7.702   3.890
35790SOL     OW 7395   7.305   8.033   5.555
35790SOL    HW1 7396   7.279   8.122   5.519
35790SOL    HW2 7397   7.303   7.965   5.482
35791SOL     OW 7398   6.948   8.592   4.269
35791SOL    HW1 7399   7.031   8.563   4.221
35791SOL    HW2 7400   6.899   8.659   4.213
35792SOL     OW 7401   6.136   7.644   4.609
35792SOL    HW1 7402   6.131   7.639   4.709
35792SOL    HW2 7403   6.138   7.740   4.580
35793SOL     OW 7404   6.594   8.904   4.201
35793SOL    HW1 7405   6.548   8.976   4.149
35793SOL    HW2 7406   6.590   8.924   4.299
35794SOL     OW 7407   5.937   9.249   4.577
35794SOL    HW1 7408   5.987   9.163   4.583
35794SOL    HW2 7409   6.002   9.326   4.574
35795SOL     OW 7410   7.381   8.514   4.597
35795SOL    HW1 7411   7.319   8.499   4.521
35795SOL    HW2 7412   7.329   8.525   4.682
35796SOL     OW 7413   6.813   8.998   5.230
35796SOL    HW1 7414   6.819   8.921   5.294
35796SOL    HW2 7415   6.761   8.972   5.150
35797SOL     OW 7416   5.907   8.391   3.966
35797SOL    HW1 7417   5.989   8.430   3.924
35797SOL    HW2 7418   5.880   8.309   3.917
35798SOL     OW 7419   7.044   8.183   4.452
35798SOL    HW1 7420   7.039   8.118   4.527
35798SOL    HW2 7421   7.124   8.242   4.465
35799SOL     OW 7422   6.047   8.714   5.451
35799SOL    HW1 7423   5.997   8.715   5.365
35799SOL    HW2 7424   5.984   8.696   5.527
35800SOL     OW 7425   6.697   9.224   3.961
35800SOL    HW1 7426   6.637   9.162   4.011
35800SOL    HW2 7427   6.728   9.180   3.876
35801SOL     OW 7428   5.788   7.733   5.222
35801SOL    HW1 7429   5.708   7.793   5.209
35801SOL    HW2 7430   5.778   7.684   5.308
35802SOL     OW 7431   7.218   8.825   3.805
35802SOL    HW1 7432   7.186   8.919   3.795
35802SOL    HW2 7433   7.142   8.762   3.793
35803SOL     OW 7434   6.050   9.191   4.047
35803SOL    HW1 7435   6.083   9.230   4.133
35803SOL    HW2 7436   6.126   9.184   3.982
35804SOL     OW 7437   6.986   7.555   4.150
35804SOL    HW1 7438   6.962   7.518   4.060
35804SOL    HW2 7439   7.085   7.571   4.154
35805SOL     OW 7440   5.835   9.233   4.965
35805SOL    HW1 7441   5.892   9.168   5.015
35805SOL    HW2 7442   5.819   9.200   4.872
35806SOL     OW 7443   6.526   9.146   4.628
35806SOL    HW1 7444   6.606   9.089   4.649
35806SOL    HW2 7445   6.477   9.106   4.551
35807SOL     OW 7446   5.968   8.148   4.204
35807SOL    HW1 7447   6.013   8.058   4.201
35807SOL    HW2 7448   5.874   8.137   4.237
35808SOL     OW 7449   7.133   7.670   5.453
35808SOL    HW1 7450   7.128   7.707   5.545
35808SOL    HW2 7451   7.061   7.601   5.441
35809SOL     OW 7452   6.200   7.570   3.841
35809SOL    HW1 7453   6.298   7.548   3.848
35809SOL    HW2 7454   6.169   7.553   3.748
35810SOL     OW 7455   6.367   7.712   5.473
35810SOL    HW1 7456   6.434   7.651   5.516
35810SOL    HW2 7457   6.294   7.731   5.538
35811SOL     OW 7458   6.474   8.962   4.919
35811SOL    HW1 7459   6.451   8.937   4.825
35811SOL    HW2 7460   6.535   8.893   4.958
35812SOL     OW 7461   6.937   8.038   5.157
35812SOL    HW1 7462   6.965   7.995   5.242
35812SOL    HW2 7463   6.962   8.134   5.158
35813SOL     OW 7464   6.389   8.850   4.648
35813SOL    HW1 7465   6.479   8.864   4.606
35813SOL    HW2 7466   6.318   8.852   4.577
35814SOL     OW 7467   6.508   7.951   4.623
35814SOL    HW1 7468   6.483   7.942   4.527
35814SOL    HW2 7469   6.556   7.869   4.654
35815SOL     OW 7470   6.125   7.512   4.236
35815SOL    HW1 7471   6.044   7.513   4.294
35815SOL    HW2 7472   6.128   7.595   4.181
35816SOL     OW 7473   7.020   8.636   3.765
35816SOL    HW1 7474   7.052   8.560   3.822
35816SOL    HW2 7475   6.928   8.663   3.795
35817SOL     OW 7476   5.883   7.483   3.895
35817SOL    HW1 7477   5.932   7.567   3.874
35817SOL    HW2 7478   5.945   7.418   3.940
35818SOL     OW 7479   6.521   7.684   4.204
35818SOL    HW1 7480   6.473   7.725   4.126
35818SOL    HW2 7481   6.620   7.682   4.185
35819SOL     OW 7482   6.662   8.131   5.188
35819SOL    HW1 7483   6.582   8.070   5.191
35819SOL    HW2 7484   6.743   8.078   5.164
35820SOL     OW 7485   6.813   9.018   4.517
35820SOL    HW1 7486   6.834   9.092   4.452
35820SOL    HW2 7487   6.881   9.018   4.590
35821SOL     OW 7488   6.045   8.600   4.465
35821SOL    HW1 7489   5.974   8.573   4.530
35821SOL    HW2 7490   6.019   8.572   4.372
35822SOL     OW 7491   6.857   9.245   4.315
35822SOL    HW1 7492   6.901   9.309   4.251
35822SOL    HW2 7493   6.807   9.297   4.385
35823SOL     OW 7494   6.618   7.997   3.740
35823SOL    HW1 7495   6.577   8.079   3.701
35823SOL    HW2 7496   6.682   8.023   3.813
35824SOL     OW 7497   5.664   8.004   5.110
35824SOL    HW1 7498   5.756   8.003   5.069
35824SOL    HW2 7499   5.658   8.078   5.177
35825SOL     OW 7500   6.147   7.670   4.871
35825SOL    HW1 7501   6.185   7.586   4.908
35825SOL    HW2 7502   6.059   7.689   4.915
35826SOL     OW 7503   6.452   7.902   4.366
35826SOL    HW1 7504   6.420   7.974   4.304
35826SOL    HW2 7505   6.476   7.821   4.313
35827SOL     OW 7506   6.603   7.487   4.477
35827SOL    HW1 7507   6.531   7.492   4.408
35827SOL    HW2 7508   6.579   7.418   4.546
35828SOL     OW 7509   7.015   8.621   4.591
35828SOL    HW1 7510   6.960   8.537   4.584
35828SOL    HW2 7511   7.041   8.650   4.499
35829SOL     OW 7512   7.052   8.038   4.716
35829SOL    HW1 7513   7.022   7.943   4.723
35829SOL    HW2 7514   7.125   8.054   4.782
35830SOL     OW 7515   7.443   8.281   4.101
35830SOL    HW1 7516   7.485   8.217   4.165
35830SOL    HW2 7517   7.405   8.230   4.023
35831SOL     OW 7518   6.074   8.833   3.898
35831SOL    HW1 7519   5.987   8.818   3.945
35831SOL    HW2 7520   6.057   8.859   3.803
35832SOL     OW 7521   7.250   8.728   4.381
35832SOL    HW1 7522   7.349   8.736   4.395
35832SOL    HW2 7523   7.205   8.812   4.412
35833SOL     OW 7524   6.976   8.023   3.802
35833SOL    HW1 7525   6.922   8.002   3.883
35833SOL    HW2 7526   7.067   7.982   3.811
35834SOL     OW 7527   6.113   7.704   4.052
35834SOL    HW1 7528   6.140   7.645   3.977
35834SOL    HW2 7529   6.113   7.799   4.021
35835SOL     OW 7530   7.340   8.671   5.312
35835SOL    HW1 7531   7.431   8.632   5.299
35835SOL    HW2 7532   7.348   8.767   5.336
35836SOL     OW 7533   6.650   8.795   5.064
35836SOL    HW1 7534   6.570   8.772   5.119
35836SOL    HW2 7535   6.733   8.769   5.113
35837SOL     OW 7536   7.178   9.077   5.349
35837SOL    HW1 7537   7.205   9.111   5.259
35837SOL    HW2 7538   7.257   9.039   5.395
35838SOL     OW 7539   6.697   8.643   4.824
35838SOL    HW1 7540   6.657   8.687   4.905
35838SOL    HW2 7541   6.656   8.680   4.741
35839SOL     OW 7542   7.224   8.547   4.803
35839SOL    HW1 7543   7.229   8.628   4.862
35839SOL    HW2 7544   7.138   8.549   4.752
35840SOL     OW 7545   6.501   7.537   5.126
35840SOL    HW1 7546   6.526   7.517   5.031
35840SOL    HW2 7547   6.573   7.593   5.168
35841SOL     OW 7548   6.566   8.564   5.443
35841SOL    HW1 7549   6.467   8.570   5.453
35841SOL    HW2 7550   6.589   8.484   5.387
35842SOL     OW 7551   6.291   8.498   4.092
35842SOL    HW1 7552   6.277   8.505   4.191
35842SOL    HW2 7553   6.375   8.447   4.074
35843SOL     OW 7554   5.996   8.261   4.975
35843SOL    HW1 7555   6.082   8.273   5.025
35843SOL    HW2 7556   5.954   8.174   5.002
35844SOL     OW 7557   6.860   7.834   4.986
35844SOL    HW1 7558   6.881   7.908   5.050
35844SOL    HW2 7559   6.771   7.851   4.943
35845SOL     OW 7560   5.650   9.012   5.055
35845SOL    HW1 7561   5.604   9.094   5.021
35845SOL    HW2 7562   5.748   9.031   5.064
35846SOL     OW 7563   5.953   8.548   4.225
35846SOL    HW1 7564   5.946   8.631   4.169
35846SOL    HW2 7565   5.957   8.468   4.165
35847SOL     OW 7566   6.152   7.985   4.589
35847SOL    HW1 7567   6.164   8.051   4.515
35847SOL    HW2 7568   6.198   8.019   4.672
35848SOL     OW 7569   6.838   8.796   4.112
35848SOL    HW1 7570   6.888   8.873   4.152
35848SOL    HW2 7571   6.743   8.798   4.144
35849SOL     OW 7572   6.858   8.893   4.866
35849SOL    HW1 7573   6.905   8.906   4.953
35849SOL    HW2 7574   6.792   8.819   4.875
35850SOL     OW 7575   7.168   8.087   4.196
35850SOL    HW1 7576   7.137   8.148   4.269
35850SOL    HW2 7577   7.218   8.139   4.127
35851SOL     OW 7578   5.940   8.958   5.053
35851SOL    HW1 7579   5.919   8.914   4.966
35851SOL    HW2 7580   6.037   8.984   5.056
35852SOL     OW 7581   5.988   8.199   5.322
35852SOL    HW1 7582   6.056   8.254   5.275
35852SOL    HW2 7583   6.028   8.111   5.349
35853SOL     OW 7584   7.173   8.227   5.394
35853SOL    HW1 7585   7.081   8.265   5.389
35853SOL    HW2 7586   7.233   8.274   5.329
35854SOL     OW 7587   6.599   7.553   5.494
35854SOL    HW1 7588   6.605   7.638   5.442
35854SOL    HW2 7589   6.631   7.477   5.437
35855SOL     OW 7590   6.090   7.498   5.464
35855SOL    HW1 7591   6.048   7.441   5.394
35855SOL    HW2 7592   6.024   7.567   5.496
35856SOL     OW 7593   6.159   8.318   4.753
35856SOL    HW1 7594   6.203   8.407   4.744
35856SOL    HW2 7595   6.096   8.318   4.830
35857SOL     OW 7596   6.946   8.310   4.769
35857SOL    HW1 7597   6.871   8.310   4.703
35857SOL    HW2 7598   6.983   8.218   4.778
35858SOL     OW 7599   6.795   7.973   3.999
35858SOL    HW1 7600   6.808   7.889   4.053
35858SOL    HW2 7601   6.766   8.047   4.059
35859SOL     OW 7602   5.623   8.758   5.006
35859SOL    HW1 7603   5.676   8.709   5.074
35859SOL    HW2 7604   5.645   8.856   5.011
35860SOL     OW 7605   6.318   8.082   4.788
35860SOL    HW1 7606   6.377   8.056   4.712
35860SOL    HW2 7607   6.290   8.178   4.777
35861SOL     OW 7608   7.314   8.383   5.578
35861SOL    HW1 7609   7.268   8.376   5.489
35861SOL    HW2 7610   7.252   8.427   5.644
35862SOL     OW 7611   5.893   7.511   4.342
35862SOL    HW1 7612   5.882   7.605   4.375
35862SOL    HW2 7613   5.888   7.448   4.419
35863SOL     OW 7614   7.208   7.815   4.098
35863SOL    HW1 7615   7.210   7.739   4.162
35863SOL    HW2 7616   7.160   7.892   4.138
35864SOL     OW 7617   6.609   8.214   4.690
35864SOL    HW1 7618   6.624   8.235   4.786
35864SOL    HW2 7619   6.579   8.119   4.681
35865SOL     OW 7620   6.566   9.021   5.424
35865SOL    HW1 7621   6.546   9.065   5.336
35865SOL    HW2 7622   6.605   8.930   5.408
35866SOL     OW 7623   7.445   8.966   5.329
35866SOL    HW1 7624   7.459   8.993   5.234
35866SOL    HW2 7625   7.528   8.988   5.382
35867SOL     OW 7626   5.936   8.346   5.528
35867SOL    HW1 7627   6.012   8.390   5.576
35867SOL    HW2 7628   5.971   8.299   5.446
35868SOL     OW 7629   7.126   7.722   3.849
35868SOL    HW1 7630   7.065   7.647   3.872
35868SOL    HW2 7631   7.148   7.774   3.932
35869SOL     OW 7632   6.889   8.286   3.766
35869SOL    HW1 7633   6.923   8.193   3.781
35869SOL    HW2 7634   6.907   8.313   3.671
35870SOL     OW 7635   6.654   8.781   4.573
35870SOL    HW1 7636   6.661   8.697   4.518
35870SOL    HW2 7637   6.716   8.850   4.537
35871SOL     OW 7638   5.905   8.258   4.673
35871SOL    HW1 7639   5.998   8.294   4.678
35871SOL    HW2 7640   5.899   8.173   4.725
35872SOL     OW 7641   5.925   7.957   4.730
35872SOL    HW1 7642   5.873   7.874   4.713
35872SOL    HW2 7643   6.002   7.962   4.666
35873SOL     OW 7644   6.724   7.828   5.402
35873SOL    HW1 7645   6.679   7.891   5.466
35873SOL    HW2 7646   6.817   7.859   5.385
35874SOL     OW 7647   6.746   7.655   5.201
35874SOL    HW1 7648   6.746   7.719   5.278
35874SOL    HW2 7649   6.774   7.703   5.118
35875SOL     OW 7650   5.594   8.774   3.924
35875SOL    HW1 7651   5.501   8.795   3.893
35875SOL    HW2 7652   5.604   8.675   3.937
35876SOL     OW 7653   5.674   9.249   4.651
35876SOL    HW1 7654   5.632   9.163   4.624
35876SOL    HW2 7655   5.768   9.252   4.617
35877SOL     OW 7656   6.090   9.016   4.634
35877SOL    HW1 7657   6.156   9.090   4.643
35877SOL    HW2 7658   6.134   8.937   4.592
35878SOL     OW 7659   6.588   8.244   4.962
35878SOL    HW1 7660   6.629   8.212   5.048
35878SOL    HW2 7661   6.492   8.217   4.959
35879SOL     OW 7662   5.626   7.992   4.838
35879SOL    HW1 7663   5.711   7.959   4.797
35879SOL    HW2 7664   5.639   8.007   4.936
35880SOL     OW 7665   5.775   7.968   5.446
35880SOL    HW1 7666   5.834   7.928   5.376
35880SOL    HW2 7667   5.717   8.039   5.405
35881SOL     OW 7668   6.955   8.398   5.384
35881SOL    HW1 7669   6.994   8.487   5.404
35881SOL    HW2 7670   6.965   8.378   5.287
35882SOL     OW 7671   6.401   8.020   4.049
35882SOL    HW1 7672   6.408   7.931   4.003
35882SOL    HW2 7673   6.307   8.054   4.041
35883SOL     OW 7674   7.243   8.052   4.930
35883SOL    HW1 7675   7.205   7.983   4.992
35883SOL    HW2 7676   7.325   8.016   4.886
35884SOL     OW 7677   5.838   9.012   5.468
35884SOL    HW1 7678   5.808   9.069   5.544
35884SOL    HW2 7679   5.831   8.915   5.494
35885SOL     OW 7680   6.257   7.912   4.993
35885SOL    HW1 7681   6.223   7.823   4.963
35885SOL    HW2 7682   6.283   7.966   4.913
35886SOL     OW 7683   6.516   9.126   5.189
35886SOL    HW1 7684   6.492   9.108   5.094
35886SOL    HW2 7685   6.546   9.220   5.199
35887SOL     OW 7686   6.059   7.948   3.915
35887SOL    HW1 7687   6.120   8.028   3.919
35887SOL    HW2 7688   5.964   7.979   3.922
35888SOL     OW 7689   5.745   8.585   5.190
35888SOL    HW1 7690   5.767   8.524   5.266
35888SOL    HW2 7691   5.755   8.536   5.104
35889SOL     OW 7692   6.933   8.507   4.958
35889SOL    HW1 7693   6.957   8.444   4.884
35889SOL    HW2 7694   6.843   8.547   4.940
35890SOL     OW 7695   6.888   8.303   4.033
35890SOL    HW1 7696   6.802   8.272   4.075
35890SOL    HW2 7697   6.884   8.289   3.934
35891SOL     OW 7698   7.345   9.195   4.878
35891SOL    HW1 7699   7.406   9.225   4.805
35891SOL    HW2 7700   7.307   9.106   4.856
35892SOL     OW 7701   6.838   9.179   4.852
35892SOL    HW1 7702   6.922   9.184   4.798
35892SOL    HW2 7703   6.815   9.083   4.870
35893SOL     OW 7704   5.669   8.706   4.746
35893SOL    HW1 7705   5.664   8.705   4.846
35893SOL    HW2 7706   5.586   8.665   4.708
35894SOL     OW 7707   6.274   9.110   5.440
35894SOL    HW1 7708   6.218   9.191   5.449
35894SOL    HW2 7709   6.326   9.114   5.354
35895SOL     OW 7710   7.312   7.583   4.247
35895SOL    HW1 7711   7.385   7.566   4.180
35895SOL    HW2 7712   7.281   7.496   4.285
35896SOL     OW 7713   6.974   9.021   4.201
35896SOL    HW1 7714   7.041   9.033   4.127
35896SOL    HW2 7715   6.934   9.110   4.224
35897SOL     OW 7716   5.716   9.242   5.575
35897SOL    HW1 7717   5.675   9.168   5.628
35897SOL    HW2 7718   5.780   9.293   5.633
35898SOL     OW 7719   6.866   8.375   4.396
35898SOL    HW1 7720   6.926   8.294   4.398
35898SOL    HW2 7721   6.906   8.444   4.336
35899SOL     OW 7722   6.416   8.721   5.146
35899SOL    HW1 7723   6.411   8.754   5.241
35899SOL    HW2 7724   6.330   8.740   5.100
35900SOL     OW 7725   6.258   9.064   3.878
35900SOL    HW1 7726   6.267   9.074   3.779
35900SOL    HW2 7727   6.218   8.975   3.899
35901SOL     OW 7728   7.236   9.168   5.118
35901SOL    HW1 7729   7.289   9.178   5.034
35901SOL    HW2 7730   7.209   9.258   5.152
35902SOL     OW 7731   7.427   7.623   4.687
35902SOL    HW1 7732   7.466   7.538   4.651
35902SOL    HW2 7733   7.329   7.625   4.668
35903SOL     OW 7734   5.849   7.774   4.444
35903SOL    HW1 7735   5.770   7.825   4.410
35903SOL    HW2 7736   5.840   7.759   4.542
35904SOL     OW 7737   6.780   9.060   3.755
35904SOL    HW1 7738   6.786   8.967   3.792
35904SOL    HW2 7739   6.721   9.060   3.675
35905SOL     OW 7740   6.408   8.450   5.096
35905SOL    HW1 7741   6.448   8.449   5.004
35905SOL    HW2 7742   6.418   8.542   5.136
35906SOL     OW 7743   6.502   8.358   4.015
35906SOL    HW1 7744   6.565   8.396   3.947
35906SOL    HW2 7745   6.542   8.275   4.054
35907SOL     OW 7746   7.090   9.055   3.768
35907SOL    HW1 7747   6.998   9.092   3.775
35907SOL    HW2 7748   7.128   9.075   3.678
35908SOL     OW 7749   5.958   8.736   5.214
35908SOL    HW1 7750   5.945   8.829   5.180
35908SOL    HW2 7751   5.874   8.684   5.201
35909SOL     OW 7752   7.200   8.740   5.013
35909SOL    HW1 7753   7.260   8.743   5.093
35909SOL    HW2 7754   7.125   8.804   5.026
35910SOL     OW 7755   6.625   8.546   4.420
35910SOL    HW1 7756   6.555   8.499   4.474
35910SOL    HW2 7757   6.684   8.478   4.377
35911SOL     OW 7758   6.600   7.684   4.695
35911SOL    HW1 7759   6.592   7.648   4.602
35911SOL    HW2 7760   6.598   7.608   4.760
35912SOL     OW 7761   6.176   8.935   4.215
35912SOL    HW1 7762   6.218   8.877   4.145
35912SOL    HW2 7763   6.132   9.014   4.171
35913SOL     OW 7764   7.295   7.833   5.105
35913SOL    HW1 7765   7.368   7.902   5.109
35913SOL    HW2 7766   7.323   7.758   5.046
35914SOL     OW 7767   5.841   8.796   4.014
35914SOL    HW1 7768   5.745   8.797   3.987
35914SOL    HW2 7769   5.853   8.849   4.098
35915SOL     OW 7770   5.691   8.461   5.450
35915SOL    HW1 7771   5.614   8.428   5.504
35915SOL    HW2 7772   5.776   8.431   5.492
35916SOL     OW 7773   6.258   7.651   5.213
35916SOL    HW1 7774   6.348   7.635   5.173
35916SOL    HW2 7775   6.266   7.656   5.312
35917SOL     OW 7776   5.661   7.793   3.757
35917SOL    HW1 7777   5.569   7.765   3.728
35917SOL    HW2 7778   5.692   7.870   3.701
35918SOL     OW 7779   7.026   8.304   5.122
35918SOL    HW1 7780   6.969   8.356   5.059
35918SOL    HW2 7781   7.122   8.316   5.098
35919SOL     OW 7782   5.658   7.614   4.042
35919SOL    HW1 7783   5.641   7.697   3.988
35919SOL    HW2 7784   5.748   7.577   4.020
35920SOL     OW 7785   6.769   8.783   3.843
35920SOL    HW1 7786   6.670   8.772   3.845
35920SOL    HW2 7787   6.803   8.798   3.936
35921SOL     OW 7788   6.199   8.290   5.155
35921SOL    HW1 7789   6.255   8.371   5.138
35921SOL    HW2 7790   6.258   8.210   5.158
35922SOL     OW 7791   7.079   9.215   4.683
35922SOL    HW1 7792   7.112   9.279   4.614
35922SOL    HW2 7793   7.145   9.209   4.758
35923SOL     OW 7794   6.302   8.013   5.432
35923SOL    HW1 7795   6.321   8.078   5.506
35923SOL    HW2 7796   6.362   7.933   5.441
35924SOL     OW 7797   7.036   8.668   5.357
35924SOL    HW1 7798   7.027   8.658   5.456
35924SOL    HW2 7799   7.132   8.661   5.331
35925SOL     OW 7800   5.976   9.189   5.284
35925SOL    HW1 7801   5.885   9.230   5.282
35925SOL    HW2 7802   5.969   9.095   5.316
35926SOL     OW 7803   7.260   8.331   4.978
35926SOL    HW1 7804   7.233   8.242   4.941
35926SOL    HW2 7805   7.261   8.399   4.905
35927SOL     OW 7806   6.811   7.773   4.173
35927SOL    HW1 7807   6.876   7.699   4.162
35927SOL    HW2 7808   6.831   7.823   4.257
35928SOL     OW 7809   6.180   8.193   4.376
35928SOL    HW1 7810   6.230   8.278   4.357
35928SOL    HW2 7811   6.092   8.195   4.328
35929SOL     OW 7812   7.363   7.790   5.366
35929SOL    HW1 7813   7.346   7.821   5.272
35929SOL    HW2 7814   7.279   7.753   5.404
35930SOL     OW 7815   7.316   8.382   5.241
35930SOL    HW1 7816   7.354   8.473   5.256
35930SOL    HW2 7817   7.308   8.365   5.142
35931SOL     OW 7818   6.445   8.822   3.740
35931SOL    HW1 7819   6.399   8.837   3.828
35931SOL    HW2 7820   6.489   8.907   3.710
35932SOL     OW 7821   6.247   9.238   4.677
35932SOL    HW1 7822   6.201   9.326   4.664
35932SOL    HW2 7823   6.346   9.250   4.670
35933SOL     OW 7824   6.445   8.404   4.585
35933SOL    HW1 7825   6.499   8.335   4.633
35933SOL    HW2 7826   6.413   8.473   4.651
35934SOL     OW 7827   6.669   8.432   3.811
35934SOL    HW1 7828   6.646   8.485   3.729
35934SOL    HW2 7829   6.750   8.376   3.792
35935SOL     OW 7830   7.447   9.017   4.575
35935SOL    HW1 7831   7.376   9.005   4.505
35935SOL    HW2 7832   7.448   8.938   4.635
35936SOL     OW 7833   5.807   8.762   5.568
35936SOL    HW1 7834   5.742   8.689   5.547
35936SOL    HW2 7835   5.811   8.776   5.666
35937SOL     OW 7836   5.665   8.688   4.377
35937SOL    HW1 7837   5.664   8.641   4.465
35937SOL    HW2 7838   5.747   8.660   4.326
35938SOL     OW 7839   6.258   8.839   5.348
35938SOL    HW1 7840   6.180   8.789   5.386
35938SOL    HW2 7841   6.255   8.934   5.379
35939SOL     OW 7842   7.410   7.640   4.951
35939SOL    HW1 7843   7.406   7.550   4.995
35939SOL    HW2 7844   7.413   7.629   4.852
35940SOL     OW 7845   6.014   7.872   4.244
35940SOL    HW1 7846   6.044   7.800   4.182
35940SOL    HW2 7847   5.975   7.832   4.327
35941SOL     OW 7848   7.291   8.935   4.828
35941SOL    HW1 7849   7.198   8.910   4.801
35941SOL    HW2 7850   7.317   8.885   4.910
35942SOL     OW 7851   5.903   7.995   5.004
35942SOL    HW1 7852   5.941   7.936   5.076
35942SOL    HW2 7853   5.943   7.969   4.916
35943SOL     OW 7854   6.398   9.034   4.411
35943SOL    HW1 7855   6.430   9.044   4.317
35943SOL    HW2 7856   6.319   8.972   4.413
35944SOL     OW 7857   7.010   7.662   4.836
35944SOL    HW1 7858   7.062   7.597   4.891
35944SOL    HW2 7859   6.961   7.725   4.897
35945SOL     OW 7860   6.587   7.482   4.878
35945SOL    HW1 7861   6.524   7.410   4.847
35945SOL    HW2 7862   6.680   7.446   4.878
35946SOL     OW 7863   6.356   8.778   4.025
35946SOL    HW1 7864   6.310   8.691   4.042
35946SOL    HW2 7865   6.447   8.775   4.066
35947SOL     OW 7866   6.204   9.015   5.008
35947SOL    HW1 7867   6.199   9.097   5.065
35947SOL    HW2 7868   6.293   9.012   4.963
35948SOL     OW 7869   6.938   7.500   3.892
35948SOL    HW1 7870   6.973   7.459   3.808
35948SOL    HW2 7871   6.848   7.462   3.912
35949SOL     OW 7872   6.886   7.901   4.415
35949SOL    HW1 7873   6.827   7.981   4.419
35949SOL    HW2 7874   6.901   7.866   4.508
35950SOL     OW 7875   7.179   7.669   4.606
35950SOL    HW1 7876   7.095   7.668   4.660
35950SOL    HW2 7877   7.181   7.752   4.550
35951SOL     OW 7878   5.625   8.525   4.024
35951SOL    HW1 7879   5.724   8.514   4.015
35951SOL    HW2 7880   5.585   8.439   4.056
35952SOL     OW 7881   6.461   9.094   4.061
35952SOL    HW1 7882   6.384   9.059   4.007
35952SOL    HW2 7883   6.429   9.165   4.123
35953SOL     OW 7884   5.816   8.076   5.699
35953SOL    HW1 7885   5.723   8.074   5.736
35953SOL    HW2 7886   5.817   8.037   5.607
35954SOL     OW 7887   5.811   7.723   6.582
35954SOL    HW1 7888   5.846   7.706   6.674
35954SOL    HW2 7889   5.723   7.678   6.570
35955SOL     OW 7890   5.605   7.816   6.233
35955SOL    HW1 7891   5.523   7.859   6.272
35955SOL    HW2 7892   5.577   7.743   6.170
35956SOL     OW 7893   6.155   8.723   6.751
35956SOL    HW1 7894   6.062   8.716   6.714
35956SOL    HW2 7895   6.166   8.812   6.795
35957SOL     OW 7896   7.141   8.959   6.289
35957SOL    HW1 7897   7.084   8.943   6.370
35957SOL    HW2 7898   7.082   8.969   6.209
35958SOL     OW 7899   6.721   8.151   6.303
35958SOL    HW1 7900   6.778   8.229   6.278
35958SOL    HW2 7901   6.661   8.177   6.379
35959SOL     OW 7902   7.341   8.055   5.817
35959SOL    HW1 7903   7.329   8.042   5.718
35959SOL    HW2 7904   7.311   7.974   5.866
35960SOL     OW 7905   6.354   8.592   6.609
35960SOL    HW1 7906   6.276   8.609   6.669
35960SOL    HW2 7907   6.388   8.679   6.573
35961SOL     OW 7908   6.436   8.246   7.409
35961SOL    HW1 7909   6.432   8.322   7.474
35961SOL    HW2 7910   6.458   8.282   7.318
35962SOL     OW 7911   6.271   8.460   6.251
35962SOL    HW1 7912   6.340   8.444   6.321
35962SOL    HW2 7913   6.198   8.517   6.289
35963SOL     OW 7914   6.272   8.609   7.389
35963SOL    HW1 7915   6.332   8.688   7.403
35963SOL    HW2 7916   6.186   8.640   7.348
35964SOL     OW 7917   5.921   8.883   6.647
35964SOL    HW1 7918   5.843   8.852   6.594
35964SOL    HW2 7919   5.979   8.941   6.590
35965SOL     OW 7920   7.046   8.953   6.925
35965SOL    HW1 7921   7.070   9.047   6.951
35965SOL    HW2 7922   7.030   8.899   7.007
35966SOL     OW 7923   6.024   7.840   7.085
35966SOL    HW1 7924   6.106   7.784   7.094
35966SOL    HW2 7925   5.943   7.782   7.089
35967SOL     OW 7926   7.189   7.895   6.323
35967SOL    HW1 7927   7.115   7.941   6.273
35967SOL    HW2 7928   7.240   7.963   6.376
35968SOL     OW 7929   5.817   9.161   6.069
35968SOL    HW1 7930   5.851   9.238   6.123
35968SOL    HW2 7931   5.861   9.161   5.979
35969SOL     OW 7932   6.713   8.789   7.276
35969SOL    HW1 7933   6.760   8.789   7.364
35969SOL    HW2 7934   6.665   8.702   7.265
35970SOL     OW 7935   5.816   8.882   6.124
35970SOL    HW1 7936   5.790   8.978   6.124
35970SOL    HW2 7937   5.745   8.828   6.169
35971SOL     OW 7938   5.826   8.539   6.472
35971SOL    HW1 7939   5.840   8.455   6.524
35971SOL    HW2 7940   5.771   8.603   6.527
35972SOL     OW 7941   6.206   9.234   7.025
35972SOL    HW1 7942   6.114   9.217   7.060
35972SOL    HW2 7943   6.234   9.326   7.051
35973SOL     OW 7944   6.192   8.412   5.709
35973SOL    HW1 7945   6.199   8.496   5.655
35973SOL    HW2 7946   6.238   8.425   5.797
35974SOL     OW 7947   7.180   7.562   7.066
35974SOL    HW1 7948   7.162   7.629   6.994
35974SOL    HW2 7949   7.177   7.608   7.155
35975SOL     OW 7950   5.708   8.091   6.149
35975SOL    HW1 7951   5.663   8.003   6.166
35975SOL    HW2 7952   5.707   8.145   6.233
35976SOL     OW 7953   7.428   9.215   5.945
35976SOL    HW1 7954   7.482   9.186   6.025
35976SOL    HW2 7955   7.458   9.305   5.916
35977SOL     OW 7956   5.613   9.044   5.703
35977SOL    HW1 7957   5.594   8.948   5.724
35977SOL    HW2 7958   5.580   9.102   5.778
35978SOL     OW 7959   7.275   8.370   6.198
35978SOL    HW1 7960   7.370   8.341   6.206
35978SOL    HW2 7961   7.267   8.435   6.123
35979SOL     OW 7962   7.227   8.556   6.018
35979SOL    HW1 7963   7.313   8.558   5.966
35979SOL    HW2 7964   7.241   8.603   6.106
35980SOL     OW 7965   5.699   8.185   7.183
35980SOL    HW1 7966   5.787   8.172   7.228
35980SOL    HW2 7967   5.686   8.282   7.161
35981SOL     OW 7968   6.199   8.813   6.312
35981SOL    HW1 7969   6.150   8.726   6.321
35981SOL    HW2 7970   6.176   8.856   6.225
35982SOL     OW 7971   6.879   8.676   7.009
35982SOL    HW1 7972   6.916   8.603   6.951
35982SOL    HW2 7973   6.931   8.681   7.094
35983SOL     OW 7974   6.395   7.452   6.088
35983SOL    HW1 7975   6.435   7.543   6.079
35983SOL    HW2 7976   6.295   7.460   6.094
35984SOL     OW 7977   5.783   8.424   6.850
35984SOL    HW1 7978   5.872   8.379   6.836
35984SOL    HW2 7979   5.710   8.359   6.831
35985SOL     OW 7980   7.111   8.447   5.776
35985SOL    HW1 7981   7.048   8.371   5.789
35985SOL    HW2 7982   7.159   8.465   5.862
35986SOL     OW 7983   6.773   9.240   7.202
35986SOL    HW1 7984   6.797   9.300   7.126
35986SOL    HW2 7985   6.780   9.145   7.172
35987SOL     OW 7986   5.903   7.699   7.387
35987SOL    HW1 7987   5.974   7.770   7.393
35987SOL    HW2 7988   5.815   7.738   7.415
35988SOL     OW 7989   7.052   8.865   6.539
35988SOL    HW1 7990   6.993   8.871   6.619
35988SOL    HW2 7991   7.037   8.777   6.493
35989SOL     OW 7992   7.253   9.162   6.158
35989SOL    HW1 7993   7.212   9.139   6.070
35989SOL    HW2 7994   7.235   9.088   6.223
35990SOL     OW 7995   6.184   8.177   5.856
35990SOL    HW1 7996   6.208   8.246   5.788
35990SOL    HW2 7997   6.106   8.210   5.910
35991SOL     OW 7998   6.867   7.793   6.530
35991SOL    HW1 7999   6.781   7.743   6.517
35991SOL    HW2 8000   6.929   7.739   6.586
35992SOL     OW 8001   7.162   9.110   5.893
35992SOL    HW1 8002   7.251   9.156   5.896
35992SOL    HW2 8003   7.141   9.086   5.798
35993SOL     OW 8004   6.393   8.053   7.051
35993SOL    HW1 8005   6.346   8.050   7.140
35993SOL    HW2 8006   6.342   7.998   6.985
35994SOL     OW 8007   6.980   7.917   7.260
35994SOL    HW1 8008   6.960   7.960   7.348
35994SOL    HW2 8009   7.058   7.855   7.269
35995SOL     OW 8010   6.559   8.338   7.158
35995SOL    HW1 8011   6.605   8.254   7.129
35995SOL    HW2 8012   6.503   8.372   7.083
35996SOL     OW 8013   6.577   7.858   6.828
35996SOL    HW1 8014   6.500   7.892   6.882
35996SOL    HW2 8015   6.543   7.807   6.749
35997SOL     OW 8016   6.627   8.149   6.015
35997SOL    HW1 8017   6.653   8.145   6.111
35997SOL    HW2 8018   6.542   8.098   6.001
35998SOL     OW 8019   5.662   8.259   6.375
35998SOL    HW1 8020   5.761   8.247   6.384
35998SOL    HW2 8021   5.638   8.354   6.396
35999SOL     OW 8022   5.716   9.269   7.157
35999SOL    HW1 8023   5.706   9.254   7.256
35999SOL    HW2 8024   5.630   9.305   7.121
36000SOL     OW 8025   6.451   7.796   5.781
36000SOL    HW1 8026   6.510   7.859   5.732
36000SOL    HW2 8027   6.470   7.702   5.752
36001SOL     OW 8028   7.305   8.033   7.417
36001SOL    HW1 8029   7.279   8.122   7.381
36001SOL    HW2 8030   7.303   7.965   7.344
36002SOL     OW 8031   6.948   8.592   6.131
36002SOL    HW1 8032   7.031   8.563   6.083
36002SOL    HW2 8033   6.899   8.659   6.075
36003SOL     OW 8034   6.136   7.644   6.471
36003SOL    HW1 8035   6.131   7.639   6.571
36003SOL    HW2 8036   6.138   7.740   6.442
36004SOL     OW 8037   6.594   8.904   6.063
36004SOL    HW1 8038   6.548   8.976   6.011
36004SOL    HW2 8039   6.590   8.924   6.161
36005SOL     OW 8040   5.937   9.249   6.439
36005SOL    HW1 8041   5.987   9.163   6.445
36005SOL    HW2 8042   6.002   9.326   6.436
36006SOL     OW 8043   7.381   8.514   6.459
36006SOL    HW1 8044   7.319   8.499   6.383
36006SOL    HW2 8045   7.329   8.525   6.544
36007SOL     OW 8046   6.813   8.998   7.092
36007SOL    HW1 8047   6.819   8.921   7.156
36007SOL    HW2 8048   6.761   8.972   7.012
36008SOL     OW 8049   5.907   8.391   5.828
36008SOL    HW1 8050   5.989   8.430   5.786
36008SOL    HW2 8051   5.880   8.309   5.779
36009SOL     OW 8052   7.044   8.183   6.314
36009SOL    HW1 8053   7.039   8.118   6.389
36009SOL    HW2 8054   7.124   8.242   6.327
36010SOL     OW 8055   6.047   8.714   7.313
36010SOL    HW1 8056   5.997   8.715   7.227
36010SOL    HW2 8057   5.984   8.696   7.389
36011SOL     OW 8058   6.697   9.224   5.823
36011SOL    HW1 8059   6.637   9.162   5.873
36011SOL    HW2 8060   6.728   9.180   5.738
36012SOL     OW 8061   5.788   7.733   7.084
36012SOL    HW1 8062   5.708   7.793   7.071
36012SOL    HW2 8063   5.778   7.684   7.170
36013SOL     OW 8064   6.050   9.191   5.909
36013SOL    HW1 8065   6.083   9.230   5.995
36013SOL    HW2 8066   6.126   9.184   5.844
36014SOL     OW 8067   6.986   7.555   6.012
36014SOL    HW1 8068   6.962   7.518   5.922
36014SOL    HW2 8069   7.085   7.571   6.016
36015SOL     OW 8070   5.835   9.233   6.827
36015SOL    HW1 8071   5.892   9.168   6.877
36015SOL    HW2 8072   5.819   9.200   6.734
36016SOL     OW 8073   6.526   9.146   6.490
36016SOL    HW1 8074   6.606   9.089   6.511
36016SOL    HW2 8075   6.477   9.106   6.413
36017SOL     OW 8076   5.968   8.148   6.066
36017SOL    HW1 8077   6.013   8.058   6.063
36017SOL    HW2 8078   5.874   8.137   6.099
36018SOL     OW 8079   7.133   7.670   7.315
36018SOL    HW1 8080   7.128   7.707   7.407
36018SOL    HW2 8081   7.061   7.601   7.303
36019SOL     OW 8082   6.200   7.570   5.703
36019SOL    HW1 8083   6.298   7.548   5.710
36019SOL    HW2 8084   6.169   7.553   5.610
36020SOL     OW 8085   6.367   7.712   7.335
36020SOL    HW1 8086   6.434   7.651   7.378
36020SOL    HW2 8087   6.294   7.731   7.400
36021SOL     OW 8088   6.474   8.962   6.781
36021SOL    HW1 8089   6.451   8.937   6.687
36021SOL    HW2 8090   6.535   8.893   6.820
36022SOL     OW 8091   6.937   8.038   7.019
36022SOL    HW1 8092   6.965   7.995   7.104
36022SOL    HW2 8093   6.962   8.134   7.020
36023SOL     OW 8094   6.389   8.850   6.510
36023SOL    HW1 8095   6.479   8.864   6.468
36023SOL    HW2 8096   6.318   8.852   6.439
36024SOL     OW 8097   6.508   7.951   6.485
36024SOL    HW1 8098   6.483   7.942   6.389
36024SOL    HW2 8099   6.556   7.869   6.516
36025SOL     OW 8100   6.125   7.512   6.098
36025SOL    HW1 8101   6.044   7.513   6.156
36025SOL    HW2 8102   6.128   7.595   6.043
36026SOL     OW 8103   7.020   8.636   5.627
36026SOL    HW1 8104   7.052   8.560   5.684
36026SOL    HW2 8105   6.928   8.663   5.657
36027SOL     OW 8106   5.883   7.483   5.757
36027SOL    HW1 8107   5.932   7.567   5.736
36027SOL    HW2 8108   5.945   7.418   5.802
36028SOL     OW 8109   6.521   7.684   6.066
36028SOL    HW1 8110   6.473   7.725   5.988
36028SOL    HW2 8111   6.620   7.682   6.047
36029SOL     OW 8112   6.662   8.131   7.050
36029SOL    HW1 8113   6.582   8.070   7.053
36029SOL    HW2 8114   6.743   8.078   7.026
36030SOL     OW 8115   6.813   9.018   6.379
36030SOL    HW1 8116   6.834   9.092   6.314
36030SOL    HW2 8117   6.881   9.018   6.452
36031SOL     OW 8118   6.045   8.600   6.327
36031SOL    HW1 8119   5.974   8.573   6.392
36031SOL    HW2 8120   6.019   8.572   6.234
36032SOL     OW 8121   6.857   9.245   6.177
36032SOL    HW1 8122   6.901   9.309   6.113
36032SOL    HW2 8123   6.807   9.297   6.247
36033SOL     OW 8124   6.618   7.997   5.602
36033SOL    HW1 8125   6.577   8.079   5.563
36033SOL    HW2 8126   6.682   8.023   5.675
36034SOL     OW 8127   5.664   8.004   6.972
36034SOL    HW1 8128   5.756   8.003   6.931
36034SOL    HW2 8129   5.658   8.078   7.039
36035SOL     OW 8130   6.147   7.670   6.733
36035SOL    HW1 8131   6.185   7.586   6.770
36035SOL    HW2 8132   6.059   7.689   6.777
36036SOL     OW 8133   6.452   7.902   6.228
36036SOL    HW1 8134   6.420   7.974   6.166
36036SOL    HW2 8135   6.476   7.821   6.175
36037SOL     OW 8136   6.603   7.487   6.339
36037SOL    HW1 8137   6.531   7.492   6.270
36037SOL    HW2 8138   6.579   7.418   6.408
36038SOL     OW 8139   7.015   8.621   6.453
36038SOL    HW1 8140   6.960   8.537   6.446
36038SOL    HW2 8141   7.041   8.650   6.361
36039SOL     OW 8142   7.052   8.038   6.578
36039SOL    HW1 8143   7.022   7.943   6.585
36039SOL    HW2 8144   7.125   8.054   6.644
36040SOL     OW 8145   7.443   8.281   5.963
36040SOL    HW1 8146   7.485   8.217   6.027
36040SOL    HW2 8147   7.405   8.230   5.885
36041SOL     OW 8148   6.074   8.833   5.760
36041SOL    HW1 8149   5.987   8.818   5.807
36041SOL    HW2 8150   6.057   8.859   5.665
36042SOL     OW 8151   7.250   8.728   6.243
36042SOL    HW1 8152   7.349   8.736   6.257
36042SOL    HW2 8153   7.205   8.812   6.274
36043SOL     OW 8154   6.976   8.023   5.664
36043SOL    HW1 8155   6.922   8.002   5.745
36043SOL    HW2 8156   7.067   7.982   5.673
36044SOL     OW 8157   6.113   7.704   5.914
36044SOL    HW1 8158   6.140   7.645   5.839
36044SOL    HW2 8159   6.113   7.799   5.883
36045SOL     OW 8160   7.340   8.671   7.174
36045SOL    HW1 8161   7.431   8.632   7.161
36045SOL    HW2 8162   7.348   8.767   7.198
36046SOL     OW 8163   6.650   8.795   6.926
36046SOL    HW1 8164   6.570   8.772   6.981
36046SOL    HW2 8165   6.733   8.769   6.975
36047SOL     OW 8166   7.178   9.077   7.211
36047SOL    HW1 8167   7.205   9.111   7.121
36047SOL    HW2 8168   7.257   9.039   7.257
36048SOL     OW 8169   6.697   8.643   6.686
36048SOL    HW1 8170   6.657   8.687   6.767
36048SOL    HW2 8171   6.656   8.680   6.603
36049SOL     OW 8172   7.224   8.547   6.665
36049SOL    HW1 8173   7.229   8.628   6.724
36049SOL    HW2 8174   7.138   8.549   6.614
36050SOL     OW 8175   6.501   7.537   6.988
36050SOL    HW1 8176   6.526   7.517   6.893
36050SOL    HW2 8177   6.573   7.593   7.030
36051SOL     OW 8178   6.566   8.564   7.305
36051SOL    HW1 8179   6.467   8.570   7.315
36051SOL    HW2 8180   6.589   8.484   7.249
36052SOL     OW 8181   6.291   8.498   5.954
36052SOL    HW1 8182   6.277   8.505   6.053
36052SOL    HW2 8183   6.375   8.447   5.936
36053SOL     OW 8184   5.996   8.261   6.837
36053SOL    HW1 8185   6.082   8.273   6.887
36053SOL    HW2 8186   5.954   8.174   6.864
36054SOL     OW 8187   6.860   7.834   6.848
36054SOL    HW1 8188   6.881   7.908   6.912
36054SOL    HW2 8189   6.771   7.851   6.805
36055SOL     OW 8190   5.650   9.012   6.917
36055SOL    HW1 8191   5.604   9.094   6.883
36055SOL    HW2 8192   5.748   9.031   6.926
36056SOL     OW 8193   5.953   8.548   6.087
36056SOL    HW1 8194   5.946   8.631   6.031
36056SOL    HW2 8195   5.957   8.468   6.027
36057SOL     OW 8196   6.152   7.985   6.451
36057SOL    HW1 8197   6.164   8.051   6.377
36057SOL    HW2 8198   6.198   8.019   6.534
36058SOL     OW 8199   6.838   8.796   5.974
36058SOL    HW1 8200   6.888   8.873   6.014
36058SOL    HW2 8201   6.743   8.798   6.006
36059SOL     OW 8202   6.858   8.893   6.728
36059SOL    HW1 8203   6.905   8.906   6.815
36059SOL    HW2 8204   6.792   8.819   6.737
36060SOL     OW 8205   7.168   8.087   6.058
36060SOL    HW1 8206   7.137   8.148   6.131
36060SOL    HW2 8207   7.218   8.139   5.989
36061SOL     OW 8208   5.940   8.958   6.915
36061SOL    HW1 8209   5.919   8.914   6.828
36061SOL    HW2 8210   6.037   8.984   6.918
36062SOL     OW 8211   5.988   8.199   7.184
36062SOL    HW1 8212   6.056   8.254   7.137
36062SOL    HW2 8213   6.028   8.111   7.211
36063SOL     OW 8214   7.173   8.227   7.256
36063SOL    HW1 8215   7.081   8.265   7.251
36063SOL    HW2 8216   7.233   8.274   7.191
36064SOL     OW 8217   6.599   7.553   7.356
36064SOL    HW1 8218   6.605   7.638   7.304
36064SOL    HW2 8219   6.631   7.477   7.299
36065SOL     OW 8220   6.090   7.498   7.326
36065SOL    HW1 8221   6.048   7.441   7.256
36065SOL    HW2 8222   6.024   7.567   7.358
36066SOL     OW 8223   6.159   8.318   6.615
36066SOL    HW1 8224   6.203   8.407   6.606
36066SOL    HW2 8225   6.096   8.318   6.692
36067SOL     OW 8226   6.946   8.310   6.631
36067SOL    HW1 8227   6.871   8.310   6.565
36067SOL    HW2 8228   6.983   8.218   6.640
36068SOL     OW 8229   6.795   7.973   5.861
36068SOL    HW1 8230   6.808   7.889   5.915
36068SOL    HW2 8231   6.766   8.047   5.921
36069SOL     OW 8232   5.893   7.661   6.817
36069SOL    HW1 8233   5.870   7.698   6.907
36069SOL    HW2 8234   5.863   7.566   6.811
36070SOL     OW 8235   5.623   8.758   6.868
36070SOL    HW1 8236   5.676   8.709   6.936
36070SOL    HW2 8237   5.645   8.856   6.873
36071SOL     OW 8238   6.318   8.082   6.650
36071SOL    HW1 8239   6.377   8.056   6.574
36071SOL    HW2 8240   6.290   8.178   6.639
36072SOL     OW 8241   7.314   8.383   7.440
36072SOL    HW1 8242   7.268   8.376   7.351
36072SOL    HW2 8243   7.252   8.427   7.506
36073SOL     OW 8244   5.893   7.511   6.204
36073SOL    HW1 8245   5.882   7.605   6.237
36073SOL    HW2 8246   5.888   7.448   6.281
36074SOL     OW 8247   7.208   7.815   5.960
36074SOL    HW1 8248   7.210   7.739   6.024
36074SOL    HW2 8249   7.160   7.892   6.000
36075SOL     OW 8250   6.609   8.214   6.552
36075SOL    HW1 8251   6.624   8.235   6.648
36075SOL    HW2 8252   6.579   8.119   6.543
36076SOL     OW 8253   6.566   9.021   7.286
36076SOL    HW1 8254   6.546   9.065   7.198
36076SOL    HW2 8255   6.605   8.930   7.270
36077SOL     OW 8256   7.445   8.966   7.191
36077SOL    HW1 8257   7.459   8.993   7.096
36077SOL    HW2 8258   7.528   8.988   7.244
36078SOL     OW 8259   5.936   8.346   7.390
36078SOL    HW1 8260   6.012   8.390   7.438
36078SOL    HW2 8261   5.971   8.299   7.308
36079SOL     OW 8262   7.126   7.722   5.711
36079SOL    HW1 8263   7.065   7.647   5.734
36079SOL    HW2 8264   7.148   7.774   5.794
36080SOL     OW 8265   6.889   8.286   5.628
36080SOL    HW1 8266   6.923   8.193   5.643
36080SOL    HW2 8267   6.907   8.313   5.533
36081SOL     OW 8268   6.654   8.781   6.435
36081SOL    HW1 8269   6.661   8.697   6.380
36081SOL    HW2 8270   6.716   8.850   6.399
36082SOL     OW 8271   5.905   8.258   6.535
36082SOL    HW1 8272   5.998   8.294   6.540
36082SOL    HW2 8273   5.899   8.173   6.587
36083SOL     OW 8274   5.925   7.957   6.592
36083SOL    HW1 8275   5.873   7.874   6.575
36083SOL    HW2 8276   6.002   7.962   6.528
36084SOL     OW 8277   6.724   7.828   7.264
36084SOL    HW1 8278   6.679   7.891   7.328
36084SOL    HW2 8279   6.817   7.859   7.247
36085SOL     OW 8280   6.746   7.655   7.063
36085SOL    HW1 8281   6.746   7.719   7.140
36085SOL    HW2 8282   6.774   7.703   6.980
36086SOL     OW 8283   5.594   8.774   5.786
36086SOL    HW1 8284   5.501   8.795   5.755
36086SOL    HW2 8285   5.604   8.675   5.799
36087SOL     OW 8286   5.674   9.249   6.513
36087SOL    HW1 8287   5.632   9.163   6.486
36087SOL    HW2 8288   5.768   9.252   6.479
36088SOL     OW 8289   6.090   9.016   6.496
36088SOL    HW1 8290   6.156   9.090   6.505
36088SOL    HW2 8291   6.134   8.937   6.454
36089SOL     OW 8292   6.588   8.244   6.824
36089SOL    HW1 8293   6.629   8.212   6.910
36089SOL    HW2 8294   6.492   8.217   6.821
36090SOL     OW 8295   5.626   7.992   6.700
36090SOL    HW1 8296   5.711   7.959   6.659
36090SOL    HW2 8297   5.639   8.007   6.798
36091SOL     OW 8298   5.775   7.968   7.308
36091SOL    HW1 8299   5.834   7.928   7.238
36091SOL    HW2 8300   5.717   8.039   7.267
36092SOL     OW 8301   6.955   8.398   7.246
36092SOL    HW1 8302   6.994   8.487   7.266
36092SOL    HW2 8303   6.965   8.378   7.149
36093SOL     OW 8304   6.401   8.020   5.911
36093SOL    HW1 8305   6.408   7.931   5.865
36093SOL    HW2 8306   6.307   8.054   5.903
36094SOL     OW 8307   7.243   8.052   6.792
36094SOL    HW1 8308   7.205   7.983   6.854
36094SOL    HW2 8309   7.325   8.016   6.748
36095SOL     OW 8310   5.838   9.012   7.330
36095SOL    HW1 8311   5.808   9.069   7.406
36095SOL    HW2 8312   5.831   8.915   7.356
36096SOL     OW 8313   6.257   7.912   6.855
36096SOL    HW1 8314   6.223   7.823   6.825
36096SOL    HW2 8315   6.283   7.966   6.775
36097SOL     OW 8316   6.516   9.126   7.051
36097SOL    HW1 8317   6.492   9.108   6.956
36097SOL    HW2 8318   6.546   9.220   7.061
36098SOL     OW 8319   6.059   7.948   5.777
36098SOL    HW1 8320   6.120   8.028   5.781
36098SOL    HW2 8321   5.964   7.979   5.784
36099SOL     OW 8322   5.745   8.585   7.052
36099SOL    HW1 8323   5.767   8.524   7.128
36099SOL    HW2 8324   5.755   8.536   6.966
36100SOL     OW 8325   6.933   8.507   6.820
36100SOL    HW1 8326   6.957   8.444   6.746
36100SOL    HW2 8327   6.843   8.547   6.802
36101SOL     OW 8328   6.888   8.303   5.895
36101SOL    HW1 8329   6.802   8.272   5.937
36101SOL    HW2 8330   6.884   8.289   5.796
36102SOL     OW 8331   7.345   9.195   6.740
36102SOL    HW1 8332   7.406   9.225   6.667
36102SOL    HW2 8333   7.307   9.106   6.718
36103SOL     OW 8334   6.838   9.179   6.714
36103SOL    HW1 8335   6.922   9.184   6.660
36103SOL    HW2 8336   6.815   9.083   6.732
36104SOL     OW 8337   5.669   8.706   6.608
36104SOL    HW1 8338   5.664   8.705   6.708
36104SOL    HW2 8339   5.586   8.665   6.570
36105SOL     OW 8340   6.274   9.110   7.302
36105SOL    HW1 8341   6.218   9.191   7.311
36105SOL    HW2 8342   6.326   9.114   7.216
36106SOL     OW 8343   7.312   7.583   6.109
36106SOL    HW1 8344   7.385   7.566   6.042
36106SOL    HW2 8345   7.281   7.496   6.147
36107SOL     OW 8346   6.974   9.021   6.063
36107SOL    HW1 8347   7.041   9.033   5.989
36107SOL    HW2 8348   6.934   9.110   6.086
36108SOL     OW 8349   5.716   9.242   7.437
36108SOL    HW1 8350   5.675   9.168   7.490
36108SOL    HW2 8351   5.780   9.293   7.495
36109SOL     OW 8352   6.866   8.375   6.258
36109SOL    HW1 8353   6.926   8.294   6.260
36109SOL    HW2 8354   6.906   8.444   6.198
36110SOL     OW 8355   6.416   8.721   7.008
36110SOL    HW1 8356   6.411   8.754   7.103
36110SOL    HW2 8357   6.330   8.740   6.962
36111SOL     OW 8358   6.258   9.064   5.740
36111SOL    HW1 8359   6.267   9.074   5.641
36111SOL    HW2 8360   6.218   8.975   5.761
36112SOL     OW 8361   7.236   9.168   6.980
36112SOL    HW1 8362   7.289   9.178   6.896
36112SOL    HW2 8363   7.209   9.258   7.014
36113SOL     OW 8364   7.427   7.623   6.549
36113SOL    HW1 8365   7.466   7.538   6.513
36113SOL    HW2 8366   7.329   7.625   6.530
36114SOL     OW 8367   5.849   7.774   6.306
36114SOL    HW1 8368   5.770   7.825   6.272
36114SOL    HW2 8369   5.840   7.759   6.404
36115SOL     OW 8370   6.780   9.060   5.617
36115SOL    HW1 8371   6.786   8.967   5.654
36115SOL    HW2 8372   6.721   9.060   5.537
36116SOL     OW 8373   6.408   8.450   6.958
36116SOL    HW1 8374   6.448   8.449   6.866
36116SOL    HW2 8375   6.418   8.542   6.998
36117SOL     OW 8376   6.502   8.358   5.877
36117SOL    HW1 8377   6.565   8.396   5.809
36117SOL    HW2 8378   6.542   8.275   5.916
36118SOL     OW 8379   7.090   9.055   5.630
36118SOL    HW1 8380   6.998   9.092   5.637
36118SOL    HW2 8381   7.128   9.075   5.540
36119SOL     OW 8382   5.958   8.736   7.076
36119SOL    HW1 8383   5.945   8.829   7.042
36119SOL    HW2 8384   5.874   8.684   7.063
36120SOL     OW 8385   7.200   8.740   6.875
36120SOL    HW1 8386   7.260   8.743   6.955
36120SOL    HW2 8387   7.125   8.804   6.888
36121SOL     OW 8388   6.625   8.546   6.282
36121SOL    HW1 8389   6.555   8.499   6.336
36121SOL    HW2 8390   6.684   8.478   6.239
36122SOL     OW 8391   6.600   7.684   6.557
36122SOL    HW1 8392   6.592   7.648   6.464
36122SOL    HW2 8393   6.598   7.608   6.622
36123SOL     OW 8394   6.176   8.935   6.077
36123SOL    HW1 8395   6.218   8.877   6.007
36123SOL    HW2 8396   6.132   9.014   6.033
36124SOL     OW 8397   7.295   7.833   6.967
36124SOL    HW1 8398   7.368   7.902   6.971
36124SOL    HW2 8399   7.323   7.758   6.908
36125SOL     OW 8400   5.841   8.796   5.876
36125SOL    HW1 8401   5.745   8.797   5.849
36125SOL    HW2 8402   5.853   8.849   5.960
36126SOL     OW 8403   5.691   8.461   7.312
36126SOL    HW1 8404   5.614   8.428   7.366
36126SOL    HW2 8405   5.776   8.431   7.354
36127SOL     OW 8406   6.258   7.651   7.075
36127SOL    HW1 8407   6.348   7.635   7.035
36127SOL    HW2 8408   6.266   7.656   7.174
36128SOL     OW 8409   5.661   7.793   5.619
36128SOL    HW1 8410   5.569   7.765   5.590
36128SOL    HW2 8411   5.692   7.870   5.563
36129SOL     OW 8412   7.026   8.304   6.984
36129SOL    HW1 8413   6.969   8.356   6.921
36129SOL    HW2 8414   7.122   8.316   6.960
36130SOL     OW 8415   5.658   7.614   5.904
36130SOL    HW1 8416   5.641   7.697   5.850
36130SOL    HW2 8417   5.748   7.577   5.882
36131SOL     OW 8418   6.769   8.783   5.705
36131SOL    HW1 8419   6.670   8.772   5.707
36131SOL    HW2 8420   6.803   8.798   5.798
36132SOL     OW 8421   6.199   8.290   7.017
36132SOL    HW1 8422   6.255   8.371   7.000
36132SOL    HW2 8423   6.258   8.210   7.020
36133SOL     OW 8424   7.079   9.215   6.545
36133SOL    HW1 8425   7.112   9.279   6.476
36133SOL    HW2 8426   7.145   9.209   6.620
36134SOL     OW 8427   6.302   8.013   7.294
36134SOL    HW1 8428   6.321   8.078   7.368
36134SOL    HW2 8429   6.362   7.933   7.303
36135SOL     OW 8430   7.036   8.668   7.219
36135SOL    HW1 8431   7.027   8.658   7.318
36135SOL    HW2 8432   7.132   8.661   7.193
36136SOL     OW 8433   5.976   9.189   7.146
36136SOL    HW1 8434   5.885   9.230   7.144
36136SOL    HW2 8435   5.969   9.095   7.178
36137SOL     OW 8436   7.260   8.331   6.840
36137SOL    HW1 8437   7.233   8.242   6.803
36137SOL    HW2 8438   7.261   8.399   6.767
36138SOL     OW 8439   6.811   7.773   6.035
36138SOL    HW1 8440   6.876   7.699   6.024
36138SOL    HW2 8441   6.831   7.823   6.119
36139SOL     OW 8442   6.180   8.193   6.238
36139SOL    HW1 8443   6.230   8.278   6.219
36139SOL    HW2 8444   6.092   8.195   6.190
36140SOL     OW 8445   7.363   7.790   7.228
36140SOL    HW1 8446   7.346   7.821   7.134
36140SOL    HW2 8447   7.279   7.753   7.266
36141SOL     OW 8448   7.316   8.382   7.103
36141SOL    HW1 8449   7.354   8.473   7.118
36141SOL    HW2 8450   7.308   8.365   7.004
36142SOL     OW 8451   6.445   8.822   5.602
36142SOL    HW1 8452   6.399   8.837   5.690
36142SOL    HW2 8453   6.489   8.907   5.572
36143SOL     OW 8454   6.247   9.238   6.539
36143SOL    HW1 8455   6.201   9.326   6.526
36143SOL    HW2 8456   6.346   9.250   6.532
36144SOL     OW 8457   6.445   8.404   6.447
36144SOL    HW1 8458   6.499   8.335   6.495
36144SOL    HW2 8459   6.413   8.473   6.513
36145SOL     OW 8460   6.669   8.432   5.673
36145SOL    HW1 8461   6.646   8.485   5.591
36145SOL    HW2 8462   6.750   8.376   5.654
36146SOL     OW 8463   7.447   9.017   6.437
36146SOL    HW1 8464   7.376   9.005   6.367
36146SOL    HW2 8465   7.448   8.938   6.497
36147SOL     OW 8466   5.807   8.762   7.430
36147SOL    HW1 8467   5.742   8.689   7.409
36147SOL    HW2 8468   5.811   8.776   7.528
36148SOL     OW 8469   5.665   8.688   6.239
36148SOL    HW1 8470   5.664   8.641   6.327
36148SOL    HW2 8471   5.747   8.660   6.188
36149SOL     OW 8472   6.258   8.839   7.210
36149SOL    HW1 8473   6.180   8.789   7.248
36149SOL    HW2 8474   6.255   8.934   7.241
36150SOL     OW 8475   7.410   7.640   6.813
36150SOL    HW1 8476   7.406   7.550   6.857
36150SOL    HW2 8477   7.413   7.629   6.714
36151SOL     OW 8478   6.014   7.872   6.106
36151SOL    HW1 8479   6.044   7.800   6.044
36151SOL    HW2 8480   5.975   7.832   6.189
36152SOL     OW 8481   7.291   8.935   6.690
36152SOL    HW1 8482   7.198   8.910   6.663
36152SOL    HW2 8483   7.317   8.885   6.772
36153SOL     OW 8484   5.903   7.995   6.866
36153SOL    HW1 8485   5.941   7.936   6.938
36153SOL    HW2 8486   5.943   7.969   6.778
36154SOL     OW 8487   6.398   9.034   6.273
36154SOL    HW1 8488   6.430   9.044   6.179
36154SOL    HW2 8489   6.319   8.972   6.275
36155SOL     OW 8490   7.010   7.662   6.698
36155SOL    HW1 8491   7.062   7.597   6.753
36155SOL    HW2 8492   6.961   7.725   6.759
36156SOL     OW 8493   6.587   7.482   6.740
36156SOL    HW1 8494   6.524   7.410   6.709
36156SOL    HW2 8495   6.680   7.446   6.740
36157SOL     OW 8496   6.356   8.778   5.887
36157SOL    HW1 8497   6.310   8.691   5.904
36157SOL    HW2 8498   6.447   8.775   5.928
36158SOL     OW 8499   6.204   9.015   6.870
36158SOL    HW1 8500   6.199   9.097   6.927
36158SOL    HW2 8501   6.293   9.012   6.825
36159SOL     OW 8502   6.938   7.500   5.754
36159SOL    HW1 8503   6.973   7.459   5.670
36159SOL    HW2 8504   6.848   7.462   5.774
36160SOL     OW 8505   6.886   7.901   6.277
36160SOL    HW1 8506   6.827   7.981   6.281
36160SOL    HW2 8507   6.901   7.866   6.370
36161SOL     OW 8508   7.179   7.669   6.468
36161SOL    HW1 8509   7.095   7.668   6.522
36161SOL    HW2 8510   7.181   7.752   6.412
36162SOL     OW 8511   5.625   8.525   5.886
36162SOL    HW1 8512   5.724   8.514   5.877
36162SOL    HW2 8513   5.585   8.439   5.918
36163SOL     OW 8514   6.461   9.094   5.923
36163SOL    HW1 8515   6.384   9.059   5.869
36163SOL    HW2 8516   6.429   9.165   5.985
36164SOL     OW 8517   5.816   8.076   7.561
36164SOL    HW1 8518   5.723   8.074   7.598
36164SOL    HW2 8519   5.817   8.037   7.469
36165SOL     OW 8520   5.811   7.723   8.444
36165SOL    HW1 8521   5.846   7.706   8.536
36165SOL    HW2 8522   5.723   7.678   8.432
36166SOL     OW 8523   5.605   7.816   8.095
36166SOL    HW1 8524   5.523   7.859   8.134
36166SOL    HW2 8525   5.577   7.743   8.032
36167SOL     OW 8526   6.155   8.723   8.613
36167SOL    HW1 8527   6.062   8.716   8.576
36167SOL    HW2 8528   6.166   8.812   8.657
36168SOL     OW 8529   7.141   8.959   8.151
36168SOL    HW1 8530   7.084   8.943   8.232
36168SOL    HW2 8531   7.082   8.969   8.071
36169SOL     OW 8532   6.721   8.151   8.165
36169SOL    HW1 8533   6.778   8.229   8.140
36169SOL    HW2 8534   6.661   8.177   8.241
36170SOL     OW 8535   7.341   8.055   7.679
36170SOL    HW1 8536   7.329   8.042   7.580
36170SOL    HW2 8537   7.311   7.974   7.728
36171SOL     OW 8538   6.354   8.592   8.471
36171SOL    HW1 8539   6.276   8.609   8.531
36171SOL    HW2 8540   6.388   8.679   8.435
36172SOL     OW 8541   6.436   8.246   9.271
36172SOL    HW1 8542   6.432   8.322   9.336
36172SOL    HW2 8543   6.458   8.282   9.180
36173SOL     OW 8544   6.271   8.460   8.113
36173SOL    HW1 8545   6.340   8.444   8.183
36173SOL    HW2 8546   6.198   8.517   8.151
36174SOL     OW 8547   6.272   8.609   9.251
36174SOL    HW1 8548   6.332   8.688   9.265
36174SOL    HW2 8549   6.186   8.640   9.210
36175SOL     OW 8550   5.921   8.883   8.509
36175SOL    HW1 8551   5.843   8.852   8.456
36175SOL    HW2 8552   5.979   8.941   8.452
36176SOL     OW 8553   7.046   8.953   8.787
36176SOL    HW1 8554   7.070   9.047   8.813
36176SOL    HW2 8555   7.030   8.899   8.869
36177SOL     OW 8556   6.024   7.840   8.947
36177SOL    HW1 8557   6.106   7.784   8.956
36177SOL    HW2 8558   5.943   7.782   8.951
36178SOL     OW 8559   7.189   7.895   8.185
36178SOL    HW1 8560   7.115   7.941   8.135
36178SOL    HW2 8561   7.240   7.963   8.238
36179SOL     OW 8562   5.817   9.161   7.931
36179SOL    HW1 8563   5.851   9.238   7.985
36179SOL    HW2 8564   5.861   9.161   7.841
36180SOL     OW 8565   6.713   8.789   9.138
36180SOL    HW1 8566   6.760   8.789   9.226
36180SOL    HW2 8567   6.665   8.702   9.127
36181SOL     OW 8568   5.816   8.882   7.986
36181SOL    HW1 8569   5.790   8.978   7.986
36181SOL    HW2 8570   5.745   8.828   8.031
36182SOL     OW 8571   5.826   8.539   8.334
36182SOL    HW1 8572   5.840   8.455   8.386
36182SOL    HW2 8573   5.771   8.603   8.389
36183SOL     OW 8574   6.206   9.234   8.887
36183SOL    HW1 8575   6.114   9.217   8.922
36183SOL    HW2 8576   6.234   9.326   8.913
36184SOL     OW 8577   6.192   8.412   7.571
36184SOL    HW1 8578   6.199   8.496   7.517
36184SOL    HW2 8579   6.238   8.425   7.659
36185SOL     OW 8580   7.180   7.562   8.928
36185SOL    HW1 8581   7.162   7.629   8.856
36185SOL    HW2 8582   7.177   7.608   9.017
36186SOL     OW 8583   5.708   8.091   8.011
36186SOL    HW1 8584   5.663   8.003   8.028
36186SOL    HW2 8585   5.707   8.145   8.095
36187SOL     OW 8586   7.428   9.215   7.807
36187SOL    HW1 8587   7.482   9.186   7.887
36187SOL    HW2 8588   7.458   9.305   7.778
36188SOL     OW 8589   5.613   9.044   7.565
36188SOL    HW1 8590   5.594   8.948   7.586
36188SOL    HW2 8591   5.580   9.102   7.640
36189SOL     OW 8592   7.275   8.370   8.060
36189SOL    HW1 8593   7.370   8.341   8.068
36189SOL    HW2 8594   7.267   8.435   7.985
36190SOL     OW 8595   7.227   8.556   7.880
36190SOL    HW1 8596   7.313   8.558   7.828
36190SOL    HW2 8597   7.241   8.603   7.968
36191SOL     OW 8598   5.699   8.185   9.045
36191SOL    HW1 8599   5.787   8.172   9.090
36191SOL    HW2 8600   5.686   8.282   9.023
36192SOL     OW 8601   6.199   8.813   8.174
36192SOL    HW1 8602   6.150   8.726   8.183
36192SOL    HW2 8603   6.176   8.856   8.087
36193SOL     OW 8604   6.879   8.676   8.871
36193SOL    HW1 8605   6.916   8.603   8.813
36193SOL    HW2 8606   6.931   8.681   8.956
36194SOL     OW 8607   6.395   7.452   7.950
36194SOL    HW1 8608   6.435   7.543   7.941
36194SOL    HW2 8609   6.295   7.460   7.956
36195SOL     OW 8610   5.783   8.424   8.712
36195SOL    HW1 8611   5.872   8.379   8.698
36195SOL    HW2 8612   5.710   8.359   8.693
36196SOL     OW 8613   7.111   8.447   7.638
36196SOL    HW1 8614   7.048   8.371   7.651
36196SOL    HW2 8615   7.159   8.465   7.724
36197SOL     OW 8616   6.773   9.240   9.064
36197SOL    HW1 8617   6.797   9.300   8.988
36197SOL    HW2 8618   6.780   9.145   9.034
36198SOL     OW 8619   5.903   7.699   9.249
36198SOL    HW1 8620   5.974   7.770   9.255
36198SOL    HW2 8621   5.815   7.738   9.277
36199SOL     OW 8622   7.052   8.865   8.401
36199SOL    HW1 8623   6.993   8.871   8.481
36199SOL    HW2 8624   7.037   8.777   8.355
36200SOL     OW 8625   7.253   9.162   8.020
36200SOL    HW1 8626   7.212   9.139   7.932
36200SOL    HW2 8627   7.235   9.088   8.085
36201SOL     OW 8628   6.184   8.177   7.718
36201SOL    HW1 8629   6.208   8.246   7.650
36201SOL    HW2 8630   6.106   8.210   7.772
36202SOL     OW 8631   6.867   7.793   8.392
36202SOL    HW1 8632   6.781   7.743   8.379
36202SOL    HW2 8633   6.929   7.739   8.448
36203SOL     OW 8634   7.162   9.110   7.755
36203SOL    HW1 8635   7.251   9.156   7.758
36203SOL    HW2 8636   7.141   9.086   7.660
36204SOL     OW 8637   6.393   8.053   8.913
36204SOL    HW1 8638   6.346   8.050   9.002
36204SOL    HW2 8639   6.342   7.998   8.847
36205SOL     OW 8640   6.980   7.917   9.122
36205SOL    HW1 8641   6.960   7.960   9.210
36205SOL    HW2 8642   7.058   7.855   9.131
36206SOL     OW 8643   6.559   8.338   9.020
36206SOL    HW1 8644   6.605   8.254   8.991
36206SOL    HW2 8645   6.503   8.372   8.945
36207SOL     OW 8646   6.577   7.858   8.690
36207SOL    HW1 8647   6.500   7.892   8.744
36207SOL    HW2 8648   6.543   7.807   8.611
36208SOL     OW 8649   6.627   8.149   7.877
36208SOL    HW1 8650   6.653   8.145   7.973
36208SOL    HW2 8651   6.542   8.098   7.863
36209SOL     OW 8652   5.662   8.259   8.237
36209SOL    HW1 8653   5.761   8.247   8.246
36209SOL    HW2 8654   5.638   8.354   8.258
36210SOL     OW 8655   5.716   9.269   9.019
36210SOL    HW1 8656   5.706   9.254   9.118
36210SOL    HW2 8657   5.630   9.305   8.983
36211SOL     OW 8658   6.451   7.796   7.643
36211SOL    HW1 8659   6.510   7.859   7.594
36211SOL    HW2 8660   6.470   7.702   7.614
36212SOL     OW 8661   7.305   8.033   9.279
36212SOL    HW1 8662   7.279   8.122   9.243
36212SOL    HW2 8663   7.303   7.965   9.206
36213SOL     OW 8664   6.948   8.592   7.993
36213SOL    HW1 8665   7.031   8.563   7.945
36213SOL    HW2 8666   6.899   8.659   7.937
36214SOL     OW 8667   6.136   7.644   8.333
36214SOL    HW1 8668   6.131   7.639   8.433
36214SOL    HW2 8669   6.138   7.740   8.304
36215SOL     OW 8670   6.594   8.904   7.925
36215SOL    HW1 8671   6.548   8.976   7.873
36215SOL    HW2 8672   6.590   8.924   8.023
36216SOL     OW 8673   5.937   9.249   8.301
36216SOL    HW1 8674   5.987   9.163   8.307
36216SOL    HW2 8675   6.002   9.326   8.298
36217SOL     OW 8676   7.381   8.514   8.321
36217SOL    HW1 8677   7.319   8.499   8.245
36217SOL    HW2 8678   7.329   8.525   8.406
36218SOL     OW 8679   6.813   8.998   8.954
36218SOL    HW1 8680   6.819   8.921   9.018
36218SOL    HW2 8681   6.761   8.972   8.874
36219SOL     OW 8682   5.907   8.391   7.690
36219SOL    HW1 8683   5.989   8.430   7.648
36219SOL    HW2 8684   5.880   8.309   7.641
36220SOL     OW 8685   7.044   8.183   8.176
36220SOL    HW1 8686   7.039   8.118   8.251
36220SOL    HW2 8687   7.124   8.242   8.189
36221SOL     OW 8688   6.047   8.714   9.175
36221SOL    HW1 8689   5.997   8.715   9.089
36221SOL    HW2 8690   5.984   8.696   9.251
36222SOL     OW 8691   6.697   9.224   7.685
36222SOL    HW1 8692   6.637   9.162   7.735
36222SOL    HW2 8693   6.728   9.180   7.600
36223SOL     OW 8694   5.788   7.733   8.946
36223SOL    HW1 8695   5.708   7.793   8.933
36223SOL    HW2 8696   5.778   7.684   9.032
36224SOL     OW 8697   7.218   8.825   7.529
36224SOL    HW1 8698   7.186   8.919   7.519
36224SOL    HW2 8699   7.142   8.762   7.517
36225SOL     OW 8700   6.050   9.191   7.771
36225SOL    HW1 8701   6.083   9.230   7.857
36225SOL    HW2 8702   6.126   9.184   7.706
36226SOL     OW 8703   6.986   7.555   7.874
36226SOL    HW1 8704   6.962   7.518   7.784
36226SOL    HW2 8705   7.085   7.571   7.878
36227SOL     OW 8706   5.835   9.233   8.689
36227SOL    HW1 8707   5.892   9.168   8.739
36227SOL    HW2 8708   5.819   9.200   8.596
36228SOL     OW 8709   6.526   9.146   8.352
36228SOL    HW1 8710   6.606   9.089   8.373
36228SOL    HW2 8711   6.477   9.106   8.275
36229SOL     OW 8712   5.968   8.148   7.928
36229SOL    HW1 8713   6.013   8.058   7.925
36229SOL    HW2 8714   5.874   8.137   7.961
36230SOL     OW 8715   6.200   7.570   7.565
36230SOL    HW1 8716   6.298   7.548   7.572
36230SOL    HW2 8717   6.169   7.553   7.472
36231SOL     OW 8718   6.367   7.712   9.197
36231SOL    HW1 8719   6.434   7.651   9.240
36231SOL    HW2 8720   6.294   7.731   9.262
36232SOL     OW 8721   6.474   8.962   8.643
36232SOL    HW1 8722   6.451   8.937   8.549
36232SOL    HW2 8723   6.535   8.893   8.682
36233SOL     OW 8724   6.937   8.038   8.881
36233SOL    HW1 8725   6.965   7.995   8.966
36233SOL    HW2 8726   6.962   8.134   8.882
36234SOL     OW 8727   6.389   8.850   8.372
36234SOL    HW1 8728   6.479   8.864   8.330
36234SOL    HW2 8729   6.318   8.852   8.301
36235SOL     OW 8730   6.508   7.951   8.347
36235SOL    HW1 8731   6.483   7.942   8.251
36235SOL    HW2 8732   6.556   7.869   8.378
36236SOL     OW 8733   6.125   7.512   7.960
36236SOL    HW1 8734   6.044   7.513   8.018
36236SOL    HW2 8735   6.128   7.595   7.905
36237SOL     OW 8736   7.020   8.636   7.489
36237SOL    HW1 8737   7.052   8.560   7.546
36237SOL    HW2 8738   6.928   8.663   7.519
36238SOL     OW 8739   5.883   7.483   7.619
36238SOL    HW1 8740   5.932   7.567   7.598
36238SOL    HW2 8741   5.945   7.418   7.664
36239SOL     OW 8742   6.521   7.684   7.928
36239SOL    HW1 8743   6.473   7.725   7.850
36239SOL    HW2 8744   6.620   7.682   7.909
36240SOL     OW 8745   6.662   8.131   8.912
36240SOL    HW1 8746   6.582   8.070   8.915
36240SOL    HW2 8747   6.743   8.078   8.888
36241SOL     OW 8748   6.813   9.018   8.241
36241SOL    HW1 8749   6.834   9.092   8.176
36241SOL    HW2 8750   6.881   9.018   8.314
36242SOL     OW 8751   6.045   8.600   8.189
36242SOL    HW1 8752   5.974   8.573   8.254
36242SOL    HW2 8753   6.019   8.572   8.096
36243SOL     OW 8754   6.857   9.245   8.039
36243SOL    HW1 8755   6.901   9.309   7.975
36243SOL    HW2 8756   6.807   9.297   8.109
36244SOL     OW 8757   6.618   7.997   7.464
36244SOL    HW1 8758   6.577   8.079   7.425
36244SOL    HW2 8759   6.682   8.023   7.537
36245SOL     OW 8760   5.664   8.004   8.834
36245SOL    HW1 8761   5.756   8.003   8.793
36245SOL    HW2 8762   5.658   8.078   8.901
36246SOL     OW 8763   6.147   7.670   8.595
36246SOL    HW1 8764   6.185   7.586   8.632
36246SOL    HW2 8765   6.059   7.689   8.639
36247SOL     OW 8766   6.452   7.902   8.090
36247SOL    HW1 8767   6.420   7.974   8.028
36247SOL    HW2 8768   6.476   7.821   8.037
36248SOL     OW 8769   6.603   7.487   8.201
36248SOL    HW1 8770   6.531   7.492   8.132
36248SOL    HW2 8771   6.579   7.418   8.270
36249SOL     OW 8772   7.015   8.621   8.315
36249SOL    HW1 8773   6.960   8.537   8.308
36249SOL    HW2 8774   7.041   8.650   8.223
36250SOL     OW 8775   7.052   8.038   8.440
36250SOL    HW1 8776   7.022   7.943   8.447
36250SOL    HW2 8777   7.125   8.054   8.506
36251SOL     OW 8778   7.443   8.281   7.825
36251SOL    HW1 8779   7.485   8.217   7.889
36251SOL    HW2 8780   7.405   8.230   7.747
36252SOL     OW 8781   6.074   8.833   7.622
36252SOL    HW1 8782   5.987   8.818   7.669
36252SOL    HW2 8783   6.057   8.859   7.527
36253SOL     OW 8784   7.250   8.728   8.105
36253SOL    HW1 8785   7.349   8.736   8.119
36253SOL    HW2 8786   7.205   8.812   8.136
36254SOL     OW 8787   6.976   8.023   7.526
36254SOL    HW1 8788   6.922   8.002   7.607
36254SOL    HW2 8789   7.067   7.982   7.535
36255SOL     OW 8790   6.113   7.704   7.776
36255SOL    HW1 8791   6.140   7.645   7.701
36255SOL    HW2 8792   6.113   7.799   7.745
36256SOL     OW 8793   7.340   8.671   9.036
36256SOL    HW1 8794   7.431   8.632   9.023
36256SOL    HW2 8795   7.348   8.767   9.060
36257SOL     OW 8796   6.650   8.795   8.788
36257SOL    HW1 8797   6.570   8.772   8.843
36257SOL    HW2 8798   6.733   8.769   8.837
36258SOL     OW 8799   7.178   9.077   9.073
36258SOL    HW1 8800   7.205   9.111   8.983
36258SOL    HW2 8801   7.257   9.039   9.119
36259SOL     OW 8802   6.697   8.643   8.548
36259SOL    HW1 8803   6.657   8.687   8.629
36259SOL    HW2 8804   6.656   8.680   8.465
36260SOL     OW 8805   7.224   8.547   8.527
36260SOL    HW1 8806   7.229   8.628   8.586
36260SOL    HW2 8807   7.138   8.549   8.476
36261SOL     OW 8808   6.501   7.537   8.850
36261SOL    HW1 8809   6.526   7.517   8.755
36261SOL    HW2 8810   6.573   7.593   8.892
36262SOL     OW 8811   6.566   8.564   9.167
36262SOL    HW1 8812   6.467   8.570   9.177
36262SOL    HW2 8813   6.589   8.484   9.111
36263SOL     OW 8814   6.291   8.498   7.816
36263SOL    HW1 8815   6.277   8.505   7.915
36263SOL    HW2 8816   6.375   8.447   7.798
36264SOL     OW 8817   5.996   8.261   8.699
36264SOL    HW1 8818   6.082   8.273   8.749
36264SOL    HW2 8819   5.954   8.174   8.726
36265SOL     OW 8820   6.860   7.834   8.710
36265SOL    HW1 8821   6.881   7.908   8.774
36265SOL    HW2 8822   6.771   7.851   8.667
36266SOL     OW 8823   5.650   9.012   8.779
36266SOL    HW1 8824   5.604   9.094   8.745
36266SOL    HW2 8825   5.748   9.031   8.788
36267SOL     OW 8826   5.953   8.548   7.949
36267SOL    HW1 8827   5.946   8.631   7.893
36267SOL    HW2 8828   5.957   8.468   7.889
36268SOL     OW 8829   6.152   7.985   8.313
36268SOL    HW1 8830   6.164   8.051   8.239
36268SOL    HW2 8831   6.198   8.019   8.396
36269SOL     OW 8832   6.838   8.796   7.836
36269SOL    HW1 8833   6.888   8.873   7.876
36269SOL    HW2 8834   6.743   8.798   7.868
36270SOL     OW 8835   6.858   8.893   8.590
36270SOL    HW1 8836   6.905   8.906   8.677
36270SOL    HW2 8837   6.792   8.819   8.599
36271SOL     OW 8838   7.168   8.087   7.920
36271SOL    HW1 8839   7.137   8.148   7.993
36271SOL    HW2 8840   7.218   8.139   7.851
36272SOL     OW 8841   5.940   8.958   8.777
36272SOL    HW1 8842   5.919   8.914   8.690
36272SOL    HW2 8843   6.037   8.984   8.780
36273SOL     OW 8844   5.988   8.199   9.046
36273SOL    HW1 8845   6.056   8.254   8.999
36273SOL    HW2 8846   6.028   8.111   9.073
36274SOL     OW 8847   7.173   8.227   9.118
36274SOL    HW1 8848   7.081   8.265   9.113
36274SOL    HW2 8849   7.233   8.274   9.053
36275SOL     OW 8850   6.599   7.553   9.218
36275SOL    HW1 8851   6.605   7.638   9.166
36275SOL    HW2 8852   6.631   7.477   9.161
36276SOL     OW 8853   6.090   7.498   9.188
36276SOL    HW1 8854   6.048   7.441   9.118
36276SOL    HW2 8855   6.024   7.567   9.220
36277SOL     OW 8856   6.159   8.318   8.477
36277SOL    HW1 8857   6.203   8.407   8.468
36277SOL    HW2 8858   6.096   8.318   8.554
36278SOL     OW 8859   6.946   8.310   8.493
36278SOL    HW1 8860   6.871   8.310   8.427
36278SOL    HW2 8861   6.983   8.218   8.502
36279SOL     OW 8862   6.795   7.973   7.723
36279SOL    HW1 8863   6.808   7.889   7.777
36279SOL    HW2 8864   6.766   8.047   7.783
36280SOL     OW 8865   5.893   7.661   8.679
36280SOL    HW1 8866   5.870   7.698   8.769
36280SOL    HW2 8867   5.863   7.566   8.673
36281SOL     OW 8868   5.623   8.758   8.730
36281SOL    HW1 8869   5.676   8.709   8.798
36281SOL    HW2 8870   5.645   8.856   8.735
36282SOL     OW 8871   6.318   8.082   8.512
36282SOL    HW1 8872   6.377   8.056   8.436
36282SOL    HW2 8873   6.290   8.178   8.501
36283SOL     OW 8874   7.314   8.383   9.302
36283SOL    HW1 8875   7.268   8.376   9.213
36283SOL    HW2 8876   7.252   8.427   9.368
36284SOL     OW 8877   5.893   7.511   8.066
36284SOL    HW1 8878   5.882   7.605   8.099
36284SOL    HW2 8879   5.888   7.448   8.143
36285SOL     OW 8880   7.208   7.815   7.822
36285SOL    HW1 8881   7.210   7.739   7.886
36285SOL    HW2 8882   7.160   7.892   7.862
36286SOL     OW 8883   6.609   8.214   8.414
36286SOL    HW1 8884   6.624   8.235   8.510
36286SOL    HW2 8885   6.579   8.119   8.405
36287SOL     OW 8886   6.566   9.021   9.148
36287SOL    HW1 8887   6.546   9.065   9.060
36287SOL    HW2 8888   6.605   8.930   9.132
36288SOL     OW 8889   7.445   8.966   9.053
36288SOL    HW1 8890   7.459   8.993   8.958
36288SOL    HW2 8891   7.528   8.988   9.106
36289SOL     OW 8892   5.936   8.346   9.252
36289SOL    HW1 8893   6.012   8.390   9.300
36289SOL    HW2 8894   5.971   8.299   9.170
36290SOL     OW 8895   7.126   7.722   7.573
36290SOL    HW1 8896   7.065   7.647   7.596
36290SOL    HW2 8897   7.148   7.774   7.656
36291SOL     OW 8898   6.889   8.286   7.490
36291SOL    HW1 8899   6.923   8.193   7.505
36291SOL    HW2 8900   6.907   8.313   7.395
36292SOL     OW 8901   6.654   8.781   8.297
36292SOL    HW1 8902   6.661   8.697   8.242
36292SOL    HW2 8903   6.716   8.850   8.261
36293SOL     OW 8904   5.905   8.258   8.397
36293SOL    HW1 8905   5.998   8.294   8.402
36293SOL    HW2 8906   5.899   8.173   8.449
36294SOL     OW 8907   5.925   7.957   8.454
36294SOL    HW1 8908   5.873   7.874   8.437
36294SOL    HW2 8909   6.002   7.962   8.390
36295SOL     OW 8910   6.724   7.828   9.126
36295SOL    HW1 8911   6.679   7.891   9.190
36295SOL    HW2 8912   6.817   7.859   9.109
36296SOL     OW 8913   6.746   7.655   8.925
36296SOL    HW1 8914   6.746   7.719   9.002
36296SOL    HW2 8915   6.774   7.703   8.842
36297SOL     OW 8916   5.594   8.774   7.648
36297SOL    HW1 8917   5.501   8.795   7.617
36297SOL    HW2 8918   5.604   8.675   7.661
36298SOL     OW 8919   5.674   9.249   8.375
36298SOL    HW1 8920   5.632   9.163   8.348
36298SOL    HW2 8921   5.768   9.252   8.341
36299SOL     OW 8922   6.090   9.016   8.358
36299SOL    HW1 8923   6.156   9.090   8.367
36299SOL    HW2 8924   6.134   8.937   8.316
36300SOL     OW 8925   6.588   8.244   8.686
36300SOL    HW1 8926   6.629   8.212   8.772
36300SOL    HW2 8927   6.492   8.217   8.683
36301SOL     OW 8928   5.626   7.992   8.562
36301SOL    HW1 8929   5.711   7.959   8.521
36301SOL    HW2 8930   5.639   8.007   8.660
36302SOL     OW 8931   5.775   7.968   9.170
36302SOL    HW1 8932   5.834   7.928   9.100
36302SOL    HW2 8933   5.717   8.039   9.129
36303SOL     OW 8934   6.955   8.398   9.108
36303SOL    HW1 8935   6.994   8.487   9.128
36303SOL    HW2 8936   6.965   8.378   9.011
36304SOL     OW 8937   6.401   8.020   7.773
36304SOL    HW1 8938   6.408   7.931   7.727
36304SOL    HW2 8939   6.307   8.054   7.765
36305SOL     OW 8940   7.243   8.052   8.654
36305SOL    HW1 8941   7.205   7.983   8.716
36305SOL    HW2 8942   7.325   8.016   8.610
36306SOL     OW 8943   5.838   9.012   9.192
36306SOL    HW1 8944   5.808   9.069   9.268
36306SOL    HW2 8945   5.831   8.915   9.218
36307SOL     OW 8946   6.257   7.912   8.717
36307SOL    HW1 8947   6.223   7.823   8.687
36307SOL    HW2 8948   6.283   7.966   8.637
36308SOL     OW 8949   6.516   9.126   8.913
36308SOL    HW1 8950   6.492   9.108   8.818
36308SOL    HW2 8951   6.546   9.220   8.923
36309SOL     OW 8952   6.059   7.948   7.639
36309SOL    HW1 8953   6.120   8.028   7.643
36309SOL    HW2 8954   5.964   7.979   7.646
36310SOL     OW 8955   5.745   8.585   8.914
36310SOL    HW1 8956   5.767   8.524   8.990
36310SOL    HW2 8957   5.755   8.536   8.828
36311SOL     OW 8958   6.933   8.507   8.682
36311SOL    HW1 8959   6.957   8.444   8.608
36311SOL    HW2 8960   6.843   8.547   8.664
36312SOL     OW 8961   6.888   8.303   7.757
36312SOL    HW1 8962   6.802   8.272   7.799
36312SOL    HW2 8963   6.884   8.289   7.658
36313SOL     OW 8964   7.345   9.195   8.602
36313SOL    HW1 8965   7.406   9.225   8.529
36313SOL    HW2 8966   7.307   9.106   8.580
36314SOL     OW 8967   6.838   9.179   8.576
36314SOL    HW1 8968   6.922   9.184   8.522
36314SOL    HW2 8969   6.815   9.083   8.594
36315SOL     OW 8970   5.669   8.706   8.470
36315SOL    HW1 8971   5.664   8.705   8.570
36315SOL    HW2 8972   5.586   8.665   8.432
36316SOL     OW 8973   6.274   9.110   9.164
36316SOL    HW1 8974   6.218   9.191   9.173
36316SOL    HW2 8975   6.326   9.114   9.078
36317SOL     OW 8976   7.312   7.583   7.971
36317SOL    HW1 8977   7.385   7.566   7.904
36317SOL    HW2 8978   7.281   7.496   8.009
36318SOL     OW 8979   6.974   9.021   7.925
36318SOL    HW1 8980   7.041   9.033   7.851
36318SOL    HW2 8981   6.934   9.110   7.948
36319SOL     OW 8982   5.716   9.242   9.299
36319SOL    HW1 8983   5.675   9.168   9.352
36319SOL    HW2 8984   5.780   9.293   9.357
36320SOL     OW 8985   6.866   8.375   8.120
36320SOL    HW1 8986   6.926   8.294   8.122
36320SOL    HW2 8987   6.906   8.444   8.060
36321SOL     OW 8988   6.416   8.721   8.870
36321SOL    HW1 8989   6.411   8.754   8.965
36321SOL    HW2 8990   6.330   8.740   8.824
36322SOL     OW 8991   6.258   9.064   7.602
36322SOL    HW1 8992   6.267   9.074   7.503
36322SOL    HW2 8993   6.218   8.975   7.623
36323SOL     OW 8994   7.236   9.168   8.842
36323SOL    HW1 8995   7.289   9.178   8.758
36323SOL    HW2 8996   7.209   9.258   8.876
36324SOL     OW 8997   7.427   7.623   8.411
36324SOL    HW1 8998   7.466   7.538   8.375
36324SOL    HW2 8999   7.329   7.625   8.392
36325SOL     OW 9000   5.849   7.774   8.168
36325SOL    HW1 9001   5.770   7.825   8.134
36325SOL    HW2 9002   5.840   7.759   8.266
36326SOL     OW 9003   6.780   9.060   7.479
36326SOL    HW1 9004   6.786   8.967   7.516
36326SOL    HW2 9005   6.721   9.060   7.399
36327SOL     OW 9006   6.408   8.450   8.820
36327SOL    HW1 9007   6.448   8.449   8.728
36327SOL    HW2 9008   6.418   8.542   8.860
36328SOL     OW 9009   6.502   8.358   7.739
36328SOL    HW1 9010   6.565   8.396   7.671
36328SOL    HW2 9011   6.542   8.275   7.778
36329SOL     OW 9012   7.090   9.055   7.492
36329SOL    HW1 9013   6.998   9.092   7.499
36329SOL    HW2 9014   7.128   9.075   7.402
36330SOL     OW 9015   5.958   8.736   8.938
36330SOL    HW1 9016   5.945   8.829   8.904
36330SOL    HW2 9017   5.874   8.684   8.925
36331SOL     OW 9018   7.200   8.740   8.737
36331SOL    HW1 9019   7.260   8.743   8.817
36331SOL    HW2 9020   7.125   8.804   8.750
36332SOL     OW 9021   6.625   8.546   8.144
36332SOL    HW1 9022   6.555   8.499   8.198
36332SOL    HW2 9023   6.684   8.478   8.101
36333SOL     OW 9024   6.600   7.684   8.419
36333SOL    HW1 9025   6.592   7.648   8.326
36333SOL    HW2 9026   6.598   7.608   8.484
36334SOL     OW 9027   6.176   8.935   7.939
36334SOL    HW1 9028   6.218   8.877   7.869
36334SOL    HW2 9029   6.132   9.014   7.895
36335SOL     OW 9030   7.295   7.833   8.829
36335SOL    HW1 9031   7.368   7.902   8.833
36335SOL    HW2 9032   7.323   7.758   8.770
36336SOL     OW 9033   5.841   8.796   7.738
36336SOL    HW1 9034   5.745   8.797   7.711
36336SOL    HW2 9035   5.853   8.849   7.822
36337SOL     OW 9036   5.691   8.461   9.174
36337SOL    HW1 9037   5.614   8.428   9.228
36337SOL    HW2 9038   5.776   8.431   9.216
36338SOL     OW 9039   6.258   7.651   8.937
36338SOL    HW1 9040   6.348   7.635   8.897
36338SOL    HW2 9041   6.266   7.656   9.036
36339SOL     OW 9042   5.661   7.793   7.481
36339SOL    HW1 9043   5.569   7.765   7.452
36339SOL    HW2 9044   5.692   7.870   7.425
36340SOL     OW 9045   7.026   8.304   8.846
36340SOL    HW1 9046   6.969   8.356   8.783
36340SOL    HW2 9047   7.122   8.316   8.822
36341SOL     OW 9048   5.658   7.614   7.766
36341SOL    HW1 9049   5.641   7.697   7.712
36341SOL    HW2 9050   5.748   7.577   7.744
36342SOL     OW 9051   6.769   8.783   7.567
36342SOL    HW1 9052   6.670   8.772   7.569
36342SOL    HW2 9053   6.803   8.798   7.660
36343SOL     OW 9054   6.199   8.290   8.879
36343SOL    HW1 9055   6.255   8.371   8.862
36343SOL    HW2 9056   6.258   8.210   8.882
36344SOL     OW 9057   7.079   9.215   8.407
36344SOL    HW1 9058   7.112   9.279   8.338
36344SOL    HW2 9059   7.145   9.209   8.482
36345SOL     OW 9060   6.302   8.013   9.156
36345SOL    HW1 9061   6.321   8.078   9.230
36345SOL    HW2 9062   6.362   7.933   9.165
36346SOL     OW 9063   7.036   8.668   9.081
36346SOL    HW1 9064   7.027   8.658   9.180
36346SOL    HW2 9065   7.132   8.661   9.055
36347SOL     OW 9066   5.976   9.189   9.008
36347SOL    HW1 9067   5.885   9.230   9.006
36347SOL    HW2 9068   5.969   9.095   9.040
36348SOL     OW 9069   7.260   8.331   8.702
36348SOL    HW1 9070   7.233   8.242   8.665
36348SOL    HW2 9071   7.261   8.399   8.629
36349SOL     OW 9072   6.811   7.773   7.897
36349SOL    HW1 9073   6.876   7.699   7.886
36349SOL    HW2 9074   6.831   7.823   7.981
36350SOL     OW 9075   6.180   8.193   8.100
36350SOL    HW1 9076   6.230   8.278   8.081
36350SOL    HW2 9077   6.092   8.195   8.052
36351SOL     OW 9078   7.363   7.790   9.090
36351SOL    HW1 9079   7.346   7.821   8.996
36351SOL    HW2 9080   7.279   7.753   9.128
36352SOL     OW 9081   7.316   8.382   8.965
36352SOL    HW1 9082   7.354   8.473   8.980
36352SOL    HW2 9083   7.308   8.365   8.866
36353SOL     OW 9084   6.445   8.822   7.464
36353SOL    HW1 9085   6.399   8.837   7.552
36353SOL    HW2 9086   6.489   8.907   7.434
36354SOL     OW 9087   6.247   9.238   8.401
36354SOL    HW1 9088   6.201   9.326   8.388
36354SOL    HW2 9089   6.346   9.250   8.394
36355SOL     OW 9090   6.445   8.404   8.309
36355SOL    HW1 9091   6.499   8.335   8.357
36355SOL    HW2 9092   6.413   8.473   8.375
36356SOL     OW 9093   6.669   8.432   7.535
36356SOL    HW1 9094   6.646   8.485   7.453
36356SOL    HW2 9095   6.750   8.376   7.516
36357SOL     OW 9096   7.447   9.017   8.299
36357SOL    HW1 9097   7.376   9.005   8.229
36357SOL    HW2 9098   7.448   8.938   8.359
36358SOL     OW 9099   5.807   8.762   9.292
36358SOL    HW1 9100   5.742   8.689   9.271
36358SOL    HW2 9101   5.811   8.776   9.390
36359SOL     OW 9102   5.665   8.688   8.101
36359SOL    HW1 9103   5.664   8.641   8.189
36359SOL    HW2 9104   5.747   8.660   8.050
36360SOL     OW 9105   6.258   8.839   9.072
36360SOL    HW1 9106   6.180   8.789   9.110
36360SOL    HW2 9107   6.255   8.934   9.103
36361SOL     OW 9108   7.410   7.640   8.675
36361SOL    HW1 9109   7.406   7.550   8.719
36361SOL    HW2 9110   7.413   7.629   8.576
36362SOL     OW 9111   6.014   7.872   7.968
36362SOL    HW1 9112   6.044   7.800   7.906
36362SOL    HW2 9113   5.975   7.832   8.051
36363SOL     OW 9114   7.291   8.935   8.552
36363SOL    HW1 9115   7.198   8.910   8.525
36363SOL    HW2 9116   7.317   8.885   8.634
36364SOL     OW 9117   5.903   7.995   8.728
36364SOL    HW1 9118   5.941   7.936   8.800
36364SOL    HW2 9119   5.943   7.969   8.640
36365SOL     OW 9120   6.398   9.034   8.135
36365SOL    HW1 9121   6.430   9.044   8.041
36365SOL    HW2 9122   6.319   8.972   8.137
36366SOL     OW 9123   7.010   7.662   8.560
36366SOL    HW1 9124   7.062   7.597   8.615
36366SOL    HW2 9125   6.961   7.725   8.621
36367SOL     OW 9126   6.587   7.482   8.602
36367SOL    HW1 9127   6.524   7.410   8.571
36367SOL    HW2 9128   6.680   7.446   8.602
36368SOL     OW 9129   6.356   8.778   7.749
36368SOL    HW1 9130   6.310   8.691   7.766
36368SOL    HW2 9131   6.447   8.775   7.790
36369SOL     OW 9132   6.204   9.015   8.732
36369SOL    HW1 9133   6.199   9.097   8.789
36369SOL    HW2 9134   6.293   9.012   8.687
36370SOL     OW 9135   6.938   7.500   7.616
36370SOL    HW1 9136   6.973   7.459   7.532
36370SOL    HW2 9137   6.848   7.462   7.636
36371SOL     OW 9138   6.886   7.901   8.139
36371SOL    HW1 9139   6.827   7.981   8.143
36371SOL    HW2 9140   6.901   7.866   8.232
36372SOL     OW 9141   7.179   7.669   8.330
36372SOL    HW1 9142   7.095   7.668   8.384
36372SOL    HW2 9143   7.181   7.752   8.274
36373SOL     OW 9144   5.625   8.525   7.748
36373SOL    HW1 9145   5.724   8.514   7.739
36373SOL    HW2 9146   5.585   8.439   7.780
36374SOL     OW 9147   6.461   9.094   7.785
36374SOL    HW1 9148   6.384   9.059   7.731
36374SOL    HW2 9149   6.429   9.165   7.847
36375SOL     OW 9150   5.816   8.076   9.423
36375SOL    HW1 9151   5.723   8.074   9.460
36375SOL    HW2 9152   5.817   8.037   9.331
36376SOL     OW 9153   5.811   7.723  10.306
36376SOL    HW1 9154   5.846   7.706  10.398
36376SOL    HW2 9155   5.723   7.678  10.294
36377SOL     OW 9156   5.605   7.816   9.957
36377SOL    HW1 9157   5.523   7.859   9.996
36377SOL    HW2 9158   5.577   7.743   9.894
36378SOL     OW 9159   6.155   8.723  10.475
36378SOL    HW1 9160   6.062   8.716  10.438
36378SOL    HW2 9161   6.166   8.812  10.519
36379SOL     OW 9162   7.141   8.959  10.013
36379SOL    HW1 9163   7.084   8.943  10.094
36379SOL    HW2 9164   7.082   8.969   9.933
36380SOL     OW 9165   6.721   8.151  10.027
36380SOL    HW1 9166   6.778   8.229  10.002
36380SOL    HW2 9167   6.661   8.177  10.103
36381SOL     OW 9168   7.341   8.055   9.541
36381SOL    HW1 9169   7.329   8.042   9.442
36381SOL    HW2 9170   7.311   7.974   9.590
36382SOL     OW 9171   6.354   8.592  10.333
36382SOL    HW1 9172   6.276   8.609  10.393
36382SOL    HW2 9173   6.388   8.679  10.297
36383SOL     OW 9174   6.436   8.246  11.133
36383SOL    HW1 9175   6.432   8.322  11.198
36383SOL    HW2 9176   6.458   8.282  11.042
36384SOL     OW 9177   6.271   8.460   9.975
36384SOL    HW1 9178   6.340   8.444  10.045
36384SOL    HW2 9179   6.198   8.517  10.013
36385SOL     OW 9180   6.272   8.609  11.113
36385SOL    HW1 9181   6.332   8.688  11.127
36385SOL    HW2 9182   6.186   8.640  11.072
36386SOL     OW 9183   5.921   8.883  10.371
36386SOL    HW1 9184   5.843   8.852  10.318
36386SOL    HW2 9185   5.979   8.941  10.314
36387SOL     OW 9186   7.046   8.953  10.649
36387SOL    HW1 9187   7.070   9.047  10.675
36387SOL    HW2 9188   7.030   8.899  10.731
36388SOL     OW 9189   6.024   7.840  10.809
36388SOL    HW1 9190   6.106   7.784  10.818
36388SOL    HW2 9191   5.943   7.782  10.813
36389SOL     OW 9192   7.189   7.895  10.047
36389SOL    HW1 9193   7.115   7.941   9.997
36389SOL    HW2 9194   7.240   7.963  10.100
36390SOL     OW 9195   5.817   9.161   9.793
36390SOL    HW1 9196   5.851   9.238   9.847
36390SOL    HW2 9197   5.861   9.161   9.703
36391SOL     OW 9198   6.713   8.789  11.000
36391SOL    HW1 9199   6.760   8.789  11.088
36391SOL    HW2 9200   6.665   8.702  10.989
36392SOL     OW 9201   5.816   8.882   9.848
36392SOL    HW1 9202   5.790   8.978   9.848
36392SOL    HW2 9203   5.745   8.828   9.893
36393SOL     OW 9204   5.826   8.539  10.196
36393SOL    HW1 9205   5.840   8.455  10.248
36393SOL    HW2 9206   5.771   8.603  10.251
36394SOL     OW 9207   6.206   9.234  10.749
36394SOL    HW1 9208   6.114   9.217  10.784
36394SOL    HW2 9209   6.234   9.326  10.775
36395SOL     OW 9210   6.192   8.412   9.433
36395SOL    HW1 9211   6.199   8.496   9.379
36395SOL    HW2 9212   6.238   8.425   9.521
36396SOL     OW 9213   7.180   7.562  10.790
36396SOL    HW1 9214   7.162   7.629  10.718
36396SOL    HW2 9215   7.177   7.608  10.879
36397SOL     OW 9216   5.708   8.091   9.873
36397SOL    HW1 9217   5.663   8.003   9.890
36397SOL    HW2 9218   5.707   8.145   9.957
36398SOL     OW 9219   7.428   9.215   9.669
36398SOL    HW1 9220   7.482   9.186   9.749
36398SOL    HW2 9221   7.458   9.305   9.640
36399SOL     OW 9222   5.613   9.044   9.427
36399SOL    HW1 9223   5.594   8.948   9.448
36399SOL    HW2 9224   5.580   9.102   9.502
36400SOL     OW 9225   7.275   8.370   9.922
36400SOL    HW1 9226   7.370   8.341   9.930
36400SOL    HW2 9227   7.267   8.435   9.847
36401SOL     OW 9228   7.227   8.556   9.742
36401SOL    HW1 9229   7.313   8.558   9.690
36401SOL    HW2 9230   7.241   8.603   9.830
36402SOL     OW 9231   5.699   8.185  10.907
36402SOL    HW1 9232   5.787   8.172  10.952
36402SOL    HW2 9233   5.686   8.282  10.885
36403SOL     OW 9234   6.199   8.813  10.036
36403SOL    HW1 9235   6.150   8.726  10.045
36403SOL    HW2 9236   6.176   8.856   9.949
36404SOL     OW 9237   6.879   8.676  10.733
36404SOL    HW1 9238   6.916   8.603  10.675
36404SOL    HW2 9239   6.931   8.681  10.818
36405SOL     OW 9240   6.395   7.452   9.812
36405SOL    HW1 9241   6.435   7.543   9.803
36405SOL    HW2 9242   6.295   7.460   9.818
36406SOL     OW 9243   5.783   8.424  10.574
36406SOL    HW1 9244   5.872   8.379  10.560
36406SOL    HW2 9245   5.710   8.359  10.555
36407SOL     OW 9246   7.111   8.447   9.500
36407SOL    HW1 9247   7.048   8.371   9.513
36407SOL    HW2 9248   7.159   8.465   9.586
36408SOL     OW 9249   6.773   9.240  10.926
36408SOL    HW1 9250   6.797   9.300  10.850
36408SOL    HW2 9251   6.780   9.145  10.896
36409SOL     OW 9252   5.903   7.699  11.111
36409SOL    HW1 9253   5.974   7.770  11.117
36409SOL    HW2 9254   5.815   7.738  11.139
36410SOL     OW 9255   7.052   8.865  10.263
36410SOL    HW1 9256   6.993   8.871  10.343
36410SOL    HW2 9257   7.037   8.777  10.217
36411SOL     OW 9258   7.253   9.162   9.882
36411SOL    HW1 9259   7.212   9.139   9.794
36411SOL    HW2 9260   7.235   9.088   9.947
36412SOL     OW 9261   6.184   8.177   9.580
36412SOL    HW1 9262   6.208   8.246   9.512
36412SOL    HW2 9263   6.106   8.210   9.634
36413SOL     OW 9264   6.867   7.793  10.254
36413SOL    HW1 9265   6.781   7.743  10.241
36413SOL    HW2 9266   6.929   7.739  10.310
36414SOL     OW 9267   7.162   9.110   9.617
36414SOL    HW1 9268   7.251   9.156   9.620
36414SOL    HW2 9269   7.141   9.086   9.522
36415SOL     OW 9270   6.393   8.053  10.775
36415SOL    HW1 9271   6.346   8.050  10.864
36415SOL    HW2 9272   6.342   7.998  10.709
36416SOL     OW 9273   6.980   7.917  10.984
36416SOL    HW1 9274   6.960   7.960  11.072
36416SOL    HW2 9275   7.058   7.855  10.993
36417SOL     OW 9276   6.559   8.338  10.882
36417SOL    HW1 9277   6.605   8.254  10.853
36417SOL    HW2 9278   6.503   8.372  10.807
36418SOL     OW 9279   6.577   7.858  10.552
36418SOL    HW1 9280   6.500   7.892  10.606
36418SOL    HW2 9281   6.543   7.807  10.473
36419SOL     OW 9282   6.627   8.149   9.739
36419SOL    HW1 9283   6.653   8.145   9.835
36419SOL    HW2 9284   6.542   8.098   9.725
36420SOL     OW 9285   5.662   8.259  10.099
36420SOL    HW1 9286   5.761   8.247  10.108
36420SOL    HW2 9287   5.638   8.354  10.120
36421SOL     OW 9288   5.716   9.269  10.881
36421SOL    HW1 9289   5.706   9.254  10.980
36421SOL    HW2 9290   5.630   9.305  10.845
36422SOL     OW 9291   6.451   7.796   9.505
36422SOL    HW1 9292   6.510   7.859   9.456
36422SOL    HW2 9293   6.470   7.702   9.476
36423SOL     OW 9294   7.305   8.033  11.141
36423SOL    HW1 9295   7.279   8.122  11.105
36423SOL    HW2 9296   7.303   7.965  11.068
36424SOL     OW 9297   6.948   8.592   9.855
36424SOL    HW1 9298   7.031   8.563   9.807
36424SOL    HW2 9299   6.899   8.659   9.799
36425SOL     OW 9300   6.136   7.644  10.195
36425SOL    HW1 9301   6.131   7.639  10.295
36425SOL    HW2 9302   6.138   7.740  10.166
36426SOL     OW 9303   6.594   8.904   9.787
36426SOL    HW1 9304   6.548   8.976   9.735
36426SOL    HW2 9305   6.590   8.924   9.885
36427SOL     OW 9306   5.937   9.249  10.163
36427SOL    HW1 9307   5.987   9.163  10.169
36427SOL    HW2 9308   6.002   9.326  10.160
36428SOL     OW 9309   7.381   8.514  10.183
36428SOL    HW1 9310   7.319   8.499  10.107
36428SOL    HW2 9311   7.329   8.525  10.268
36429SOL     OW 9312   6.813   8.998  10.816
36429SOL    HW1 9313   6.819   8.921  10.880
36429SOL    HW2 9314   6.761   8.972  10.736
36430SOL     OW 9315   5.907   8.391   9.552
36430SOL    HW1 9316   5.989   8.430   9.510
36430SOL    HW2 9317   5.880   8.309   9.503
36431SOL     OW 9318   7.044   8.183  10.038
36431SOL    HW1 9319   7.039   8.118  10.113
36431SOL    HW2 9320   7.124   8.242  10.051
36432SOL     OW 9321   6.047   8.714  11.037
36432SOL    HW1 9322   5.997   8.715  10.951
36432SOL    HW2 9323   5.984   8.696  11.113
36433SOL     OW 9324   6.697   9.224   9.547
36433SOL    HW1 9325   6.637   9.162   9.597
36433SOL    HW2 9326   6.728   9.180   9.462
36434SOL     OW 9327   5.788   7.733  10.808
36434SOL    HW1 9328   5.708   7.793  10.795
36434SOL    HW2 9329   5.778   7.684  10.894
36435SOL     OW 9330   7.218   8.825   9.391
36435SOL    HW1 9331   7.186   8.919   9.381
36435SOL    HW2 9332   7.142   8.762   9.379
36436SOL     OW 9333   6.050   9.191   9.633
36436SOL    HW1 9334   6.083   9.230   9.719
36436SOL    HW2 9335   6.126   9.184   9.568
36437SOL     OW 9336   6.986   7.555   9.736
36437SOL    HW1 9337   6.962   7.518   9.646
36437SOL    HW2 9338   7.085   7.571   9.740
36438SOL     OW 9339   5.835   9.233  10.551
36438SOL    HW1 9340   5.892   9.168  10.601
36438SOL    HW2 9341   5.819   9.200  10.458
36439SOL     OW 9342   6.526   9.146  10.214
36439SOL    HW1 9343   6.606   9.089  10.235
36439SOL    HW2 9344   6.477   9.106  10.137
36440SOL     OW 9345   5.968   8.148   9.790
36440SOL    HW1 9346   6.013   8.058   9.787
36440SOL    HW2 9347   5.874   8.137   9.823
36441SOL     OW 9348   7.133   7.670  11.039
36441SOL    HW1 9349   7.128   7.707  11.131
36441SOL    HW2 9350   7.061   7.601  11.027
36442SOL     OW 9351   6.200   7.570   9.427
36442SOL    HW1 9352   6.298   7.548   9.434
36442SOL    HW2 9353   6.169   7.553   9.334
36443SOL     OW 9354   6.367   7.712  11.059
36443SOL    HW1 9355   6.434   7.651  11.102
36443SOL    HW2 9356   6.294   7.731  11.124
36444SOL     OW 9357   6.474   8.962  10.505
36444SOL    HW1 9358   6.451   8.937  10.411
36444SOL    HW2 9359   6.535   8.893  10.544
36445SOL     OW 9360   6.937   8.038  10.743
36445SOL    HW1 9361   6.965   7.995  10.828
36445SOL    HW2 9362   6.962   8.134  10.744
36446SOL     OW 9363   6.389   8.850  10.234
36446SOL    HW1 9364   6.479   8.864  10.192
36446SOL    HW2 9365   6.318   8.852  10.163
36447SOL     OW 9366   6.508   7.951  10.209
36447SOL    HW1 9367   6.483   7.942  10.113
36447SOL    HW2 9368   6.556   7.869  10.240
36448SOL     OW 9369   6.125   7.512   9.822
36448SOL    HW1 9370   6.044   7.513   9.880
36448SOL    HW2 9371   6.128   7.595   9.767
36449SOL     OW 9372   7.020   8.636   9.351
36449SOL    HW1 9373   7.052   8.560   9.408
36449SOL    HW2 9374   6.928   8.663   9.381
36450SOL     OW 9375   5.883   7.483   9.481
36450SOL    HW1 9376   5.932   7.567   9.460
36450SOL    HW2 9377   5.945   7.418   9.526
36451SOL     OW 9378   6.521   7.684   9.790
36451SOL    HW1 9379   6.473   7.725   9.712
36451SOL    HW2 9380   6.620   7.682   9.771
36452SOL     OW 9381   6.662   8.131  10.774
36452SOL    HW1 9382   6.582   8.070  10.777
36452SOL    HW2 9383   6.743   8.078  10.750
36453SOL     OW 9384   6.813   9.018  10.103
36453SOL    HW1 9385   6.834   9.092  10.038
36453SOL    HW2 9386   6.881   9.018  10.176
36454SOL     OW 9387   6.045   8.600  10.051
36454SOL    HW1 9388   5.974   8.573  10.116
36454SOL    HW2 9389   6.019   8.572   9.958
36455SOL     OW 9390   6.857   9.245   9.901
36455SOL    HW1 9391   6.901   9.309   9.837
36455SOL    HW2 9392   6.807   9.297   9.971
36456SOL     OW 9393   6.618   7.997   9.326
36456SOL    HW1 9394   6.577   8.079   9.287
36456SOL    HW2 9395   6.682   8.023   9.399
36457SOL     OW 9396   5.664   8.004  10.696
36457SOL    HW1 9397   5.756   8.003  10.655
36457SOL    HW2 9398   5.658   8.078  10.763
36458SOL     OW 9399   6.147   7.670  10.457
36458SOL    HW1 9400   6.185   7.586  10.494
36458SOL    HW2 9401   6.059   7.689  10.501
36459SOL     OW 9402   6.452   7.902   9.952
36459SOL    HW1 9403   6.420   7.974   9.890
36459SOL    HW2 9404   6.476   7.821   9.899
36460SOL     OW 9405   6.603   7.487  10.063
36460SOL    HW1 9406   6.531   7.492   9.994
36460SOL    HW2 9407   6.579   7.418  10.132
36461SOL     OW 9408   7.015   8.621  10.177
36461SOL    HW1 9409   6.960   8.537  10.170
36461SOL    HW2 9410   7.041   8.650  10.085
36462SOL     OW 9411   7.052   8.038  10.302
36462SOL    HW1 9412   7.022   7.943  10.309
36462SOL    HW2 9413   7.125   8.054  10.368
36463SOL     OW 9414   7.443   8.281   9.687
36463SOL    HW1 9415   7.485   8.217   9.751
36463SOL    HW2 9416   7.405   8.230   9.609
36464SOL     OW 9417   6.074   8.833   9.484
36464SOL    HW1 9418   5.987   8.818   9.531
36464SOL    HW2 9419   6.057   8.859   9.389
36465SOL     OW 9420   7.250   8.728   9.967
36465SOL    HW1 9421   7.349   8.736   9.981
36465SOL    HW2 9422   7.205   8.812   9.998
36466SOL     OW 9423   6.976   8.023   9.388
36466SOL    HW1 9424   6.922   8.002   9.469
36466SOL    HW2 9425   7.067   7.982   9.397
36467SOL     OW 9426   6.113   7.704   9.638
36467SOL    HW1 9427   6.140   7.645   9.563
36467SOL    HW2 9428   6.113   7.799   9.607
36468SOL     OW 9429   7.340   8.671  10.898
36468SOL    HW1 9430   7.431   8.632  10.885
36468SOL    HW2 9431   7.348   8.767  10.922
36469SOL     OW 9432   6.650   8.795  10.650
36469SOL    HW1 9433   6.570   8.772  10.705
36469SOL    HW2 9434   6.733   8.769  10.699
36470SOL     OW 9435   7.178   9.077  10.935
36470SOL    HW1 9436   7.205   9.111  10.845
36470SOL    HW2 9437   7.257   9.039  10.981
36471SOL     OW 9438   6.697   8.643  10.410
36471SOL    HW1 9439   6.657   8.687  10.491
36471SOL    HW2 9440   6.656   8.680  10.327
36472SOL     OW 9441   7.224   8.547  10.389
36472SOL    HW1 9442   7.229   8.628  10.448
36472SOL    HW2 9443   7.138   8.549  10.338
36473SOL     OW 9444   6.501   7.537  10.712
36473SOL    HW1 9445   6.526   7.517  10.617
36473SOL    HW2 9446   6.573   7.593  10.754
36474SOL     OW 9447   6.566   8.564  11.029
36474SOL    HW1 9448   6.467   8.570  11.039
36474SOL    HW2 9449   6.589   8.484  10.973
36475SOL     OW 9450   6.291   8.498   9.678
36475SOL    HW1 9451   6.277   8.505   9.777
36475SOL    HW2 9452   6.375   8.447   9.660
36476SOL     OW 9453   5.996   8.261  10.561
36476SOL    HW1 9454   6.082   8.273  10.611
36476SOL    HW2 9455   5.954   8.174  10.588
36477SOL     OW 9456   6.860   7.834  10.572
36477SOL    HW1 9457   6.881   7.908  10.636
36477SOL    HW2 9458   6.771   7.851  10.529
36478SOL     OW 9459   5.650   9.012  10.641
36478SOL    HW1 9460   5.604   9.094  10.607
36478SOL    HW2 9461   5.748   9.031  10.650
36479SOL     OW 9462   5.953   8.548   9.811
36479SOL    HW1 9463   5.946   8.631   9.755
36479SOL    HW2 9464   5.957   8.468   9.751
36480SOL     OW 9465   6.152   7.985  10.175
36480SOL    HW1 9466   6.164   8.051  10.101
36480SOL    HW2 9467   6.198   8.019  10.258
36481SOL     OW 9468   6.838   8.796   9.698
36481SOL    HW1 9469   6.888   8.873   9.738
36481SOL    HW2 9470   6.743   8.798   9.730
36482SOL     OW 9471   6.858   8.893  10.452
36482SOL    HW1 9472   6.905   8.906  10.539
36482SOL    HW2 9473   6.792   8.819  10.461
36483SOL     OW 9474   7.168   8.087   9.782
36483SOL    HW1 9475   7.137   8.148   9.855
36483SOL    HW2 9476   7.218   8.139   9.713
36484SOL     OW 9477   5.940   8.958  10.639
36484SOL    HW1 9478   5.919   8.914  10.552
36484SOL    HW2 9479   6.037   8.984  10.642
36485SOL     OW 9480   5.988   8.199  10.908
36485SOL    HW1 9481   6.056   8.254  10.861
36485SOL    HW2 9482   6.028   8.111  10.935
36486SOL     OW 9483   7.173   8.227  10.980
36486SOL    HW1 9484   7.081   8.265  10.975
36486SOL    HW2 9485   7.233   8.274  10.915
36487SOL     OW 9486   6.599   7.553  11.080
36487SOL    HW1 9487   6.605   7.638  11.028
36487SOL    HW2 9488   6.631   7.477  11.023
36488SOL     OW 9489   6.090   7.498  11.050
36488SOL    HW1 9490   6.048   7.441  10.980
36488SOL    HW2 9491   6.024   7.567  11.082
36489SOL     OW 9492   6.159   8.318  10.339
36489SOL    HW1 9493   6.203   8.407  10.330
36489SOL    HW2 9494   6.096   8.318  10.416
36490SOL     OW 9495   6.946   8.310  10.355
36490SOL    HW1 9496   6.871   8.310  10.289
36490SOL    HW2 9497   6.983   8.218  10.364
36491SOL     OW 9498   6.795   7.973   9.585
36491SOL    HW1 9499   6.808   7.889   9.639
36491SOL    HW2 9500   6.766   8.047   9.645
36492SOL     OW 9501   5.893   7.661  10.541
36492SOL    HW1 9502   5.870   7.698  10.631
36492SOL    HW2 9503   5.863   7.566  10.535
36493SOL     OW 9504   5.623   8.758  10.592
36493SOL    HW1 9505   5.676   8.709  10.660
36493SOL    HW2 9506   5.645   8.856  10.597
36494SOL     OW 9507   6.318   8.082  10.374
36494SOL    HW1 9508   6.377   8.056  10.298
36494SOL    HW2 9509   6.290   8.178  10.363
36495SOL     OW 9510   7.314   8.383  11.164
36495SOL    HW1 9511   7.268   8.376  11.075
36495SOL    HW2 9512   7.252   8.427  11.230
36496SOL     OW 9513   5.893   7.511   9.928
36496SOL    HW1 9514   5.882   7.605   9.961
36496SOL    HW2 9515   5.888   7.448  10.005
36497SOL     OW 9516   7.208   7.815   9.684
36497SOL    HW1 9517   7.210   7.739   9.748
36497SOL    HW2 9518   7.160   7.892   9.724
36498SOL     OW 9519   6.609   8.214  10.276
36498SOL    HW1 9520   6.624   8.235  10.372
36498SOL    HW2 9521   6.579   8.119  10.267
36499SOL     OW 9522   6.566   9.021  11.010
36499SOL    HW1 9523   6.546   9.065  10.922
36499SOL    HW2 9524   6.605   8.930  10.994
36500SOL     OW 9525   7.445   8.966  10.915
36500SOL    HW1 9526   7.459   8.993  10.820
36500SOL    HW2 9527   7.528   8.988  10.968
36501SOL     OW 9528   5.936   8.346  11.114
36501SOL    HW1 9529   6.012   8.390  11.162
36501SOL    HW2 9530   5.971   8.299  11.032
36502SOL     OW 9531   7.126   7.722   9.435
36502SOL    HW1 9532   7.065   7.647   9.458
36502SOL    HW2 9533   7.148   7.774   9.518
36503SOL     OW 9534   6.889   8.286   9.352
36503SOL    HW1 9535   6.923   8.193   9.367
36503SOL    HW2 9536   6.907   8.313   9.257
36504SOL     OW 9537   6.654   8.781  10.159
36504SOL    HW1 9538   6.661   8.697  10.104
36504SOL    HW2 9539   6.716   8.850  10.123
36505SOL     OW 9540   5.905   8.258  10.259
36505SOL    HW1 9541   5.998   8.294  10.264
36505SOL    HW2 9542   5.899   8.173  10.311
36506SOL     OW 9543   5.925   7.957  10.316
36506SOL    HW1 9544   5.873   7.874  10.299
36506SOL    HW2 9545   6.002   7.962  10.252
36507SOL     OW 9546   6.724   7.828  10.988
36507SOL    HW1 9547   6.679   7.891  11.052
36507SOL    HW2 9548   6.817   7.859  10.971
36508SOL     OW 9549   6.746   7.655  10.787
36508SOL    HW1 9550   6.746   7.719  10.864
36508SOL    HW2 9551   6.774   7.703  10.704
36509SOL     OW 9552   5.594   8.774   9.510
36509SOL    HW1 9553   5.501   8.795   9.479
36509SOL    HW2 9554   5.604   8.675   9.523
36510SOL     OW 9555   5.674   9.249  10.237
36510SOL    HW1 9556   5.632   9.163  10.210
36510SOL    HW2 9557   5.768   9.252  10.203
36511SOL     OW 9558   6.090   9.016  10.220
36511SOL    HW1 9559   6.156   9.090  10.229
36511SOL    HW2 9560   6.134   8.937  10.178
36512SOL     OW 9561   6.588   8.244  10.548
36512SOL    HW1 9562   6.629   8.212  10.634
36512SOL    HW2 9563   6.492   8.217  10.545
36513SOL     OW 9564   5.626   7.992  10.424
36513SOL    HW1 9565   5.711   7.959  10.383
36513SOL    HW2 9566   5.639   8.007  10.522
36514SOL     OW 9567   5.775   7.968  11.032
36514SOL    HW1 9568   5.834   7.928  10.962
36514SOL    HW2 9569   5.717   8.039  10.991
36515SOL     OW 9570   6.955   8.398  10.970
36515SOL    HW1 9571   6.994   8.487  10.990
36515SOL    HW2 9572   6.965   8.378  10.873
36516SOL     OW 9573   6.401   8.020   9.635
36516SOL    HW1 9574   6.408   7.931   9.589
36516SOL    HW2 9575   6.307   8.054   9.627
36517SOL     OW 9576   7.243   8.052  10.516
36517SOL    HW1 9577   7.205   7.983  10.578
36517SOL    HW2 9578   7.325   8.016  10.472
36518SOL     OW 9579   5.838   9.012  11.054
36518SOL    HW1 9580   5.808   9.069  11.130
36518SOL    HW2 9581   5.831   8.915  11.080
36519SOL     OW 9582   6.257   7.912  10.579
36519SOL    HW1 9583   6.223   7.823  10.549
36519SOL    HW2 9584   6.283   7.966  10.499
36520SOL     OW 9585   6.516   9.126  10.775
36520SOL    HW1 9586   6.492   9.108  10.680
36520SOL    HW2 9587   6.546   9.220  10.785
36521SOL     OW 9588   6.059   7.948   9.501
36521SOL    HW1 9589   6.120   8.028   9.505
36521SOL    HW2 9590   5.964   7.979   9.508
36522SOL     OW 9591   5.745   8.585  10.776
36522SOL    HW1 9592   5.767   8.524  10.852
36522SOL    HW2 9593   5.755   8.536  10.690
36523SOL     OW 9594   6.933   8.507  10.544
36523SOL    HW1 9595   6.957   8.444  10.470
36523SOL    HW2 9596   6.843   8.547  10.526
36524SOL     OW 9597   6.888   8.303   9.619
36524SOL    HW1 9598   6.802   8.272   9.661
36524SOL    HW2 9599   6.884   8.289   9.520
36525SOL     OW 9600   7.345   9.195  10.464
36525SOL    HW1 9601   7.406   9.225  10.391
36525SOL    HW2 9602   7.307   9.106  10.442
36526SOL     OW 9603   6.838   9.179  10.438
36526SOL    HW1 9604   6.922   9.184  10.384
36526SOL    HW2 9605   6.815   9.083  10.456
36527SOL     OW 9606   5.669   8.706  10.332
36527SOL    HW1 9607   5.664   8.705  10.432
36527SOL    HW2 9608   5.586   8.665  10.294
36528SOL     OW 9609   6.274   9.110  11.026
36528SOL    HW1 9610   6.218   9.191  11.035
36528SOL    HW2 9611   6.326   9.114  10.940
36529SOL     OW 9612   7.312   7.583   9.833
36529SOL    HW1 9613   7.385   7.566   9.766
36529SOL    HW2 9614   7.281   7.496   9.871
36530SOL     OW 9615   6.974   9.021   9.787
36530SOL    HW1 9616   7.041   9.033   9.713
36530SOL    HW2 9617   6.934   9.110   9.810
36531SOL     OW 9618   5.716   9.242  11.161
36531SOL    HW1 9619   5.675   9.168  11.214
36531SOL    HW2 9620   5.780   9.293  11.219
36532SOL     OW 9621   6.866   8.375   9.982
36532SOL    HW1 9622   6.926   8.294   9.984
36532SOL    HW2 9623   6.906   8.444   9.922
36533SOL     OW 9624   6.416   8.721  10.732
36533SOL    HW1 9625   6.411   8.754  10.827
36533SOL    HW2 9626   6.330   8.740  10.686
36534SOL     OW 9627   7.236   9.168  10.704
36534SOL    HW1 9628   7.289   9.178  10.620
36534SOL    HW2 9629   7.209   9.258  10.738
36535SOL     OW 9630   7.427   7.623  10.273
36535SOL    HW1 9631   7.466   7.538  10.237
36535SOL    HW2 9632   7.329   7.625  10.254
36536SOL     OW 9633   5.849   7.774  10.030
36536SOL    HW1 9634   5.770   7.825   9.996
36536SOL    HW2 9635   5.840   7.759  10.128
36537SOL     OW 9636   6.780   9.060   9.341
36537SOL    HW1 9637   6.786   8.967   9.378
36537SOL    HW2 9638   6.721   9.060   9.261
36538SOL     OW 9639   6.408   8.450  10.682
36538SOL    HW1 9640   6.448   8.449  10.590
36538SOL    HW2 9641   6.418   8.542  10.722
36539SOL     OW 9642   6.502   8.358   9.601
36539SOL    HW1 9643   6.565   8.396   9.533
36539SOL    HW2 9644   6.542   8.275   9.640
36540SOL     OW 9645   7.090   9.055   9.354
36540SOL    HW1 9646   6.998   9.092   9.361
36540SOL    HW2 9647   7.128   9.075   9.264
36541SOL     OW 9648   5.958   8.736  10.800
36541SOL    HW1 9649   5.945   8.829  10.766
36541SOL    HW2 9650   5.874   8.684  10.787
36542SOL     OW 9651   7.200   8.740  10.599
36542SOL    HW1 9652   7.260   8.743  10.679
36542SOL    HW2 9653   7.125   8.804  10.612
36543SOL     OW 9654   6.625   8.546  10.006
36543SOL    HW1 9655   6.555   8.499  10.060
36543SOL    HW2 9656   6.684   8.478   9.963
36544SOL     OW 9657   6.600   7.684  10.281
36544SOL    HW1 9658   6.592   7.648  10.188
36544SOL    HW2 9659   6.598   7.608  10.346
36545SOL     OW 9660   6.176   8.935   9.801
36545SOL    HW1 9661   6.218   8.877   9.731
36545SOL    HW2 9662   6.132   9.014   9.757
36546SOL     OW 9663   7.295   7.833  10.691
36546SOL    HW1 9664   7.368   7.902  10.695
36546SOL    HW2 9665   7.323   7.758  10.632
36547SOL     OW 9666   5.841   8.796   9.600
36547SOL    HW1 9667   5.745   8.797   9.573
36547SOL    HW2 9668   5.853   8.849   9.684
36548SOL     OW 9669   5.691   8.461  11.036
36548SOL    HW1 9670   5.614   8.428  11.090
36548SOL    HW2 9671   5.776   8.431  11.078
36549SOL     OW 9672   6.258   7.651  10.799
36549SOL    HW1 9673   6.348   7.635  10.759
36549SOL    HW2 9674   6.266   7.656  10.898
36550SOL     OW 9675   5.661   7.793   9.343
36550SOL    HW1 9676   5.569   7.765   9.314
36550SOL    HW2 9677   5.692   7.870   9.287
36551SOL     OW 9678   7.026   8.304  10.708
36551SOL    HW1 9679   6.969   8.356  10.645
36551SOL    HW2 9680   7.122   8.316  10.684
36552SOL     OW 9681   5.658   7.614   9.628
36552SOL    HW1 9682   5.641   7.697   9.574
36552SOL    HW2 9683   5.748   7.577   9.606
36553SOL     OW 9684   6.769   8.783   9.429
36553SOL    HW1 9685   6.670   8.772   9.431
36553SOL    HW2 9686   6.803   8.798   9.522
36554SOL     OW 9687   6.199   8.290  10.741
36554SOL    HW1 9688   6.255   8.371  10.724
36554SOL    HW2 9689   6.258   8.210  10.744
36555SOL     OW 9690   7.079   9.215  10.269
36555SOL    HW1 9691   7.112   9.279  10.200
36555SOL    HW2 9692   7.145   9.209  10.344
36556SOL     OW 9693   6.302   8.013  11.018
36556SOL    HW1 9694   6.321   8.078  11.092
36556SOL    HW2 9695   6.362   7.933  11.027
36557SOL     OW 9696   7.036   8.668  10.943
36557SOL    HW1 9697   7.027   8.658  11.042
36557SOL    HW2 9698   7.132   8.661  10.917
36558SOL     OW 9699   5.976   9.189  10.870
36558SOL    HW1 9700   5.885   9.230  10.868
36558SOL    HW2 9701   5.969   9.095  10.902
36559SOL     OW 9702   7.260   8.331  10.564
36559SOL    HW1 9703   7.233   8.242  10.527
36559SOL    HW2 9704   7.261   8.399  10.491
36560SOL     OW 9705   6.811   7.773   9.759
36560SOL    HW1 9706   6.876   7.699   9.748
36560SOL    HW2 9707   6.831   7.823   9.843
36561SOL     OW 9708   6.180   8.193   9.962
36561SOL    HW1 9709   6.230   8.278   9.943
36561SOL    HW2 9710   6.092   8.195   9.914
36562SOL     OW 9711   7.363   7.790  10.952
36562SOL    HW1 9712   7.346   7.821  10.858
36562SOL    HW2 9713   7.279   7.753  10.990
36563SOL     OW 9714   7.316   8.382  10.827
36563SOL    HW1 9715   7.354   8.473  10.842
36563SOL    HW2 9716   7.308   8.365  10.728
36564SOL     OW 9717   6.445   8.822   9.326
36564SOL    HW1 9718   6.399   8.837   9.414
36564SOL    HW2 9719   6.489   8.907   9.296
36565SOL     OW 9720   6.247   9.238  10.263
36565SOL    HW1 9721   6.201   9.326  10.250
36565SOL    HW2 9722   6.346   9.250  10.256
36566SOL     OW 9723   6.445   8.404  10.171
36566SOL    HW1 9724   6.499   8.335  10.219
36566SOL    HW2 9725   6.413   8.473  10.237
36567SOL     OW 9726   6.669   8.432   9.397
36567SOL    HW1 9727   6.646   8.485   9.315
36567SOL    HW2 9728   6.750   8.376   9.378
36568SOL     OW 9729   7.447   9.017  10.161
36568SOL    HW1 9730   7.376   9.005  10.091
36568SOL    HW2 9731   7.448   8.938  10.221
36569SOL     OW 9732   5.807   8.762  11.154
36569SOL    HW1 9733   5.742   8.689  11.133
36569SOL    HW2 9734   5.811   8.776  11.252
36570SOL     OW 9735   5.665   8.688   9.963
36570SOL    HW1 9736   5.664   8.641  10.051
36570SOL    HW2 9737   5.747   8.660   9.912
36571SOL     OW 9738   6.258   8.839  10.934
36571SOL    HW1 9739   6.180   8.789  10.972
36571SOL    HW2 9740   6.255   8.934  10.965
36572SOL     OW 9741   7.410   7.640  10.537
36572SOL    HW1 9742   7.406   7.550  10.581
36572SOL    HW2 9743   7.413   7.629  10.438
36573SOL     OW 9744   6.014   7.872   9.830
36573SOL    HW1 9745   6.044   7.800   9.768
36573SOL    HW2 9746   5.975   7.832   9.913
36574SOL     OW 9747   7.291   8.935  10.414
36574SOL    HW1 9748   7.198   8.910  10.387
36574SOL    HW2 9749   7.317   8.885  10.496
36575SOL     OW 9750   5.903   7.995  10.590
36575SOL    HW1 9751   5.941   7.936  10.662
36575SOL    HW2 9752   5.943   7.969  10.502
36576SOL     OW 9753   6.398   9.034   9.997
36576SOL    HW1 9754   6.430   9.044   9.903
36576SOL    HW2 9755   6.319   8.972   9.999
36577SOL     OW 9756   7.010   7.662  10.422
36577SOL    HW1 9757   7.062   7.597  10.477
36577SOL    HW2 9758   6.961   7.725  10.483
36578SOL     OW 9759   6.587   7.482  10.464
36578SOL    HW1 9760   6.524   7.410  10.433
36578SOL    HW2 9761   6.680   7.446  10.464
36579SOL     OW 9762   6.356   8.778   9.611
36579SOL    HW1 9763   6.310   8.691   9.628
36579SOL    HW2 9764   6.447   8.775   9.652
36580SOL     OW 9765   6.204   9.015  10.594
36580SOL    HW1 9766   6.199   9.097  10.651
36580SOL    HW2 9767   6.293   9.012  10.549
36581SOL     OW 9768   6.938   7.500   9.478
36581SOL    HW1 9769   6.973   7.459   9.394
36581SOL    HW2 9770   6.848   7.462   9.498
36582SOL     OW 9771   6.886   7.901  10.001
36582SOL    HW1 9772   6.827   7.981  10.005
36582SOL    HW2 9773   6.901   7.866  10.094
36583SOL     OW 9774   7.179   7.669  10.192
36583SOL    HW1 9775   7.095   7.668  10.246
36583SOL    HW2 9776   7.181   7.752  10.136
36584SOL     OW 9777   5.625   8.525   9.610
36584SOL    HW1 9778   5.724   8.514   9.601
36584SOL    HW2 9779   5.585   8.439   9.642
36585SOL     OW 9780   6.461   9.094   9.647
36585SOL    HW1 9781   6.384   9.059   9.593
36585SOL    HW2 9782   6.429   9.165   9.709
36586SOL     OW 9783   5.816   8.076  11.285
36586SOL    HW1 9784   5.723   8.074  11.322
36586SOL    HW2 9785   5.817   8.037  11.193
36587SOL     OW 9786   5.811   7.723  12.168
36587SOL    HW1 9787   5.846   7.706  12.260
36587SOL    HW2 9788   5.723   7.678  12.156
36588SOL     OW 9789   5.605   7.816  11.819
36588SOL    HW1 9790   5.523   7.859  11.858
36588SOL    HW2 9791   5.577   7.743  11.756
36589SOL     OW 9792   6.155   8.723  12.337
36589SOL    HW1 9793   6.062   8.716  12.300
36589SOL    HW2 9794   6.166   8.812  12.381
36590SOL     OW 9795   7.141   8.959  11.875
36590SOL    HW1 9796   7.084   8.943  11.956
36590SOL    HW2 9797   7.082   8.969  11.795
36591SOL     OW 9798   6.721   8.151  11.889
36591SOL    HW1 9799   6.778   8.229  11.864
36591SOL    HW2 9800   6.661   8.177  11.965
36592SOL     OW 9801   7.341   8.055  11.403
36592SOL    HW1 9802   7.329   8.042  11.304
36592SOL    HW2 9803   7.311   7.974  11.452
36593SOL     OW 9804   6.354   8.592  12.195
36593SOL    HW1 9805   6.276   8.609  12.255
36593SOL    HW2 9806   6.388   8.679  12.159
36594SOL     OW 9807   6.271   8.460  11.837
36594SOL    HW1 9808   6.340   8.444  11.907
36594SOL    HW2 9809   6.198   8.517  11.875
36595SOL     OW 9810   5.921   8.883  12.233
36595SOL    HW1 9811   5.843   8.852  12.180
36595SOL    HW2 9812   5.979   8.941  12.176
36596SOL     OW 9813   7.046   8.953  12.511
36596SOL    HW1 9814   7.070   9.047  12.537
36596SOL    HW2 9815   7.030   8.899  12.593
36597SOL     OW 9816   7.189   7.895  11.909
36597SOL    HW1 9817   7.115   7.941  11.859
36597SOL    HW2 9818   7.240   7.963  11.962
36598SOL     OW 9819   5.817   9.161  11.655
36598SOL    HW1 9820   5.851   9.238  11.709
36598SOL    HW2 9821   5.861   9.161  11.565
36599SOL     OW 9822   5.816   8.882  11.710
36599SOL    HW1 9823   5.790   8.978  11.710
36599SOL    HW2 9824   5.745   8.828  11.755
36600SOL     OW 9825   5.826   8.539  12.058
36600SOL    HW1 9826   5.840   8.455  12.110
36600SOL    HW2 9827   5.771   8.603  12.113
36601SOL     OW 9828   6.206   9.234  12.611
36601SOL    HW1 9829   6.114   9.217  12.646
36601SOL    HW2 9830   6.234   9.326  12.637
36602SOL     OW 9831   6.192   8.412  11.295
36602SOL    HW1 9832   6.199   8.496  11.241
36602SOL    HW2 9833   6.238   8.425  11.383
36603SOL     OW 9834   7.180   7.562  12.652
36603SOL    HW1 9835   7.162   7.629  12.580
36603SOL    HW2 9836   7.177   7.608  12.741
36604SOL     OW 9837   5.708   8.091  11.735
36604SOL    HW1 9838   5.663   8.003  11.752
36604SOL    HW2 9839   5.707   8.145  11.819
36605SOL     OW 9840   7.428   9.215  11.531
36605SOL    HW1 9841   7.482   9.186  11.611
36605SOL    HW2 9842   7.458   9.305  11.502
36606SOL     OW 9843   5.613   9.044  11.289
36606SOL    HW1 9844   5.594   8.948  11.310
36606SOL    HW2 9845   5.580   9.102  11.364
36607SOL     OW 9846   7.275   8.370  11.784
36607SOL    HW1 9847   7.370   8.341  11.792
36607SOL    HW2 9848   7.267   8.435  11.709
36608SOL     OW 9849   7.227   8.556  11.604
36608SOL    HW1 9850   7.313   8.558  11.552
36608SOL    HW2 9851   7.241   8.603  11.692
36609SOL     OW 9852   6.199   8.813  11.898
36609SOL    HW1 9853   6.150   8.726  11.907
36609SOL    HW2 9854   6.176   8.856  11.811
36610SOL     OW 9855   6.395   7.452  11.674
36610SOL    HW1 9856   6.435   7.543  11.665
36610SOL    HW2 9857   6.295   7.460  11.680
36611SOL     OW 9858   5.783   8.424  12.436
36611SOL    HW1 9859   5.872   8.379  12.422
36611SOL    HW2 9860   5.710   8.359  12.417
36612SOL     OW 9861   7.111   8.447  11.362
36612SOL    HW1 9862   7.048   8.371  11.375
36612SOL    HW2 9863   7.159   8.465  11.448
36613SOL     OW 9864   5.903   7.699  12.973
36613SOL    HW1 9865   5.974   7.770  12.979
36613SOL    HW2 9866   5.815   7.738  13.001
36614SOL     OW 9867   7.052   8.865  12.125
36614SOL    HW1 9868   6.993   8.871  12.205
36614SOL    HW2 9869   7.037   8.777  12.079
36615SOL     OW 9870   7.253   9.162  11.744
36615SOL    HW1 9871   7.212   9.139  11.656
36615SOL    HW2 9872   7.235   9.088  11.809
36616SOL     OW 9873   6.184   8.177  11.442
36616SOL    HW1 9874   6.208   8.246  11.374
36616SOL    HW2 9875   6.106   8.210  11.496
36617SOL     OW 9876   6.867   7.793  12.116
36617SOL    HW1 9877   6.781   7.743  12.103
36617SOL    HW2 9878   6.929   7.739  12.172
36618SOL     OW 9879   7.162   9.110  11.479
36618SOL    HW1 9880   7.251   9.156  11.482
36618SOL    HW2 9881   7.141   9.086  11.384
36619SOL     OW 9882   6.393   8.053  12.637
36619SOL    HW1 9883   6.346   8.050  12.726
36619SOL    HW2 9884   6.342   7.998  12.571
36620SOL     OW 9885   6.577   7.858  12.414
36620SOL    HW1 9886   6.500   7.892  12.468
36620SOL    HW2 9887   6.543   7.807  12.335
36621SOL     OW 9888   6.627   8.149  11.601
36621SOL    HW1 9889   6.653   8.145  11.697
36621SOL    HW2 9890   6.542   8.098  11.587
36622SOL     OW 9891   5.662   8.259  11.961
36622SOL    HW1 9892   5.761   8.247  11.970
36622SOL    HW2 9893   5.638   8.354  11.982
36623SOL     OW 9894   5.716   9.269  12.743
36623SOL    HW1 9895   5.706   9.254  12.842
36623SOL    HW2 9896   5.630   9.305  12.707
36624SOL     OW 9897   6.451   7.796  11.367
36624SOL    HW1 9898   6.510   7.859  11.318
36624SOL    HW2 9899   6.470   7.702  11.338
36625SOL     OW 9900   6.948   8.592  11.717
36625SOL    HW1 9901   7.031   8.563  11.669
36625SOL    HW2 9902   6.899   8.659  11.661
36626SOL     OW 9903   6.136   7.644  12.057
36626SOL    HW1 9904   6.131   7.639  12.157
36626SOL    HW2 9905   6.138   7.740  12.028
36627SOL     OW 9906   6.594   8.904  11.649
36627SOL    HW1 9907   6.548   8.976  11.597
36627SOL    HW2 9908   6.590   8.924  11.747
36628SOL     OW 9909   5.937   9.249  12.025
36628SOL    HW1 9910   5.987   9.163  12.031
36628SOL    HW2 9911   6.002   9.326  12.022
36629SOL     OW 9912   7.381   8.514  12.045
36629SOL    HW1 9913   7.319   8.499  11.969
36629SOL    HW2 9914   7.329   8.525  12.130
36630SOL     OW 9915   5.907   8.391  11.414
36630SOL    HW1 9916   5.989   8.430  11.372
36630SOL    HW2 9917   5.880   8.309  11.365
36631SOL     OW 9918   7.044   8.183  11.900
36631SOL    HW1 9919   7.039   8.118  11.975
36631SOL    HW2 9920   7.124   8.242  11.913
36632SOL     OW 9921   6.697   9.224  11.409
36632SOL    HW1 9922   6.637   9.162  11.459
36632SOL    HW2 9923   6.728   9.180  11.324
36633SOL     OW 9924   5.788   7.733  12.670
36633SOL    HW1 9925   5.708   7.793  12.657
36633SOL    HW2 9926   5.778   7.684  12.756
36634SOL     OW 9927   7.218   8.825  11.253
36634SOL    HW1 9928   7.186   8.919  11.243
36634SOL    HW2 9929   7.142   8.762  11.241
36635SOL     OW 9930   6.050   9.191  11.495
36635SOL    HW1 9931   6.083   9.230  11.581
36635SOL    HW2 9932   6.126   9.184  11.430
36636SOL     OW 9933   6.986   7.555  11.598
36636SOL    HW1 9934   6.962   7.518  11.508
36636SOL    HW2 9935   7.085   7.571  11.602
36637SOL     OW 9936   5.835   9.233  12.413
36637SOL    HW1 9937   5.892   9.168  12.463
36637SOL    HW2 9938   5.819   9.200  12.320
36638SOL     OW 9939   6.526   9.146  12.076
36638SOL    HW1 9940   6.606   9.089  12.097
36638SOL    HW2 9941   6.477   9.106  11.999
36639SOL     OW 9942   5.968   8.148  11.652
36639SOL    HW1 9943   6.013   8.058  11.649
36639SOL    HW2 9944   5.874   8.137  11.685
36640SOL     OW 9945   6.200   7.570  11.289
36640SOL    HW1 9946   6.298   7.548  11.296
36640SOL    HW2 9947   6.169   7.553  11.196
36641SOL     OW 9948   6.474   8.962  12.367
36641SOL    HW1 9949   6.451   8.937  12.273
36641SOL    HW2 9950   6.535   8.893  12.406
36642SOL     OW 9951   6.389   8.850  12.096
36642SOL    HW1 9952   6.479   8.864  12.054
36642SOL    HW2 9953   6.318   8.852  12.025
36643SOL     OW 9954   6.508   7.951  12.071
36643SOL    HW1 9955   6.483   7.942  11.975
36643SOL    HW2 9956   6.556   7.869  12.102
36644SOL     OW 9957   6.125   7.512  11.684
36644SOL    HW1 9958   6.044   7.513  11.742
36644SOL    HW2 9959   6.128   7.595  11.629
36645SOL     OW 9960   7.020   8.636  11.213
36645SOL    HW1 9961   7.052   8.560  11.270
36645SOL    HW2 9962   6.928   8.663  11.243
36646SOL     OW 9963   5.883   7.483  11.343
36646SOL    HW1 9964   5.932   7.567  11.322
36646SOL    HW2 9965   5.945   7.418  11.388
36647SOL     OW 9966   6.521   7.684  11.652
36647SOL    HW1 9967   6.473   7.725  11.574
36647SOL    HW2 9968   6.620   7.682  11.633
36648SOL     OW 9969   6.813   9.018  11.965
36648SOL    HW1 9970   6.834   9.092  11.900
36648SOL    HW2 9971   6.881   9.018  12.038
36649SOL     OW 9972   6.045   8.600  11.913
36649SOL    HW1 9973   5.974   8.573  11.978
36649SOL    HW2 9974   6.019   8.572  11.820
36650SOL     OW 9975   6.857   9.245  11.763
36650SOL    HW1 9976   6.901   9.309  11.699
36650SOL    HW2 9977   6.807   9.297  11.833
36651SOL     OW 9978   6.618   7.997  11.188
36651SOL    HW1 9979   6.577   8.079  11.149
36651SOL    HW2 9980   6.682   8.023  11.261
36652SOL     OW 9981   5.664   8.004  12.558
36652SOL    HW1 9982   5.756   8.003  12.517
36652SOL    HW2 9983   5.658   8.078  12.625
36653SOL     OW 9984   6.147   7.670  12.319
36653SOL    HW1 9985   6.185   7.586  12.356
36653SOL    HW2 9986   6.059   7.689  12.363
36654SOL     OW 9987   6.452   7.902  11.814
36654SOL    HW1 9988   6.420   7.974  11.752
36654SOL    HW2 9989   6.476   7.821  11.761
36655SOL     OW 9990   6.603   7.487  11.925
36655SOL    HW1 9991   6.531   7.492  11.856
36655SOL    HW2 9992   6.579   7.418  11.994
36656SOL     OW 9993   7.015   8.621  12.039
36656SOL    HW1 9994   6.960   8.537  12.032
36656SOL    HW2 9995   7.041   8.650  11.947
36657SOL     OW 9996   7.052   8.038  12.164
36657SOL    HW1 9997   7.022   7.943  12.171
36657SOL    HW2 9998   7.125   8.054  12.230
36658SOL     OW 9999   7.443   8.281  11.549
36658SOL    HW110000   7.485   8.217  11.613
36658SOL    HW210001   7.405   8.230  11.471
36659SOL     OW10002   6.074   8.833  11.346
36659SOL    HW110003   5.987   8.818  11.393
36659SOL    HW210004   6.057   8.859  11.251
36660SOL     OW10005   7.250   8.728  11.829
36660SOL    HW110006   7.349   8.736  11.843
36660SOL    HW210007   7.205   8.812  11.860
36661SOL     OW10008   6.976   8.023  11.250
36661SOL    HW110009   6.922   8.002  11.331
36661SOL    HW210010   7.067   7.982  11.259
36662SOL     OW10011   6.113   7.704  11.500
36662SOL    HW110012   6.140   7.645  11.425
36662SOL    HW210013   6.113   7.799  11.469
36663SOL     OW10014   6.650   8.795  12.512
36663SOL    HW110015   6.570   8.772  12.567
36663SOL    HW210016   6.733   8.769  12.561
36664SOL     OW10017   6.697   8.643  12.272
36664SOL    HW110018   6.657   8.687  12.353
36664SOL    HW210019   6.656   8.680  12.189
36665SOL     OW10020   7.224   8.547  12.251
36665SOL    HW110021   7.229   8.628  12.310
36665SOL    HW210022   7.138   8.549  12.200
36666SOL     OW10023   6.501   7.537  12.574
36666SOL    HW110024   6.526   7.517  12.479
36666SOL    HW210025   6.573   7.593  12.616
36667SOL     OW10026   6.291   8.498  11.540
36667SOL    HW110027   6.277   8.505  11.639
36667SOL    HW210028   6.375   8.447  11.522
36668SOL     OW10029   5.996   8.261  12.423
36668SOL    HW110030   6.082   8.273  12.473
36668SOL    HW210031   5.954   8.174  12.450
36669SOL     OW10032   6.860   7.834  12.434
36669SOL    HW110033   6.881   7.908  12.498
36669SOL    HW210034   6.771   7.851  12.391
36670SOL     OW10035   5.650   9.012  12.503
36670SOL    HW110036   5.604   9.094  12.469
36670SOL    HW210037   5.748   9.031  12.512
36671SOL     OW10038   5.953   8.548  11.673
36671SOL    HW110039   5.946   8.631  11.617
36671SOL    HW210040   5.957   8.468  11.613
36672SOL     OW10041   6.152   7.985  12.037
36672SOL    HW110042   6.164   8.051  11.963
36672SOL    HW210043   6.198   8.019  12.120
36673SOL     OW10044   6.838   8.796  11.560
36673SOL    HW110045   6.888   8.873  11.600
36673SOL    HW210046   6.743   8.798  11.592
36674SOL     OW10047   6.858   8.893  12.314
36674SOL    HW110048   6.905   8.906  12.401
36674SOL    HW210049   6.792   8.819  12.323
36675SOL     OW10050   7.168   8.087  11.644
36675SOL    HW110051   7.137   8.148  11.717
36675SOL    HW210052   7.218   8.139  11.575
36676SOL     OW10053   5.940   8.958  12.501
36676SOL    HW110054   5.919   8.914  12.414
36676SOL    HW210055   6.037   8.984  12.504
36677SOL     OW10056   5.988   8.199  12.770
36677SOL    HW110057   6.056   8.254  12.723
36677SOL    HW210058   6.028   8.111  12.797
36678SOL     OW10059   7.173   8.227  12.842
36678SOL    HW110060   7.081   8.265  12.837
36678SOL    HW210061   7.233   8.274  12.777
36679SOL     OW10062   6.159   8.318  12.201
36679SOL    HW110063   6.203   8.407  12.192
36679SOL    HW210064   6.096   8.318  12.278
36680SOL     OW10065   6.946   8.310  12.217
36680SOL    HW110066   6.871   8.310  12.151
36680SOL    HW210067   6.983   8.218  12.226
36681SOL     OW10068   6.795   7.973  11.447
36681SOL    HW110069   6.808   7.889  11.501
36681SOL    HW210070   6.766   8.047  11.507
36682SOL     OW10071   5.893   7.661  12.403
36682SOL    HW110072   5.870   7.698  12.493
36682SOL    HW210073   5.863   7.566  12.397
36683SOL     OW10074   5.623   8.758  12.454
36683SOL    HW110075   5.676   8.709  12.522
36683SOL    HW210076   5.645   8.856  12.459
36684SOL     OW10077   6.318   8.082  12.236
36684SOL    HW110078   6.377   8.056  12.160
36684SOL    HW210079   6.290   8.178  12.225
36685SOL     OW10080   5.893   7.511  11.790
36685SOL    HW110081   5.882   7.605  11.823
36685SOL    HW210082   5.888   7.448  11.867
36686SOL     OW10083   7.208   7.815  11.546
36686SOL    HW110084   7.210   7.739  11.610
36686SOL    HW210085   7.160   7.892  11.586
36687SOL     OW10086   6.609   8.214  12.138
36687SOL    HW110087   6.624   8.235  12.234
36687SOL    HW210088   6.579   8.119  12.129
36688SOL     OW10089   6.566   9.021  12.872
36688SOL    HW110090   6.546   9.065  12.784
36688SOL    HW210091   6.605   8.930  12.856
36689SOL     OW10092   7.126   7.722  11.297
36689SOL    HW110093   7.065   7.647  11.320
36689SOL    HW210094   7.148   7.774  11.380
36690SOL     OW10095   6.889   8.286  11.214
36690SOL    HW110096   6.923   8.193  11.229
36690SOL    HW210097   6.907   8.313  11.119
36691SOL     OW10098   6.654   8.781  12.021
36691SOL    HW110099   6.661   8.697  11.966
36691SOL    HW210100   6.716   8.850  11.985
36692SOL     OW10101   5.905   8.258  12.121
36692SOL    HW110102   5.998   8.294  12.126
36692SOL    HW210103   5.899   8.173  12.173
36693SOL     OW10104   5.925   7.957  12.178
36693SOL    HW110105   5.873   7.874  12.161
36693SOL    HW210106   6.002   7.962  12.114
36694SOL     OW10107   6.724   7.828  12.850
36694SOL    HW110108   6.679   7.891  12.914
36694SOL    HW210109   6.817   7.859  12.833
36695SOL     OW10110   6.746   7.655  12.649
36695SOL    HW110111   6.746   7.719  12.726
36695SOL    HW210112   6.774   7.703  12.566
36696SOL     OW10113   5.594   8.774  11.372
36696SOL    HW110114   5.501   8.795  11.341
36696SOL    HW210115   5.604   8.675  11.385
36697SOL     OW10116   5.674   9.249  12.099
36697SOL    HW110117   5.632   9.163  12.072
36697SOL    HW210118   5.768   9.252  12.065
36698SOL     OW10119   6.090   9.016  12.082
36698SOL    HW110120   6.156   9.090  12.091
36698SOL    HW210121   6.134   8.937  12.040
36699SOL     OW10122   6.588   8.244  12.410
36699SOL    HW110123   6.629   8.212  12.496
36699SOL    HW210124   6.492   8.217  12.407
36700SOL     OW10125   5.626   7.992  12.286
36700SOL    HW110126   5.711   7.959  12.245
36700SOL    HW210127   5.639   8.007  12.384
36701SOL     OW10128   6.401   8.020  11.497
36701SOL    HW110129   6.408   7.931  11.451
36701SOL    HW210130   6.307   8.054  11.489
36702SOL     OW10131   7.243   8.052  12.378
36702SOL    HW110132   7.205   7.983  12.440
36702SOL    HW210133   7.325   8.016  12.334
36703SOL     OW10134   6.257   7.912  12.441
36703SOL    HW110135   6.223   7.823  12.411
36703SOL    HW210136   6.283   7.966  12.361
36704SOL     OW10137   6.516   9.126  12.637
36704SOL    HW110138   6.492   9.108  12.542
36704SOL    HW210139   6.546   9.220  12.647
36705SOL     OW10140   6.059   7.948  11.363
36705SOL    HW110141   6.120   8.028  11.367
36705SOL    HW210142   5.964   7.979  11.370
36706SOL     OW10143   5.745   8.585  12.638
36706SOL    HW110144   5.767   8.524  12.714
36706SOL    HW210145   5.755   8.536  12.552
36707SOL     OW10146   6.933   8.507  12.406
36707SOL    HW110147   6.957   8.444  12.332
36707SOL    HW210148   6.843   8.547  12.388
36708SOL     OW10149   6.888   8.303  11.481
36708SOL    HW110150   6.802   8.272  11.523
36708SOL    HW210151   6.884   8.289  11.382
36709SOL     OW10152   7.345   9.195  12.326
36709SOL    HW110153   7.406   9.225  12.253
36709SOL    HW210154   7.307   9.106  12.304
36710SOL     OW10155   6.838   9.179  12.300
36710SOL    HW110156   6.922   9.184  12.246
36710SOL    HW210157   6.815   9.083  12.318
36711SOL     OW10158   5.669   8.706  12.194
36711SOL    HW110159   5.664   8.705  12.294
36711SOL    HW210160   5.586   8.665  12.156
36712SOL     OW10161   7.312   7.583  11.695
36712SOL    HW110162   7.385   7.566  11.628
36712SOL    HW210163   7.281   7.496  11.733
36713SOL     OW10164   6.974   9.021  11.649
36713SOL    HW110165   7.041   9.033  11.575
36713SOL    HW210166   6.934   9.110  11.672
36714SOL     OW10167   6.866   8.375  11.844
36714SOL    HW110168   6.926   8.294  11.846
36714SOL    HW210169   6.906   8.444  11.784
36715SOL     OW10170   6.258   9.064  11.326
36715SOL    HW110171   6.267   9.074  11.227
36715SOL    HW210172   6.218   8.975  11.347
36716SOL     OW10173   7.236   9.168  12.566
36716SOL    HW110174   7.289   9.178  12.482
36716SOL    HW210175   7.209   9.258  12.600
36717SOL     OW10176   7.427   7.623  12.135
36717SOL    HW110177   7.466   7.538  12.099
36717SOL    HW210178   7.329   7.625  12.116
36718SOL     OW10179   5.849   7.774  11.892
36718SOL    HW110180   5.770   7.825  11.858
36718SOL    HW210181   5.840   7.759  11.990
36719SOL     OW10182   6.780   9.060  11.203
36719SOL    HW110183   6.786   8.967  11.240
36719SOL    HW210184   6.721   9.060  11.123
36720SOL     OW10185   6.408   8.450  12.544
36720SOL    HW110186   6.448   8.449  12.452
36720SOL    HW210187   6.418   8.542  12.584
36721SOL     OW10188   6.502   8.358  11.463
36721SOL    HW110189   6.565   8.396  11.395
36721SOL    HW210190   6.542   8.275  11.502
36722SOL     OW10191   7.090   9.055  11.216
36722SOL    HW110192   6.998   9.092  11.223
36722SOL    HW210193   7.128   9.075  11.126
36723SOL     OW10194   5.958   8.736  12.662
36723SOL    HW110195   5.945   8.829  12.628
36723SOL    HW210196   5.874   8.684  12.649
36724SOL     OW10197   7.200   8.740  12.461
36724SOL    HW110198   7.260   8.743  12.541
36724SOL    HW210199   7.125   8.804  12.474
36725SOL     OW10200   6.625   8.546  11.868
36725SOL    HW110201   6.555   8.499  11.922
36725SOL    HW210202   6.684   8.478  11.825
36726SOL     OW10203   6.600   7.684  12.143
36726SOL    HW110204   6.592   7.648  12.050
36726SOL    HW210205   6.598   7.608  12.208
36727SOL     OW10206   6.176   8.935  11.663
36727SOL    HW110207   6.218   8.877  11.593
36727SOL    HW210208   6.132   9.014  11.619
36728SOL     OW10209   7.295   7.833  12.553
36728SOL    HW110210   7.368   7.902  12.557
36728SOL    HW210211   7.323   7.758  12.494
36729SOL     OW10212   5.841   8.796  11.462
36729SOL    HW110213   5.745   8.797  11.435
36729SOL    HW210214   5.853   8.849  11.546
36730SOL     OW10215   5.661   7.793  11.205
36730SOL    HW110216   5.569   7.765  11.176
36730SOL    HW210217   5.692   7.870  11.149
36731SOL     OW10218   7.026   8.304  12.570
36731SOL    HW110219   6.969   8.356  12.507
36731SOL    HW210220   7.122   8.316  12.546
36732SOL     OW10221   5.658   7.614  11.490
36732SOL    HW110222   5.641   7.697  11.436
36732SOL    HW210223   5.748   7.577  11.468
36733SOL     OW10224   6.769   8.783  11.291
36733SOL    HW110225   6.670   8.772  11.293
36733SOL    HW210226   6.803   8.798  11.384
36734SOL     OW10227   6.199   8.290  12.603
36734SOL    HW110228   6.255   8.371  12.586
36734SOL    HW210229   6.258   8.210  12.606
36735SOL     OW10230   7.079   9.215  12.131
36735SOL    HW110231   7.112   9.279  12.062
36735SOL    HW210232   7.145   9.209  12.206
36736SOL     OW10233   5.976   9.189  12.732
36736SOL    HW110234   5.885   9.230  12.730
36736SOL    HW210235   5.969   9.095  12.764
36737SOL     OW10236   7.260   8.331  12.426
36737SOL    HW110237   7.233   8.242  12.389
36737SOL    HW210238   7.261   8.399  12.353
36738SOL     OW10239   6.811   7.773  11.621
36738SOL    HW110240   6.876   7.699  11.610
36738SOL    HW210241   6.831   7.823  11.705
36739SOL     OW10242   6.180   8.193  11.824
36739SOL    HW110243   6.230   8.278  11.805
36739SOL    HW210244   6.092   8.195  11.776
36740SOL     OW10245   7.363   7.790  12.814
36740SOL    HW110246   7.346   7.821  12.720
36740SOL    HW210247   7.279   7.753  12.852
36741SOL     OW10248   7.316   8.382  12.689
36741SOL    HW110249   7.354   8.473  12.704
36741SOL    HW210250   7.308   8.365  12.590
36742SOL     OW10251   6.445   8.822  11.188
36742SOL    HW110252   6.399   8.837  11.276
36742SOL    HW210253   6.489   8.907  11.158
36743SOL     OW10254   6.247   9.238  12.125
36743SOL    HW110255   6.201   9.326  12.112
36743SOL    HW210256   6.346   9.250  12.118
36744SOL     OW10257   6.445   8.404  12.033
36744SOL    HW110258   6.499   8.335  12.081
36744SOL    HW210259   6.413   8.473  12.099
36745SOL     OW10260   6.669   8.432  11.259
36745SOL    HW110261   6.646   8.485  11.177
36745SOL    HW210262   6.750   8.376  11.240
36746SOL     OW10263   7.447   9.017  12.023
36746SOL    HW110264   7.376   9.005  11.953
36746SOL    HW210265   7.448   8.938  12.083
36747SOL     OW10266   5.665   8.688  11.825
36747SOL    HW110267   5.664   8.641  11.913
36747SOL    HW210268   5.747   8.660  11.774
36748SOL     OW10269   7.410   7.640  12.399
36748SOL    HW110270   7.406   7.550  12.443
36748SOL    HW210271   7.413   7.629  12.300
36749SOL     OW10272   6.014   7.872  11.692
36749SOL    HW110273   6.044   7.800  11.630
36749SOL    HW210274   5.975   7.832  11.775
36750SOL     OW10275   7.291   8.935  12.276
36750SOL    HW110276   7.198   8.910  12.249
36750SOL    HW210277   7.317   8.885  12.358
36751SOL     OW10278   5.903   7.995  12.452
36751SOL    HW110279   5.941   7.936  12.524
36751SOL    HW210280   5.943   7.969  12.364
36752SOL     OW10281   6.398   9.034  11.859
36752SOL    HW110282   6.430   9.044  11.765
36752SOL    HW210283   6.319   8.972  11.861
36753SOL     OW10284   7.010   7.662  12.284
36753SOL    HW110285   7.062   7.597  12.339
36753SOL    HW210286   6.961   7.725  12.345
36754SOL     OW10287   6.587   7.482  12.326
36754SOL    HW110288   6.524   7.410  12.295
36754SOL    HW210289   6.680   7.446  12.326
36755SOL     OW10290   6.356   8.778  11.473
36755SOL    HW110291   6.310   8.691  11.490
36755SOL    HW210292   6.447   8.775  11.514
36756SOL     OW10293   6.204   9.015  12.456
36756SOL    HW110294   6.199   9.097  12.513
36756SOL    HW210295   6.293   9.012  12.411
36757SOL     OW10296   6.938   7.500  11.340
36757SOL    HW110297   6.973   7.459  11.256
36757SOL    HW210298   6.848   7.462  11.360
36758SOL     OW10299   6.886   7.901  11.863
36758SOL    HW110300   6.827   7.981  11.867
36758SOL    HW210301   6.901   7.866  11.956
36759SOL     OW10302   7.179   7.669  12.054
36759SOL    HW110303   7.095   7.668  12.108
36759SOL    HW210304   7.181   7.752  11.998
36760SOL     OW10305   5.625   8.525  11.472
36760SOL    HW110306   5.724   8.514  11.463
36760SOL    HW210307   5.585   8.439  11.504
36761SOL     OW10308   6.461   9.094  11.509
36761SOL    HW110309   6.384   9.059  11.455
36761SOL    HW210310   6.429   9.165  11.571
36762SOL     OW10311   5.816   9.938   0.113
36762SOL    HW110312   5.723   9.936   0.150
36762SOL    HW210313   5.817   9.899   0.021
36763SOL     OW10314   5.811   9.585   0.996
36763SOL    HW110315   5.846   9.568   1.088
36763SOL    HW210316   5.723   9.540   0.984
36764SOL     OW10317   5.605   9.678   0.647
36764SOL    HW110318   5.523   9.721   0.686
36764SOL    HW210319   5.577   9.605   0.584
36765SOL     OW10320   6.155  10.585   1.165
36765SOL    HW110321   6.062  10.578   1.128
36765SOL    HW210322   6.166  10.674   1.209
36766SOL     OW10323   7.141  10.821   0.703
36766SOL    HW110324   7.084  10.805   0.784
36766SOL    HW210325   7.082  10.831   0.623
36767SOL     OW10326   6.721  10.013   0.717
36767SOL    HW110327   6.778  10.091   0.692
36767SOL    HW210328   6.661  10.039   0.793
36768SOL     OW10329   7.341   9.917   0.231
36768SOL    HW110330   7.329   9.904   0.132
36768SOL    HW210331   7.311   9.836   0.280
36769SOL     OW10332   6.354  10.454   1.023
36769SOL    HW110333   6.276  10.471   1.083
36769SOL    HW210334   6.388  10.541   0.987
36770SOL     OW10335   6.436  10.108   1.823
36770SOL    HW110336   6.432  10.184   1.888
36770SOL    HW210337   6.458  10.144   1.732
36771SOL     OW10338   6.271  10.322   0.665
36771SOL    HW110339   6.340  10.306   0.735
36771SOL    HW210340   6.198  10.379   0.703
36772SOL     OW10341   6.272  10.471   1.803
36772SOL    HW110342   6.332  10.550   1.817
36772SOL    HW210343   6.186  10.502   1.762
36773SOL     OW10344   5.921  10.745   1.061
36773SOL    HW110345   5.843  10.714   1.008
36773SOL    HW210346   5.979  10.803   1.004
36774SOL     OW10347   7.046  10.815   1.339
36774SOL    HW110348   7.070  10.909   1.365
36774SOL    HW210349   7.030  10.761   1.421
36775SOL     OW10350   6.024   9.702   1.499
36775SOL    HW110351   6.106   9.646   1.508
36775SOL    HW210352   5.943   9.644   1.503
36776SOL     OW10353   7.189   9.757   0.737
36776SOL    HW110354   7.115   9.803   0.687
36776SOL    HW210355   7.240   9.825   0.790
36777SOL     OW10356   5.817  11.023   0.483
36777SOL    HW110357   5.851  11.100   0.537
36777SOL    HW210358   5.861  11.023   0.393
36778SOL     OW10359   6.713  10.651   1.690
36778SOL    HW110360   6.760  10.651   1.778
36778SOL    HW210361   6.665  10.564   1.679
36779SOL     OW10362   5.816  10.744   0.538
36779SOL    HW110363   5.790  10.840   0.538
36779SOL    HW210364   5.745  10.690   0.583
36780SOL     OW10365   5.826  10.401   0.886
36780SOL    HW110366   5.840  10.317   0.938
36780SOL    HW210367   5.771  10.465   0.941
36781SOL     OW10368   6.206  11.096   1.439
36781SOL    HW110369   6.114  11.079   1.474
36781SOL    HW210370   6.234  11.188   1.465
36782SOL     OW10371   6.192  10.274   0.123
36782SOL    HW110372   6.199  10.358   0.069
36782SOL    HW210373   6.238  10.287   0.211
36783SOL     OW10374   7.180   9.424   1.480
36783SOL    HW110375   7.162   9.491   1.408
36783SOL    HW210376   7.177   9.470   1.569
36784SOL     OW10377   5.708   9.953   0.563
36784SOL    HW110378   5.663   9.865   0.580
36784SOL    HW210379   5.707  10.007   0.647
36785SOL     OW10380   7.428  11.077   0.359
36785SOL    HW110381   7.482  11.048   0.439
36785SOL    HW210382   7.458  11.167   0.330
36786SOL     OW10383   5.613  10.906   0.117
36786SOL    HW110384   5.594  10.810   0.138
36786SOL    HW210385   5.580  10.964   0.192
36787SOL     OW10386   7.275  10.232   0.612
36787SOL    HW110387   7.370  10.203   0.620
36787SOL    HW210388   7.267  10.297   0.537
36788SOL     OW10389   7.227  10.418   0.432
36788SOL    HW110390   7.313  10.420   0.380
36788SOL    HW210391   7.241  10.465   0.520
36789SOL     OW10392   5.699  10.047   1.597
36789SOL    HW110393   5.787  10.034   1.642
36789SOL    HW210394   5.686  10.144   1.575
36790SOL     OW10395   6.199  10.675   0.726
36790SOL    HW110396   6.150  10.588   0.735
36790SOL    HW210397   6.176  10.718   0.639
36791SOL     OW10398   6.879  10.538   1.423
36791SOL    HW110399   6.916  10.465   1.365
36791SOL    HW210400   6.931  10.543   1.508
36792SOL     OW10401   6.395   9.314   0.502
36792SOL    HW110402   6.435   9.405   0.493
36792SOL    HW210403   6.295   9.322   0.508
36793SOL     OW10404   5.783  10.286   1.264
36793SOL    HW110405   5.872  10.241   1.250
36793SOL    HW210406   5.710  10.221   1.245
36794SOL     OW10407   7.111  10.309   0.190
36794SOL    HW110408   7.048  10.233   0.203
36794SOL    HW210409   7.159  10.327   0.276
36795SOL     OW10410   6.773  11.102   1.616
36795SOL    HW110411   6.797  11.162   1.540
36795SOL    HW210412   6.780  11.007   1.586
36796SOL     OW10413   5.903   9.561   1.801
36796SOL    HW110414   5.974   9.632   1.807
36796SOL    HW210415   5.815   9.600   1.829
36797SOL     OW10416   7.052  10.727   0.953
36797SOL    HW110417   6.993  10.733   1.033
36797SOL    HW210418   7.037  10.639   0.907
36798SOL     OW10419   7.253  11.024   0.572
36798SOL    HW110420   7.212  11.001   0.484
36798SOL    HW210421   7.235  10.950   0.637
36799SOL     OW10422   6.184  10.039   0.270
36799SOL    HW110423   6.208  10.108   0.202
36799SOL    HW210424   6.106  10.072   0.324
36800SOL     OW10425   6.867   9.655   0.944
36800SOL    HW110426   6.781   9.605   0.931
36800SOL    HW210427   6.929   9.601   1.000
36801SOL     OW10428   7.162  10.972   0.307
36801SOL    HW110429   7.251  11.018   0.310
36801SOL    HW210430   7.141  10.948   0.212
36802SOL     OW10431   6.393   9.915   1.465
36802SOL    HW110432   6.346   9.912   1.554
36802SOL    HW210433   6.342   9.860   1.399
36803SOL     OW10434   6.980   9.779   1.674
36803SOL    HW110435   6.960   9.822   1.762
36803SOL    HW210436   7.058   9.717   1.683
36804SOL     OW10437   6.559  10.200   1.572
36804SOL    HW110438   6.605  10.116   1.543
36804SOL    HW210439   6.503  10.234   1.497
36805SOL     OW10440   6.577   9.720   1.242
36805SOL    HW110441   6.500   9.754   1.296
36805SOL    HW210442   6.543   9.669   1.163
36806SOL     OW10443   6.627  10.011   0.429
36806SOL    HW110444   6.653  10.007   0.525
36806SOL    HW210445   6.542   9.960   0.415
36807SOL     OW10446   5.662  10.121   0.789
36807SOL    HW110447   5.761  10.109   0.798
36807SOL    HW210448   5.638  10.216   0.810
36808SOL     OW10449   5.716  11.131   1.571
36808SOL    HW110450   5.706  11.116   1.670
36808SOL    HW210451   5.630  11.167   1.535
36809SOL     OW10452   6.451   9.658   0.195
36809SOL    HW110453   6.510   9.721   0.146
36809SOL    HW210454   6.470   9.564   0.166
36810SOL     OW10455   7.305   9.895   1.831
36810SOL    HW110456   7.279   9.984   1.795
36810SOL    HW210457   7.303   9.827   1.758
36811SOL     OW10458   6.948  10.454   0.545
36811SOL    HW110459   7.031  10.425   0.497
36811SOL    HW210460   6.899  10.521   0.489
36812SOL     OW10461   6.136   9.506   0.885
36812SOL    HW110462   6.131   9.501   0.985
36812SOL    HW210463   6.138   9.602   0.856
36813SOL     OW10464   6.594  10.766   0.477
36813SOL    HW110465   6.548  10.838   0.425
36813SOL    HW210466   6.590  10.786   0.575
36814SOL     OW10467   5.937  11.111   0.853
36814SOL    HW110468   5.987  11.025   0.859
36814SOL    HW210469   6.002  11.188   0.850
36815SOL     OW10470   7.381  10.376   0.873
36815SOL    HW110471   7.319  10.361   0.797
36815SOL    HW210472   7.329  10.387   0.958
36816SOL     OW10473   6.813  10.860   1.506
36816SOL    HW110474   6.819  10.783   1.570
36816SOL    HW210475   6.761  10.834   1.426
36817SOL     OW10476   5.907  10.253   0.242
36817SOL    HW110477   5.989  10.292   0.200
36817SOL    HW210478   5.880  10.171   0.193
36818SOL     OW10479   7.044  10.045   0.728
36818SOL    HW110480   7.039   9.980   0.803
36818SOL    HW210481   7.124  10.104   0.741
36819SOL     OW10482   6.047  10.576   1.727
36819SOL    HW110483   5.997  10.577   1.641
36819SOL    HW210484   5.984  10.558   1.803
36820SOL     OW10485   6.697  11.086   0.237
36820SOL    HW110486   6.637  11.024   0.287
36820SOL    HW210487   6.728  11.042   0.152
36821SOL     OW10488   5.788   9.595   1.498
36821SOL    HW110489   5.708   9.655   1.485
36821SOL    HW210490   5.778   9.546   1.584
36822SOL     OW10491   7.218  10.687   0.081
36822SOL    HW110492   7.186  10.781   0.071
36822SOL    HW210493   7.142  10.624   0.069
36823SOL     OW10494   6.050  11.053   0.323
36823SOL    HW110495   6.083  11.092   0.409
36823SOL    HW210496   6.126  11.046   0.258
36824SOL     OW10497   6.986   9.417   0.426
36824SOL    HW110498   6.962   9.380   0.336
36824SOL    HW210499   7.085   9.433   0.430
36825SOL     OW10500   5.835  11.095   1.241
36825SOL    HW110501   5.892  11.030   1.291
36825SOL    HW210502   5.819  11.062   1.148
36826SOL     OW10503   6.526  11.008   0.904
36826SOL    HW110504   6.606  10.951   0.925
36826SOL    HW210505   6.477  10.968   0.827
36827SOL     OW10506   5.968  10.010   0.480
36827SOL    HW110507   6.013   9.920   0.477
36827SOL    HW210508   5.874   9.999   0.513
36828SOL     OW10509   7.133   9.532   1.729
36828SOL    HW110510   7.128   9.569   1.821
36828SOL    HW210511   7.061   9.463   1.717
36829SOL     OW10512   6.200   9.432   0.117
36829SOL    HW110513   6.298   9.410   0.124
36829SOL    HW210514   6.169   9.415   0.024
36830SOL     OW10515   6.367   9.574   1.749
36830SOL    HW110516   6.434   9.513   1.792
36830SOL    HW210517   6.294   9.593   1.814
36831SOL     OW10518   6.474  10.824   1.195
36831SOL    HW110519   6.451  10.799   1.101
36831SOL    HW210520   6.535  10.755   1.234
36832SOL     OW10521   6.937   9.900   1.433
36832SOL    HW110522   6.965   9.857   1.518
36832SOL    HW210523   6.962   9.996   1.434
36833SOL     OW10524   6.389  10.712   0.924
36833SOL    HW110525   6.479  10.726   0.882
36833SOL    HW210526   6.318  10.714   0.853
36834SOL     OW10527   6.508   9.813   0.899
36834SOL    HW110528   6.483   9.804   0.803
36834SOL    HW210529   6.556   9.731   0.930
36835SOL     OW10530   6.125   9.374   0.512
36835SOL    HW110531   6.044   9.375   0.570
36835SOL    HW210532   6.128   9.457   0.457
36836SOL     OW10533   7.020  10.498   0.041
36836SOL    HW110534   7.052  10.422   0.098
36836SOL    HW210535   6.928  10.525   0.071
36837SOL     OW10536   5.883   9.345   0.171
36837SOL    HW110537   5.932   9.429   0.150
36837SOL    HW210538   5.945   9.280   0.216
36838SOL     OW10539   6.521   9.546   0.480
36838SOL    HW110540   6.473   9.587   0.402
36838SOL    HW210541   6.620   9.544   0.461
36839SOL     OW10542   6.662   9.993   1.464
36839SOL    HW110543   6.582   9.932   1.467
36839SOL    HW210544   6.743   9.940   1.440
36840SOL     OW10545   6.813  10.880   0.793
36840SOL    HW110546   6.834  10.954   0.728
36840SOL    HW210547   6.881  10.880   0.866
36841SOL     OW10548   6.045  10.462   0.741
36841SOL    HW110549   5.974  10.435   0.806
36841SOL    HW210550   6.019  10.434   0.648
36842SOL     OW10551   6.857  11.107   0.591
36842SOL    HW110552   6.901  11.171   0.527
36842SOL    HW210553   6.807  11.159   0.661
36843SOL     OW10554   6.618   9.859   0.016
36843SOL    HW110555   6.577   9.941  -0.023
36843SOL    HW210556   6.682   9.885   0.089
36844SOL     OW10557   5.664   9.866   1.386
36844SOL    HW110558   5.756   9.865   1.345
36844SOL    HW210559   5.658   9.940   1.453
36845SOL     OW10560   6.147   9.532   1.147
36845SOL    HW110561   6.185   9.448   1.184
36845SOL    HW210562   6.059   9.551   1.191
36846SOL     OW10563   6.452   9.764   0.642
36846SOL    HW110564   6.420   9.836   0.580
36846SOL    HW210565   6.476   9.683   0.589
36847SOL     OW10566   6.603   9.349   0.753
36847SOL    HW110567   6.531   9.354   0.684
36847SOL    HW210568   6.579   9.280   0.822
36848SOL     OW10569   7.015  10.483   0.867
36848SOL    HW110570   6.960  10.399   0.860
36848SOL    HW210571   7.041  10.512   0.775
36849SOL     OW10572   7.052   9.900   0.992
36849SOL    HW110573   7.022   9.805   0.999
36849SOL    HW210574   7.125   9.916   1.058
36850SOL     OW10575   7.443  10.143   0.377
36850SOL    HW110576   7.485  10.079   0.441
36850SOL    HW210577   7.405  10.092   0.299
36851SOL     OW10578   6.074  10.695   0.174
36851SOL    HW110579   5.987  10.680   0.221
36851SOL    HW210580   6.057  10.721   0.079
36852SOL     OW10581   7.250  10.590   0.657
36852SOL    HW110582   7.349  10.598   0.671
36852SOL    HW210583   7.205  10.674   0.688
36853SOL     OW10584   6.976   9.885   0.078
36853SOL    HW110585   6.922   9.864   0.159
36853SOL    HW210586   7.067   9.844   0.087
36854SOL     OW10587   6.113   9.566   0.328
36854SOL    HW110588   6.140   9.507   0.253
36854SOL    HW210589   6.113   9.661   0.297
36855SOL     OW10590   7.340  10.533   1.588
36855SOL    HW110591   7.431  10.494   1.575
36855SOL    HW210592   7.348  10.629   1.612
36856SOL     OW10593   6.650  10.657   1.340
36856SOL    HW110594   6.570  10.634   1.395
36856SOL    HW210595   6.733  10.631   1.389
36857SOL     OW10596   7.178  10.939   1.625
36857SOL    HW110597   7.205  10.973   1.535
36857SOL    HW210598   7.257  10.901   1.671
36858SOL     OW10599   6.697  10.505   1.100
36858SOL    HW110600   6.657  10.549   1.181
36858SOL    HW210601   6.656  10.542   1.017
36859SOL     OW10602   7.224  10.409   1.079
36859SOL    HW110603   7.229  10.490   1.138
36859SOL    HW210604   7.138  10.411   1.028
36860SOL     OW10605   6.501   9.399   1.402
36860SOL    HW110606   6.526   9.379   1.307
36860SOL    HW210607   6.573   9.455   1.444
36861SOL     OW10608   6.566  10.426   1.719
36861SOL    HW110609   6.467  10.432   1.729
36861SOL    HW210610   6.589  10.346   1.663
36862SOL     OW10611   6.291  10.360   0.368
36862SOL    HW110612   6.277  10.367   0.467
36862SOL    HW210613   6.375  10.309   0.350
36863SOL     OW10614   5.996  10.123   1.251
36863SOL    HW110615   6.082  10.135   1.301
36863SOL    HW210616   5.954  10.036   1.278
36864SOL     OW10617   6.860   9.696   1.262
36864SOL    HW110618   6.881   9.770   1.326
36864SOL    HW210619   6.771   9.713   1.219
36865SOL     OW10620   5.650  10.874   1.331
36865SOL    HW110621   5.604  10.956   1.297
36865SOL    HW210622   5.748  10.893   1.340
36866SOL     OW10623   5.953  10.410   0.501
36866SOL    HW110624   5.946  10.493   0.445
36866SOL    HW210625   5.957  10.330   0.441
36867SOL     OW10626   6.152   9.847   0.865
36867SOL    HW110627   6.164   9.913   0.791
36867SOL    HW210628   6.198   9.881   0.948
36868SOL     OW10629   6.838  10.658   0.388
36868SOL    HW110630   6.888  10.735   0.428
36868SOL    HW210631   6.743  10.660   0.420
36869SOL     OW10632   6.858  10.755   1.142
36869SOL    HW110633   6.905  10.768   1.229
36869SOL    HW210634   6.792  10.681   1.151
36870SOL     OW10635   7.168   9.949   0.472
36870SOL    HW110636   7.137  10.010   0.545
36870SOL    HW210637   7.218  10.001   0.403
36871SOL     OW10638   5.940  10.820   1.329
36871SOL    HW110639   5.919  10.776   1.242
36871SOL    HW210640   6.037  10.846   1.332
36872SOL     OW10641   5.988  10.061   1.598
36872SOL    HW110642   6.056  10.116   1.551
36872SOL    HW210643   6.028   9.973   1.625
36873SOL     OW10644   7.173  10.089   1.670
36873SOL    HW110645   7.081  10.127   1.665
36873SOL    HW210646   7.233  10.136   1.605
36874SOL     OW10647   6.599   9.415   1.770
36874SOL    HW110648   6.605   9.500   1.718
36874SOL    HW210649   6.631   9.339   1.713
36875SOL     OW10650   6.090   9.360   1.740
36875SOL    HW110651   6.048   9.303   1.670
36875SOL    HW210652   6.024   9.429   1.772
36876SOL     OW10653   6.159  10.180   1.029
36876SOL    HW110654   6.203  10.269   1.020
36876SOL    HW210655   6.096  10.180   1.106
36877SOL     OW10656   6.946  10.172   1.045
36877SOL    HW110657   6.871  10.172   0.979
36877SOL    HW210658   6.983  10.080   1.054
36878SOL     OW10659   6.795   9.835   0.275
36878SOL    HW110660   6.808   9.751   0.329
36878SOL    HW210661   6.766   9.909   0.335
36879SOL     OW10662   5.893   9.523   1.231
36879SOL    HW110663   5.870   9.560   1.321
36879SOL    HW210664   5.863   9.428   1.225
36880SOL     OW10665   5.623  10.620   1.282
36880SOL    HW110666   5.676  10.571   1.350
36880SOL    HW210667   5.645  10.718   1.287
36881SOL     OW10668   6.318   9.944   1.064
36881SOL    HW110669   6.377   9.918   0.988
36881SOL    HW210670   6.290  10.040   1.053
36882SOL     OW10671   7.314  10.245   1.854
36882SOL    HW110672   7.268  10.238   1.765
36882SOL    HW210673   7.252  10.289   1.920
36883SOL     OW10674   5.893   9.373   0.618
36883SOL    HW110675   5.882   9.467   0.651
36883SOL    HW210676   5.888   9.310   0.695
36884SOL     OW10677   7.208   9.677   0.374
36884SOL    HW110678   7.210   9.601   0.438
36884SOL    HW210679   7.160   9.754   0.414
36885SOL     OW10680   6.609  10.076   0.966
36885SOL    HW110681   6.624  10.097   1.062
36885SOL    HW210682   6.579   9.981   0.957
36886SOL     OW10683   6.566  10.883   1.700
36886SOL    HW110684   6.546  10.927   1.612
36886SOL    HW210685   6.605  10.792   1.684
36887SOL     OW10686   7.445  10.828   1.605
36887SOL    HW110687   7.459  10.855   1.510
36887SOL    HW210688   7.528  10.850   1.658
36888SOL     OW10689   5.936  10.208   1.804
36888SOL    HW110690   6.012  10.252   1.852
36888SOL    HW210691   5.971  10.161   1.722
36889SOL     OW10692   7.126   9.584   0.125
36889SOL    HW110693   7.065   9.509   0.148
36889SOL    HW210694   7.148   9.636   0.208
36890SOL     OW10695   6.889  10.148   0.042
36890SOL    HW110696   6.923  10.055   0.057
36890SOL    HW210697   6.907  10.175  -0.053
36891SOL     OW10698   6.654  10.643   0.849
36891SOL    HW110699   6.661  10.559   0.794
36891SOL    HW210700   6.716  10.712   0.813
36892SOL     OW10701   5.905  10.120   0.949
36892SOL    HW110702   5.998  10.156   0.954
36892SOL    HW210703   5.899  10.035   1.001
36893SOL     OW10704   5.925   9.819   1.006
36893SOL    HW110705   5.873   9.736   0.989
36893SOL    HW210706   6.002   9.824   0.942
36894SOL     OW10707   6.724   9.690   1.678
36894SOL    HW110708   6.679   9.753   1.742
36894SOL    HW210709   6.817   9.721   1.661
36895SOL     OW10710   6.746   9.517   1.477
36895SOL    HW110711   6.746   9.581   1.554
36895SOL    HW210712   6.774   9.565   1.394
36896SOL     OW10713   5.594  10.636   0.200
36896SOL    HW110714   5.501  10.657   0.169
36896SOL    HW210715   5.604  10.537   0.213
36897SOL     OW10716   5.674  11.111   0.927
36897SOL    HW110717   5.632  11.025   0.900
36897SOL    HW210718   5.768  11.114   0.893
36898SOL     OW10719   6.090  10.878   0.910
36898SOL    HW110720   6.156  10.952   0.919
36898SOL    HW210721   6.134  10.799   0.868
36899SOL     OW10722   6.588  10.106   1.238
36899SOL    HW110723   6.629  10.074   1.324
36899SOL    HW210724   6.492  10.079   1.235
36900SOL     OW10725   5.626   9.854   1.114
36900SOL    HW110726   5.711   9.821   1.073
36900SOL    HW210727   5.639   9.869   1.212
36901SOL     OW10728   5.775   9.830   1.722
36901SOL    HW110729   5.834   9.790   1.652
36901SOL    HW210730   5.717   9.901   1.681
36902SOL     OW10731   6.955  10.260   1.660
36902SOL    HW110732   6.994  10.349   1.680
36902SOL    HW210733   6.965  10.240   1.563
36903SOL     OW10734   6.401   9.882   0.325
36903SOL    HW110735   6.408   9.793   0.279
36903SOL    HW210736   6.307   9.916   0.317
36904SOL     OW10737   7.243   9.914   1.206
36904SOL    HW110738   7.205   9.845   1.268
36904SOL    HW210739   7.325   9.878   1.162
36905SOL     OW10740   5.838  10.874   1.744
36905SOL    HW110741   5.808  10.931   1.820
36905SOL    HW210742   5.831  10.777   1.770
36906SOL     OW10743   6.257   9.774   1.269
36906SOL    HW110744   6.223   9.685   1.239
36906SOL    HW210745   6.283   9.828   1.189
36907SOL     OW10746   6.516  10.988   1.465
36907SOL    HW110747   6.492  10.970   1.370
36907SOL    HW210748   6.546  11.082   1.475
36908SOL     OW10749   6.059   9.810   0.191
36908SOL    HW110750   6.120   9.890   0.195
36908SOL    HW210751   5.964   9.841   0.198
36909SOL     OW10752   5.745  10.447   1.466
36909SOL    HW110753   5.767  10.386   1.542
36909SOL    HW210754   5.755  10.398   1.380
36910SOL     OW10755   6.933  10.369   1.234
36910SOL    HW110756   6.957  10.306   1.160
36910SOL    HW210757   6.843  10.409   1.216
36911SOL     OW10758   6.888  10.165   0.309
36911SOL    HW110759   6.802  10.134   0.351
36911SOL    HW210760   6.884  10.151   0.210
36912SOL     OW10761   7.345  11.057   1.154
36912SOL    HW110762   7.406  11.087   1.081
36912SOL    HW210763   7.307  10.968   1.132
36913SOL     OW10764   6.838  11.041   1.128
36913SOL    HW110765   6.922  11.046   1.074
36913SOL    HW210766   6.815  10.945   1.146
36914SOL     OW10767   5.669  10.568   1.022
36914SOL    HW110768   5.664  10.567   1.122
36914SOL    HW210769   5.586  10.527   0.984
36915SOL     OW10770   6.274  10.972   1.716
36915SOL    HW110771   6.218  11.053   1.725
36915SOL    HW210772   6.326  10.976   1.630
36916SOL     OW10773   6.489   9.396   0.133
36916SOL    HW110774   6.540   9.397   0.047
36916SOL    HW210775   6.545   9.354   0.204
36917SOL     OW10776   7.312   9.445   0.523
36917SOL    HW110777   7.385   9.428   0.456
36917SOL    HW210778   7.281   9.358   0.561
36918SOL     OW10779   6.974  10.883   0.477
36918SOL    HW110780   7.041  10.895   0.403
36918SOL    HW210781   6.934  10.972   0.500
36919SOL     OW10782   5.716  11.104   1.851
36919SOL    HW110783   5.675  11.030   1.904
36919SOL    HW210784   5.780  11.155   1.909
36920SOL     OW10785   6.866  10.237   0.672
36920SOL    HW110786   6.926  10.156   0.674
36920SOL    HW210787   6.906  10.306   0.612
36921SOL     OW10788   6.416  10.583   1.422
36921SOL    HW110789   6.411  10.616   1.517
36921SOL    HW210790   6.330  10.602   1.376
36922SOL     OW10791   6.258  10.926   0.154
36922SOL    HW110792   6.267  10.936   0.055
36922SOL    HW210793   6.218  10.837   0.175
36923SOL     OW10794   7.236  11.030   1.394
36923SOL    HW110795   7.289  11.040   1.310
36923SOL    HW210796   7.209  11.120   1.428
36924SOL     OW10797   7.427   9.485   0.963
36924SOL    HW110798   7.466   9.400   0.927
36924SOL    HW210799   7.329   9.487   0.944
36925SOL     OW10800   5.849   9.636   0.720
36925SOL    HW110801   5.770   9.687   0.686
36925SOL    HW210802   5.840   9.621   0.818
36926SOL     OW10803   6.780  10.922   0.031
36926SOL    HW110804   6.786  10.829   0.068
36926SOL    HW210805   6.721  10.922  -0.049
36927SOL     OW10806   6.408  10.312   1.372
36927SOL    HW110807   6.448  10.311   1.280
36927SOL    HW210808   6.418  10.404   1.412
36928SOL     OW10809   6.502  10.220   0.291
36928SOL    HW110810   6.565  10.258   0.223
36928SOL    HW210811   6.542  10.137   0.330
36929SOL     OW10812   7.090  10.917   0.044
36929SOL    HW110813   6.998  10.954   0.051
36929SOL    HW210814   7.128  10.937  -0.046
36930SOL     OW10815   5.958  10.598   1.490
36930SOL    HW110816   5.945  10.691   1.456
36930SOL    HW210817   5.874  10.546   1.477
36931SOL     OW10818   7.200  10.602   1.289
36931SOL    HW110819   7.260  10.605   1.369
36931SOL    HW210820   7.125  10.666   1.302
36932SOL     OW10821   6.625  10.408   0.696
36932SOL    HW110822   6.555  10.361   0.750
36932SOL    HW210823   6.684  10.340   0.653
36933SOL     OW10824   6.600   9.546   0.971
36933SOL    HW110825   6.592   9.510   0.878
36933SOL    HW210826   6.598   9.470   1.036
36934SOL     OW10827   6.176  10.797   0.491
36934SOL    HW110828   6.218  10.739   0.421
36934SOL    HW210829   6.132  10.876   0.447
36935SOL     OW10830   7.295   9.695   1.381
36935SOL    HW110831   7.368   9.764   1.385
36935SOL    HW210832   7.323   9.620   1.322
36936SOL     OW10833   5.841  10.658   0.290
36936SOL    HW110834   5.745  10.659   0.263
36936SOL    HW210835   5.853  10.711   0.374
36937SOL     OW10836   5.691  10.323   1.726
36937SOL    HW110837   5.614  10.290   1.780
36937SOL    HW210838   5.776  10.293   1.768
36938SOL     OW10839   6.258   9.513   1.489
36938SOL    HW110840   6.348   9.497   1.449
36938SOL    HW210841   6.266   9.518   1.588
36939SOL     OW10842   7.026  10.166   1.398
36939SOL    HW110843   6.969  10.218   1.335
36939SOL    HW210844   7.122  10.178   1.374
36940SOL     OW10845   5.658   9.476   0.318
36940SOL    HW110846   5.641   9.559   0.264
36940SOL    HW210847   5.748   9.439   0.296
36941SOL     OW10848   6.769  10.645   0.119
36941SOL    HW110849   6.670  10.634   0.121
36941SOL    HW210850   6.803  10.660   0.212
36942SOL     OW10851   6.199  10.152   1.431
36942SOL    HW110852   6.255  10.233   1.414
36942SOL    HW210853   6.258  10.072   1.434
36943SOL     OW10854   7.079  11.077   0.959
36943SOL    HW110855   7.112  11.141   0.890
36943SOL    HW210856   7.145  11.071   1.034
36944SOL     OW10857   6.302   9.875   1.708
36944SOL    HW110858   6.321   9.940   1.782
36944SOL    HW210859   6.362   9.795   1.717
36945SOL     OW10860   7.036  10.530   1.633
36945SOL    HW110861   7.027  10.520   1.732
36945SOL    HW210862   7.132  10.523   1.607
36946SOL     OW10863   5.976  11.051   1.560
36946SOL    HW110864   5.885  11.092   1.558
36946SOL    HW210865   5.969  10.957   1.592
36947SOL     OW10866   7.260  10.193   1.254
36947SOL    HW110867   7.233  10.104   1.217
36947SOL    HW210868   7.261  10.261   1.181
36948SOL     OW10869   6.811   9.635   0.449
36948SOL    HW110870   6.876   9.561   0.438
36948SOL    HW210871   6.831   9.685   0.533
36949SOL     OW10872   6.180  10.055   0.652
36949SOL    HW110873   6.230  10.140   0.633
36949SOL    HW210874   6.092  10.057   0.604
36950SOL     OW10875   7.363   9.652   1.642
36950SOL    HW110876   7.346   9.683   1.548
36950SOL    HW210877   7.279   9.615   1.680
36951SOL     OW10878   7.316  10.244   1.517
36951SOL    HW110879   7.354  10.335   1.532
36951SOL    HW210880   7.308  10.227   1.418
36952SOL     OW10881   6.445  10.684   0.016
36952SOL    HW110882   6.399  10.699   0.104
36952SOL    HW210883   6.489  10.769  -0.014
36953SOL     OW10884   6.247  11.100   0.953
36953SOL    HW110885   6.201  11.188   0.940
36953SOL    HW210886   6.346  11.112   0.946
36954SOL     OW10887   6.445  10.266   0.861
36954SOL    HW110888   6.499  10.197   0.909
36954SOL    HW210889   6.413  10.335   0.927
36955SOL     OW10890   6.669  10.294   0.087
36955SOL    HW110891   6.646  10.347   0.005
36955SOL    HW210892   6.750  10.238   0.068
36956SOL     OW10893   7.447  10.879   0.851
36956SOL    HW110894   7.376  10.867   0.781
36956SOL    HW210895   7.448  10.800   0.911
36957SOL     OW10896   5.807  10.624   1.844
36957SOL    HW110897   5.742  10.551   1.823
36957SOL    HW210898   5.811  10.638   1.942
36958SOL     OW10899   5.665  10.550   0.653
36958SOL    HW110900   5.664  10.503   0.741
36958SOL    HW210901   5.747  10.522   0.602
36959SOL     OW10902   6.258  10.701   1.624
36959SOL    HW110903   6.180  10.651   1.662
36959SOL    HW210904   6.255  10.796   1.655
36960SOL     OW10905   7.410   9.502   1.227
36960SOL    HW110906   7.406   9.412   1.271
36960SOL    HW210907   7.413   9.491   1.128
36961SOL     OW10908   6.014   9.734   0.520
36961SOL    HW110909   6.044   9.662   0.458
36961SOL    HW210910   5.975   9.694   0.603
36962SOL     OW10911   7.291  10.797   1.104
36962SOL    HW110912   7.198  10.772   1.077
36962SOL    HW210913   7.317  10.747   1.186
36963SOL     OW10914   5.903   9.857   1.280
36963SOL    HW110915   5.941   9.798   1.352
36963SOL    HW210916   5.943   9.831   1.192
36964SOL     OW10917   6.398  10.896   0.687
36964SOL    HW110918   6.430  10.906   0.593
36964SOL    HW210919   6.319  10.834   0.689
36965SOL     OW10920   7.010   9.524   1.112
36965SOL    HW110921   7.062   9.459   1.167
36965SOL    HW210922   6.961   9.587   1.173
36966SOL     OW10923   6.587   9.344   1.154
36966SOL    HW110924   6.524   9.272   1.123
36966SOL    HW210925   6.680   9.308   1.154
36967SOL     OW10926   6.356  10.640   0.301
36967SOL    HW110927   6.310  10.553   0.318
36967SOL    HW210928   6.447  10.637   0.342
36968SOL     OW10929   6.204  10.877   1.284
36968SOL    HW110930   6.199  10.959   1.341
36968SOL    HW210931   6.293  10.874   1.239
36969SOL     OW10932   6.938   9.362   0.168
36969SOL    HW110933   6.973   9.321   0.084
36969SOL    HW210934   6.848   9.324   0.188
36970SOL     OW10935   6.886   9.763   0.691
36970SOL    HW110936   6.827   9.843   0.695
36970SOL    HW210937   6.901   9.728   0.784
36971SOL     OW10938   7.179   9.531   0.882
36971SOL    HW110939   7.095   9.530   0.936
36971SOL    HW210940   7.181   9.614   0.826
36972SOL     OW10941   5.625  10.387   0.300
36972SOL    HW110942   5.724  10.376   0.291
36972SOL    HW210943   5.585  10.301   0.332
36973SOL     OW10944   6.461  10.956   0.337
36973SOL    HW110945   6.384  10.921   0.283
36973SOL    HW210946   6.429  11.027   0.399
36974SOL     OW10947   5.816   9.938   1.975
36974SOL    HW110948   5.723   9.936   2.012
36974SOL    HW210949   5.817   9.899   1.883
36975SOL     OW10950   5.811   9.585   2.858
36975SOL    HW110951   5.846   9.568   2.950
36975SOL    HW210952   5.723   9.540   2.846
36976SOL     OW10953   5.605   9.678   2.509
36976SOL    HW110954   5.523   9.721   2.548
36976SOL    HW210955   5.577   9.605   2.446
36977SOL     OW10956   6.155  10.585   3.027
36977SOL    HW110957   6.062  10.578   2.990
36977SOL    HW210958   6.166  10.674   3.071
36978SOL     OW10959   7.141  10.821   2.565
36978SOL    HW110960   7.084  10.805   2.646
36978SOL    HW210961   7.082  10.831   2.485
36979SOL     OW10962   6.721  10.013   2.579
36979SOL    HW110963   6.778  10.091   2.554
36979SOL    HW210964   6.661  10.039   2.655
36980SOL     OW10965   7.341   9.917   2.093
36980SOL    HW110966   7.329   9.904   1.994
36980SOL    HW210967   7.311   9.836   2.142
36981SOL     OW10968   6.354  10.454   2.885
36981SOL    HW110969   6.276  10.471   2.945
36981SOL    HW210970   6.388  10.541   2.849
36982SOL     OW10971   6.436  10.108   3.685
36982SOL    HW110972   6.432  10.184   3.750
36982SOL    HW210973   6.458  10.144   3.594
36983SOL     OW10974   6.271  10.322   2.527
36983SOL    HW110975   6.340  10.306   2.597
36983SOL    HW210976   6.198  10.379   2.565
36984SOL     OW10977   6.272  10.471   3.665
36984SOL    HW110978   6.332  10.550   3.679
36984SOL    HW210979   6.186  10.502   3.624
36985SOL     OW10980   5.921  10.745   2.923
36985SOL    HW110981   5.843  10.714   2.870
36985SOL    HW210982   5.979  10.803   2.866
36986SOL     OW10983   6.024   9.702   3.361
36986SOL    HW110984   6.106   9.646   3.370
36986SOL    HW210985   5.943   9.644   3.365
36987SOL     OW10986   7.189   9.757   2.599
36987SOL    HW110987   7.115   9.803   2.549
36987SOL    HW210988   7.240   9.825   2.652
36988SOL     OW10989   5.817  11.023   2.345
36988SOL    HW110990   5.851  11.100   2.399
36988SOL    HW210991   5.861  11.023   2.255
36989SOL     OW10992   6.713  10.651   3.552
36989SOL    HW110993   6.760  10.651   3.640
36989SOL    HW210994   6.665  10.564   3.541
36990SOL     OW10995   5.816  10.744   2.400
36990SOL    HW110996   5.790  10.840   2.400
36990SOL    HW210997   5.745  10.690   2.445
36991SOL     OW10998   5.826  10.401   2.748
36991SOL    HW110999   5.840  10.317   2.800
36991SOL    HW211000   5.771  10.465   2.803
36992SOL     OW11001   6.206  11.096   3.301
36992SOL    HW111002   6.114  11.079   3.336
36992SOL    HW211003   6.234  11.188   3.327
36993SOL     OW11004   6.192  10.274   1.985
36993SOL    HW111005   6.199  10.358   1.931
36993SOL    HW211006   6.238  10.287   2.073
36994SOL     OW11007   7.180   9.424   3.342
36994SOL    HW111008   7.162   9.491   3.270
36994SOL    HW211009   7.177   9.470   3.431
36995SOL     OW11010   5.708   9.953   2.425
36995SOL    HW111011   5.663   9.865   2.442
36995SOL    HW211012   5.707  10.007   2.509
36996SOL     OW11013   7.428  11.077   2.221
36996SOL    HW111014   7.482  11.048   2.301
36996SOL    HW211015   7.458  11.167   2.192
36997SOL     OW11016   5.613  10.906   1.979
36997SOL    HW111017   5.594  10.810   2.000
36997SOL    HW211018   5.580  10.964   2.054
36998SOL     OW11019   7.275  10.232   2.474
36998SOL    HW111020   7.370  10.203   2.482
36998SOL    HW211021   7.267  10.297   2.399
36999SOL     OW11022   7.227  10.418   2.294
36999SOL    HW111023   7.313  10.420   2.242
36999SOL    HW211024   7.241  10.465   2.382
37000SOL     OW11025   5.699  10.047   3.459
37000SOL    HW111026   5.787  10.034   3.504
37000SOL    HW211027   5.686  10.144   3.437
37001SOL     OW11028   6.199  10.675   2.588
37001SOL    HW111029   6.150  10.588   2.597
37001SOL    HW211030   6.176  10.718   2.501
37002SOL     OW11031   6.879  10.538   3.285
37002SOL    HW111032   6.916  10.465   3.227
37002SOL    HW211033   6.931  10.543   3.370
37003SOL     OW11034   6.395   9.314   2.364
37003SOL    HW111035   6.435   9.405   2.355
37003SOL    HW211036   6.295   9.322   2.370
37004SOL     OW11037   5.783  10.286   3.126
37004SOL    HW111038   5.872  10.241   3.112
37004SOL    HW211039   5.710  10.221   3.107
37005SOL     OW11040   7.111  10.309   2.052
37005SOL    HW111041   7.048  10.233   2.065
37005SOL    HW211042   7.159  10.327   2.138
37006SOL     OW11043   6.773  11.102   3.478
37006SOL    HW111044   6.797  11.162   3.402
37006SOL    HW211045   6.780  11.007   3.448
37007SOL     OW11046   5.903   9.561   3.663
37007SOL    HW111047   5.974   9.632   3.669
37007SOL    HW211048   5.815   9.600   3.691
37008SOL     OW11049   7.052  10.727   2.815
37008SOL    HW111050   6.993  10.733   2.895
37008SOL    HW211051   7.037  10.639   2.769
37009SOL     OW11052   7.253  11.024   2.434
37009SOL    HW111053   7.212  11.001   2.346
37009SOL    HW211054   7.235  10.950   2.499
37010SOL     OW11055   6.184  10.039   2.132
37010SOL    HW111056   6.208  10.108   2.064
37010SOL    HW211057   6.106  10.072   2.186
37011SOL     OW11058   6.867   9.655   2.806
37011SOL    HW111059   6.781   9.605   2.793
37011SOL    HW211060   6.929   9.601   2.862
37012SOL     OW11061   7.162  10.972   2.169
37012SOL    HW111062   7.251  11.018   2.172
37012SOL    HW211063   7.141  10.948   2.074
37013SOL     OW11064   6.393   9.915   3.327
37013SOL    HW111065   6.346   9.912   3.416
37013SOL    HW211066   6.342   9.860   3.261
37014SOL     OW11067   6.980   9.779   3.536
37014SOL    HW111068   6.960   9.822   3.624
37014SOL    HW211069   7.058   9.717   3.545
37015SOL     OW11070   6.559  10.200   3.434
37015SOL    HW111071   6.605  10.116   3.405
37015SOL    HW211072   6.503  10.234   3.359
37016SOL     OW11073   6.577   9.720   3.104
37016SOL    HW111074   6.500   9.754   3.158
37016SOL    HW211075   6.543   9.669   3.025
37017SOL     OW11076   6.627  10.011   2.291
37017SOL    HW111077   6.653  10.007   2.387
37017SOL    HW211078   6.542   9.960   2.277
37018SOL     OW11079   5.662  10.121   2.651
37018SOL    HW111080   5.761  10.109   2.660
37018SOL    HW211081   5.638  10.216   2.672
37019SOL     OW11082   5.716  11.131   3.433
37019SOL    HW111083   5.706  11.116   3.532
37019SOL    HW211084   5.630  11.167   3.397
37020SOL     OW11085   6.451   9.658   2.057
37020SOL    HW111086   6.510   9.721   2.008
37020SOL    HW211087   6.470   9.564   2.028
37021SOL     OW11088   7.305   9.895   3.693
37021SOL    HW111089   7.279   9.984   3.657
37021SOL    HW211090   7.303   9.827   3.620
37022SOL     OW11091   6.948  10.454   2.407
37022SOL    HW111092   7.031  10.425   2.359
37022SOL    HW211093   6.899  10.521   2.351
37023SOL     OW11094   6.136   9.506   2.747
37023SOL    HW111095   6.131   9.501   2.847
37023SOL    HW211096   6.138   9.602   2.718
37024SOL     OW11097   6.594  10.766   2.339
37024SOL    HW111098   6.548  10.838   2.287
37024SOL    HW211099   6.590  10.786   2.437
37025SOL     OW11100   5.937  11.111   2.715
37025SOL    HW111101   5.987  11.025   2.721
37025SOL    HW211102   6.002  11.188   2.712
37026SOL     OW11103   7.381  10.376   2.735
37026SOL    HW111104   7.319  10.361   2.659
37026SOL    HW211105   7.329  10.387   2.820
37027SOL     OW11106   6.813  10.860   3.368
37027SOL    HW111107   6.819  10.783   3.432
37027SOL    HW211108   6.761  10.834   3.288
37028SOL     OW11109   5.907  10.253   2.104
37028SOL    HW111110   5.989  10.292   2.062
37028SOL    HW211111   5.880  10.171   2.055
37029SOL     OW11112   7.044  10.045   2.590
37029SOL    HW111113   7.039   9.980   2.665
37029SOL    HW211114   7.124  10.104   2.603
37030SOL     OW11115   6.047  10.576   3.589
37030SOL    HW111116   5.997  10.577   3.503
37030SOL    HW211117   5.984  10.558   3.665
37031SOL     OW11118   6.697  11.086   2.099
37031SOL    HW111119   6.637  11.024   2.149
37031SOL    HW211120   6.728  11.042   2.014
37032SOL     OW11121   5.788   9.595   3.360
37032SOL    HW111122   5.708   9.655   3.347
37032SOL    HW211123   5.778   9.546   3.446
37033SOL     OW11124   7.218  10.687   1.943
37033SOL    HW111125   7.186  10.781   1.933
37033SOL    HW211126   7.142  10.624   1.931
37034SOL     OW11127   6.050  11.053   2.185
37034SOL    HW111128   6.083  11.092   2.271
37034SOL    HW211129   6.126  11.046   2.120
37035SOL     OW11130   6.986   9.417   2.288
37035SOL    HW111131   6.962   9.380   2.198
37035SOL    HW211132   7.085   9.433   2.292
37036SOL     OW11133   5.835  11.095   3.103
37036SOL    HW111134   5.892  11.030   3.153
37036SOL    HW211135   5.819  11.062   3.010
37037SOL     OW11136   6.526  11.008   2.766
37037SOL    HW111137   6.606  10.951   2.787
37037SOL    HW211138   6.477  10.968   2.689
37038SOL     OW11139   5.968  10.010   2.342
37038SOL    HW111140   6.013   9.920   2.339
37038SOL    HW211141   5.874   9.999   2.375
37039SOL     OW11142   7.133   9.532   3.591
37039SOL    HW111143   7.128   9.569   3.683
37039SOL    HW211144   7.061   9.463   3.579
37040SOL     OW11145   6.200   9.432   1.979
37040SOL    HW111146   6.298   9.410   1.986
37040SOL    HW211147   6.169   9.415   1.886
37041SOL     OW11148   6.367   9.574   3.611
37041SOL    HW111149   6.434   9.513   3.654
37041SOL    HW211150   6.294   9.593   3.676
37042SOL     OW11151   6.474  10.824   3.057
37042SOL    HW111152   6.451  10.799   2.963
37042SOL    HW211153   6.535  10.755   3.096
37043SOL     OW11154   6.937   9.900   3.295
37043SOL    HW111155   6.965   9.857   3.380
37043SOL    HW211156   6.962   9.996   3.296
37044SOL     OW11157   6.389  10.712   2.786
37044SOL    HW111158   6.479  10.726   2.744
37044SOL    HW211159   6.318  10.714   2.715
37045SOL     OW11160   6.508   9.813   2.761
37045SOL    HW111161   6.483   9.804   2.665
37045SOL    HW211162   6.556   9.731   2.792
37046SOL     OW11163   6.125   9.374   2.374
37046SOL    HW111164   6.044   9.375   2.432
37046SOL    HW211165   6.128   9.457   2.319
37047SOL     OW11166   7.020  10.498   1.903
37047SOL    HW111167   7.052  10.422   1.960
37047SOL    HW211168   6.928  10.525   1.933
37048SOL     OW11169   5.883   9.345   2.033
37048SOL    HW111170   5.932   9.429   2.012
37048SOL    HW211171   5.945   9.280   2.078
37049SOL     OW11172   6.521   9.546   2.342
37049SOL    HW111173   6.473   9.587   2.264
37049SOL    HW211174   6.620   9.544   2.323
37050SOL     OW11175   6.662   9.993   3.326
37050SOL    HW111176   6.582   9.932   3.329
37050SOL    HW211177   6.743   9.940   3.302
37051SOL     OW11178   6.813  10.880   2.655
37051SOL    HW111179   6.834  10.954   2.590
37051SOL    HW211180   6.881  10.880   2.728
37052SOL     OW11181   6.045  10.462   2.603
37052SOL    HW111182   5.974  10.435   2.668
37052SOL    HW211183   6.019  10.434   2.510
37053SOL     OW11184   6.857  11.107   2.453
37053SOL    HW111185   6.901  11.171   2.389
37053SOL    HW211186   6.807  11.159   2.523
37054SOL     OW11187   6.618   9.859   1.878
37054SOL    HW111188   6.577   9.941   1.839
37054SOL    HW211189   6.682   9.885   1.951
37055SOL     OW11190   5.664   9.866   3.248
37055SOL    HW111191   5.756   9.865   3.207
37055SOL    HW211192   5.658   9.940   3.315
37056SOL     OW11193   6.147   9.532   3.009
37056SOL    HW111194   6.185   9.448   3.046
37056SOL    HW211195   6.059   9.551   3.053
37057SOL     OW11196   6.452   9.764   2.504
37057SOL    HW111197   6.420   9.836   2.442
37057SOL    HW211198   6.476   9.683   2.451
37058SOL     OW11199   6.603   9.349   2.615
37058SOL    HW111200   6.531   9.354   2.546
37058SOL    HW211201   6.579   9.280   2.684
37059SOL     OW11202   7.015  10.483   2.729
37059SOL    HW111203   6.960  10.399   2.722
37059SOL    HW211204   7.041  10.512   2.637
37060SOL     OW11205   7.052   9.900   2.854
37060SOL    HW111206   7.022   9.805   2.861
37060SOL    HW211207   7.125   9.916   2.920
37061SOL     OW11208   7.443  10.143   2.239
37061SOL    HW111209   7.485  10.079   2.303
37061SOL    HW211210   7.405  10.092   2.161
37062SOL     OW11211   6.074  10.695   2.036
37062SOL    HW111212   5.987  10.680   2.083
37062SOL    HW211213   6.057  10.721   1.941
37063SOL     OW11214   7.250  10.590   2.519
37063SOL    HW111215   7.349  10.598   2.533
37063SOL    HW211216   7.205  10.674   2.550
37064SOL     OW11217   6.976   9.885   1.940
37064SOL    HW111218   6.922   9.864   2.021
37064SOL    HW211219   7.067   9.844   1.949
37065SOL     OW11220   7.340  10.533   3.450
37065SOL    HW111221   7.431  10.494   3.437
37065SOL    HW211222   7.348  10.629   3.474
37066SOL     OW11223   6.650  10.657   3.202
37066SOL    HW111224   6.570  10.634   3.257
37066SOL    HW211225   6.733  10.631   3.251
37067SOL     OW11226   7.178  10.939   3.487
37067SOL    HW111227   7.205  10.973   3.397
37067SOL    HW211228   7.257  10.901   3.533
37068SOL     OW11229   6.697  10.505   2.962
37068SOL    HW111230   6.657  10.549   3.043
37068SOL    HW211231   6.656  10.542   2.879
37069SOL     OW11232   7.224  10.409   2.941
37069SOL    HW111233   7.229  10.490   3.000
37069SOL    HW211234   7.138  10.411   2.890
37070SOL     OW11235   6.501   9.399   3.264
37070SOL    HW111236   6.526   9.379   3.169
37070SOL    HW211237   6.573   9.455   3.306
37071SOL     OW11238   6.566  10.426   3.581
37071SOL    HW111239   6.467  10.432   3.591
37071SOL    HW211240   6.589  10.346   3.525
37072SOL     OW11241   6.291  10.360   2.230
37072SOL    HW111242   6.277  10.367   2.329
37072SOL    HW211243   6.375  10.309   2.212
37073SOL     OW11244   5.996  10.123   3.113
37073SOL    HW111245   6.082  10.135   3.163
37073SOL    HW211246   5.954  10.036   3.140
37074SOL     OW11247   6.860   9.696   3.124
37074SOL    HW111248   6.881   9.770   3.188
37074SOL    HW211249   6.771   9.713   3.081
37075SOL     OW11250   5.650  10.874   3.193
37075SOL    HW111251   5.604  10.956   3.159
37075SOL    HW211252   5.748  10.893   3.202
37076SOL     OW11253   5.953  10.410   2.363
37076SOL    HW111254   5.946  10.493   2.307
37076SOL    HW211255   5.957  10.330   2.303
37077SOL     OW11256   6.152   9.847   2.727
37077SOL    HW111257   6.164   9.913   2.653
37077SOL    HW211258   6.198   9.881   2.810
37078SOL     OW11259   6.838  10.658   2.250
37078SOL    HW111260   6.888  10.735   2.290
37078SOL    HW211261   6.743  10.660   2.282
37079SOL     OW11262   6.858  10.755   3.004
37079SOL    HW111263   6.905  10.768   3.091
37079SOL    HW211264   6.792  10.681   3.013
37080SOL     OW11265   7.168   9.949   2.334
37080SOL    HW111266   7.137  10.010   2.407
37080SOL    HW211267   7.218  10.001   2.265
37081SOL     OW11268   5.940  10.820   3.191
37081SOL    HW111269   5.919  10.776   3.104
37081SOL    HW211270   6.037  10.846   3.194
37082SOL     OW11271   5.988  10.061   3.460
37082SOL    HW111272   6.056  10.116   3.413
37082SOL    HW211273   6.028   9.973   3.487
37083SOL     OW11274   7.173  10.089   3.532
37083SOL    HW111275   7.081  10.127   3.527
37083SOL    HW211276   7.233  10.136   3.467
37084SOL     OW11277   6.599   9.415   3.632
37084SOL    HW111278   6.605   9.500   3.580
37084SOL    HW211279   6.631   9.339   3.575
37085SOL     OW11280   6.090   9.360   3.602
37085SOL    HW111281   6.048   9.303   3.532
37085SOL    HW211282   6.024   9.429   3.634
37086SOL     OW11283   6.159  10.180   2.891
37086SOL    HW111284   6.203  10.269   2.882
37086SOL    HW211285   6.096  10.180   2.968
37087SOL     OW11286   6.946  10.172   2.907
37087SOL    HW111287   6.871  10.172   2.841
37087SOL    HW211288   6.983  10.080   2.916
37088SOL     OW11289   6.795   9.835   2.137
37088SOL    HW111290   6.808   9.751   2.191
37088SOL    HW211291   6.766   9.909   2.197
37089SOL     OW11292   5.893   9.523   3.093
37089SOL    HW111293   5.870   9.560   3.183
37089SOL    HW211294   5.863   9.428   3.087
37090SOL     OW11295   5.623  10.620   3.144
37090SOL    HW111296   5.676  10.571   3.212
37090SOL    HW211297   5.645  10.718   3.149
37091SOL     OW11298   6.318   9.944   2.926
37091SOL    HW111299   6.377   9.918   2.850
37091SOL    HW211300   6.290  10.040   2.915
37092SOL     OW11301   7.314  10.245   3.716
37092SOL    HW111302   7.268  10.238   3.627
37092SOL    HW211303   7.252  10.289   3.782
37093SOL     OW11304   5.893   9.373   2.480
37093SOL    HW111305   5.882   9.467   2.513
37093SOL    HW211306   5.888   9.310   2.557
37094SOL     OW11307   7.208   9.677   2.236
37094SOL    HW111308   7.210   9.601   2.300
37094SOL    HW211309   7.160   9.754   2.276
37095SOL     OW11310   6.609  10.076   2.828
37095SOL    HW111311   6.624  10.097   2.924
37095SOL    HW211312   6.579   9.981   2.819
37096SOL     OW11313   6.566  10.883   3.562
37096SOL    HW111314   6.546  10.927   3.474
37096SOL    HW211315   6.605  10.792   3.546
37097SOL     OW11316   7.445  10.828   3.467
37097SOL    HW111317   7.459  10.855   3.372
37097SOL    HW211318   7.528  10.850   3.520
37098SOL     OW11319   5.936  10.208   3.666
37098SOL    HW111320   6.012  10.252   3.714
37098SOL    HW211321   5.971  10.161   3.584
37099SOL     OW11322   7.126   9.584   1.987
37099SOL    HW111323   7.065   9.509   2.010
37099SOL    HW211324   7.148   9.636   2.070
37100SOL     OW11325   6.889  10.148   1.904
37100SOL    HW111326   6.923  10.055   1.919
37100SOL    HW211327   6.907  10.175   1.809
37101SOL     OW11328   6.654  10.643   2.711
37101SOL    HW111329   6.661  10.559   2.656
37101SOL    HW211330   6.716  10.712   2.675
37102SOL     OW11331   5.905  10.120   2.811
37102SOL    HW111332   5.998  10.156   2.816
37102SOL    HW211333   5.899  10.035   2.863
37103SOL     OW11334   5.925   9.819   2.868
37103SOL    HW111335   5.873   9.736   2.851
37103SOL    HW211336   6.002   9.824   2.804
37104SOL     OW11337   6.724   9.690   3.540
37104SOL    HW111338   6.679   9.753   3.604
37104SOL    HW211339   6.817   9.721   3.523
37105SOL     OW11340   6.746   9.517   3.339
37105SOL    HW111341   6.746   9.581   3.416
37105SOL    HW211342   6.774   9.565   3.256
37106SOL     OW11343   5.594  10.636   2.062
37106SOL    HW111344   5.501  10.657   2.031
37106SOL    HW211345   5.604  10.537   2.075
37107SOL     OW11346   5.674  11.111   2.789
37107SOL    HW111347   5.632  11.025   2.762
37107SOL    HW211348   5.768  11.114   2.755
37108SOL     OW11349   6.090  10.878   2.772
37108SOL    HW111350   6.156  10.952   2.781
37108SOL    HW211351   6.134  10.799   2.730
37109SOL     OW11352   6.588  10.106   3.100
37109SOL    HW111353   6.629  10.074   3.186
37109SOL    HW211354   6.492  10.079   3.097
37110SOL     OW11355   5.626   9.854   2.976
37110SOL    HW111356   5.711   9.821   2.935
37110SOL    HW211357   5.639   9.869   3.074
37111SOL     OW11358   5.775   9.830   3.584
37111SOL    HW111359   5.834   9.790   3.514
37111SOL    HW211360   5.717   9.901   3.543
37112SOL     OW11361   6.955  10.260   3.522
37112SOL    HW111362   6.994  10.349   3.542
37112SOL    HW211363   6.965  10.240   3.425
37113SOL     OW11364   6.401   9.882   2.187
37113SOL    HW111365   6.408   9.793   2.141
37113SOL    HW211366   6.307   9.916   2.179
37114SOL     OW11367   7.243   9.914   3.068
37114SOL    HW111368   7.205   9.845   3.130
37114SOL    HW211369   7.325   9.878   3.024
37115SOL     OW11370   5.838  10.874   3.606
37115SOL    HW111371   5.808  10.931   3.682
37115SOL    HW211372   5.831  10.777   3.632
37116SOL     OW11373   6.257   9.774   3.131
37116SOL    HW111374   6.223   9.685   3.101
37116SOL    HW211375   6.283   9.828   3.051
37117SOL     OW11376   6.516  10.988   3.327
37117SOL    HW111377   6.492  10.970   3.232
37117SOL    HW211378   6.546  11.082   3.337
37118SOL     OW11379   6.059   9.810   2.053
37118SOL    HW111380   6.120   9.890   2.057
37118SOL    HW211381   5.964   9.841   2.060
37119SOL     OW11382   5.745  10.447   3.328
37119SOL    HW111383   5.767  10.386   3.404
37119SOL    HW211384   5.755  10.398   3.242
37120SOL     OW11385   6.933  10.369   3.096
37120SOL    HW111386   6.957  10.306   3.022
37120SOL    HW211387   6.843  10.409   3.078
37121SOL     OW11388   6.888  10.165   2.171
37121SOL    HW111389   6.802  10.134   2.213
37121SOL    HW211390   6.884  10.151   2.072
37122SOL     OW11391   7.345  11.057   3.016
37122SOL    HW111392   7.406  11.087   2.943
37122SOL    HW211393   7.307  10.968   2.994
37123SOL     OW11394   6.838  11.041   2.990
37123SOL    HW111395   6.922  11.046   2.936
37123SOL    HW211396   6.815  10.945   3.008
37124SOL     OW11397   5.669  10.568   2.884
37124SOL    HW111398   5.664  10.567   2.984
37124SOL    HW211399   5.586  10.527   2.846
37125SOL     OW11400   6.274  10.972   3.578
37125SOL    HW111401   6.218  11.053   3.587
37125SOL    HW211402   6.326  10.976   3.492
37126SOL     OW11403   7.312   9.445   2.385
37126SOL    HW111404   7.385   9.428   2.318
37126SOL    HW211405   7.281   9.358   2.423
37127SOL     OW11406   6.974  10.883   2.339
37127SOL    HW111407   7.041  10.895   2.265
37127SOL    HW211408   6.934  10.972   2.362
37128SOL     OW11409   5.716  11.104   3.713
37128SOL    HW111410   5.675  11.030   3.766
37128SOL    HW211411   5.780  11.155   3.771
37129SOL     OW11412   6.866  10.237   2.534
37129SOL    HW111413   6.926  10.156   2.536
37129SOL    HW211414   6.906  10.306   2.474
37130SOL     OW11415   6.416  10.583   3.284
37130SOL    HW111416   6.411  10.616   3.379
37130SOL    HW211417   6.330  10.602   3.238
37131SOL     OW11418   6.258  10.926   2.016
37131SOL    HW111419   6.267  10.936   1.917
37131SOL    HW211420   6.218  10.837   2.037
37132SOL     OW11421   7.236  11.030   3.256
37132SOL    HW111422   7.289  11.040   3.172
37132SOL    HW211423   7.209  11.120   3.290
37133SOL     OW11424   7.427   9.485   2.825
37133SOL    HW111425   7.466   9.400   2.789
37133SOL    HW211426   7.329   9.487   2.806
37134SOL     OW11427   5.849   9.636   2.582
37134SOL    HW111428   5.770   9.687   2.548
37134SOL    HW211429   5.840   9.621   2.680
37135SOL     OW11430   6.780  10.922   1.893
37135SOL    HW111431   6.786  10.829   1.930
37135SOL    HW211432   6.721  10.922   1.813
37136SOL     OW11433   6.408  10.312   3.234
37136SOL    HW111434   6.448  10.311   3.142
37136SOL    HW211435   6.418  10.404   3.274
37137SOL     OW11436   6.502  10.220   2.153
37137SOL    HW111437   6.565  10.258   2.085
37137SOL    HW211438   6.542  10.137   2.192
37138SOL     OW11439   7.090  10.917   1.906
37138SOL    HW111440   6.998  10.954   1.913
37138SOL    HW211441   7.128  10.937   1.816
37139SOL     OW11442   5.958  10.598   3.352
37139SOL    HW111443   5.945  10.691   3.318
37139SOL    HW211444   5.874  10.546   3.339
37140SOL     OW11445   7.200  10.602   3.151
37140SOL    HW111446   7.260  10.605   3.231
37140SOL    HW211447   7.125  10.666   3.164
37141SOL     OW11448   6.625  10.408   2.558
37141SOL    HW111449   6.555  10.361   2.612
37141SOL    HW211450   6.684  10.340   2.515
37142SOL     OW11451   6.600   9.546   2.833
37142SOL    HW111452   6.592   9.510   2.740
37142SOL    HW211453   6.598   9.470   2.898
37143SOL     OW11454   6.176  10.797   2.353
37143SOL    HW111455   6.218  10.739   2.283
37143SOL    HW211456   6.132  10.876   2.309
37144SOL     OW11457   7.295   9.695   3.243
37144SOL    HW111458   7.368   9.764   3.247
37144SOL    HW211459   7.323   9.620   3.184
37145SOL     OW11460   5.841  10.658   2.152
37145SOL    HW111461   5.745  10.659   2.125
37145SOL    HW211462   5.853  10.711   2.236
37146SOL     OW11463   5.691  10.323   3.588
37146SOL    HW111464   5.614  10.290   3.642
37146SOL    HW211465   5.776  10.293   3.630
37147SOL     OW11466   6.258   9.513   3.351
37147SOL    HW111467   6.348   9.497   3.311
37147SOL    HW211468   6.266   9.518   3.450
37148SOL     OW11469   5.661   9.655   1.895
37148SOL    HW111470   5.569   9.627   1.866
37148SOL    HW211471   5.692   9.732   1.839
37149SOL     OW11472   7.026  10.166   3.260
37149SOL    HW111473   6.969  10.218   3.197
37149SOL    HW211474   7.122  10.178   3.236
37150SOL     OW11475   5.658   9.476   2.180
37150SOL    HW111476   5.641   9.559   2.126
37150SOL    HW211477   5.748   9.439   2.158
37151SOL     OW11478   6.769  10.645   1.981
37151SOL    HW111479   6.670  10.634   1.983
37151SOL    HW211480   6.803  10.660   2.074
37152SOL     OW11481   6.199  10.152   3.293
37152SOL    HW111482   6.255  10.233   3.276
37152SOL    HW211483   6.258  10.072   3.296
37153SOL     OW11484   7.079  11.077   2.821
37153SOL    HW111485   7.112  11.141   2.752
37153SOL    HW211486   7.145  11.071   2.896
37154SOL     OW11487   6.302   9.875   3.570
37154SOL    HW111488   6.321   9.940   3.644
37154SOL    HW211489   6.362   9.795   3.579
37155SOL     OW11490   7.036  10.530   3.495
37155SOL    HW111491   7.027  10.520   3.594
37155SOL    HW211492   7.132  10.523   3.469
37156SOL     OW11493   5.976  11.051   3.422
37156SOL    HW111494   5.885  11.092   3.420
37156SOL    HW211495   5.969  10.957   3.454
37157SOL     OW11496   7.260  10.193   3.116
37157SOL    HW111497   7.233  10.104   3.079
37157SOL    HW211498   7.261  10.261   3.043
37158SOL     OW11499   6.811   9.635   2.311
37158SOL    HW111500   6.876   9.561   2.300
37158SOL    HW211501   6.831   9.685   2.395
37159SOL     OW11502   6.180  10.055   2.514
37159SOL    HW111503   6.230  10.140   2.495
37159SOL    HW211504   6.092  10.057   2.466
37160SOL     OW11505   7.363   9.652   3.504
37160SOL    HW111506   7.346   9.683   3.410
37160SOL    HW211507   7.279   9.615   3.542
37161SOL     OW11508   7.316  10.244   3.379
37161SOL    HW111509   7.354  10.335   3.394
37161SOL    HW211510   7.308  10.227   3.280
37162SOL     OW11511   6.445  10.684   1.878
37162SOL    HW111512   6.399  10.699   1.966
37162SOL    HW211513   6.489  10.769   1.848
37163SOL     OW11514   6.247  11.100   2.815
37163SOL    HW111515   6.201  11.188   2.802
37163SOL    HW211516   6.346  11.112   2.808
37164SOL     OW11517   6.445  10.266   2.723
37164SOL    HW111518   6.499  10.197   2.771
37164SOL    HW211519   6.413  10.335   2.789
37165SOL     OW11520   6.669  10.294   1.949
37165SOL    HW111521   6.646  10.347   1.867
37165SOL    HW211522   6.750  10.238   1.930
37166SOL     OW11523   7.447  10.879   2.713
37166SOL    HW111524   7.376  10.867   2.643
37166SOL    HW211525   7.448  10.800   2.773
37167SOL     OW11526   5.807  10.624   3.706
37167SOL    HW111527   5.742  10.551   3.685
37167SOL    HW211528   5.811  10.638   3.804
37168SOL     OW11529   5.665  10.550   2.515
37168SOL    HW111530   5.664  10.503   2.603
37168SOL    HW211531   5.747  10.522   2.464
37169SOL     OW11532   6.258  10.701   3.486
37169SOL    HW111533   6.180  10.651   3.524
37169SOL    HW211534   6.255  10.796   3.517
37170SOL     OW11535   7.410   9.502   3.089
37170SOL    HW111536   7.406   9.412   3.133
37170SOL    HW211537   7.413   9.491   2.990
37171SOL     OW11538   6.014   9.734   2.382
37171SOL    HW111539   6.044   9.662   2.320
37171SOL    HW211540   5.975   9.694   2.465
37172SOL     OW11541   7.291  10.797   2.966
37172SOL    HW111542   7.198  10.772   2.939
37172SOL    HW211543   7.317  10.747   3.048
37173SOL     OW11544   5.903   9.857   3.142
37173SOL    HW111545   5.941   9.798   3.214
37173SOL    HW211546   5.943   9.831   3.054
37174SOL     OW11547   6.398  10.896   2.549
37174SOL    HW111548   6.430  10.906   2.455
37174SOL    HW211549   6.319  10.834   2.551
37175SOL     OW11550   7.010   9.524   2.974
37175SOL    HW111551   7.062   9.459   3.029
37175SOL    HW211552   6.961   9.587   3.035
37176SOL     OW11553   6.587   9.344   3.016
37176SOL    HW111554   6.524   9.272   2.985
37176SOL    HW211555   6.680   9.308   3.016
37177SOL     OW11556   6.356  10.640   2.163
37177SOL    HW111557   6.310  10.553   2.180
37177SOL    HW211558   6.447  10.637   2.204
37178SOL     OW11559   6.204  10.877   3.146
37178SOL    HW111560   6.199  10.959   3.203
37178SOL    HW211561   6.293  10.874   3.101
37179SOL     OW11562   6.938   9.362   2.030
37179SOL    HW111563   6.973   9.321   1.946
37179SOL    HW211564   6.848   9.324   2.050
37180SOL     OW11565   6.886   9.763   2.553
37180SOL    HW111566   6.827   9.843   2.557
37180SOL    HW211567   6.901   9.728   2.646
37181SOL     OW11568   7.179   9.531   2.744
37181SOL    HW111569   7.095   9.530   2.798
37181SOL    HW211570   7.181   9.614   2.688
37182SOL     OW11571   5.625  10.387   2.162
37182SOL    HW111572   5.724  10.376   2.153
37182SOL    HW211573   5.585  10.301   2.194
37183SOL     OW11574   6.461  10.956   2.199
37183SOL    HW111575   6.384  10.921   2.145
37183SOL    HW211576   6.429  11.027   2.261
37184SOL     OW11577   5.816   9.938   3.837
37184SOL    HW111578   5.723   9.936   3.874
37184SOL    HW211579   5.817   9.899   3.745
37185SOL     OW11580   5.811   9.585   4.720
37185SOL    HW111581   5.846   9.568   4.812
37185SOL    HW211582   5.723   9.540   4.708
37186SOL     OW11583   5.605   9.678   4.371
37186SOL    HW111584   5.523   9.721   4.410
37186SOL    HW211585   5.577   9.605   4.308
37187SOL     OW11586   6.155  10.585   4.889
37187SOL    HW111587   6.062  10.578   4.852
37187SOL    HW211588   6.166  10.674   4.933
37188SOL     OW11589   7.141  10.821   4.427
37188SOL    HW111590   7.084  10.805   4.508
37188SOL    HW211591   7.082  10.831   4.347
37189SOL     OW11592   6.721  10.013   4.441
37189SOL    HW111593   6.778  10.091   4.416
37189SOL    HW211594   6.661  10.039   4.517
37190SOL     OW11595   7.341   9.917   3.955
37190SOL    HW111596   7.329   9.904   3.856
37190SOL    HW211597   7.311   9.836   4.004
37191SOL     OW11598   6.354  10.454   4.747
37191SOL    HW111599   6.276  10.471   4.807
37191SOL    HW211600   6.388  10.541   4.711
37192SOL     OW11601   6.436  10.108   5.547
37192SOL    HW111602   6.432  10.184   5.612
37192SOL    HW211603   6.458  10.144   5.456
37193SOL     OW11604   6.271  10.322   4.389
37193SOL    HW111605   6.340  10.306   4.459
37193SOL    HW211606   6.198  10.379   4.427
37194SOL     OW11607   5.921  10.745   4.785
37194SOL    HW111608   5.843  10.714   4.732
37194SOL    HW211609   5.979  10.803   4.728
37195SOL     OW11610   7.046  10.815   5.063
37195SOL    HW111611   7.070  10.909   5.089
37195SOL    HW211612   7.030  10.761   5.145
37196SOL     OW11613   6.024   9.702   5.223
37196SOL    HW111614   6.106   9.646   5.232
37196SOL    HW211615   5.943   9.644   5.227
37197SOL     OW11616   7.189   9.757   4.461
37197SOL    HW111617   7.115   9.803   4.411
37197SOL    HW211618   7.240   9.825   4.514
37198SOL     OW11619   5.817  11.023   4.207
37198SOL    HW111620   5.851  11.100   4.261
37198SOL    HW211621   5.861  11.023   4.117
37199SOL     OW11622   6.713  10.651   5.414
37199SOL    HW111623   6.760  10.651   5.502
37199SOL    HW211624   6.665  10.564   5.403
37200SOL     OW11625   5.816  10.744   4.262
37200SOL    HW111626   5.790  10.840   4.262
37200SOL    HW211627   5.745  10.690   4.307
37201SOL     OW11628   5.826  10.401   4.610
37201SOL    HW111629   5.840  10.317   4.662
37201SOL    HW211630   5.771  10.465   4.665
37202SOL     OW11631   6.206  11.096   5.163
37202SOL    HW111632   6.114  11.079   5.198
37202SOL    HW211633   6.234  11.188   5.189
37203SOL     OW11634   6.192  10.274   3.847
37203SOL    HW111635   6.199  10.358   3.793
37203SOL    HW211636   6.238  10.287   3.935
37204SOL     OW11637   7.180   9.424   5.204
37204SOL    HW111638   7.162   9.491   5.132
37204SOL    HW211639   7.177   9.470   5.293
37205SOL     OW11640   5.708   9.953   4.287
37205SOL    HW111641   5.663   9.865   4.304
37205SOL    HW211642   5.707  10.007   4.371
37206SOL     OW11643   7.428  11.077   4.083
37206SOL    HW111644   7.482  11.048   4.163
37206SOL    HW211645   7.458  11.167   4.054
37207SOL     OW11646   5.613  10.906   3.841
37207SOL    HW111647   5.594  10.810   3.862
37207SOL    HW211648   5.580  10.964   3.916
37208SOL     OW11649   7.275  10.232   4.336
37208SOL    HW111650   7.370  10.203   4.344
37208SOL    HW211651   7.267  10.297   4.261
37209SOL     OW11652   7.227  10.418   4.156
37209SOL    HW111653   7.313  10.420   4.104
37209SOL    HW211654   7.241  10.465   4.244
37210SOL     OW11655   5.699  10.047   5.321
37210SOL    HW111656   5.787  10.034   5.366
37210SOL    HW211657   5.686  10.144   5.299
37211SOL     OW11658   6.199  10.675   4.450
37211SOL    HW111659   6.150  10.588   4.459
37211SOL    HW211660   6.176  10.718   4.363
37212SOL     OW11661   6.879  10.538   5.147
37212SOL    HW111662   6.916  10.465   5.089
37212SOL    HW211663   6.931  10.543   5.232
37213SOL     OW11664   6.395   9.314   4.226
37213SOL    HW111665   6.435   9.405   4.217
37213SOL    HW211666   6.295   9.322   4.232
37214SOL     OW11667   5.783  10.286   4.988
37214SOL    HW111668   5.872  10.241   4.974
37214SOL    HW211669   5.710  10.221   4.969
37215SOL     OW11670   7.111  10.309   3.914
37215SOL    HW111671   7.048  10.233   3.927
37215SOL    HW211672   7.159  10.327   4.000
37216SOL     OW11673   6.773  11.102   5.340
37216SOL    HW111674   6.797  11.162   5.264
37216SOL    HW211675   6.780  11.007   5.310
37217SOL     OW11676   5.903   9.561   5.525
37217SOL    HW111677   5.974   9.632   5.531
37217SOL    HW211678   5.815   9.600   5.553
37218SOL     OW11679   7.052  10.727   4.677
37218SOL    HW111680   6.993  10.733   4.757
37218SOL    HW211681   7.037  10.639   4.631
37219SOL     OW11682   7.253  11.024   4.296
37219SOL    HW111683   7.212  11.001   4.208
37219SOL    HW211684   7.235  10.950   4.361
37220SOL     OW11685   6.184  10.039   3.994
37220SOL    HW111686   6.208  10.108   3.926
37220SOL    HW211687   6.106  10.072   4.048
37221SOL     OW11688   6.867   9.655   4.668
37221SOL    HW111689   6.781   9.605   4.655
37221SOL    HW211690   6.929   9.601   4.724
37222SOL     OW11691   7.162  10.972   4.031
37222SOL    HW111692   7.251  11.018   4.034
37222SOL    HW211693   7.141  10.948   3.936
37223SOL     OW11694   6.393   9.915   5.189
37223SOL    HW111695   6.346   9.912   5.278
37223SOL    HW211696   6.342   9.860   5.123
37224SOL     OW11697   6.980   9.779   5.398
37224SOL    HW111698   6.960   9.822   5.486
37224SOL    HW211699   7.058   9.717   5.407
37225SOL     OW11700   6.559  10.200   5.296
37225SOL    HW111701   6.605  10.116   5.267
37225SOL    HW211702   6.503  10.234   5.221
37226SOL     OW11703   6.577   9.720   4.966
37226SOL    HW111704   6.500   9.754   5.020
37226SOL    HW211705   6.543   9.669   4.887
37227SOL     OW11706   6.627  10.011   4.153
37227SOL    HW111707   6.653  10.007   4.249
37227SOL    HW211708   6.542   9.960   4.139
37228SOL     OW11709   5.662  10.121   4.513
37228SOL    HW111710   5.761  10.109   4.522
37228SOL    HW211711   5.638  10.216   4.534
37229SOL     OW11712   5.716  11.131   5.295
37229SOL    HW111713   5.706  11.116   5.394
37229SOL    HW211714   5.630  11.167   5.259
37230SOL     OW11715   6.451   9.658   3.919
37230SOL    HW111716   6.510   9.721   3.870
37230SOL    HW211717   6.470   9.564   3.890
37231SOL     OW11718   7.305   9.895   5.555
37231SOL    HW111719   7.279   9.984   5.519
37231SOL    HW211720   7.303   9.827   5.482
37232SOL     OW11721   6.948  10.454   4.269
37232SOL    HW111722   7.031  10.425   4.221
37232SOL    HW211723   6.899  10.521   4.213
37233SOL     OW11724   6.136   9.506   4.609
37233SOL    HW111725   6.131   9.501   4.709
37233SOL    HW211726   6.138   9.602   4.580
37234SOL     OW11727   6.594  10.766   4.201
37234SOL    HW111728   6.548  10.838   4.149
37234SOL    HW211729   6.590  10.786   4.299
37235SOL     OW11730   5.937  11.111   4.577
37235SOL    HW111731   5.987  11.025   4.583
37235SOL    HW211732   6.002  11.188   4.574
37236SOL     OW11733   7.381  10.376   4.597
37236SOL    HW111734   7.319  10.361   4.521
37236SOL    HW211735   7.329  10.387   4.682
37237SOL     OW11736   6.813  10.860   5.230
37237SOL    HW111737   6.819  10.783   5.294
37237SOL    HW211738   6.761  10.834   5.150
37238SOL     OW11739   5.907  10.253   3.966
37238SOL    HW111740   5.989  10.292   3.924
37238SOL    HW211741   5.880  10.171   3.917
37239SOL     OW11742   7.044  10.045   4.452
37239SOL    HW111743   7.039   9.980   4.527
37239SOL    HW211744   7.124  10.104   4.465
37240SOL     OW11745   6.047  10.576   5.451
37240SOL    HW111746   5.997  10.577   5.365
37240SOL    HW211747   5.984  10.558   5.527
37241SOL     OW11748   6.697  11.086   3.961
37241SOL    HW111749   6.637  11.024   4.011
37241SOL    HW211750   6.728  11.042   3.876
37242SOL     OW11751   5.788   9.595   5.222
37242SOL    HW111752   5.708   9.655   5.209
37242SOL    HW211753   5.778   9.546   5.308
37243SOL     OW11754   7.218  10.687   3.805
37243SOL    HW111755   7.186  10.781   3.795
37243SOL    HW211756   7.142  10.624   3.793
37244SOL     OW11757   6.050  11.053   4.047
37244SOL    HW111758   6.083  11.092   4.133
37244SOL    HW211759   6.126  11.046   3.982
37245SOL     OW11760   6.986   9.417   4.150
37245SOL    HW111761   6.962   9.380   4.060
37245SOL    HW211762   7.085   9.433   4.154
37246SOL     OW11763   5.835  11.095   4.965
37246SOL    HW111764   5.892  11.030   5.015
37246SOL    HW211765   5.819  11.062   4.872
37247SOL     OW11766   6.526  11.008   4.628
37247SOL    HW111767   6.606  10.951   4.649
37247SOL    HW211768   6.477  10.968   4.551
37248SOL     OW11769   5.968  10.010   4.204
37248SOL    HW111770   6.013   9.920   4.201
37248SOL    HW211771   5.874   9.999   4.237
37249SOL     OW11772   6.200   9.432   3.841
37249SOL    HW111773   6.298   9.410   3.848
37249SOL    HW211774   6.169   9.415   3.748
37250SOL     OW11775   6.367   9.574   5.473
37250SOL    HW111776   6.434   9.513   5.516
37250SOL    HW211777   6.294   9.593   5.538
37251SOL     OW11778   6.474  10.824   4.919
37251SOL    HW111779   6.451  10.799   4.825
37251SOL    HW211780   6.535  10.755   4.958
37252SOL     OW11781   6.937   9.900   5.157
37252SOL    HW111782   6.965   9.857   5.242
37252SOL    HW211783   6.962   9.996   5.158
37253SOL     OW11784   6.389  10.712   4.648
37253SOL    HW111785   6.479  10.726   4.606
37253SOL    HW211786   6.318  10.714   4.577
37254SOL     OW11787   6.508   9.813   4.623
37254SOL    HW111788   6.483   9.804   4.527
37254SOL    HW211789   6.556   9.731   4.654
37255SOL     OW11790   6.125   9.374   4.236
37255SOL    HW111791   6.044   9.375   4.294
37255SOL    HW211792   6.128   9.457   4.181
37256SOL     OW11793   7.020  10.498   3.765
37256SOL    HW111794   7.052  10.422   3.822
37256SOL    HW211795   6.928  10.525   3.795
37257SOL     OW11796   5.883   9.345   3.895
37257SOL    HW111797   5.932   9.429   3.874
37257SOL    HW211798   5.945   9.280   3.940
37258SOL     OW11799   6.521   9.546   4.204
37258SOL    HW111800   6.473   9.587   4.126
37258SOL    HW211801   6.620   9.544   4.185
37259SOL     OW11802   6.662   9.993   5.188
37259SOL    HW111803   6.582   9.932   5.191
37259SOL    HW211804   6.743   9.940   5.164
37260SOL     OW11805   6.813  10.880   4.517
37260SOL    HW111806   6.834  10.954   4.452
37260SOL    HW211807   6.881  10.880   4.590
37261SOL     OW11808   6.045  10.462   4.465
37261SOL    HW111809   5.974  10.435   4.530
37261SOL    HW211810   6.019  10.434   4.372
37262SOL     OW11811   6.857  11.107   4.315
37262SOL    HW111812   6.901  11.171   4.251
37262SOL    HW211813   6.807  11.159   4.385
37263SOL     OW11814   6.618   9.859   3.740
37263SOL    HW111815   6.577   9.941   3.701
37263SOL    HW211816   6.682   9.885   3.813
37264SOL     OW11817   5.664   9.866   5.110
37264SOL    HW111818   5.756   9.865   5.069
37264SOL    HW211819   5.658   9.940   5.177
37265SOL     OW11820   6.147   9.532   4.871
37265SOL    HW111821   6.185   9.448   4.908
37265SOL    HW211822   6.059   9.551   4.915
37266SOL     OW11823   6.452   9.764   4.366
37266SOL    HW111824   6.420   9.836   4.304
37266SOL    HW211825   6.476   9.683   4.313
37267SOL     OW11826   6.603   9.349   4.477
37267SOL    HW111827   6.531   9.354   4.408
37267SOL    HW211828   6.579   9.280   4.546
37268SOL     OW11829   7.015  10.483   4.591
37268SOL    HW111830   6.960  10.399   4.584
37268SOL    HW211831   7.041  10.512   4.499
37269SOL     OW11832   7.052   9.900   4.716
37269SOL    HW111833   7.022   9.805   4.723
37269SOL    HW211834   7.125   9.916   4.782
37270SOL     OW11835   7.443  10.143   4.101
37270SOL    HW111836   7.485  10.079   4.165
37270SOL    HW211837   7.405  10.092   4.023
37271SOL     OW11838   6.074  10.695   3.898
37271SOL    HW111839   5.987  10.680   3.945
37271SOL    HW211840   6.057  10.721   3.803
37272SOL     OW11841   7.250  10.590   4.381
37272SOL    HW111842   7.349  10.598   4.395
37272SOL    HW211843   7.205  10.674   4.412
37273SOL     OW11844   6.976   9.885   3.802
37273SOL    HW111845   6.922   9.864   3.883
37273SOL    HW211846   7.067   9.844   3.811
37274SOL     OW11847   6.113   9.566   4.052
37274SOL    HW111848   6.140   9.507   3.977
37274SOL    HW211849   6.113   9.661   4.021
37275SOL     OW11850   7.340  10.533   5.312
37275SOL    HW111851   7.431  10.494   5.299
37275SOL    HW211852   7.348  10.629   5.336
37276SOL     OW11853   6.650  10.657   5.064
37276SOL    HW111854   6.570  10.634   5.119
37276SOL    HW211855   6.733  10.631   5.113
37277SOL     OW11856   7.178  10.939   5.349
37277SOL    HW111857   7.205  10.973   5.259
37277SOL    HW211858   7.257  10.901   5.395
37278SOL     OW11859   6.697  10.505   4.824
37278SOL    HW111860   6.657  10.549   4.905
37278SOL    HW211861   6.656  10.542   4.741
37279SOL     OW11862   7.224  10.409   4.803
37279SOL    HW111863   7.229  10.490   4.862
37279SOL    HW211864   7.138  10.411   4.752
37280SOL     OW11865   6.501   9.399   5.126
37280SOL    HW111866   6.526   9.379   5.031
37280SOL    HW211867   6.573   9.455   5.168
37281SOL     OW11868   6.566  10.426   5.443
37281SOL    HW111869   6.467  10.432   5.453
37281SOL    HW211870   6.589  10.346   5.387
37282SOL     OW11871   6.291  10.360   4.092
37282SOL    HW111872   6.277  10.367   4.191
37282SOL    HW211873   6.375  10.309   4.074
37283SOL     OW11874   5.996  10.123   4.975
37283SOL    HW111875   6.082  10.135   5.025
37283SOL    HW211876   5.954  10.036   5.002
37284SOL     OW11877   6.860   9.696   4.986
37284SOL    HW111878   6.881   9.770   5.050
37284SOL    HW211879   6.771   9.713   4.943
37285SOL     OW11880   5.650  10.874   5.055
37285SOL    HW111881   5.604  10.956   5.021
37285SOL    HW211882   5.748  10.893   5.064
37286SOL     OW11883   5.953  10.410   4.225
37286SOL    HW111884   5.946  10.493   4.169
37286SOL    HW211885   5.957  10.330   4.165
37287SOL     OW11886   6.152   9.847   4.589
37287SOL    HW111887   6.164   9.913   4.515
37287SOL    HW211888   6.198   9.881   4.672
37288SOL     OW11889   6.838  10.658   4.112
37288SOL    HW111890   6.888  10.735   4.152
37288SOL    HW211891   6.743  10.660   4.144
37289SOL     OW11892   6.858  10.755   4.866
37289SOL    HW111893   6.905  10.768   4.953
37289SOL    HW211894   6.792  10.681   4.875
37290SOL     OW11895   7.168   9.949   4.196
37290SOL    HW111896   7.137  10.010   4.269
37290SOL    HW211897   7.218  10.001   4.127
37291SOL     OW11898   5.940  10.820   5.053
37291SOL    HW111899   5.919  10.776   4.966
37291SOL    HW211900   6.037  10.846   5.056
37292SOL     OW11901   5.988  10.061   5.322
37292SOL    HW111902   6.056  10.116   5.275
37292SOL    HW211903   6.028   9.973   5.349
37293SOL     OW11904   7.173  10.089   5.394
37293SOL    HW111905   7.081  10.127   5.389
37293SOL    HW211906   7.233  10.136   5.329
37294SOL     OW11907   6.599   9.415   5.494
37294SOL    HW111908   6.605   9.500   5.442
37294SOL    HW211909   6.631   9.339   5.437
37295SOL     OW11910   6.090   9.360   5.464
37295SOL    HW111911   6.048   9.303   5.394
37295SOL    HW211912   6.024   9.429   5.496
37296SOL     OW11913   6.159  10.180   4.753
37296SOL    HW111914   6.203  10.269   4.744
37296SOL    HW211915   6.096  10.180   4.830
37297SOL     OW11916   6.946  10.172   4.769
37297SOL    HW111917   6.871  10.172   4.703
37297SOL    HW211918   6.983  10.080   4.778
37298SOL     OW11919   6.795   9.835   3.999
37298SOL    HW111920   6.808   9.751   4.053
37298SOL    HW211921   6.766   9.909   4.059
37299SOL     OW11922   5.893   9.523   4.955
37299SOL    HW111923   5.870   9.560   5.045
37299SOL    HW211924   5.863   9.428   4.949
37300SOL     OW11925   5.623  10.620   5.006
37300SOL    HW111926   5.676  10.571   5.074
37300SOL    HW211927   5.645  10.718   5.011
37301SOL     OW11928   6.318   9.944   4.788
37301SOL    HW111929   6.377   9.918   4.712
37301SOL    HW211930   6.290  10.040   4.777
37302SOL     OW11931   7.314  10.245   5.578
37302SOL    HW111932   7.268  10.238   5.489
37302SOL    HW211933   7.252  10.289   5.644
37303SOL     OW11934   5.893   9.373   4.342
37303SOL    HW111935   5.882   9.467   4.375
37303SOL    HW211936   5.888   9.310   4.419
37304SOL     OW11937   7.208   9.677   4.098
37304SOL    HW111938   7.210   9.601   4.162
37304SOL    HW211939   7.160   9.754   4.138
37305SOL     OW11940   6.609  10.076   4.690
37305SOL    HW111941   6.624  10.097   4.786
37305SOL    HW211942   6.579   9.981   4.681
37306SOL     OW11943   6.566  10.883   5.424
37306SOL    HW111944   6.546  10.927   5.336
37306SOL    HW211945   6.605  10.792   5.408
37307SOL     OW11946   7.445  10.828   5.329
37307SOL    HW111947   7.459  10.855   5.234
37307SOL    HW211948   7.528  10.850   5.382
37308SOL     OW11949   5.936  10.208   5.528
37308SOL    HW111950   6.012  10.252   5.576
37308SOL    HW211951   5.971  10.161   5.446
37309SOL     OW11952   7.126   9.584   3.849
37309SOL    HW111953   7.065   9.509   3.872
37309SOL    HW211954   7.148   9.636   3.932
37310SOL     OW11955   6.889  10.148   3.766
37310SOL    HW111956   6.923  10.055   3.781
37310SOL    HW211957   6.907  10.175   3.671
37311SOL     OW11958   6.654  10.643   4.573
37311SOL    HW111959   6.661  10.559   4.518
37311SOL    HW211960   6.716  10.712   4.537
37312SOL     OW11961   5.905  10.120   4.673
37312SOL    HW111962   5.998  10.156   4.678
37312SOL    HW211963   5.899  10.035   4.725
37313SOL     OW11964   5.925   9.819   4.730
37313SOL    HW111965   5.873   9.736   4.713
37313SOL    HW211966   6.002   9.824   4.666
37314SOL     OW11967   6.724   9.690   5.402
37314SOL    HW111968   6.679   9.753   5.466
37314SOL    HW211969   6.817   9.721   5.385
37315SOL     OW11970   6.746   9.517   5.201
37315SOL    HW111971   6.746   9.581   5.278
37315SOL    HW211972   6.774   9.565   5.118
37316SOL     OW11973   5.594  10.636   3.924
37316SOL    HW111974   5.501  10.657   3.893
37316SOL    HW211975   5.604  10.537   3.937
37317SOL     OW11976   5.674  11.111   4.651
37317SOL    HW111977   5.632  11.025   4.624
37317SOL    HW211978   5.768  11.114   4.617
37318SOL     OW11979   6.090  10.878   4.634
37318SOL    HW111980   6.156  10.952   4.643
37318SOL    HW211981   6.134  10.799   4.592
37319SOL     OW11982   5.626   9.854   4.838
37319SOL    HW111983   5.711   9.821   4.797
37319SOL    HW211984   5.639   9.869   4.936
37320SOL     OW11985   5.775   9.830   5.446
37320SOL    HW111986   5.834   9.790   5.376
37320SOL    HW211987   5.717   9.901   5.405
37321SOL     OW11988   6.955  10.260   5.384
37321SOL    HW111989   6.994  10.349   5.404
37321SOL    HW211990   6.965  10.240   5.287
37322SOL     OW11991   6.401   9.882   4.049
37322SOL    HW111992   6.408   9.793   4.003
37322SOL    HW211993   6.307   9.916   4.041
37323SOL     OW11994   7.243   9.914   4.930
37323SOL    HW111995   7.205   9.845   4.992
37323SOL    HW211996   7.325   9.878   4.886
37324SOL     OW11997   5.838  10.874   5.468
37324SOL    HW111998   5.808  10.931   5.544
37324SOL    HW211999   5.831  10.777   5.494
37325SOL     OW12000   6.257   9.774   4.993
37325SOL    HW112001   6.223   9.685   4.963
37325SOL    HW212002   6.283   9.828   4.913
37326SOL     OW12003   6.516  10.988   5.189
37326SOL    HW112004   6.492  10.970   5.094
37326SOL    HW212005   6.546  11.082   5.199
37327SOL     OW12006   6.059   9.810   3.915
37327SOL    HW112007   6.120   9.890   3.919
37327SOL    HW212008   5.964   9.841   3.922
37328SOL     OW12009   5.745  10.447   5.190
37328SOL    HW112010   5.767  10.386   5.266
37328SOL    HW212011   5.755  10.398   5.104
37329SOL     OW12012   6.933  10.369   4.958
37329SOL    HW112013   6.957  10.306   4.884
37329SOL    HW212014   6.843  10.409   4.940
37330SOL     OW12015   6.888  10.165   4.033
37330SOL    HW112016   6.802  10.134   4.075
37330SOL    HW212017   6.884  10.151   3.934
37331SOL     OW12018   7.345  11.057   4.878
37331SOL    HW112019   7.406  11.087   4.805
37331SOL    HW212020   7.307  10.968   4.856
37332SOL     OW12021   6.838  11.041   4.852
37332SOL    HW112022   6.922  11.046   4.798
37332SOL    HW212023   6.815  10.945   4.870
37333SOL     OW12024   5.669  10.568   4.746
37333SOL    HW112025   5.664  10.567   4.846
37333SOL    HW212026   5.586  10.527   4.708
37334SOL     OW12027   6.274  10.972   5.440
37334SOL    HW112028   6.218  11.053   5.449
37334SOL    HW212029   6.326  10.976   5.354
37335SOL     OW12030   7.312   9.445   4.247
37335SOL    HW112031   7.385   9.428   4.180
37335SOL    HW212032   7.281   9.358   4.285
37336SOL     OW12033   6.974  10.883   4.201
37336SOL    HW112034   7.041  10.895   4.127
37336SOL    HW212035   6.934  10.972   4.224
37337SOL     OW12036   5.716  11.104   5.575
37337SOL    HW112037   5.675  11.030   5.628
37337SOL    HW212038   5.780  11.155   5.633
37338SOL     OW12039   6.866  10.237   4.396
37338SOL    HW112040   6.926  10.156   4.398
37338SOL    HW212041   6.906  10.306   4.336
37339SOL     OW12042   6.416  10.583   5.146
37339SOL    HW112043   6.411  10.616   5.241
37339SOL    HW212044   6.330  10.602   5.100
37340SOL     OW12045   6.258  10.926   3.878
37340SOL    HW112046   6.267  10.936   3.779
37340SOL    HW212047   6.218  10.837   3.899
37341SOL     OW12048   7.236  11.030   5.118
37341SOL    HW112049   7.289  11.040   5.034
37341SOL    HW212050   7.209  11.120   5.152
37342SOL     OW12051   7.427   9.485   4.687
37342SOL    HW112052   7.466   9.400   4.651
37342SOL    HW212053   7.329   9.487   4.668
37343SOL     OW12054   5.849   9.636   4.444
37343SOL    HW112055   5.770   9.687   4.410
37343SOL    HW212056   5.840   9.621   4.542
37344SOL     OW12057   6.780  10.922   3.755
37344SOL    HW112058   6.786  10.829   3.792
37344SOL    HW212059   6.721  10.922   3.675
37345SOL     OW12060   6.408  10.312   5.096
37345SOL    HW112061   6.448  10.311   5.004
37345SOL    HW212062   6.418  10.404   5.136
37346SOL     OW12063   6.502  10.220   4.015
37346SOL    HW112064   6.565  10.258   3.947
37346SOL    HW212065   6.542  10.137   4.054
37347SOL     OW12066   7.090  10.917   3.768
37347SOL    HW112067   6.998  10.954   3.775
37347SOL    HW212068   7.128  10.937   3.678
37348SOL     OW12069   5.958  10.598   5.214
37348SOL    HW112070   5.945  10.691   5.180
37348SOL    HW212071   5.874  10.546   5.201
37349SOL     OW12072   7.200  10.602   5.013
37349SOL    HW112073   7.260  10.605   5.093
37349SOL    HW212074   7.125  10.666   5.026
37350SOL     OW12075   6.625  10.408   4.420
37350SOL    HW112076   6.555  10.361   4.474
37350SOL    HW212077   6.684  10.340   4.377
37351SOL     OW12078   6.600   9.546   4.695
37351SOL    HW112079   6.592   9.510   4.602
37351SOL    HW212080   6.598   9.470   4.760
37352SOL     OW12081   6.176  10.797   4.215
37352SOL    HW112082   6.218  10.739   4.145
37352SOL    HW212083   6.132  10.876   4.171
37353SOL     OW12084   7.295   9.695   5.105
37353SOL    HW112085   7.368   9.764   5.109
37353SOL    HW212086   7.323   9.620   5.046
37354SOL     OW12087   5.841  10.658   4.014
37354SOL    HW112088   5.745  10.659   3.987
37354SOL    HW212089   5.853  10.711   4.098
37355SOL     OW12090   5.691  10.323   5.450
37355SOL    HW112091   5.614  10.290   5.504
37355SOL    HW212092   5.776  10.293   5.492
37356SOL     OW12093   6.258   9.513   5.213
37356SOL    HW112094   6.348   9.497   5.173
37356SOL    HW212095   6.266   9.518   5.312
37357SOL     OW12096   5.661   9.655   3.757
37357SOL    HW112097   5.569   9.627   3.728
37357SOL    HW212098   5.692   9.732   3.701
37358SOL     OW12099   7.026  10.166   5.122
37358SOL    HW112100   6.969  10.218   5.059
37358SOL    HW212101   7.122  10.178   5.098
37359SOL     OW12102   5.658   9.476   4.042
37359SOL    HW112103   5.641   9.559   3.988
37359SOL    HW212104   5.748   9.439   4.020
37360SOL     OW12105   6.769  10.645   3.843
37360SOL    HW112106   6.670  10.634   3.845
37360SOL    HW212107   6.803  10.660   3.936
37361SOL     OW12108   6.199  10.152   5.155
37361SOL    HW112109   6.255  10.233   5.138
37361SOL    HW212110   6.258  10.072   5.158
37362SOL     OW12111   7.079  11.077   4.683
37362SOL    HW112112   7.112  11.141   4.614
37362SOL    HW212113   7.145  11.071   4.758
37363SOL     OW12114   6.302   9.875   5.432
37363SOL    HW112115   6.321   9.940   5.506
37363SOL    HW212116   6.362   9.795   5.441
37364SOL     OW12117   7.036  10.530   5.357
37364SOL    HW112118   7.027  10.520   5.456
37364SOL    HW212119   7.132  10.523   5.331
37365SOL     OW12120   5.976  11.051   5.284
37365SOL    HW112121   5.885  11.092   5.282
37365SOL    HW212122   5.969  10.957   5.316
37366SOL     OW12123   7.260  10.193   4.978
37366SOL    HW112124   7.233  10.104   4.941
37366SOL    HW212125   7.261  10.261   4.905
37367SOL     OW12126   6.811   9.635   4.173
37367SOL    HW112127   6.876   9.561   4.162
37367SOL    HW212128   6.831   9.685   4.257
37368SOL     OW12129   6.180  10.055   4.376
37368SOL    HW112130   6.230  10.140   4.357
37368SOL    HW212131   6.092  10.057   4.328
37369SOL     OW12132   7.363   9.652   5.366
37369SOL    HW112133   7.346   9.683   5.272
37369SOL    HW212134   7.279   9.615   5.404
37370SOL     OW12135   7.316  10.244   5.241
37370SOL    HW112136   7.354  10.335   5.256
37370SOL    HW212137   7.308  10.227   5.142
37371SOL     OW12138   6.445  10.684   3.740
37371SOL    HW112139   6.399  10.699   3.828
37371SOL    HW212140   6.489  10.769   3.710
37372SOL     OW12141   6.247  11.100   4.677
37372SOL    HW112142   6.201  11.188   4.664
37372SOL    HW212143   6.346  11.112   4.670
37373SOL     OW12144   6.445  10.266   4.585
37373SOL    HW112145   6.499  10.197   4.633
37373SOL    HW212146   6.413  10.335   4.651
37374SOL     OW12147   6.669  10.294   3.811
37374SOL    HW112148   6.646  10.347   3.729
37374SOL    HW212149   6.750  10.238   3.792
37375SOL     OW12150   7.447  10.879   4.575
37375SOL    HW112151   7.376  10.867   4.505
37375SOL    HW212152   7.448  10.800   4.635
37376SOL     OW12153   5.807  10.624   5.568
37376SOL    HW112154   5.742  10.551   5.547
37376SOL    HW212155   5.811  10.638   5.666
37377SOL     OW12156   5.665  10.550   4.377
37377SOL    HW112157   5.664  10.503   4.465
37377SOL    HW212158   5.747  10.522   4.326
37378SOL     OW12159   6.258  10.701   5.348
37378SOL    HW112160   6.180  10.651   5.386
37378SOL    HW212161   6.255  10.796   5.379
37379SOL     OW12162   7.410   9.502   4.951
37379SOL    HW112163   7.406   9.412   4.995
37379SOL    HW212164   7.413   9.491   4.852
37380SOL     OW12165   6.014   9.734   4.244
37380SOL    HW112166   6.044   9.662   4.182
37380SOL    HW212167   5.975   9.694   4.327
37381SOL     OW12168   7.291  10.797   4.828
37381SOL    HW112169   7.198  10.772   4.801
37381SOL    HW212170   7.317  10.747   4.910
37382SOL     OW12171   5.903   9.857   5.004
37382SOL    HW112172   5.941   9.798   5.076
37382SOL    HW212173   5.943   9.831   4.916
37383SOL     OW12174   6.398  10.896   4.411
37383SOL    HW112175   6.430  10.906   4.317
37383SOL    HW212176   6.319  10.834   4.413
37384SOL     OW12177   7.010   9.524   4.836
37384SOL    HW112178   7.062   9.459   4.891
37384SOL    HW212179   6.961   9.587   4.897
37385SOL     OW12180   6.587   9.344   4.878
37385SOL    HW112181   6.524   9.272   4.847
37385SOL    HW212182   6.680   9.308   4.878
37386SOL     OW12183   6.356  10.640   4.025
37386SOL    HW112184   6.310  10.553   4.042
37386SOL    HW212185   6.447  10.637   4.066
37387SOL     OW12186   6.204  10.877   5.008
37387SOL    HW112187   6.199  10.959   5.065
37387SOL    HW212188   6.293  10.874   4.963
37388SOL     OW12189   6.938   9.362   3.892
37388SOL    HW112190   6.973   9.321   3.808
37388SOL    HW212191   6.848   9.324   3.912
37389SOL     OW12192   6.886   9.763   4.415
37389SOL    HW112193   6.827   9.843   4.419
37389SOL    HW212194   6.901   9.728   4.508
37390SOL     OW12195   7.179   9.531   4.606
37390SOL    HW112196   7.095   9.530   4.660
37390SOL    HW212197   7.181   9.614   4.550
37391SOL     OW12198   5.625  10.387   4.024
37391SOL    HW112199   5.724  10.376   4.015
37391SOL    HW212200   5.585  10.301   4.056
37392SOL     OW12201   6.461  10.956   4.061
37392SOL    HW112202   6.384  10.921   4.007
37392SOL    HW212203   6.429  11.027   4.123
37393SOL     OW12204   5.816   9.938   5.699
37393SOL    HW112205   5.723   9.936   5.736
37393SOL    HW212206   5.817   9.899   5.607
37394SOL     OW12207   5.811   9.585   6.582
37394SOL    HW112208   5.846   9.568   6.674
37394SOL    HW212209   5.723   9.540   6.570
37395SOL     OW12210   5.605   9.678   6.233
37395SOL    HW112211   5.523   9.721   6.272
37395SOL    HW212212   5.577   9.605   6.170
37396SOL     OW12213   6.155  10.585   6.751
37396SOL    HW112214   6.062  10.578   6.714
37396SOL    HW212215   6.166  10.674   6.795
37397SOL     OW12216   7.141  10.821   6.289
37397SOL    HW112217   7.084  10.805   6.370
37397SOL    HW212218   7.082  10.831   6.209
37398SOL     OW12219   6.721  10.013   6.303
37398SOL    HW112220   6.778  10.091   6.278
37398SOL    HW212221   6.661  10.039   6.379
37399SOL     OW12222   7.341   9.917   5.817
37399SOL    HW112223   7.329   9.904   5.718
37399SOL    HW212224   7.311   9.836   5.866
37400SOL     OW12225   6.354  10.454   6.609
37400SOL    HW112226   6.276  10.471   6.669
37400SOL    HW212227   6.388  10.541   6.573
37401SOL     OW12228   6.436  10.108   7.409
37401SOL    HW112229   6.432  10.184   7.474
37401SOL    HW212230   6.458  10.144   7.318
37402SOL     OW12231   6.271  10.322   6.251
37402SOL    HW112232   6.340  10.306   6.321
37402SOL    HW212233   6.198  10.379   6.289
37403SOL     OW12234   6.272  10.471   7.389
37403SOL    HW112235   6.332  10.550   7.403
37403SOL    HW212236   6.186  10.502   7.348
37404SOL     OW12237   5.921  10.745   6.647
37404SOL    HW112238   5.843  10.714   6.594
37404SOL    HW212239   5.979  10.803   6.590
37405SOL     OW12240   7.046  10.815   6.925
37405SOL    HW112241   7.070  10.909   6.951
37405SOL    HW212242   7.030  10.761   7.007
37406SOL     OW12243   6.024   9.702   7.085
37406SOL    HW112244   6.106   9.646   7.094
37406SOL    HW212245   5.943   9.644   7.089
37407SOL     OW12246   7.189   9.757   6.323
37407SOL    HW112247   7.115   9.803   6.273
37407SOL    HW212248   7.240   9.825   6.376
37408SOL     OW12249   5.817  11.023   6.069
37408SOL    HW112250   5.851  11.100   6.123
37408SOL    HW212251   5.861  11.023   5.979
37409SOL     OW12252   6.713  10.651   7.276
37409SOL    HW112253   6.760  10.651   7.364
37409SOL    HW212254   6.665  10.564   7.265
37410SOL     OW12255   5.816  10.744   6.124
37410SOL    HW112256   5.790  10.840   6.124
37410SOL    HW212257   5.745  10.690   6.169
37411SOL     OW12258   5.826  10.401   6.472
37411SOL    HW112259   5.840  10.317   6.524
37411SOL    HW212260   5.771  10.465   6.527
37412SOL     OW12261   6.206  11.096   7.025
37412SOL    HW112262   6.114  11.079   7.060
37412SOL    HW212263   6.234  11.188   7.051
37413SOL     OW12264   6.192  10.274   5.709
37413SOL    HW112265   6.199  10.358   5.655
37413SOL    HW212266   6.238  10.287   5.797
37414SOL     OW12267   7.180   9.424   7.066
37414SOL    HW112268   7.162   9.491   6.994
37414SOL    HW212269   7.177   9.470   7.155
37415SOL     OW12270   5.708   9.953   6.149
37415SOL    HW112271   5.663   9.865   6.166
37415SOL    HW212272   5.707  10.007   6.233
37416SOL     OW12273   7.428  11.077   5.945
37416SOL    HW112274   7.482  11.048   6.025
37416SOL    HW212275   7.458  11.167   5.916
37417SOL     OW12276   5.613  10.906   5.703
37417SOL    HW112277   5.594  10.810   5.724
37417SOL    HW212278   5.580  10.964   5.778
37418SOL     OW12279   7.275  10.232   6.198
37418SOL    HW112280   7.370  10.203   6.206
37418SOL    HW212281   7.267  10.297   6.123
37419SOL     OW12282   7.227  10.418   6.018
37419SOL    HW112283   7.313  10.420   5.966
37419SOL    HW212284   7.241  10.465   6.106
37420SOL     OW12285   5.699  10.047   7.183
37420SOL    HW112286   5.787  10.034   7.228
37420SOL    HW212287   5.686  10.144   7.161
37421SOL     OW12288   6.199  10.675   6.312
37421SOL    HW112289   6.150  10.588   6.321
37421SOL    HW212290   6.176  10.718   6.225
37422SOL     OW12291   6.879  10.538   7.009
37422SOL    HW112292   6.916  10.465   6.951
37422SOL    HW212293   6.931  10.543   7.094
37423SOL     OW12294   6.395   9.314   6.088
37423SOL    HW112295   6.435   9.405   6.079
37423SOL    HW212296   6.295   9.322   6.094
37424SOL     OW12297   5.783  10.286   6.850
37424SOL    HW112298   5.872  10.241   6.836
37424SOL    HW212299   5.710  10.221   6.831
37425SOL     OW12300   7.111  10.309   5.776
37425SOL    HW112301   7.048  10.233   5.789
37425SOL    HW212302   7.159  10.327   5.862
37426SOL     OW12303   6.773  11.102   7.202
37426SOL    HW112304   6.797  11.162   7.126
37426SOL    HW212305   6.780  11.007   7.172
37427SOL     OW12306   5.903   9.561   7.387
37427SOL    HW112307   5.974   9.632   7.393
37427SOL    HW212308   5.815   9.600   7.415
37428SOL     OW12309   7.052  10.727   6.539
37428SOL    HW112310   6.993  10.733   6.619
37428SOL    HW212311   7.037  10.639   6.493
37429SOL     OW12312   7.253  11.024   6.158
37429SOL    HW112313   7.212  11.001   6.070
37429SOL    HW212314   7.235  10.950   6.223
37430SOL     OW12315   6.184  10.039   5.856
37430SOL    HW112316   6.208  10.108   5.788
37430SOL    HW212317   6.106  10.072   5.910
37431SOL     OW12318   6.867   9.655   6.530
37431SOL    HW112319   6.781   9.605   6.517
37431SOL    HW212320   6.929   9.601   6.586
37432SOL     OW12321   7.162  10.972   5.893
37432SOL    HW112322   7.251  11.018   5.896
37432SOL    HW212323   7.141  10.948   5.798
37433SOL     OW12324   6.393   9.915   7.051
37433SOL    HW112325   6.346   9.912   7.140
37433SOL    HW212326   6.342   9.860   6.985
37434SOL     OW12327   6.980   9.779   7.260
37434SOL    HW112328   6.960   9.822   7.348
37434SOL    HW212329   7.058   9.717   7.269
37435SOL     OW12330   6.559  10.200   7.158
37435SOL    HW112331   6.605  10.116   7.129
37435SOL    HW212332   6.503  10.234   7.083
37436SOL     OW12333   6.577   9.720   6.828
37436SOL    HW112334   6.500   9.754   6.882
37436SOL    HW212335   6.543   9.669   6.749
37437SOL     OW12336   6.627  10.011   6.015
37437SOL    HW112337   6.653  10.007   6.111
37437SOL    HW212338   6.542   9.960   6.001
37438SOL     OW12339   5.662  10.121   6.375
37438SOL    HW112340   5.761  10.109   6.384
37438SOL    HW212341   5.638  10.216   6.396
37439SOL     OW12342   5.716  11.131   7.157
37439SOL    HW112343   5.706  11.116   7.256
37439SOL    HW212344   5.630  11.167   7.121
37440SOL     OW12345   6.451   9.658   5.781
37440SOL    HW112346   6.510   9.721   5.732
37440SOL    HW212347   6.470   9.564   5.752
37441SOL     OW12348   7.305   9.895   7.417
37441SOL    HW112349   7.279   9.984   7.381
37441SOL    HW212350   7.303   9.827   7.344
37442SOL     OW12351   6.948  10.454   6.131
37442SOL    HW112352   7.031  10.425   6.083
37442SOL    HW212353   6.899  10.521   6.075
37443SOL     OW12354   6.136   9.506   6.471
37443SOL    HW112355   6.131   9.501   6.571
37443SOL    HW212356   6.138   9.602   6.442
37444SOL     OW12357   6.594  10.766   6.063
37444SOL    HW112358   6.548  10.838   6.011
37444SOL    HW212359   6.590  10.786   6.161
37445SOL     OW12360   5.937  11.111   6.439
37445SOL    HW112361   5.987  11.025   6.445
37445SOL    HW212362   6.002  11.188   6.436
37446SOL     OW12363   7.381  10.376   6.459
37446SOL    HW112364   7.319  10.361   6.383
37446SOL    HW212365   7.329  10.387   6.544
37447SOL     OW12366   6.813  10.860   7.092
37447SOL    HW112367   6.819  10.783   7.156
37447SOL    HW212368   6.761  10.834   7.012
37448SOL     OW12369   5.907  10.253   5.828
37448SOL    HW112370   5.989  10.292   5.786
37448SOL    HW212371   5.880  10.171   5.779
37449SOL     OW12372   7.044  10.045   6.314
37449SOL    HW112373   7.039   9.980   6.389
37449SOL    HW212374   7.124  10.104   6.327
37450SOL     OW12375   6.047  10.576   7.313
37450SOL    HW112376   5.997  10.577   7.227
37450SOL    HW212377   5.984  10.558   7.389
37451SOL     OW12378   6.697  11.086   5.823
37451SOL    HW112379   6.637  11.024   5.873
37451SOL    HW212380   6.728  11.042   5.738
37452SOL     OW12381   5.788   9.595   7.084
37452SOL    HW112382   5.708   9.655   7.071
37452SOL    HW212383   5.778   9.546   7.170
37453SOL     OW12384   7.218  10.687   5.667
37453SOL    HW112385   7.186  10.781   5.657
37453SOL    HW212386   7.142  10.624   5.655
37454SOL     OW12387   6.050  11.053   5.909
37454SOL    HW112388   6.083  11.092   5.995
37454SOL    HW212389   6.126  11.046   5.844
37455SOL     OW12390   6.986   9.417   6.012
37455SOL    HW112391   6.962   9.380   5.922
37455SOL    HW212392   7.085   9.433   6.016
37456SOL     OW12393   5.835  11.095   6.827
37456SOL    HW112394   5.892  11.030   6.877
37456SOL    HW212395   5.819  11.062   6.734
37457SOL     OW12396   6.526  11.008   6.490
37457SOL    HW112397   6.606  10.951   6.511
37457SOL    HW212398   6.477  10.968   6.413
37458SOL     OW12399   5.968  10.010   6.066
37458SOL    HW112400   6.013   9.920   6.063
37458SOL    HW212401   5.874   9.999   6.099
37459SOL     OW12402   7.133   9.532   7.315
37459SOL    HW112403   7.128   9.569   7.407
37459SOL    HW212404   7.061   9.463   7.303
37460SOL     OW12405   6.200   9.432   5.703
37460SOL    HW112406   6.298   9.410   5.710
37460SOL    HW212407   6.169   9.415   5.610
37461SOL     OW12408   6.367   9.574   7.335
37461SOL    HW112409   6.434   9.513   7.378
37461SOL    HW212410   6.294   9.593   7.400
37462SOL     OW12411   6.474  10.824   6.781
37462SOL    HW112412   6.451  10.799   6.687
37462SOL    HW212413   6.535  10.755   6.820
37463SOL     OW12414   6.937   9.900   7.019
37463SOL    HW112415   6.965   9.857   7.104
37463SOL    HW212416   6.962   9.996   7.020
37464SOL     OW12417   6.389  10.712   6.510
37464SOL    HW112418   6.479  10.726   6.468
37464SOL    HW212419   6.318  10.714   6.439
37465SOL     OW12420   6.508   9.813   6.485
37465SOL    HW112421   6.483   9.804   6.389
37465SOL    HW212422   6.556   9.731   6.516
37466SOL     OW12423   6.125   9.374   6.098
37466SOL    HW112424   6.044   9.375   6.156
37466SOL    HW212425   6.128   9.457   6.043
37467SOL     OW12426   7.020  10.498   5.627
37467SOL    HW112427   7.052  10.422   5.684
37467SOL    HW212428   6.928  10.525   5.657
37468SOL     OW12429   5.883   9.345   5.757
37468SOL    HW112430   5.932   9.429   5.736
37468SOL    HW212431   5.945   9.280   5.802
37469SOL     OW12432   6.521   9.546   6.066
37469SOL    HW112433   6.473   9.587   5.988
37469SOL    HW212434   6.620   9.544   6.047
37470SOL     OW12435   6.662   9.993   7.050
37470SOL    HW112436   6.582   9.932   7.053
37470SOL    HW212437   6.743   9.940   7.026
37471SOL     OW12438   6.813  10.880   6.379
37471SOL    HW112439   6.834  10.954   6.314
37471SOL    HW212440   6.881  10.880   6.452
37472SOL     OW12441   6.045  10.462   6.327
37472SOL    HW112442   5.974  10.435   6.392
37472SOL    HW212443   6.019  10.434   6.234
37473SOL     OW12444   6.857  11.107   6.177
37473SOL    HW112445   6.901  11.171   6.113
37473SOL    HW212446   6.807  11.159   6.247
37474SOL     OW12447   6.618   9.859   5.602
37474SOL    HW112448   6.577   9.941   5.563
37474SOL    HW212449   6.682   9.885   5.675
37475SOL     OW12450   5.664   9.866   6.972
37475SOL    HW112451   5.756   9.865   6.931
37475SOL    HW212452   5.658   9.940   7.039
37476SOL     OW12453   6.147   9.532   6.733
37476SOL    HW112454   6.185   9.448   6.770
37476SOL    HW212455   6.059   9.551   6.777
37477SOL     OW12456   6.452   9.764   6.228
37477SOL    HW112457   6.420   9.836   6.166
37477SOL    HW212458   6.476   9.683   6.175
37478SOL     OW12459   6.603   9.349   6.339
37478SOL    HW112460   6.531   9.354   6.270
37478SOL    HW212461   6.579   9.280   6.408
37479SOL     OW12462   7.015  10.483   6.453
37479SOL    HW112463   6.960  10.399   6.446
37479SOL    HW212464   7.041  10.512   6.361
37480SOL     OW12465   7.052   9.900   6.578
37480SOL    HW112466   7.022   9.805   6.585
37480SOL    HW212467   7.125   9.916   6.644
37481SOL     OW12468   7.443  10.143   5.963
37481SOL    HW112469   7.485  10.079   6.027
37481SOL    HW212470   7.405  10.092   5.885
37482SOL     OW12471   6.074  10.695   5.760
37482SOL    HW112472   5.987  10.680   5.807
37482SOL    HW212473   6.057  10.721   5.665
37483SOL     OW12474   7.250  10.590   6.243
37483SOL    HW112475   7.349  10.598   6.257
37483SOL    HW212476   7.205  10.674   6.274
37484SOL     OW12477   6.976   9.885   5.664
37484SOL    HW112478   6.922   9.864   5.745
37484SOL    HW212479   7.067   9.844   5.673
37485SOL     OW12480   6.113   9.566   5.914
37485SOL    HW112481   6.140   9.507   5.839
37485SOL    HW212482   6.113   9.661   5.883
37486SOL     OW12483   7.340  10.533   7.174
37486SOL    HW112484   7.431  10.494   7.161
37486SOL    HW212485   7.348  10.629   7.198
37487SOL     OW12486   6.650  10.657   6.926
37487SOL    HW112487   6.570  10.634   6.981
37487SOL    HW212488   6.733  10.631   6.975
37488SOL     OW12489   7.178  10.939   7.211
37488SOL    HW112490   7.205  10.973   7.121
37488SOL    HW212491   7.257  10.901   7.257
37489SOL     OW12492   6.697  10.505   6.686
37489SOL    HW112493   6.657  10.549   6.767
37489SOL    HW212494   6.656  10.542   6.603
37490SOL     OW12495   7.224  10.409   6.665
37490SOL    HW112496   7.229  10.490   6.724
37490SOL    HW212497   7.138  10.411   6.614
37491SOL     OW12498   6.501   9.399   6.988
37491SOL    HW112499   6.526   9.379   6.893
37491SOL    HW212500   6.573   9.455   7.030
37492SOL     OW12501   6.566  10.426   7.305
37492SOL    HW112502   6.467  10.432   7.315
37492SOL    HW212503   6.589  10.346   7.249
37493SOL     OW12504   6.291  10.360   5.954
37493SOL    HW112505   6.277  10.367   6.053
37493SOL    HW212506   6.375  10.309   5.936
37494SOL     OW12507   5.996  10.123   6.837
37494SOL    HW112508   6.082  10.135   6.887
37494SOL    HW212509   5.954  10.036   6.864
37495SOL     OW12510   6.860   9.696   6.848
37495SOL    HW112511   6.881   9.770   6.912
37495SOL    HW212512   6.771   9.713   6.805
37496SOL     OW12513   5.650  10.874   6.917
37496SOL    HW112514   5.604  10.956   6.883
37496SOL    HW212515   5.748  10.893   6.926
37497SOL     OW12516   5.953  10.410   6.087
37497SOL    HW112517   5.946  10.493   6.031
37497SOL    HW212518   5.957  10.330   6.027
37498SOL     OW12519   6.152   9.847   6.451
37498SOL    HW112520   6.164   9.913   6.377
37498SOL    HW212521   6.198   9.881   6.534
37499SOL     OW12522   6.838  10.658   5.974
37499SOL    HW112523   6.888  10.735   6.014
37499SOL    HW212524   6.743  10.660   6.006
37500SOL     OW12525   6.858  10.755   6.728
37500SOL    HW112526   6.905  10.768   6.815
37500SOL    HW212527   6.792  10.681   6.737
37501SOL     OW12528   7.168   9.949   6.058
37501SOL    HW112529   7.137  10.010   6.131
37501SOL    HW212530   7.218  10.001   5.989
37502SOL     OW12531   5.940  10.820   6.915
37502SOL    HW112532   5.919  10.776   6.828
37502SOL    HW212533   6.037  10.846   6.918
37503SOL     OW12534   5.988  10.061   7.184
37503SOL    HW112535   6.056  10.116   7.137
37503SOL    HW212536   6.028   9.973   7.211
37504SOL     OW12537   7.173  10.089   7.256
37504SOL    HW112538   7.081  10.127   7.251
37504SOL    HW212539   7.233  10.136   7.191
37505SOL     OW12540   6.599   9.415   7.356
37505SOL    HW112541   6.605   9.500   7.304
37505SOL    HW212542   6.631   9.339   7.299
37506SOL     OW12543   6.090   9.360   7.326
37506SOL    HW112544   6.048   9.303   7.256
37506SOL    HW212545   6.024   9.429   7.358
37507SOL     OW12546   6.159  10.180   6.615
37507SOL    HW112547   6.203  10.269   6.606
37507SOL    HW212548   6.096  10.180   6.692
37508SOL     OW12549   6.946  10.172   6.631
37508SOL    HW112550   6.871  10.172   6.565
37508SOL    HW212551   6.983  10.080   6.640
37509SOL     OW12552   6.795   9.835   5.861
37509SOL    HW112553   6.808   9.751   5.915
37509SOL    HW212554   6.766   9.909   5.921
37510SOL     OW12555   5.893   9.523   6.817
37510SOL    HW112556   5.870   9.560   6.907
37510SOL    HW212557   5.863   9.428   6.811
37511SOL     OW12558   5.623  10.620   6.868
37511SOL    HW112559   5.676  10.571   6.936
37511SOL    HW212560   5.645  10.718   6.873
37512SOL     OW12561   6.318   9.944   6.650
37512SOL    HW112562   6.377   9.918   6.574
37512SOL    HW212563   6.290  10.040   6.639
37513SOL     OW12564   7.314  10.245   7.440
37513SOL    HW112565   7.268  10.238   7.351
37513SOL    HW212566   7.252  10.289   7.506
37514SOL     OW12567   5.893   9.373   6.204
37514SOL    HW112568   5.882   9.467   6.237
37514SOL    HW212569   5.888   9.310   6.281
37515SOL     OW12570   7.208   9.677   5.960
37515SOL    HW112571   7.210   9.601   6.024
37515SOL    HW212572   7.160   9.754   6.000
37516SOL     OW12573   6.609  10.076   6.552
37516SOL    HW112574   6.624  10.097   6.648
37516SOL    HW212575   6.579   9.981   6.543
37517SOL     OW12576   6.566  10.883   7.286
37517SOL    HW112577   6.546  10.927   7.198
37517SOL    HW212578   6.605  10.792   7.270
37518SOL     OW12579   7.445  10.828   7.191
37518SOL    HW112580   7.459  10.855   7.096
37518SOL    HW212581   7.528  10.850   7.244
37519SOL     OW12582   5.936  10.208   7.390
37519SOL    HW112583   6.012  10.252   7.438
37519SOL    HW212584   5.971  10.161   7.308
37520SOL     OW12585   7.126   9.584   5.711
37520SOL    HW112586   7.065   9.509   5.734
37520SOL    HW212587   7.148   9.636   5.794
37521SOL     OW12588   6.889  10.148   5.628
37521SOL    HW112589   6.923  10.055   5.643
37521SOL    HW212590   6.907  10.175   5.533
37522SOL     OW12591   6.654  10.643   6.435
37522SOL    HW112592   6.661  10.559   6.380
37522SOL    HW212593   6.716  10.712   6.399
37523SOL     OW12594   5.905  10.120   6.535
37523SOL    HW112595   5.998  10.156   6.540
37523SOL    HW212596   5.899  10.035   6.587
37524SOL     OW12597   5.925   9.819   6.592
37524SOL    HW112598   5.873   9.736   6.575
37524SOL    HW212599   6.002   9.824   6.528
37525SOL     OW12600   6.724   9.690   7.264
37525SOL    HW112601   6.679   9.753   7.328
37525SOL    HW212602   6.817   9.721   7.247
37526SOL     OW12603   6.746   9.517   7.063
37526SOL    HW112604   6.746   9.581   7.140
37526SOL    HW212605   6.774   9.565   6.980
37527SOL     OW12606   5.594  10.636   5.786
37527SOL    HW112607   5.501  10.657   5.755
37527SOL    HW212608   5.604  10.537   5.799
37528SOL     OW12609   5.674  11.111   6.513
37528SOL    HW112610   5.632  11.025   6.486
37528SOL    HW212611   5.768  11.114   6.479
37529SOL     OW12612   6.090  10.878   6.496
37529SOL    HW112613   6.156  10.952   6.505
37529SOL    HW212614   6.134  10.799   6.454
37530SOL     OW12615   6.588  10.106   6.824
37530SOL    HW112616   6.629  10.074   6.910
37530SOL    HW212617   6.492  10.079   6.821
37531SOL     OW12618   5.626   9.854   6.700
37531SOL    HW112619   5.711   9.821   6.659
37531SOL    HW212620   5.639   9.869   6.798
37532SOL     OW12621   5.775   9.830   7.308
37532SOL    HW112622   5.834   9.790   7.238
37532SOL    HW212623   5.717   9.901   7.267
37533SOL     OW12624   6.955  10.260   7.246
37533SOL    HW112625   6.994  10.349   7.266
37533SOL    HW212626   6.965  10.240   7.149
37534SOL     OW12627   6.401   9.882   5.911
37534SOL    HW112628   6.408   9.793   5.865
37534SOL    HW212629   6.307   9.916   5.903
37535SOL     OW12630   7.243   9.914   6.792
37535SOL    HW112631   7.205   9.845   6.854
37535SOL    HW212632   7.325   9.878   6.748
37536SOL     OW12633   5.838  10.874   7.330
37536SOL    HW112634   5.808  10.931   7.406
37536SOL    HW212635   5.831  10.777   7.356
37537SOL     OW12636   6.257   9.774   6.855
37537SOL    HW112637   6.223   9.685   6.825
37537SOL    HW212638   6.283   9.828   6.775
37538SOL     OW12639   6.516  10.988   7.051
37538SOL    HW112640   6.492  10.970   6.956
37538SOL    HW212641   6.546  11.082   7.061
37539SOL     OW12642   6.059   9.810   5.777
37539SOL    HW112643   6.120   9.890   5.781
37539SOL    HW212644   5.964   9.841   5.784
37540SOL     OW12645   5.745  10.447   7.052
37540SOL    HW112646   5.767  10.386   7.128
37540SOL    HW212647   5.755  10.398   6.966
37541SOL     OW12648   6.933  10.369   6.820
37541SOL    HW112649   6.957  10.306   6.746
37541SOL    HW212650   6.843  10.409   6.802
37542SOL     OW12651   6.888  10.165   5.895
37542SOL    HW112652   6.802  10.134   5.937
37542SOL    HW212653   6.884  10.151   5.796
37543SOL     OW12654   7.345  11.057   6.740
37543SOL    HW112655   7.406  11.087   6.667
37543SOL    HW212656   7.307  10.968   6.718
37544SOL     OW12657   6.838  11.041   6.714
37544SOL    HW112658   6.922  11.046   6.660
37544SOL    HW212659   6.815  10.945   6.732
37545SOL     OW12660   5.669  10.568   6.608
37545SOL    HW112661   5.664  10.567   6.708
37545SOL    HW212662   5.586  10.527   6.570
37546SOL     OW12663   6.274  10.972   7.302
37546SOL    HW112664   6.218  11.053   7.311
37546SOL    HW212665   6.326  10.976   7.216
37547SOL     OW12666   7.312   9.445   6.109
37547SOL    HW112667   7.385   9.428   6.042
37547SOL    HW212668   7.281   9.358   6.147
37548SOL     OW12669   6.974  10.883   6.063
37548SOL    HW112670   7.041  10.895   5.989
37548SOL    HW212671   6.934  10.972   6.086
37549SOL     OW12672   5.716  11.104   7.437
37549SOL    HW112673   5.675  11.030   7.490
37549SOL    HW212674   5.780  11.155   7.495
37550SOL     OW12675   6.866  10.237   6.258
37550SOL    HW112676   6.926  10.156   6.260
37550SOL    HW212677   6.906  10.306   6.198
37551SOL     OW12678   6.416  10.583   7.008
37551SOL    HW112679   6.411  10.616   7.103
37551SOL    HW212680   6.330  10.602   6.962
37552SOL     OW12681   6.258  10.926   5.740
37552SOL    HW112682   6.267  10.936   5.641
37552SOL    HW212683   6.218  10.837   5.761
37553SOL     OW12684   7.236  11.030   6.980
37553SOL    HW112685   7.289  11.040   6.896
37553SOL    HW212686   7.209  11.120   7.014
37554SOL     OW12687   7.427   9.485   6.549
37554SOL    HW112688   7.466   9.400   6.513
37554SOL    HW212689   7.329   9.487   6.530
37555SOL     OW12690   5.849   9.636   6.306
37555SOL    HW112691   5.770   9.687   6.272
37555SOL    HW212692   5.840   9.621   6.404
37556SOL     OW12693   6.780  10.922   5.617
37556SOL    HW112694   6.786  10.829   5.654
37556SOL    HW212695   6.721  10.922   5.537
37557SOL     OW12696   6.408  10.312   6.958
37557SOL    HW112697   6.448  10.311   6.866
37557SOL    HW212698   6.418  10.404   6.998
37558SOL     OW12699   6.502  10.220   5.877
37558SOL    HW112700   6.565  10.258   5.809
37558SOL    HW212701   6.542  10.137   5.916
37559SOL     OW12702   7.090  10.917   5.630
37559SOL    HW112703   6.998  10.954   5.637
37559SOL    HW212704   7.128  10.937   5.540
37560SOL     OW12705   5.958  10.598   7.076
37560SOL    HW112706   5.945  10.691   7.042
37560SOL    HW212707   5.874  10.546   7.063
37561SOL     OW12708   7.200  10.602   6.875
37561SOL    HW112709   7.260  10.605   6.955
37561SOL    HW212710   7.125  10.666   6.888
37562SOL     OW12711   6.625  10.408   6.282
37562SOL    HW112712   6.555  10.361   6.336
37562SOL    HW212713   6.684  10.340   6.239
37563SOL     OW12714   6.600   9.546   6.557
37563SOL    HW112715   6.592   9.510   6.464
37563SOL    HW212716   6.598   9.470   6.622
37564SOL     OW12717   6.176  10.797   6.077
37564SOL    HW112718   6.218  10.739   6.007
37564SOL    HW212719   6.132  10.876   6.033
37565SOL     OW12720   7.295   9.695   6.967
37565SOL    HW112721   7.368   9.764   6.971
37565SOL    HW212722   7.323   9.620   6.908
37566SOL     OW12723   5.841  10.658   5.876
37566SOL    HW112724   5.745  10.659   5.849
37566SOL    HW212725   5.853  10.711   5.960
37567SOL     OW12726   5.691  10.323   7.312
37567SOL    HW112727   5.614  10.290   7.366
37567SOL    HW212728   5.776  10.293   7.354
37568SOL     OW12729   6.258   9.513   7.075
37568SOL    HW112730   6.348   9.497   7.035
37568SOL    HW212731   6.266   9.518   7.174
37569SOL     OW12732   5.661   9.655   5.619
37569SOL    HW112733   5.569   9.627   5.590
37569SOL    HW212734   5.692   9.732   5.563
37570SOL     OW12735   7.026  10.166   6.984
37570SOL    HW112736   6.969  10.218   6.921
37570SOL    HW212737   7.122  10.178   6.960
37571SOL     OW12738   5.658   9.476   5.904
37571SOL    HW112739   5.641   9.559   5.850
37571SOL    HW212740   5.748   9.439   5.882
37572SOL     OW12741   6.769  10.645   5.705
37572SOL    HW112742   6.670  10.634   5.707
37572SOL    HW212743   6.803  10.660   5.798
37573SOL     OW12744   6.199  10.152   7.017
37573SOL    HW112745   6.255  10.233   7.000
37573SOL    HW212746   6.258  10.072   7.020
37574SOL     OW12747   7.079  11.077   6.545
37574SOL    HW112748   7.112  11.141   6.476
37574SOL    HW212749   7.145  11.071   6.620
37575SOL     OW12750   6.302   9.875   7.294
37575SOL    HW112751   6.321   9.940   7.368
37575SOL    HW212752   6.362   9.795   7.303
37576SOL     OW12753   7.036  10.530   7.219
37576SOL    HW112754   7.027  10.520   7.318
37576SOL    HW212755   7.132  10.523   7.193
37577SOL     OW12756   5.976  11.051   7.146
37577SOL    HW112757   5.885  11.092   7.144
37577SOL    HW212758   5.969  10.957   7.178
37578SOL     OW12759   7.260  10.193   6.840
37578SOL    HW112760   7.233  10.104   6.803
37578SOL    HW212761   7.261  10.261   6.767
37579SOL     OW12762   6.811   9.635   6.035
37579SOL    HW112763   6.876   9.561   6.024
37579SOL    HW212764   6.831   9.685   6.119
37580SOL     OW12765   6.180  10.055   6.238
37580SOL    HW112766   6.230  10.140   6.219
37580SOL    HW212767   6.092  10.057   6.190
37581SOL     OW12768   7.363   9.652   7.228
37581SOL    HW112769   7.346   9.683   7.134
37581SOL    HW212770   7.279   9.615   7.266
37582SOL     OW12771   7.316  10.244   7.103
37582SOL    HW112772   7.354  10.335   7.118
37582SOL    HW212773   7.308  10.227   7.004
37583SOL     OW12774   6.445  10.684   5.602
37583SOL    HW112775   6.399  10.699   5.690
37583SOL    HW212776   6.489  10.769   5.572
37584SOL     OW12777   6.247  11.100   6.539
37584SOL    HW112778   6.201  11.188   6.526
37584SOL    HW212779   6.346  11.112   6.532
37585SOL     OW12780   6.445  10.266   6.447
37585SOL    HW112781   6.499  10.197   6.495
37585SOL    HW212782   6.413  10.335   6.513
37586SOL     OW12783   6.669  10.294   5.673
37586SOL    HW112784   6.646  10.347   5.591
37586SOL    HW212785   6.750  10.238   5.654
37587SOL     OW12786   7.447  10.879   6.437
37587SOL    HW112787   7.376  10.867   6.367
37587SOL    HW212788   7.448  10.800   6.497
37588SOL     OW12789   5.807  10.624   7.430
37588SOL    HW112790   5.742  10.551   7.409
37588SOL    HW212791   5.811  10.638   7.528
37589SOL     OW12792   5.665  10.550   6.239
37589SOL    HW112793   5.664  10.503   6.327
37589SOL    HW212794   5.747  10.522   6.188
37590SOL     OW12795   6.258  10.701   7.210
37590SOL    HW112796   6.180  10.651   7.248
37590SOL    HW212797   6.255  10.796   7.241
37591SOL     OW12798   7.410   9.502   6.813
37591SOL    HW112799   7.406   9.412   6.857
37591SOL    HW212800   7.413   9.491   6.714
37592SOL     OW12801   6.014   9.734   6.106
37592SOL    HW112802   6.044   9.662   6.044
37592SOL    HW212803   5.975   9.694   6.189
37593SOL     OW12804   7.291  10.797   6.690
37593SOL    HW112805   7.198  10.772   6.663
37593SOL    HW212806   7.317  10.747   6.772
37594SOL     OW12807   5.903   9.857   6.866
37594SOL    HW112808   5.941   9.798   6.938
37594SOL    HW212809   5.943   9.831   6.778
37595SOL     OW12810   6.398  10.896   6.273
37595SOL    HW112811   6.430  10.906   6.179
37595SOL    HW212812   6.319  10.834   6.275
37596SOL     OW12813   7.010   9.524   6.698
37596SOL    HW112814   7.062   9.459   6.753
37596SOL    HW212815   6.961   9.587   6.759
37597SOL     OW12816   6.587   9.344   6.740
37597SOL    HW112817   6.524   9.272   6.709
37597SOL    HW212818   6.680   9.308   6.740
37598SOL     OW12819   6.356  10.640   5.887
37598SOL    HW112820   6.310  10.553   5.904
37598SOL    HW212821   6.447  10.637   5.928
37599SOL     OW12822   6.204  10.877   6.870
37599SOL    HW112823   6.199  10.959   6.927
37599SOL    HW212824   6.293  10.874   6.825
37600SOL     OW12825   6.938   9.362   5.754
37600SOL    HW112826   6.973   9.321   5.670
37600SOL    HW212827   6.848   9.324   5.774
37601SOL     OW12828   6.886   9.763   6.277
37601SOL    HW112829   6.827   9.843   6.281
37601SOL    HW212830   6.901   9.728   6.370
37602SOL     OW12831   7.179   9.531   6.468
37602SOL    HW112832   7.095   9.530   6.522
37602SOL    HW212833   7.181   9.614   6.412
37603SOL     OW12834   5.625  10.387   5.886
37603SOL    HW112835   5.724  10.376   5.877
37603SOL    HW212836   5.585  10.301   5.918
37604SOL     OW12837   6.461  10.956   5.923
37604SOL    HW112838   6.384  10.921   5.869
37604SOL    HW212839   6.429  11.027   5.985
37605SOL     OW12840   5.816   9.938   7.561
37605SOL    HW112841   5.723   9.936   7.598
37605SOL    HW212842   5.817   9.899   7.469
37606SOL     OW12843   5.811   9.585   8.444
37606SOL    HW112844   5.846   9.568   8.536
37606SOL    HW212845   5.723   9.540   8.432
37607SOL     OW12846   5.605   9.678   8.095
37607SOL    HW112847   5.523   9.721   8.134
37607SOL    HW212848   5.577   9.605   8.032
37608SOL     OW12849   6.155  10.585   8.613
37608SOL    HW112850   6.062  10.578   8.576
37608SOL    HW212851   6.166  10.674   8.657
37609SOL     OW12852   7.141  10.821   8.151
37609SOL    HW112853   7.084  10.805   8.232
37609SOL    HW212854   7.082  10.831   8.071
37610SOL     OW12855   6.721  10.013   8.165
37610SOL    HW112856   6.778  10.091   8.140
37610SOL    HW212857   6.661  10.039   8.241
37611SOL     OW12858   7.341   9.917   7.679
37611SOL    HW112859   7.329   9.904   7.580
37611SOL    HW212860   7.311   9.836   7.728
37612SOL     OW12861   6.354  10.454   8.471
37612SOL    HW112862   6.276  10.471   8.531
37612SOL    HW212863   6.388  10.541   8.435
37613SOL     OW12864   6.436  10.108   9.271
37613SOL    HW112865   6.432  10.184   9.336
37613SOL    HW212866   6.458  10.144   9.180
37614SOL     OW12867   6.271  10.322   8.113
37614SOL    HW112868   6.340  10.306   8.183
37614SOL    HW212869   6.198  10.379   8.151
37615SOL     OW12870   6.272  10.471   9.251
37615SOL    HW112871   6.332  10.550   9.265
37615SOL    HW212872   6.186  10.502   9.210
37616SOL     OW12873   5.921  10.745   8.509
37616SOL    HW112874   5.843  10.714   8.456
37616SOL    HW212875   5.979  10.803   8.452
37617SOL     OW12876   7.046  10.815   8.787
37617SOL    HW112877   7.070  10.909   8.813
37617SOL    HW212878   7.030  10.761   8.869
37618SOL     OW12879   6.024   9.702   8.947
37618SOL    HW112880   6.106   9.646   8.956
37618SOL    HW212881   5.943   9.644   8.951
37619SOL     OW12882   7.189   9.757   8.185
37619SOL    HW112883   7.115   9.803   8.135
37619SOL    HW212884   7.240   9.825   8.238
37620SOL     OW12885   5.817  11.023   7.931
37620SOL    HW112886   5.851  11.100   7.985
37620SOL    HW212887   5.861  11.023   7.841
37621SOL     OW12888   6.713  10.651   9.138
37621SOL    HW112889   6.760  10.651   9.226
37621SOL    HW212890   6.665  10.564   9.127
37622SOL     OW12891   5.816  10.744   7.986
37622SOL    HW112892   5.790  10.840   7.986
37622SOL    HW212893   5.745  10.690   8.031
37623SOL     OW12894   5.826  10.401   8.334
37623SOL    HW112895   5.840  10.317   8.386
37623SOL    HW212896   5.771  10.465   8.389
37624SOL     OW12897   6.206  11.096   8.887
37624SOL    HW112898   6.114  11.079   8.922
37624SOL    HW212899   6.234  11.188   8.913
37625SOL     OW12900   6.192  10.274   7.571
37625SOL    HW112901   6.199  10.358   7.517
37625SOL    HW212902   6.238  10.287   7.659
37626SOL     OW12903   7.180   9.424   8.928
37626SOL    HW112904   7.162   9.491   8.856
37626SOL    HW212905   7.177   9.470   9.017
37627SOL     OW12906   5.708   9.953   8.011
37627SOL    HW112907   5.663   9.865   8.028
37627SOL    HW212908   5.707  10.007   8.095
37628SOL     OW12909   7.428  11.077   7.807
37628SOL    HW112910   7.482  11.048   7.887
37628SOL    HW212911   7.458  11.167   7.778
37629SOL     OW12912   5.613  10.906   7.565
37629SOL    HW112913   5.594  10.810   7.586
37629SOL    HW212914   5.580  10.964   7.640
37630SOL     OW12915   7.275  10.232   8.060
37630SOL    HW112916   7.370  10.203   8.068
37630SOL    HW212917   7.267  10.297   7.985
37631SOL     OW12918   7.227  10.418   7.880
37631SOL    HW112919   7.313  10.420   7.828
37631SOL    HW212920   7.241  10.465   7.968
37632SOL     OW12921   5.699  10.047   9.045
37632SOL    HW112922   5.787  10.034   9.090
37632SOL    HW212923   5.686  10.144   9.023
37633SOL     OW12924   6.199  10.675   8.174
37633SOL    HW112925   6.150  10.588   8.183
37633SOL    HW212926   6.176  10.718   8.087
37634SOL     OW12927   6.879  10.538   8.871
37634SOL    HW112928   6.916  10.465   8.813
37634SOL    HW212929   6.931  10.543   8.956
37635SOL     OW12930   6.395   9.314   7.950
37635SOL    HW112931   6.435   9.405   7.941
37635SOL    HW212932   6.295   9.322   7.956
37636SOL     OW12933   5.783  10.286   8.712
37636SOL    HW112934   5.872  10.241   8.698
37636SOL    HW212935   5.710  10.221   8.693
37637SOL     OW12936   7.111  10.309   7.638
37637SOL    HW112937   7.048  10.233   7.651
37637SOL    HW212938   7.159  10.327   7.724
37638SOL     OW12939   6.773  11.102   9.064
37638SOL    HW112940   6.797  11.162   8.988
37638SOL    HW212941   6.780  11.007   9.034
37639SOL     OW12942   5.903   9.561   9.249
37639SOL    HW112943   5.974   9.632   9.255
37639SOL    HW212944   5.815   9.600   9.277
37640SOL     OW12945   7.052  10.727   8.401
37640SOL    HW112946   6.993  10.733   8.481
37640SOL    HW212947   7.037  10.639   8.355
37641SOL     OW12948   7.253  11.024   8.020
37641SOL    HW112949   7.212  11.001   7.932
37641SOL    HW212950   7.235  10.950   8.085
37642SOL     OW12951   6.184  10.039   7.718
37642SOL    HW112952   6.208  10.108   7.650
37642SOL    HW212953   6.106  10.072   7.772
37643SOL     OW12954   6.867   9.655   8.392
37643SOL    HW112955   6.781   9.605   8.379
37643SOL    HW212956   6.929   9.601   8.448
37644SOL     OW12957   7.162  10.972   7.755
37644SOL    HW112958   7.251  11.018   7.758
37644SOL    HW212959   7.141  10.948   7.660
37645SOL     OW12960   6.393   9.915   8.913
37645SOL    HW112961   6.346   9.912   9.002
37645SOL    HW212962   6.342   9.860   8.847
37646SOL     OW12963   6.980   9.779   9.122
37646SOL    HW112964   6.960   9.822   9.210
37646SOL    HW212965   7.058   9.717   9.131
37647SOL     OW12966   6.559  10.200   9.020
37647SOL    HW112967   6.605  10.116   8.991
37647SOL    HW212968   6.503  10.234   8.945
37648SOL     OW12969   6.577   9.720   8.690
37648SOL    HW112970   6.500   9.754   8.744
37648SOL    HW212971   6.543   9.669   8.611
37649SOL     OW12972   6.627  10.011   7.877
37649SOL    HW112973   6.653  10.007   7.973
37649SOL    HW212974   6.542   9.960   7.863
37650SOL     OW12975   5.662  10.121   8.237
37650SOL    HW112976   5.761  10.109   8.246
37650SOL    HW212977   5.638  10.216   8.258
37651SOL     OW12978   5.716  11.131   9.019
37651SOL    HW112979   5.706  11.116   9.118
37651SOL    HW212980   5.630  11.167   8.983
37652SOL     OW12981   6.451   9.658   7.643
37652SOL    HW112982   6.510   9.721   7.594
37652SOL    HW212983   6.470   9.564   7.614
37653SOL     OW12984   7.305   9.895   9.279
37653SOL    HW112985   7.279   9.984   9.243
37653SOL    HW212986   7.303   9.827   9.206
37654SOL     OW12987   6.948  10.454   7.993
37654SOL    HW112988   7.031  10.425   7.945
37654SOL    HW212989   6.899  10.521   7.937
37655SOL     OW12990   6.136   9.506   8.333
37655SOL    HW112991   6.131   9.501   8.433
37655SOL    HW212992   6.138   9.602   8.304
37656SOL     OW12993   6.594  10.766   7.925
37656SOL    HW112994   6.548  10.838   7.873
37656SOL    HW212995   6.590  10.786   8.023
37657SOL     OW12996   5.937  11.111   8.301
37657SOL    HW112997   5.987  11.025   8.307
37657SOL    HW212998   6.002  11.188   8.298
37658SOL     OW12999   7.381  10.376   8.321
37658SOL    HW113000   7.319  10.361   8.245
37658SOL    HW213001   7.329  10.387   8.406
37659SOL     OW13002   6.813  10.860   8.954
37659SOL    HW113003   6.819  10.783   9.018
37659SOL    HW213004   6.761  10.834   8.874
37660SOL     OW13005   5.907  10.253   7.690
37660SOL    HW113006   5.989  10.292   7.648
37660SOL    HW213007   5.880  10.171   7.641
37661SOL     OW13008   7.044  10.045   8.176
37661SOL    HW113009   7.039   9.980   8.251
37661SOL    HW213010   7.124  10.104   8.189
37662SOL     OW13011   6.047  10.576   9.175
37662SOL    HW113012   5.997  10.577   9.089
37662SOL    HW213013   5.984  10.558   9.251
37663SOL     OW13014   6.697  11.086   7.685
37663SOL    HW113015   6.637  11.024   7.735
37663SOL    HW213016   6.728  11.042   7.600
37664SOL     OW13017   5.788   9.595   8.946
37664SOL    HW113018   5.708   9.655   8.933
37664SOL    HW213019   5.778   9.546   9.032
37665SOL     OW13020   7.218  10.687   7.529
37665SOL    HW113021   7.186  10.781   7.519
37665SOL    HW213022   7.142  10.624   7.517
37666SOL     OW13023   6.050  11.053   7.771
37666SOL    HW113024   6.083  11.092   7.857
37666SOL    HW213025   6.126  11.046   7.706
37667SOL     OW13026   6.986   9.417   7.874
37667SOL    HW113027   6.962   9.380   7.784
37667SOL    HW213028   7.085   9.433   7.878
37668SOL     OW13029   5.835  11.095   8.689
37668SOL    HW113030   5.892  11.030   8.739
37668SOL    HW213031   5.819  11.062   8.596
37669SOL     OW13032   6.526  11.008   8.352
37669SOL    HW113033   6.606  10.951   8.373
37669SOL    HW213034   6.477  10.968   8.275
37670SOL     OW13035   5.968  10.010   7.928
37670SOL    HW113036   6.013   9.920   7.925
37670SOL    HW213037   5.874   9.999   7.961
37671SOL     OW13038   7.133   9.532   9.177
37671SOL    HW113039   7.128   9.569   9.269
37671SOL    HW213040   7.061   9.463   9.165
37672SOL     OW13041   6.200   9.432   7.565
37672SOL    HW113042   6.298   9.410   7.572
37672SOL    HW213043   6.169   9.415   7.472
37673SOL     OW13044   6.367   9.574   9.197
37673SOL    HW113045   6.434   9.513   9.240
37673SOL    HW213046   6.294   9.593   9.262
37674SOL     OW13047   6.474  10.824   8.643
37674SOL    HW113048   6.451  10.799   8.549
37674SOL    HW213049   6.535  10.755   8.682
37675SOL     OW13050   6.937   9.900   8.881
37675SOL    HW113051   6.965   9.857   8.966
37675SOL    HW213052   6.962   9.996   8.882
37676SOL     OW13053   6.389  10.712   8.372
37676SOL    HW113054   6.479  10.726   8.330
37676SOL    HW213055   6.318  10.714   8.301
37677SOL     OW13056   6.508   9.813   8.347
37677SOL    HW113057   6.483   9.804   8.251
37677SOL    HW213058   6.556   9.731   8.378
37678SOL     OW13059   6.125   9.374   7.960
37678SOL    HW113060   6.044   9.375   8.018
37678SOL    HW213061   6.128   9.457   7.905
37679SOL     OW13062   7.020  10.498   7.489
37679SOL    HW113063   7.052  10.422   7.546
37679SOL    HW213064   6.928  10.525   7.519
37680SOL     OW13065   5.883   9.345   7.619
37680SOL    HW113066   5.932   9.429   7.598
37680SOL    HW213067   5.945   9.280   7.664
37681SOL     OW13068   6.521   9.546   7.928
37681SOL    HW113069   6.473   9.587   7.850
37681SOL    HW213070   6.620   9.544   7.909
37682SOL     OW13071   6.662   9.993   8.912
37682SOL    HW113072   6.582   9.932   8.915
37682SOL    HW213073   6.743   9.940   8.888
37683SOL     OW13074   6.813  10.880   8.241
37683SOL    HW113075   6.834  10.954   8.176
37683SOL    HW213076   6.881  10.880   8.314
37684SOL     OW13077   6.045  10.462   8.189
37684SOL    HW113078   5.974  10.435   8.254
37684SOL    HW213079   6.019  10.434   8.096
37685SOL     OW13080   6.857  11.107   8.039
37685SOL    HW113081   6.901  11.171   7.975
37685SOL    HW213082   6.807  11.159   8.109
37686SOL     OW13083   6.618   9.859   7.464
37686SOL    HW113084   6.577   9.941   7.425
37686SOL    HW213085   6.682   9.885   7.537
37687SOL     OW13086   5.664   9.866   8.834
37687SOL    HW113087   5.756   9.865   8.793
37687SOL    HW213088   5.658   9.940   8.901
37688SOL     OW13089   6.147   9.532   8.595
37688SOL    HW113090   6.185   9.448   8.632
37688SOL    HW213091   6.059   9.551   8.639
37689SOL     OW13092   6.452   9.764   8.090
37689SOL    HW113093   6.420   9.836   8.028
37689SOL    HW213094   6.476   9.683   8.037
37690SOL     OW13095   6.603   9.349   8.201
37690SOL    HW113096   6.531   9.354   8.132
37690SOL    HW213097   6.579   9.280   8.270
37691SOL     OW13098   7.015  10.483   8.315
37691SOL    HW113099   6.960  10.399   8.308
37691SOL    HW213100   7.041  10.512   8.223
37692SOL     OW13101   7.052   9.900   8.440
37692SOL    HW113102   7.022   9.805   8.447
37692SOL    HW213103   7.125   9.916   8.506
37693SOL     OW13104   7.443  10.143   7.825
37693SOL    HW113105   7.485  10.079   7.889
37693SOL    HW213106   7.405  10.092   7.747
37694SOL     OW13107   6.074  10.695   7.622
37694SOL    HW113108   5.987  10.680   7.669
37694SOL    HW213109   6.057  10.721   7.527
37695SOL     OW13110   7.250  10.590   8.105
37695SOL    HW113111   7.349  10.598   8.119
37695SOL    HW213112   7.205  10.674   8.136
37696SOL     OW13113   6.976   9.885   7.526
37696SOL    HW113114   6.922   9.864   7.607
37696SOL    HW213115   7.067   9.844   7.535
37697SOL     OW13116   6.113   9.566   7.776
37697SOL    HW113117   6.140   9.507   7.701
37697SOL    HW213118   6.113   9.661   7.745
37698SOL     OW13119   7.340  10.533   9.036
37698SOL    HW113120   7.431  10.494   9.023
37698SOL    HW213121   7.348  10.629   9.060
37699SOL     OW13122   6.650  10.657   8.788
37699SOL    HW113123   6.570  10.634   8.843
37699SOL    HW213124   6.733  10.631   8.837
37700SOL     OW13125   7.178  10.939   9.073
37700SOL    HW113126   7.205  10.973   8.983
37700SOL    HW213127   7.257  10.901   9.119
37701SOL     OW13128   6.697  10.505   8.548
37701SOL    HW113129   6.657  10.549   8.629
37701SOL    HW213130   6.656  10.542   8.465
37702SOL     OW13131   7.224  10.409   8.527
37702SOL    HW113132   7.229  10.490   8.586
37702SOL    HW213133   7.138  10.411   8.476
37703SOL     OW13134   6.501   9.399   8.850
37703SOL    HW113135   6.526   9.379   8.755
37703SOL    HW213136   6.573   9.455   8.892
37704SOL     OW13137   6.566  10.426   9.167
37704SOL    HW113138   6.467  10.432   9.177
37704SOL    HW213139   6.589  10.346   9.111
37705SOL     OW13140   6.291  10.360   7.816
37705SOL    HW113141   6.277  10.367   7.915
37705SOL    HW213142   6.375  10.309   7.798
37706SOL     OW13143   5.996  10.123   8.699
37706SOL    HW113144   6.082  10.135   8.749
37706SOL    HW213145   5.954  10.036   8.726
37707SOL     OW13146   6.860   9.696   8.710
37707SOL    HW113147   6.881   9.770   8.774
37707SOL    HW213148   6.771   9.713   8.667
37708SOL     OW13149   5.650  10.874   8.779
37708SOL    HW113150   5.604  10.956   8.745
37708SOL    HW213151   5.748  10.893   8.788
37709SOL     OW13152   5.953  10.410   7.949
37709SOL    HW113153   5.946  10.493   7.893
37709SOL    HW213154   5.957  10.330   7.889
37710SOL     OW13155   6.152   9.847   8.313
37710SOL    HW113156   6.164   9.913   8.239
37710SOL    HW213157   6.198   9.881   8.396
37711SOL     OW13158   6.838  10.658   7.836
37711SOL    HW113159   6.888  10.735   7.876
37711SOL    HW213160   6.743  10.660   7.868
37712SOL     OW13161   6.858  10.755   8.590
37712SOL    HW113162   6.905  10.768   8.677
37712SOL    HW213163   6.792  10.681   8.599
37713SOL     OW13164   7.168   9.949   7.920
37713SOL    HW113165   7.137  10.010   7.993
37713SOL    HW213166   7.218  10.001   7.851
37714SOL     OW13167   5.940  10.820   8.777
37714SOL    HW113168   5.919  10.776   8.690
37714SOL    HW213169   6.037  10.846   8.780
37715SOL     OW13170   5.988  10.061   9.046
37715SOL    HW113171   6.056  10.116   8.999
37715SOL    HW213172   6.028   9.973   9.073
37716SOL     OW13173   7.173  10.089   9.118
37716SOL    HW113174   7.081  10.127   9.113
37716SOL    HW213175   7.233  10.136   9.053
37717SOL     OW13176   6.599   9.415   9.218
37717SOL    HW113177   6.605   9.500   9.166
37717SOL    HW213178   6.631   9.339   9.161
37718SOL     OW13179   6.090   9.360   9.188
37718SOL    HW113180   6.048   9.303   9.118
37718SOL    HW213181   6.024   9.429   9.220
37719SOL     OW13182   6.159  10.180   8.477
37719SOL    HW113183   6.203  10.269   8.468
37719SOL    HW213184   6.096  10.180   8.554
37720SOL     OW13185   6.946  10.172   8.493
37720SOL    HW113186   6.871  10.172   8.427
37720SOL    HW213187   6.983  10.080   8.502
37721SOL     OW13188   6.795   9.835   7.723
37721SOL    HW113189   6.808   9.751   7.777
37721SOL    HW213190   6.766   9.909   7.783
37722SOL     OW13191   5.893   9.523   8.679
37722SOL    HW113192   5.870   9.560   8.769
37722SOL    HW213193   5.863   9.428   8.673
37723SOL     OW13194   5.623  10.620   8.730
37723SOL    HW113195   5.676  10.571   8.798
37723SOL    HW213196   5.645  10.718   8.735
37724SOL     OW13197   6.318   9.944   8.512
37724SOL    HW113198   6.377   9.918   8.436
37724SOL    HW213199   6.290  10.040   8.501
37725SOL     OW13200   7.314  10.245   9.302
37725SOL    HW113201   7.268  10.238   9.213
37725SOL    HW213202   7.252  10.289   9.368
37726SOL     OW13203   5.893   9.373   8.066
37726SOL    HW113204   5.882   9.467   8.099
37726SOL    HW213205   5.888   9.310   8.143
37727SOL     OW13206   7.208   9.677   7.822
37727SOL    HW113207   7.210   9.601   7.886
37727SOL    HW213208   7.160   9.754   7.862
37728SOL     OW13209   6.609  10.076   8.414
37728SOL    HW113210   6.624  10.097   8.510
37728SOL    HW213211   6.579   9.981   8.405
37729SOL     OW13212   6.566  10.883   9.148
37729SOL    HW113213   6.546  10.927   9.060
37729SOL    HW213214   6.605  10.792   9.132
37730SOL     OW13215   7.445  10.828   9.053
37730SOL    HW113216   7.459  10.855   8.958
37730SOL    HW213217   7.528  10.850   9.106
37731SOL     OW13218   5.936  10.208   9.252
37731SOL    HW113219   6.012  10.252   9.300
37731SOL    HW213220   5.971  10.161   9.170
37732SOL     OW13221   7.126   9.584   7.573
37732SOL    HW113222   7.065   9.509   7.596
37732SOL    HW213223   7.148   9.636   7.656
37733SOL     OW13224   6.889  10.148   7.490
37733SOL    HW113225   6.923  10.055   7.505
37733SOL    HW213226   6.907  10.175   7.395
37734SOL     OW13227   6.654  10.643   8.297
37734SOL    HW113228   6.661  10.559   8.242
37734SOL    HW213229   6.716  10.712   8.261
37735SOL     OW13230   5.905  10.120   8.397
37735SOL    HW113231   5.998  10.156   8.402
37735SOL    HW213232   5.899  10.035   8.449
37736SOL     OW13233   5.925   9.819   8.454
37736SOL    HW113234   5.873   9.736   8.437
37736SOL    HW213235   6.002   9.824   8.390
37737SOL     OW13236   6.724   9.690   9.126
37737SOL    HW113237   6.679   9.753   9.190
37737SOL    HW213238   6.817   9.721   9.109
37738SOL     OW13239   6.746   9.517   8.925
37738SOL    HW113240   6.746   9.581   9.002
37738SOL    HW213241   6.774   9.565   8.842
37739SOL     OW13242   5.594  10.636   7.648
37739SOL    HW113243   5.501  10.657   7.617
37739SOL    HW213244   5.604  10.537   7.661
37740SOL     OW13245   5.674  11.111   8.375
37740SOL    HW113246   5.632  11.025   8.348
37740SOL    HW213247   5.768  11.114   8.341
37741SOL     OW13248   6.090  10.878   8.358
37741SOL    HW113249   6.156  10.952   8.367
37741SOL    HW213250   6.134  10.799   8.316
37742SOL     OW13251   6.588  10.106   8.686
37742SOL    HW113252   6.629  10.074   8.772
37742SOL    HW213253   6.492  10.079   8.683
37743SOL     OW13254   5.626   9.854   8.562
37743SOL    HW113255   5.711   9.821   8.521
37743SOL    HW213256   5.639   9.869   8.660
37744SOL     OW13257   5.775   9.830   9.170
37744SOL    HW113258   5.834   9.790   9.100
37744SOL    HW213259   5.717   9.901   9.129
37745SOL     OW13260   6.955  10.260   9.108
37745SOL    HW113261   6.994  10.349   9.128
37745SOL    HW213262   6.965  10.240   9.011
37746SOL     OW13263   6.401   9.882   7.773
37746SOL    HW113264   6.408   9.793   7.727
37746SOL    HW213265   6.307   9.916   7.765
37747SOL     OW13266   7.243   9.914   8.654
37747SOL    HW113267   7.205   9.845   8.716
37747SOL    HW213268   7.325   9.878   8.610
37748SOL     OW13269   5.838  10.874   9.192
37748SOL    HW113270   5.808  10.931   9.268
37748SOL    HW213271   5.831  10.777   9.218
37749SOL     OW13272   6.257   9.774   8.717
37749SOL    HW113273   6.223   9.685   8.687
37749SOL    HW213274   6.283   9.828   8.637
37750SOL     OW13275   6.516  10.988   8.913
37750SOL    HW113276   6.492  10.970   8.818
37750SOL    HW213277   6.546  11.082   8.923
37751SOL     OW13278   6.059   9.810   7.639
37751SOL    HW113279   6.120   9.890   7.643
37751SOL    HW213280   5.964   9.841   7.646
37752SOL     OW13281   5.745  10.447   8.914
37752SOL    HW113282   5.767  10.386   8.990
37752SOL    HW213283   5.755  10.398   8.828
37753SOL     OW13284   6.933  10.369   8.682
37753SOL    HW113285   6.957  10.306   8.608
37753SOL    HW213286   6.843  10.409   8.664
37754SOL     OW13287   6.888  10.165   7.757
37754SOL    HW113288   6.802  10.134   7.799
37754SOL    HW213289   6.884  10.151   7.658
37755SOL     OW13290   6.838  11.041   8.576
37755SOL    HW113291   6.922  11.046   8.522
37755SOL    HW213292   6.815  10.945   8.594
37756SOL     OW13293   5.669  10.568   8.470
37756SOL    HW113294   5.664  10.567   8.570
37756SOL    HW213295   5.586  10.527   8.432
37757SOL     OW13296   6.274  10.972   9.164
37757SOL    HW113297   6.218  11.053   9.173
37757SOL    HW213298   6.326  10.976   9.078
37758SOL     OW13299   7.312   9.445   7.971
37758SOL    HW113300   7.385   9.428   7.904
37758SOL    HW213301   7.281   9.358   8.009
37759SOL     OW13302   6.974  10.883   7.925
37759SOL    HW113303   7.041  10.895   7.851
37759SOL    HW213304   6.934  10.972   7.948
37760SOL     OW13305   5.716  11.104   9.299
37760SOL    HW113306   5.675  11.030   9.352
37760SOL    HW213307   5.780  11.155   9.357
37761SOL     OW13308   6.866  10.237   8.120
37761SOL    HW113309   6.926  10.156   8.122
37761SOL    HW213310   6.906  10.306   8.060
37762SOL     OW13311   6.416  10.583   8.870
37762SOL    HW113312   6.411  10.616   8.965
37762SOL    HW213313   6.330  10.602   8.824
37763SOL     OW13314   6.258  10.926   7.602
37763SOL    HW113315   6.267  10.936   7.503
37763SOL    HW213316   6.218  10.837   7.623
37764SOL     OW13317   7.236  11.030   8.842
37764SOL    HW113318   7.289  11.040   8.758
37764SOL    HW213319   7.209  11.120   8.876
37765SOL     OW13320   5.849   9.636   8.168
37765SOL    HW113321   5.770   9.687   8.134
37765SOL    HW213322   5.840   9.621   8.266
37766SOL     OW13323   6.780  10.922   7.479
37766SOL    HW113324   6.786  10.829   7.516
37766SOL    HW213325   6.721  10.922   7.399
37767SOL     OW13326   6.408  10.312   8.820
37767SOL    HW113327   6.448  10.311   8.728
37767SOL    HW213328   6.418  10.404   8.860
37768SOL     OW13329   6.502  10.220   7.739
37768SOL    HW113330   6.565  10.258   7.671
37768SOL    HW213331   6.542  10.137   7.778
37769SOL     OW13332   7.090  10.917   7.492
37769SOL    HW113333   6.998  10.954   7.499
37769SOL    HW213334   7.128  10.937   7.402
37770SOL     OW13335   5.958  10.598   8.938
37770SOL    HW113336   5.945  10.691   8.904
37770SOL    HW213337   5.874  10.546   8.925
37771SOL     OW13338   7.200  10.602   8.737
37771SOL    HW113339   7.260  10.605   8.817
37771SOL    HW213340   7.125  10.666   8.750
37772SOL     OW13341   6.625  10.408   8.144
37772SOL    HW113342   6.555  10.361   8.198
37772SOL    HW213343   6.684  10.340   8.101
37773SOL     OW13344   6.600   9.546   8.419
37773SOL    HW113345   6.592   9.510   8.326
37773SOL    HW213346   6.598   9.470   8.484
37774SOL     OW13347   6.176  10.797   7.939
37774SOL    HW113348   6.218  10.739   7.869
37774SOL    HW213349   6.132  10.876   7.895
37775SOL     OW13350   7.295   9.695   8.829
37775SOL    HW113351   7.368   9.764   8.833
37775SOL    HW213352   7.323   9.620   8.770
37776SOL     OW13353   5.841  10.658   7.738
37776SOL    HW113354   5.745  10.659   7.711
37776SOL    HW213355   5.853  10.711   7.822
37777SOL     OW13356   5.691  10.323   9.174
37777SOL    HW113357   5.614  10.290   9.228
37777SOL    HW213358   5.776  10.293   9.216
37778SOL     OW13359   5.661   9.655   7.481
37778SOL    HW113360   5.569   9.627   7.452
37778SOL    HW213361   5.692   9.732   7.425
37779SOL     OW13362   7.026  10.166   8.846
37779SOL    HW113363   6.969  10.218   8.783
37779SOL    HW213364   7.122  10.178   8.822
37780SOL     OW13365   5.658   9.476   7.766
37780SOL    HW113366   5.641   9.559   7.712
37780SOL    HW213367   5.748   9.439   7.744
37781SOL     OW13368   6.769  10.645   7.567
37781SOL    HW113369   6.670  10.634   7.569
37781SOL    HW213370   6.803  10.660   7.660
37782SOL     OW13371   6.199  10.152   8.879
37782SOL    HW113372   6.255  10.233   8.862
37782SOL    HW213373   6.258  10.072   8.882
37783SOL     OW13374   7.079  11.077   8.407
37783SOL    HW113375   7.112  11.141   8.338
37783SOL    HW213376   7.145  11.071   8.482
37784SOL     OW13377   6.302   9.875   9.156
37784SOL    HW113378   6.321   9.940   9.230
37784SOL    HW213379   6.362   9.795   9.165
37785SOL     OW13380   7.036  10.530   9.081
37785SOL    HW113381   7.027  10.520   9.180
37785SOL    HW213382   7.132  10.523   9.055
37786SOL     OW13383   5.976  11.051   9.008
37786SOL    HW113384   5.885  11.092   9.006
37786SOL    HW213385   5.969  10.957   9.040
37787SOL     OW13386   7.260  10.193   8.702
37787SOL    HW113387   7.233  10.104   8.665
37787SOL    HW213388   7.261  10.261   8.629
37788SOL     OW13389   6.811   9.635   7.897
37788SOL    HW113390   6.876   9.561   7.886
37788SOL    HW213391   6.831   9.685   7.981
37789SOL     OW13392   6.180  10.055   8.100
37789SOL    HW113393   6.230  10.140   8.081
37789SOL    HW213394   6.092  10.057   8.052
37790SOL     OW13395   7.363   9.652   9.090
37790SOL    HW113396   7.346   9.683   8.996
37790SOL    HW213397   7.279   9.615   9.128
37791SOL     OW13398   7.316  10.244   8.965
37791SOL    HW113399   7.354  10.335   8.980
37791SOL    HW213400   7.308  10.227   8.866
37792SOL     OW13401   6.445  10.684   7.464
37792SOL    HW113402   6.399  10.699   7.552
37792SOL    HW213403   6.489  10.769   7.434
37793SOL     OW13404   6.247  11.100   8.401
37793SOL    HW113405   6.201  11.188   8.388
37793SOL    HW213406   6.346  11.112   8.394
37794SOL     OW13407   6.445  10.266   8.309
37794SOL    HW113408   6.499  10.197   8.357
37794SOL    HW213409   6.413  10.335   8.375
37795SOL     OW13410   6.669  10.294   7.535
37795SOL    HW113411   6.646  10.347   7.453
37795SOL    HW213412   6.750  10.238   7.516
37796SOL     OW13413   7.447  10.879   8.299
37796SOL    HW113414   7.376  10.867   8.229
37796SOL    HW213415   7.448  10.800   8.359
37797SOL     OW13416   5.807  10.624   9.292
37797SOL    HW113417   5.742  10.551   9.271
37797SOL    HW213418   5.811  10.638   9.390
37798SOL     OW13419   5.665  10.550   8.101
37798SOL    HW113420   5.664  10.503   8.189
37798SOL    HW213421   5.747  10.522   8.050
37799SOL     OW13422   6.258  10.701   9.072
37799SOL    HW113423   6.180  10.651   9.110
37799SOL    HW213424   6.255  10.796   9.103
37800SOL     OW13425   7.410   9.502   8.675
37800SOL    HW113426   7.406   9.412   8.719
37800SOL    HW213427   7.413   9.491   8.576
37801SOL     OW13428   6.014   9.734   7.968
37801SOL    HW113429   6.044   9.662   7.906
37801SOL    HW213430   5.975   9.694   8.051
37802SOL     OW13431   7.291  10.797   8.552
37802SOL    HW113432   7.198  10.772   8.525
37802SOL    HW213433   7.317  10.747   8.634
37803SOL     OW13434   5.903   9.857   8.728
37803SOL    HW113435   5.941   9.798   8.800
37803SOL    HW213436   5.943   9.831   8.640
37804SOL     OW13437   6.398  10.896   8.135
37804SOL    HW113438   6.430  10.906   8.041
37804SOL    HW213439   6.319  10.834   8.137
37805SOL     OW13440   7.010   9.524   8.560
37805SOL    HW113441   7.062   9.459   8.615
37805SOL    HW213442   6.961   9.587   8.621
37806SOL     OW13443   6.587   9.344   8.602
37806SOL    HW113444   6.524   9.272   8.571
37806SOL    HW213445   6.680   9.308   8.602
37807SOL     OW13446   6.356  10.640   7.749
37807SOL    HW113447   6.310  10.553   7.766
37807SOL    HW213448   6.447  10.637   7.790
37808SOL     OW13449   6.204  10.877   8.732
37808SOL    HW113450   6.199  10.959   8.789
37808SOL    HW213451   6.293  10.874   8.687
37809SOL     OW13452   6.938   9.362   7.616
37809SOL    HW113453   6.973   9.321   7.532
37809SOL    HW213454   6.848   9.324   7.636
37810SOL     OW13455   6.886   9.763   8.139
37810SOL    HW113456   6.827   9.843   8.143
37810SOL    HW213457   6.901   9.728   8.232
37811SOL     OW13458   7.179   9.531   8.330
37811SOL    HW113459   7.095   9.530   8.384
37811SOL    HW213460   7.181   9.614   8.274
37812SOL     OW13461   5.625  10.387   7.748
37812SOL    HW113462   5.724  10.376   7.739
37812SOL    HW213463   5.585  10.301   7.780
37813SOL     OW13464   6.461  10.956   7.785
37813SOL    HW113465   6.384  10.921   7.731
37813SOL    HW213466   6.429  11.027   7.847
37814SOL     OW13467   5.816   9.938   9.423
37814SOL    HW113468   5.723   9.936   9.460
37814SOL    HW213469   5.817   9.899   9.331
37815SOL     OW13470   5.811   9.585  10.306
37815SOL    HW113471   5.846   9.568  10.398
37815SOL    HW213472   5.723   9.540  10.294
37816SOL     OW13473   5.605   9.678   9.957
37816SOL    HW113474   5.523   9.721   9.996
37816SOL    HW213475   5.577   9.605   9.894
37817SOL     OW13476   6.155  10.585  10.475
37817SOL    HW113477   6.062  10.578  10.438
37817SOL    HW213478   6.166  10.674  10.519
37818SOL     OW13479   7.141  10.821  10.013
37818SOL    HW113480   7.084  10.805  10.094
37818SOL    HW213481   7.082  10.831   9.933
37819SOL     OW13482   6.721  10.013  10.027
37819SOL    HW113483   6.778  10.091  10.002
37819SOL    HW213484   6.661  10.039  10.103
37820SOL     OW13485   7.341   9.917   9.541
37820SOL    HW113486   7.329   9.904   9.442
37820SOL    HW213487   7.311   9.836   9.590
37821SOL     OW13488   6.354  10.454  10.333
37821SOL    HW113489   6.276  10.471  10.393
37821SOL    HW213490   6.388  10.541  10.297
37822SOL     OW13491   6.436  10.108  11.133
37822SOL    HW113492   6.432  10.184  11.198
37822SOL    HW213493   6.458  10.144  11.042
37823SOL     OW13494   6.271  10.322   9.975
37823SOL    HW113495   6.340  10.306  10.045
37823SOL    HW213496   6.198  10.379  10.013
37824SOL     OW13497   6.272  10.471  11.113
37824SOL    HW113498   6.332  10.550  11.127
37824SOL    HW213499   6.186  10.502  11.072
37825SOL     OW13500   5.921  10.745  10.371
37825SOL    HW113501   5.843  10.714  10.318
37825SOL    HW213502   5.979  10.803  10.314
37826SOL     OW13503   7.046  10.815  10.649
37826SOL    HW113504   7.070  10.909  10.675
37826SOL    HW213505   7.030  10.761  10.731
37827SOL     OW13506   6.024   9.702  10.809
37827SOL    HW113507   6.106   9.646  10.818
37827SOL    HW213508   5.943   9.644  10.813
37828SOL     OW13509   7.189   9.757  10.047
37828SOL    HW113510   7.115   9.803   9.997
37828SOL    HW213511   7.240   9.825  10.100
37829SOL     OW13512   5.817  11.023   9.793
37829SOL    HW113513   5.851  11.100   9.847
37829SOL    HW213514   5.861  11.023   9.703
37830SOL     OW13515   6.713  10.651  11.000
37830SOL    HW113516   6.760  10.651  11.088
37830SOL    HW213517   6.665  10.564  10.989
37831SOL     OW13518   5.816  10.744   9.848
37831SOL    HW113519   5.790  10.840   9.848
37831SOL    HW213520   5.745  10.690   9.893
37832SOL     OW13521   5.826  10.401  10.196
37832SOL    HW113522   5.840  10.317  10.248
37832SOL    HW213523   5.771  10.465  10.251
37833SOL     OW13524   6.206  11.096  10.749
37833SOL    HW113525   6.114  11.079  10.784
37833SOL    HW213526   6.234  11.188  10.775
37834SOL     OW13527   6.192  10.274   9.433
37834SOL    HW113528   6.199  10.358   9.379
37834SOL    HW213529   6.238  10.287   9.521
37835SOL     OW13530   7.180   9.424  10.790
37835SOL    HW113531   7.162   9.491  10.718
37835SOL    HW213532   7.177   9.470  10.879
37836SOL     OW13533   5.708   9.953   9.873
37836SOL    HW113534   5.663   9.865   9.890
37836SOL    HW213535   5.707  10.007   9.957
37837SOL     OW13536   7.428  11.077   9.669
37837SOL    HW113537   7.482  11.048   9.749
37837SOL    HW213538   7.458  11.167   9.640
37838SOL     OW13539   5.613  10.906   9.427
37838SOL    HW113540   5.594  10.810   9.448
37838SOL    HW213541   5.580  10.964   9.502
37839SOL     OW13542   7.275  10.232   9.922
37839SOL    HW113543   7.370  10.203   9.930
37839SOL    HW213544   7.267  10.297   9.847
37840SOL     OW13545   7.227  10.418   9.742
37840SOL    HW113546   7.313  10.420   9.690
37840SOL    HW213547   7.241  10.465   9.830
37841SOL     OW13548   5.699  10.047  10.907
37841SOL    HW113549   5.787  10.034  10.952
37841SOL    HW213550   5.686  10.144  10.885
37842SOL     OW13551   6.879  10.538  10.733
37842SOL    HW113552   6.916  10.465  10.675
37842SOL    HW213553   6.931  10.543  10.818
37843SOL     OW13554   6.395   9.314   9.812
37843SOL    HW113555   6.435   9.405   9.803
37843SOL    HW213556   6.295   9.322   9.818
37844SOL     OW13557   5.783  10.286  10.574
37844SOL    HW113558   5.872  10.241  10.560
37844SOL    HW213559   5.710  10.221  10.555
37845SOL     OW13560   7.111  10.309   9.500
37845SOL    HW113561   7.048  10.233   9.513
37845SOL    HW213562   7.159  10.327   9.586
37846SOL     OW13563   6.773  11.102  10.926
37846SOL    HW113564   6.797  11.162  10.850
37846SOL    HW213565   6.780  11.007  10.896
37847SOL     OW13566   5.903   9.561  11.111
37847SOL    HW113567   5.974   9.632  11.117
37847SOL    HW213568   5.815   9.600  11.139
37848SOL     OW13569   7.052  10.727  10.263
37848SOL    HW113570   6.993  10.733  10.343
37848SOL    HW213571   7.037  10.639  10.217
37849SOL     OW13572   7.253  11.024   9.882
37849SOL    HW113573   7.212  11.001   9.794
37849SOL    HW213574   7.235  10.950   9.947
37850SOL     OW13575   6.184  10.039   9.580
37850SOL    HW113576   6.208  10.108   9.512
37850SOL    HW213577   6.106  10.072   9.634
37851SOL     OW13578   6.867   9.655  10.254
37851SOL    HW113579   6.781   9.605  10.241
37851SOL    HW213580   6.929   9.601  10.310
37852SOL     OW13581   7.162  10.972   9.617
37852SOL    HW113582   7.251  11.018   9.620
37852SOL    HW213583   7.141  10.948   9.522
37853SOL     OW13584   6.393   9.915  10.775
37853SOL    HW113585   6.346   9.912  10.864
37853SOL    HW213586   6.342   9.860  10.709
37854SOL     OW13587   6.980   9.779  10.984
37854SOL    HW113588   6.960   9.822  11.072
37854SOL    HW213589   7.058   9.717  10.993
37855SOL     OW13590   6.559  10.200  10.882
37855SOL    HW113591   6.605  10.116  10.853
37855SOL    HW213592   6.503  10.234  10.807
37856SOL     OW13593   6.577   9.720  10.552
37856SOL    HW113594   6.500   9.754  10.606
37856SOL    HW213595   6.543   9.669  10.473
37857SOL     OW13596   6.627  10.011   9.739
37857SOL    HW113597   6.653  10.007   9.835
37857SOL    HW213598   6.542   9.960   9.725
37858SOL     OW13599   5.662  10.121  10.099
37858SOL    HW113600   5.761  10.109  10.108
37858SOL    HW213601   5.638  10.216  10.120
37859SOL     OW13602   5.716  11.131  10.881
37859SOL    HW113603   5.706  11.116  10.980
37859SOL    HW213604   5.630  11.167  10.845
37860SOL     OW13605   6.451   9.658   9.505
37860SOL    HW113606   6.510   9.721   9.456
37860SOL    HW213607   6.470   9.564   9.476
37861SOL     OW13608   7.305   9.895  11.141
37861SOL    HW113609   7.279   9.984  11.105
37861SOL    HW213610   7.303   9.827  11.068
37862SOL     OW13611   6.948  10.454   9.855
37862SOL    HW113612   7.031  10.425   9.807
37862SOL    HW213613   6.899  10.521   9.799
37863SOL     OW13614   6.136   9.506  10.195
37863SOL    HW113615   6.131   9.501  10.295
37863SOL    HW213616   6.138   9.602  10.166
37864SOL     OW13617   6.594  10.766   9.787
37864SOL    HW113618   6.548  10.838   9.735
37864SOL    HW213619   6.590  10.786   9.885
37865SOL     OW13620   5.937  11.111  10.163
37865SOL    HW113621   5.987  11.025  10.169
37865SOL    HW213622   6.002  11.188  10.160
37866SOL     OW13623   7.381  10.376  10.183
37866SOL    HW113624   7.319  10.361  10.107
37866SOL    HW213625   7.329  10.387  10.268
37867SOL     OW13626   6.813  10.860  10.816
37867SOL    HW113627   6.819  10.783  10.880
37867SOL    HW213628   6.761  10.834  10.736
37868SOL     OW13629   5.907  10.253   9.552
37868SOL    HW113630   5.989  10.292   9.510
37868SOL    HW213631   5.880  10.171   9.503
37869SOL     OW13632   7.044  10.045  10.038
37869SOL    HW113633   7.039   9.980  10.113
37869SOL    HW213634   7.124  10.104  10.051
37870SOL     OW13635   6.047  10.576  11.037
37870SOL    HW113636   5.997  10.577  10.951
37870SOL    HW213637   5.984  10.558  11.113
37871SOL     OW13638   6.697  11.086   9.547
37871SOL    HW113639   6.637  11.024   9.597
37871SOL    HW213640   6.728  11.042   9.462
37872SOL     OW13641   5.788   9.595  10.808
37872SOL    HW113642   5.708   9.655  10.795
37872SOL    HW213643   5.778   9.546  10.894
37873SOL     OW13644   7.218  10.687   9.391
37873SOL    HW113645   7.186  10.781   9.381
37873SOL    HW213646   7.142  10.624   9.379
37874SOL     OW13647   6.050  11.053   9.633
37874SOL    HW113648   6.083  11.092   9.719
37874SOL    HW213649   6.126  11.046   9.568
37875SOL     OW13650   6.986   9.417   9.736
37875SOL    HW113651   6.962   9.380   9.646
37875SOL    HW213652   7.085   9.433   9.740
37876SOL     OW13653   5.835  11.095  10.551
37876SOL    HW113654   5.892  11.030  10.601
37876SOL    HW213655   5.819  11.062  10.458
37877SOL     OW13656   6.526  11.008  10.214
37877SOL    HW113657   6.606  10.951  10.235
37877SOL    HW213658   6.477  10.968  10.137
37878SOL     OW13659   5.968  10.010   9.790
37878SOL    HW113660   6.013   9.920   9.787
37878SOL    HW213661   5.874   9.999   9.823
37879SOL     OW13662   7.133   9.532  11.039
37879SOL    HW113663   7.128   9.569  11.131
37879SOL    HW213664   7.061   9.463  11.027
37880SOL     OW13665   6.200   9.432   9.427
37880SOL    HW113666   6.298   9.410   9.434
37880SOL    HW213667   6.169   9.415   9.334
37881SOL     OW13668   6.367   9.574  11.059
37881SOL    HW113669   6.434   9.513  11.102
37881SOL    HW213670   6.294   9.593  11.124
37882SOL     OW13671   6.474  10.824  10.505
37882SOL    HW113672   6.451  10.799  10.411
37882SOL    HW213673   6.535  10.755  10.544
37883SOL     OW13674   6.937   9.900  10.743
37883SOL    HW113675   6.965   9.857  10.828
37883SOL    HW213676   6.962   9.996  10.744
37884SOL     OW13677   6.389  10.712  10.234
37884SOL    HW113678   6.479  10.726  10.192
37884SOL    HW213679   6.318  10.714  10.163
37885SOL     OW13680   6.508   9.813  10.209
37885SOL    HW113681   6.483   9.804  10.113
37885SOL    HW213682   6.556   9.731  10.240
37886SOL     OW13683   6.125   9.374   9.822
37886SOL    HW113684   6.044   9.375   9.880
37886SOL    HW213685   6.128   9.457   9.767
37887SOL     OW13686   7.020  10.498   9.351
37887SOL    HW113687   7.052  10.422   9.408
37887SOL    HW213688   6.928  10.525   9.381
37888SOL     OW13689   5.883   9.345   9.481
37888SOL    HW113690   5.932   9.429   9.460
37888SOL    HW213691   5.945   9.280   9.526
37889SOL     OW13692   6.521   9.546   9.790
37889SOL    HW113693   6.473   9.587   9.712
37889SOL    HW213694   6.620   9.544   9.771
37890SOL     OW13695   6.662   9.993  10.774
37890SOL    HW113696   6.582   9.932  10.777
37890SOL    HW213697   6.743   9.940  10.750
37891SOL     OW13698   6.813  10.880  10.103
37891SOL    HW113699   6.834  10.954  10.038
37891SOL    HW213700   6.881  10.880  10.176
37892SOL     OW13701   6.045  10.462  10.051
37892SOL    HW113702   5.974  10.435  10.116
37892SOL    HW213703   6.019  10.434   9.958
37893SOL     OW13704   6.857  11.107   9.901
37893SOL    HW113705   6.901  11.171   9.837
37893SOL    HW213706   6.807  11.159   9.971
37894SOL     OW13707   6.618   9.859   9.326
37894SOL    HW113708   6.577   9.941   9.287
37894SOL    HW213709   6.682   9.885   9.399
37895SOL     OW13710   5.664   9.866  10.696
37895SOL    HW113711   5.756   9.865  10.655
37895SOL    HW213712   5.658   9.940  10.763
37896SOL     OW13713   6.147   9.532  10.457
37896SOL    HW113714   6.185   9.448  10.494
37896SOL    HW213715   6.059   9.551  10.501
37897SOL     OW13716   6.452   9.764   9.952
37897SOL    HW113717   6.420   9.836   9.890
37897SOL    HW213718   6.476   9.683   9.899
37898SOL     OW13719   6.603   9.349  10.063
37898SOL    HW113720   6.531   9.354   9.994
37898SOL    HW213721   6.579   9.280  10.132
37899SOL     OW13722   7.015  10.483  10.177
37899SOL    HW113723   6.960  10.399  10.170
37899SOL    HW213724   7.041  10.512  10.085
37900SOL     OW13725   7.052   9.900  10.302
37900SOL    HW113726   7.022   9.805  10.309
37900SOL    HW213727   7.125   9.916  10.368
37901SOL     OW13728   7.443  10.143   9.687
37901SOL    HW113729   7.485  10.079   9.751
37901SOL    HW213730   7.405  10.092   9.609
37902SOL     OW13731   6.074  10.695   9.484
37902SOL    HW113732   5.987  10.680   9.531
37902SOL    HW213733   6.057  10.721   9.389
37903SOL     OW13734   7.250  10.590   9.967
37903SOL    HW113735   7.349  10.598   9.981
37903SOL    HW213736   7.205  10.674   9.998
37904SOL     OW13737   6.976   9.885   9.388
37904SOL    HW113738   6.922   9.864   9.469
37904SOL    HW213739   7.067   9.844   9.397
37905SOL     OW13740   6.113   9.566   9.638
37905SOL    HW113741   6.140   9.507   9.563
37905SOL    HW213742   6.113   9.661   9.607
37906SOL     OW13743   7.340  10.533  10.898
37906SOL    HW113744   7.431  10.494  10.885
37906SOL    HW213745   7.348  10.629  10.922
37907SOL     OW13746   6.650  10.657  10.650
37907SOL    HW113747   6.570  10.634  10.705
37907SOL    HW213748   6.733  10.631  10.699
37908SOL     OW13749   7.178  10.939  10.935
37908SOL    HW113750   7.205  10.973  10.845
37908SOL    HW213751   7.257  10.901  10.981
37909SOL     OW13752   6.697  10.505  10.410
37909SOL    HW113753   6.657  10.549  10.491
37909SOL    HW213754   6.656  10.542  10.327
37910SOL     OW13755   7.224  10.409  10.389
37910SOL    HW113756   7.229  10.490  10.448
37910SOL    HW213757   7.138  10.411  10.338
37911SOL     OW13758   6.501   9.399  10.712
37911SOL    HW113759   6.526   9.379  10.617
37911SOL    HW213760   6.573   9.455  10.754
37912SOL     OW13761   6.566  10.426  11.029
37912SOL    HW113762   6.467  10.432  11.039
37912SOL    HW213763   6.589  10.346  10.973
37913SOL     OW13764   6.291  10.360   9.678
37913SOL    HW113765   6.277  10.367   9.777
37913SOL    HW213766   6.375  10.309   9.660
37914SOL     OW13767   5.996  10.123  10.561
37914SOL    HW113768   6.082  10.135  10.611
37914SOL    HW213769   5.954  10.036  10.588
37915SOL     OW13770   6.860   9.696  10.572
37915SOL    HW113771   6.881   9.770  10.636
37915SOL    HW213772   6.771   9.713  10.529
37916SOL     OW13773   5.650  10.874  10.641
37916SOL    HW113774   5.604  10.956  10.607
37916SOL    HW213775   5.748  10.893  10.650
37917SOL     OW13776   5.953  10.410   9.811
37917SOL    HW113777   5.946  10.493   9.755
37917SOL    HW213778   5.957  10.330   9.751
37918SOL     OW13779   6.152   9.847  10.175
37918SOL    HW113780   6.164   9.913  10.101
37918SOL    HW213781   6.198   9.881  10.258
37919SOL     OW13782   6.838  10.658   9.698
37919SOL    HW113783   6.888  10.735   9.738
37919SOL    HW213784   6.743  10.660   9.730
37920SOL     OW13785   6.858  10.755  10.452
37920SOL    HW113786   6.905  10.768  10.539
37920SOL    HW213787   6.792  10.681  10.461
37921SOL     OW13788   7.168   9.949   9.782
37921SOL    HW113789   7.137  10.010   9.855
37921SOL    HW213790   7.218  10.001   9.713
37922SOL     OW13791   5.940  10.820  10.639
37922SOL    HW113792   5.919  10.776  10.552
37922SOL    HW213793   6.037  10.846  10.642
37923SOL     OW13794   5.988  10.061  10.908
37923SOL    HW113795   6.056  10.116  10.861
37923SOL    HW213796   6.028   9.973  10.935
37924SOL     OW13797   7.173  10.089  10.980
37924SOL    HW113798   7.081  10.127  10.975
37924SOL    HW213799   7.233  10.136  10.915
37925SOL     OW13800   6.599   9.415  11.080
37925SOL    HW113801   6.605   9.500  11.028
37925SOL    HW213802   6.631   9.339  11.023
37926SOL     OW13803   6.090   9.360  11.050
37926SOL    HW113804   6.048   9.303  10.980
37926SOL    HW213805   6.024   9.429  11.082
37927SOL     OW13806   6.159  10.180  10.339
37927SOL    HW113807   6.203  10.269  10.330
37927SOL    HW213808   6.096  10.180  10.416
37928SOL     OW13809   6.946  10.172  10.355
37928SOL    HW113810   6.871  10.172  10.289
37928SOL    HW213811   6.983  10.080  10.364
37929SOL     OW13812   6.795   9.835   9.585
37929SOL    HW113813   6.808   9.751   9.639
37929SOL    HW213814   6.766   9.909   9.645
37930SOL     OW13815   5.893   9.523  10.541
37930SOL    HW113816   5.870   9.560  10.631
37930SOL    HW213817   5.863   9.428  10.535
37931SOL     OW13818   5.623  10.620  10.592
37931SOL    HW113819   5.676  10.571  10.660
37931SOL    HW213820   5.645  10.718  10.597
37932SOL     OW13821   6.318   9.944  10.374
37932SOL    HW113822   6.377   9.918  10.298
37932SOL    HW213823   6.290  10.040  10.363
37933SOL     OW13824   7.314  10.245  11.164
37933SOL    HW113825   7.268  10.238  11.075
37933SOL    HW213826   7.252  10.289  11.230
37934SOL     OW13827   5.893   9.373   9.928
37934SOL    HW113828   5.882   9.467   9.961
37934SOL    HW213829   5.888   9.310  10.005
37935SOL     OW13830   7.208   9.677   9.684
37935SOL    HW113831   7.210   9.601   9.748
37935SOL    HW213832   7.160   9.754   9.724
37936SOL     OW13833   6.609  10.076  10.276
37936SOL    HW113834   6.624  10.097  10.372
37936SOL    HW213835   6.579   9.981  10.267
37937SOL     OW13836   6.566  10.883  11.010
37937SOL    HW113837   6.546  10.927  10.922
37937SOL    HW213838   6.605  10.792  10.994
37938SOL     OW13839   7.445  10.828  10.915
37938SOL    HW113840   7.459  10.855  10.820
37938SOL    HW213841   7.528  10.850  10.968
37939SOL     OW13842   5.936  10.208  11.114
37939SOL    HW113843   6.012  10.252  11.162
37939SOL    HW213844   5.971  10.161  11.032
37940SOL     OW13845   7.126   9.584   9.435
37940SOL    HW113846   7.065   9.509   9.458
37940SOL    HW213847   7.148   9.636   9.518
37941SOL     OW13848   6.889  10.148   9.352
37941SOL    HW113849   6.923  10.055   9.367
37941SOL    HW213850   6.907  10.175   9.257
37942SOL     OW13851   6.654  10.643  10.159
37942SOL    HW113852   6.661  10.559  10.104
37942SOL    HW213853   6.716  10.712  10.123
37943SOL     OW13854   5.905  10.120  10.259
37943SOL    HW113855   5.998  10.156  10.264
37943SOL    HW213856   5.899  10.035  10.311
37944SOL     OW13857   5.925   9.819  10.316
37944SOL    HW113858   5.873   9.736  10.299
37944SOL    HW213859   6.002   9.824  10.252
37945SOL     OW13860   6.724   9.690  10.988
37945SOL    HW113861   6.679   9.753  11.052
37945SOL    HW213862   6.817   9.721  10.971
37946SOL     OW13863   6.746   9.517  10.787
37946SOL    HW113864   6.746   9.581  10.864
37946SOL    HW213865   6.774   9.565  10.704
37947SOL     OW13866   5.594  10.636   9.510
37947SOL    HW113867   5.501  10.657   9.479
37947SOL    HW213868   5.604  10.537   9.523
37948SOL     OW13869   5.674  11.111  10.237
37948SOL    HW113870   5.632  11.025  10.210
37948SOL    HW213871   5.768  11.114  10.203
37949SOL     OW13872   6.090  10.878  10.220
37949SOL    HW113873   6.156  10.952  10.229
37949SOL    HW213874   6.134  10.799  10.178
37950SOL     OW13875   6.588  10.106  10.548
37950SOL    HW113876   6.629  10.074  10.634
37950SOL    HW213877   6.492  10.079  10.545
37951SOL     OW13878   5.626   9.854  10.424
37951SOL    HW113879   5.711   9.821  10.383
37951SOL    HW213880   5.639   9.869  10.522
37952SOL     OW13881   5.775   9.830  11.032
37952SOL    HW113882   5.834   9.790  10.962
37952SOL    HW213883   5.717   9.901  10.991
37953SOL     OW13884   6.955  10.260  10.970
37953SOL    HW113885   6.994  10.349  10.990
37953SOL    HW213886   6.965  10.240  10.873
37954SOL     OW13887   6.401   9.882   9.635
37954SOL    HW113888   6.408   9.793   9.589
37954SOL    HW213889   6.307   9.916   9.627
37955SOL     OW13890   5.838  10.874  11.054
37955SOL    HW113891   5.808  10.931  11.130
37955SOL    HW213892   5.831  10.777  11.080
37956SOL     OW13893   6.257   9.774  10.579
37956SOL    HW113894   6.223   9.685  10.549
37956SOL    HW213895   6.283   9.828  10.499
37957SOL     OW13896   6.516  10.988  10.775
37957SOL    HW113897   6.492  10.970  10.680
37957SOL    HW213898   6.546  11.082  10.785
37958SOL     OW13899   6.059   9.810   9.501
37958SOL    HW113900   6.120   9.890   9.505
37958SOL    HW213901   5.964   9.841   9.508
37959SOL     OW13902   5.745  10.447  10.776
37959SOL    HW113903   5.767  10.386  10.852
37959SOL    HW213904   5.755  10.398  10.690
37960SOL     OW13905   6.933  10.369  10.544
37960SOL    HW113906   6.957  10.306  10.470
37960SOL    HW213907   6.843  10.409  10.526
37961SOL     OW13908   6.888  10.165   9.619
37961SOL    HW113909   6.802  10.134   9.661
37961SOL    HW213910   6.884  10.151   9.520
37962SOL     OW13911   7.345  11.057  10.464
37962SOL    HW113912   7.406  11.087  10.391
37962SOL    HW213913   7.307  10.968  10.442
37963SOL     OW13914   6.838  11.041  10.438
37963SOL    HW113915   6.922  11.046  10.384
37963SOL    HW213916   6.815  10.945  10.456
37964SOL     OW13917   5.669  10.568  10.332
37964SOL    HW113918   5.664  10.567  10.432
37964SOL    HW213919   5.586  10.527  10.294
37965SOL     OW13920   6.274  10.972  11.026
37965SOL    HW113921   6.218  11.053  11.035
37965SOL    HW213922   6.326  10.976  10.940
37966SOL     OW13923   7.312   9.445   9.833
37966SOL    HW113924   7.385   9.428   9.766
37966SOL    HW213925   7.281   9.358   9.871
37967SOL     OW13926   6.974  10.883   9.787
37967SOL    HW113927   7.041  10.895   9.713
37967SOL    HW213928   6.934  10.972   9.810
37968SOL     OW13929   5.716  11.104  11.161
37968SOL    HW113930   5.675  11.030  11.214
37968SOL    HW213931   5.780  11.155  11.219
37969SOL     OW13932   6.866  10.237   9.982
37969SOL    HW113933   6.926  10.156   9.984
37969SOL    HW213934   6.906  10.306   9.922
37970SOL     OW13935   6.416  10.583  10.732
37970SOL    HW113936   6.411  10.616  10.827
37970SOL    HW213937   6.330  10.602  10.686
37971SOL     OW13938   6.258  10.926   9.464
37971SOL    HW113939   6.267  10.936   9.365
37971SOL    HW213940   6.218  10.837   9.485
37972SOL     OW13941   7.236  11.030  10.704
37972SOL    HW113942   7.289  11.040  10.620
37972SOL    HW213943   7.209  11.120  10.738
37973SOL     OW13944   7.427   9.485  10.273
37973SOL    HW113945   7.466   9.400  10.237
37973SOL    HW213946   7.329   9.487  10.254
37974SOL     OW13947   5.849   9.636  10.030
37974SOL    HW113948   5.770   9.687   9.996
37974SOL    HW213949   5.840   9.621  10.128
37975SOL     OW13950   6.780  10.922   9.341
37975SOL    HW113951   6.786  10.829   9.378
37975SOL    HW213952   6.721  10.922   9.261
37976SOL     OW13953   6.408  10.312  10.682
37976SOL    HW113954   6.448  10.311  10.590
37976SOL    HW213955   6.418  10.404  10.722
37977SOL     OW13956   6.502  10.220   9.601
37977SOL    HW113957   6.565  10.258   9.533
37977SOL    HW213958   6.542  10.137   9.640
37978SOL     OW13959   7.090  10.917   9.354
37978SOL    HW113960   6.998  10.954   9.361
37978SOL    HW213961   7.128  10.937   9.264
37979SOL     OW13962   5.958  10.598  10.800
37979SOL    HW113963   5.945  10.691  10.766
37979SOL    HW213964   5.874  10.546  10.787
37980SOL     OW13965   7.200  10.602  10.599
37980SOL    HW113966   7.260  10.605  10.679
37980SOL    HW213967   7.125  10.666  10.612
37981SOL     OW13968   6.625  10.408  10.006
37981SOL    HW113969   6.555  10.361  10.060
37981SOL    HW213970   6.684  10.340   9.963
37982SOL     OW13971   6.600   9.546  10.281
37982SOL    HW113972   6.592   9.510  10.188
37982SOL    HW213973   6.598   9.470  10.346
37983SOL     OW13974   6.176  10.797   9.801
37983SOL    HW113975   6.218  10.739   9.731
37983SOL    HW213976   6.132  10.876   9.757
37984SOL     OW13977   7.295   9.695  10.691
37984SOL    HW113978   7.368   9.764  10.695
37984SOL    HW213979   7.323   9.620  10.632
37985SOL     OW13980   5.841  10.658   9.600
37985SOL    HW113981   5.745  10.659   9.573
37985SOL    HW213982   5.853  10.711   9.684
37986SOL     OW13983   5.691  10.323  11.036
37986SOL    HW113984   5.614  10.290  11.090
37986SOL    HW213985   5.776  10.293  11.078
37987SOL     OW13986   6.258   9.513  10.799
37987SOL    HW113987   6.348   9.497  10.759
37987SOL    HW213988   6.266   9.518  10.898
37988SOL     OW13989   5.661   9.655   9.343
37988SOL    HW113990   5.569   9.627   9.314
37988SOL    HW213991   5.692   9.732   9.287
37989SOL     OW13992   7.026  10.166  10.708
37989SOL    HW113993   6.969  10.218  10.645
37989SOL    HW213994   7.122  10.178  10.684
37990SOL     OW13995   5.658   9.476   9.628
37990SOL    HW113996   5.641   9.559   9.574
37990SOL    HW213997   5.748   9.439   9.606
37991SOL     OW13998   6.769  10.645   9.429
37991SOL    HW113999   6.670  10.634   9.431
37991SOL    HW214000   6.803  10.660   9.522
37992SOL     OW14001   6.199  10.152  10.741
37992SOL    HW114002   6.255  10.233  10.724
37992SOL    HW214003   6.258  10.072  10.744
37993SOL     OW14004   7.079  11.077  10.269
37993SOL    HW114005   7.112  11.141  10.200
37993SOL    HW214006   7.145  11.071  10.344
37994SOL     OW14007   6.302   9.875  11.018
37994SOL    HW114008   6.321   9.940  11.092
37994SOL    HW214009   6.362   9.795  11.027
37995SOL     OW14010   7.036  10.530  10.943
37995SOL    HW114011   7.027  10.520  11.042
37995SOL    HW214012   7.132  10.523  10.917
37996SOL     OW14013   5.976  11.051  10.870
37996SOL    HW114014   5.885  11.092  10.868
37996SOL    HW214015   5.969  10.957  10.902
37997SOL     OW14016   7.260  10.193  10.564
37997SOL    HW114017   7.233  10.104  10.527
37997SOL    HW214018   7.261  10.261  10.491
37998SOL     OW14019   6.811   9.635   9.759
37998SOL    HW114020   6.876   9.561   9.748
37998SOL    HW214021   6.831   9.685   9.843
37999SOL     OW14022   6.180  10.055   9.962
37999SOL    HW114023   6.230  10.140   9.943
37999SOL    HW214024   6.092  10.057   9.914
38000SOL     OW14025   7.363   9.652  10.952
38000SOL    HW114026   7.346   9.683  10.858
38000SOL    HW214027   7.279   9.615  10.990
38001SOL     OW14028   7.316  10.244  10.827
38001SOL    HW114029   7.354  10.335  10.842
38001SOL    HW214030   7.308  10.227  10.728
38002SOL     OW14031   6.445  10.684   9.326
38002SOL    HW114032   6.399  10.699   9.414
38002SOL    HW214033   6.489  10.769   9.296
38003SOL     OW14034   6.247  11.100  10.263
38003SOL    HW114035   6.201  11.188  10.250
38003SOL    HW214036   6.346  11.112  10.256
38004SOL     OW14037   6.445  10.266  10.171
38004SOL    HW114038   6.499  10.197  10.219
38004SOL    HW214039   6.413  10.335  10.237
38005SOL     OW14040   6.669  10.294   9.397
38005SOL    HW114041   6.646  10.347   9.315
38005SOL    HW214042   6.750  10.238   9.378
38006SOL     OW14043   7.447  10.879  10.161
38006SOL    HW114044   7.376  10.867  10.091
38006SOL    HW214045   7.448  10.800  10.221
38007SOL     OW14046   5.807  10.624  11.154
38007SOL    HW114047   5.742  10.551  11.133
38007SOL    HW214048   5.811  10.638  11.252
38008SOL     OW14049   5.665  10.550   9.963
38008SOL    HW114050   5.664  10.503  10.051
38008SOL    HW214051   5.747  10.522   9.912
38009SOL     OW14052   6.258  10.701  10.934
38009SOL    HW114053   6.180  10.651  10.972
38009SOL    HW214054   6.255  10.796  10.965
38010SOL     OW14055   7.410   9.502  10.537
38010SOL    HW114056   7.406   9.412  10.581
38010SOL    HW214057   7.413   9.491  10.438
38011SOL     OW14058   6.014   9.734   9.830
38011SOL    HW114059   6.044   9.662   9.768
38011SOL    HW214060   5.975   9.694   9.913
38012SOL     OW14061   7.291  10.797  10.414
38012SOL    HW114062   7.198  10.772  10.387
38012SOL    HW214063   7.317  10.747  10.496
38013SOL     OW14064   5.903   9.857  10.590
38013SOL    HW114065   5.941   9.798  10.662
38013SOL    HW214066   5.943   9.831  10.502
38014SOL     OW14067   6.398  10.896   9.997
38014SOL    HW114068   6.430  10.906   9.903
38014SOL    HW214069   6.319  10.834   9.999
38015SOL     OW14070   7.010   9.524  10.422
38015SOL    HW114071   7.062   9.459  10.477
38015SOL    HW214072   6.961   9.587  10.483
38016SOL     OW14073   6.587   9.344  10.464
38016SOL    HW114074   6.524   9.272  10.433
38016SOL    HW214075   6.680   9.308  10.464
38017SOL     OW14076   6.356  10.640   9.611
38017SOL    HW114077   6.310  10.553   9.628
38017SOL    HW214078   6.447  10.637   9.652
38018SOL     OW14079   6.204  10.877  10.594
38018SOL    HW114080   6.199  10.959  10.651
38018SOL    HW214081   6.293  10.874  10.549
38019SOL     OW14082   6.938   9.362   9.478
38019SOL    HW114083   6.973   9.321   9.394
38019SOL    HW214084   6.848   9.324   9.498
38020SOL     OW14085   6.886   9.763  10.001
38020SOL    HW114086   6.827   9.843  10.005
38020SOL    HW214087   6.901   9.728  10.094
38021SOL     OW14088   7.179   9.531  10.192
38021SOL    HW114089   7.095   9.530  10.246
38021SOL    HW214090   7.181   9.614  10.136
38022SOL     OW14091   5.625  10.387   9.610
38022SOL    HW114092   5.724  10.376   9.601
38022SOL    HW214093   5.585  10.301   9.642
38023SOL     OW14094   6.461  10.956   9.647
38023SOL    HW114095   6.384  10.921   9.593
38023SOL    HW214096   6.429  11.027   9.709
38024SOL     OW14097   5.816   9.938  11.285
38024SOL    HW114098   5.723   9.936  11.322
38024SOL    HW214099   5.817   9.899  11.193
38025SOL     OW14100   5.811   9.585  12.168
38025SOL    HW114101   5.846   9.568  12.260
38025SOL    HW214102   5.723   9.540  12.156
38026SOL     OW14103   5.605   9.678  11.819
38026SOL    HW114104   5.523   9.721  11.858
38026SOL    HW214105   5.577   9.605  11.756
38027SOL     OW14106   6.155  10.585  12.337
38027SOL    HW114107   6.062  10.578  12.300
38027SOL    HW214108   6.166  10.674  12.381
38028SOL     OW14109   7.141  10.821  11.875
38028SOL    HW114110   7.084  10.805  11.956
38028SOL    HW214111   7.082  10.831  11.795
38029SOL     OW14112   6.721  10.013  11.889
38029SOL    HW114113   6.778  10.091  11.864
38029SOL    HW214114   6.661  10.039  11.965
38030SOL     OW14115   7.341   9.917  11.403
38030SOL    HW114116   7.329   9.904  11.304
38030SOL    HW214117   7.311   9.836  11.452
38031SOL     OW14118   6.354  10.454  12.195
38031SOL    HW114119   6.276  10.471  12.255
38031SOL    HW214120   6.388  10.541  12.159
38032SOL     OW14121   6.271  10.322  11.837
38032SOL    HW114122   6.340  10.306  11.907
38032SOL    HW214123   6.198  10.379  11.875
38033SOL     OW14124   5.921  10.745  12.233
38033SOL    HW114125   5.843  10.714  12.180
38033SOL    HW214126   5.979  10.803  12.176
38034SOL     OW14127   7.046  10.815  12.511
38034SOL    HW114128   7.070  10.909  12.537
38034SOL    HW214129   7.030  10.761  12.593
38035SOL     OW14130   6.024   9.702  12.671
38035SOL    HW114131   6.106   9.646  12.680
38035SOL    HW214132   5.943   9.644  12.675
38036SOL     OW14133   7.189   9.757  11.909
38036SOL    HW114134   7.115   9.803  11.859
38036SOL    HW214135   7.240   9.825  11.962
38037SOL     OW14136   5.817  11.023  11.655
38037SOL    HW114137   5.851  11.100  11.709
38037SOL    HW214138   5.861  11.023  11.565
38038SOL     OW14139   5.816  10.744  11.710
38038SOL    HW114140   5.790  10.840  11.710
38038SOL    HW214141   5.745  10.690  11.755
38039SOL     OW14142   5.826  10.401  12.058
38039SOL    HW114143   5.840  10.317  12.110
38039SOL    HW214144   5.771  10.465  12.113
38040SOL     OW14145   6.206  11.096  12.611
38040SOL    HW114146   6.114  11.079  12.646
38040SOL    HW214147   6.234  11.188  12.637
38041SOL     OW14148   6.192  10.274  11.295
38041SOL    HW114149   6.199  10.358  11.241
38041SOL    HW214150   6.238  10.287  11.383
38042SOL     OW14151   7.180   9.424  12.652
38042SOL    HW114152   7.162   9.491  12.580
38042SOL    HW214153   7.177   9.470  12.741
38043SOL     OW14154   5.708   9.953  11.735
38043SOL    HW114155   5.663   9.865  11.752
38043SOL    HW214156   5.707  10.007  11.819
38044SOL     OW14157   7.428  11.077  11.531
38044SOL    HW114158   7.482  11.048  11.611
38044SOL    HW214159   7.458  11.167  11.502
38045SOL     OW14160   5.613  10.906  11.289
38045SOL    HW114161   5.594  10.810  11.310
38045SOL    HW214162   5.580  10.964  11.364
38046SOL     OW14163   7.275  10.232  11.784
38046SOL    HW114164   7.370  10.203  11.792
38046SOL    HW214165   7.267  10.297  11.709
38047SOL     OW14166   7.227  10.418  11.604
38047SOL    HW114167   7.313  10.420  11.552
38047SOL    HW214168   7.241  10.465  11.692
38048SOL     OW14169   6.199  10.675  11.898
38048SOL    HW114170   6.150  10.588  11.907
38048SOL    HW214171   6.176  10.718  11.811
38049SOL     OW14172   6.395   9.314  11.674
38049SOL    HW114173   6.435   9.405  11.665
38049SOL    HW214174   6.295   9.322  11.680
38050SOL     OW14175   5.783  10.286  12.436
38050SOL    HW114176   5.872  10.241  12.422
38050SOL    HW214177   5.710  10.221  12.417
38051SOL     OW14178   7.111  10.309  11.362
38051SOL    HW114179   7.048  10.233  11.375
38051SOL    HW214180   7.159  10.327  11.448
38052SOL     OW14181   5.903   9.561  12.973
38052SOL    HW114182   5.974   9.632  12.979
38052SOL    HW214183   5.815   9.600  13.001
38053SOL     OW14184   7.052  10.727  12.125
38053SOL    HW114185   6.993  10.733  12.205
38053SOL    HW214186   7.037  10.639  12.079
38054SOL     OW14187   7.253  11.024  11.744
38054SOL    HW114188   7.212  11.001  11.656
38054SOL    HW214189   7.235  10.950  11.809
38055SOL     OW14190   6.184  10.039  11.442
38055SOL    HW114191   6.208  10.108  11.374
38055SOL    HW214192   6.106  10.072  11.496
38056SOL     OW14193   6.867   9.655  12.116
38056SOL    HW114194   6.781   9.605  12.103
38056SOL    HW214195   6.929   9.601  12.172
38057SOL     OW14196   7.162  10.972  11.479
38057SOL    HW114197   7.251  11.018  11.482
38057SOL    HW214198   7.141  10.948  11.384
38058SOL     OW14199   6.393   9.915  12.637
38058SOL    HW114200   6.346   9.912  12.726
38058SOL    HW214201   6.342   9.860  12.571
38059SOL     OW14202   6.577   9.720  12.414
38059SOL    HW114203   6.500   9.754  12.468
38059SOL    HW214204   6.543   9.669  12.335
38060SOL     OW14205   6.627  10.011  11.601
38060SOL    HW114206   6.653  10.007  11.697
38060SOL    HW214207   6.542   9.960  11.587
38061SOL     OW14208   5.662  10.121  11.961
38061SOL    HW114209   5.761  10.109  11.970
38061SOL    HW214210   5.638  10.216  11.982
38062SOL     OW14211   5.716  11.131  12.743
38062SOL    HW114212   5.706  11.116  12.842
38062SOL    HW214213   5.630  11.167  12.707
38063SOL     OW14214   6.451   9.658  11.367
38063SOL    HW114215   6.510   9.721  11.318
38063SOL    HW214216   6.470   9.564  11.338
38064SOL     OW14217   6.948  10.454  11.717
38064SOL    HW114218   7.031  10.425  11.669
38064SOL    HW214219   6.899  10.521  11.661
38065SOL     OW14220   6.136   9.506  12.057
38065SOL    HW114221   6.131   9.501  12.157
38065SOL    HW214222   6.138   9.602  12.028
38066SOL     OW14223   6.594  10.766  11.649
38066SOL    HW114224   6.548  10.838  11.597
38066SOL    HW214225   6.590  10.786  11.747
38067SOL     OW14226   5.937  11.111  12.025
38067SOL    HW114227   5.987  11.025  12.031
38067SOL    HW214228   6.002  11.188  12.022
38068SOL     OW14229   7.381  10.376  12.045
38068SOL    HW114230   7.319  10.361  11.969
38068SOL    HW214231   7.329  10.387  12.130
38069SOL     OW14232   5.907  10.253  11.414
38069SOL    HW114233   5.989  10.292  11.372
38069SOL    HW214234   5.880  10.171  11.365
38070SOL     OW14235   7.044  10.045  11.900
38070SOL    HW114236   7.039   9.980  11.975
38070SOL    HW214237   7.124  10.104  11.913
38071SOL     OW14238   6.697  11.086  11.409
38071SOL    HW114239   6.637  11.024  11.459
38071SOL    HW214240   6.728  11.042  11.324
38072SOL     OW14241   5.788   9.595  12.670
38072SOL    HW114242   5.708   9.655  12.657
38072SOL    HW214243   5.778   9.546  12.756
38073SOL     OW14244   7.218  10.687  11.253
38073SOL    HW114245   7.186  10.781  11.243
38073SOL    HW214246   7.142  10.624  11.241
38074SOL     OW14247   6.050  11.053  11.495
38074SOL    HW114248   6.083  11.092  11.581
38074SOL    HW214249   6.126  11.046  11.430
38075SOL     OW14250   6.986   9.417  11.598
38075SOL    HW114251   6.962   9.380  11.508
38075SOL    HW214252   7.085   9.433  11.602
38076SOL     OW14253   5.835  11.095  12.413
38076SOL    HW114254   5.892  11.030  12.463
38076SOL    HW214255   5.819  11.062  12.320
38077SOL     OW14256   6.526  11.008  12.076
38077SOL    HW114257   6.606  10.951  12.097
38077SOL    HW214258   6.477  10.968  11.999
38078SOL     OW14259   5.968  10.010  11.652
38078SOL    HW114260   6.013   9.920  11.649
38078SOL    HW214261   5.874   9.999  11.685
38079SOL     OW14262   6.200   9.432  11.289
38079SOL    HW114263   6.298   9.410  11.296
38079SOL    HW214264   6.169   9.415  11.196
38080SOL     OW14265   6.474  10.824  12.367
38080SOL    HW114266   6.451  10.799  12.273
38080SOL    HW214267   6.535  10.755  12.406
38081SOL     OW14268   6.389  10.712  12.096
38081SOL    HW114269   6.479  10.726  12.054
38081SOL    HW214270   6.318  10.714  12.025
38082SOL     OW14271   6.508   9.813  12.071
38082SOL    HW114272   6.483   9.804  11.975
38082SOL    HW214273   6.556   9.731  12.102
38083SOL     OW14274   6.125   9.374  11.684
38083SOL    HW114275   6.044   9.375  11.742
38083SOL    HW214276   6.128   9.457  11.629
38084SOL     OW14277   7.020  10.498  11.213
38084SOL    HW114278   7.052  10.422  11.270
38084SOL    HW214279   6.928  10.525  11.243
38085SOL     OW14280   5.883   9.345  11.343
38085SOL    HW114281   5.932   9.429  11.322
38085SOL    HW214282   5.945   9.280  11.388
38086SOL     OW14283   6.521   9.546  11.652
38086SOL    HW114284   6.473   9.587  11.574
38086SOL    HW214285   6.620   9.544  11.633
38087SOL     OW14286   6.813  10.880  11.965
38087SOL    HW114287   6.834  10.954  11.900
38087SOL    HW214288   6.881  10.880  12.038
38088SOL     OW14289   6.045  10.462  11.913
38088SOL    HW114290   5.974  10.435  11.978
38088SOL    HW214291   6.019  10.434  11.820
38089SOL     OW14292   6.857  11.107  11.763
38089SOL    HW114293   6.901  11.171  11.699
38089SOL    HW214294   6.807  11.159  11.833
38090SOL     OW14295   6.618   9.859  11.188
38090SOL    HW114296   6.577   9.941  11.149
38090SOL    HW214297   6.682   9.885  11.261
38091SOL     OW14298   5.664   9.866  12.558
38091SOL    HW114299   5.756   9.865  12.517
38091SOL    HW214300   5.658   9.940  12.625
38092SOL     OW14301   6.147   9.532  12.319
38092SOL    HW114302   6.185   9.448  12.356
38092SOL    HW214303   6.059   9.551  12.363
38093SOL     OW14304   6.452   9.764  11.814
38093SOL    HW114305   6.420   9.836  11.752
38093SOL    HW214306   6.476   9.683  11.761
38094SOL     OW14307   6.603   9.349  11.925
38094SOL    HW114308   6.531   9.354  11.856
38094SOL    HW214309   6.579   9.280  11.994
38095SOL     OW14310   7.015  10.483  12.039
38095SOL    HW114311   6.960  10.399  12.032
38095SOL    HW214312   7.041  10.512  11.947
38096SOL     OW14313   7.052   9.900  12.164
38096SOL    HW114314   7.022   9.805  12.171
38096SOL    HW214315   7.125   9.916  12.230
38097SOL     OW14316   7.443  10.143  11.549
38097SOL    HW114317   7.485  10.079  11.613
38097SOL    HW214318   7.405  10.092  11.471
38098SOL     OW14319   6.074  10.695  11.346
38098SOL    HW114320   5.987  10.680  11.393
38098SOL    HW214321   6.057  10.721  11.251
38099SOL     OW14322   7.250  10.590  11.829
38099SOL    HW114323   7.349  10.598  11.843
38099SOL    HW214324   7.205  10.674  11.860
38100SOL     OW14325   6.976   9.885  11.250
38100SOL    HW114326   6.922   9.864  11.331
38100SOL    HW214327   7.067   9.844  11.259
38101SOL     OW14328   6.113   9.566  11.500
38101SOL    HW114329   6.140   9.507  11.425
38101SOL    HW214330   6.113   9.661  11.469
38102SOL     OW14331   6.650  10.657  12.512
38102SOL    HW114332   6.570  10.634  12.567
38102SOL    HW214333   6.733  10.631  12.561
38103SOL     OW14334   6.697  10.505  12.272
38103SOL    HW114335   6.657  10.549  12.353
38103SOL    HW214336   6.656  10.542  12.189
38104SOL     OW14337   7.224  10.409  12.251
38104SOL    HW114338   7.229  10.490  12.310
38104SOL    HW214339   7.138  10.411  12.200
38105SOL     OW14340   6.501   9.399  12.574
38105SOL    HW114341   6.526   9.379  12.479
38105SOL    HW214342   6.573   9.455  12.616
38106SOL     OW14343   6.291  10.360  11.540
38106SOL    HW114344   6.277  10.367  11.639
38106SOL    HW214345   6.375  10.309  11.522
38107SOL     OW14346   5.996  10.123  12.423
38107SOL    HW114347   6.082  10.135  12.473
38107SOL    HW214348   5.954  10.036  12.450
38108SOL     OW14349   6.860   9.696  12.434
38108SOL    HW114350   6.881   9.770  12.498
38108SOL    HW214351   6.771   9.713  12.391
38109SOL     OW14352   5.650  10.874  12.503
38109SOL    HW114353   5.604  10.956  12.469
38109SOL    HW214354   5.748  10.893  12.512
38110SOL     OW14355   5.953  10.410  11.673
38110SOL    HW114356   5.946  10.493  11.617
38110SOL    HW214357   5.957  10.330  11.613
38111SOL     OW14358   6.152   9.847  12.037
38111SOL    HW114359   6.164   9.913  11.963
38111SOL    HW214360   6.198   9.881  12.120
38112SOL     OW14361   6.838  10.658  11.560
38112SOL    HW114362   6.888  10.735  11.600
38112SOL    HW214363   6.743  10.660  11.592
38113SOL     OW14364   6.858  10.755  12.314
38113SOL    HW114365   6.905  10.768  12.401
38113SOL    HW214366   6.792  10.681  12.323
38114SOL     OW14367   7.168   9.949  11.644
38114SOL    HW114368   7.137  10.010  11.717
38114SOL    HW214369   7.218  10.001  11.575
38115SOL     OW14370   5.940  10.820  12.501
38115SOL    HW114371   5.919  10.776  12.414
38115SOL    HW214372   6.037  10.846  12.504
38116SOL     OW14373   7.173  10.089  12.842
38116SOL    HW114374   7.081  10.127  12.837
38116SOL    HW214375   7.233  10.136  12.777
38117SOL     OW14376   6.159  10.180  12.201
38117SOL    HW114377   6.203  10.269  12.192
38117SOL    HW214378   6.096  10.180  12.278
38118SOL     OW14379   6.946  10.172  12.217
38118SOL    HW114380   6.871  10.172  12.151
38118SOL    HW214381   6.983  10.080  12.226
38119SOL     OW14382   6.795   9.835  11.447
38119SOL    HW114383   6.808   9.751  11.501
38119SOL    HW214384   6.766   9.909  11.507
38120SOL     OW14385   5.893   9.523  12.403
38120SOL    HW114386   5.870   9.560  12.493
38120SOL    HW214387   5.863   9.428  12.397
38121SOL     OW14388   5.623  10.620  12.454
38121SOL    HW114389   5.676  10.571  12.522
38121SOL    HW214390   5.645  10.718  12.459
38122SOL     OW14391   6.318   9.944  12.236
38122SOL    HW114392   6.377   9.918  12.160
38122SOL    HW214393   6.290  10.040  12.225
38123SOL     OW14394   5.893   9.373  11.790
38123SOL    HW114395   5.882   9.467  11.823
38123SOL    HW214396   5.888   9.310  11.867
38124SOL     OW14397   7.208   9.677  11.546
38124SOL    HW114398   7.210   9.601  11.610
38124SOL    HW214399   7.160   9.754  11.586
38125SOL     OW14400   6.609  10.076  12.138
38125SOL    HW114401   6.624  10.097  12.234
38125SOL    HW214402   6.579   9.981  12.129
38126SOL     OW14403   6.566  10.883  12.872
38126SOL    HW114404   6.546  10.927  12.784
38126SOL    HW214405   6.605  10.792  12.856
38127SOL     OW14406   7.126   9.584  11.297
38127SOL    HW114407   7.065   9.509  11.320
38127SOL    HW214408   7.148   9.636  11.380
38128SOL     OW14409   6.889  10.148  11.214
38128SOL    HW114410   6.923  10.055  11.229
38128SOL    HW214411   6.907  10.175  11.119
38129SOL     OW14412   6.654  10.643  12.021
38129SOL    HW114413   6.661  10.559  11.966
38129SOL    HW214414   6.716  10.712  11.985
38130SOL     OW14415   5.905  10.120  12.121
38130SOL    HW114416   5.998  10.156  12.126
38130SOL    HW214417   5.899  10.035  12.173
38131SOL     OW14418   5.925   9.819  12.178
38131SOL    HW114419   5.873   9.736  12.161
38131SOL    HW214420   6.002   9.824  12.114
38132SOL     OW14421   6.724   9.690  12.850
38132SOL    HW114422   6.679   9.753  12.914
38132SOL    HW214423   6.817   9.721  12.833
38133SOL     OW14424   6.746   9.517  12.649
38133SOL    HW114425   6.746   9.581  12.726
38133SOL    HW214426   6.774   9.565  12.566
38134SOL     OW14427   5.594  10.636  11.372
38134SOL    HW114428   5.501  10.657  11.341
38134SOL    HW214429   5.604  10.537  11.385
38135SOL     OW14430   5.674  11.111  12.099
38135SOL    HW114431   5.632  11.025  12.072
38135SOL    HW214432   5.768  11.114  12.065
38136SOL     OW14433   6.090  10.878  12.082
38136SOL    HW114434   6.156  10.952  12.091
38136SOL    HW214435   6.134  10.799  12.040
38137SOL     OW14436   6.588  10.106  12.410
38137SOL    HW114437   6.629  10.074  12.496
38137SOL    HW214438   6.492  10.079  12.407
38138SOL     OW14439   5.626   9.854  12.286
38138SOL    HW114440   5.711   9.821  12.245
38138SOL    HW214441   5.639   9.869  12.384
38139SOL     OW14442   6.401   9.882  11.497
38139SOL    HW114443   6.408   9.793  11.451
38139SOL    HW214444   6.307   9.916  11.489
38140SOL     OW14445   7.243   9.914  12.378
38140SOL    HW114446   7.205   9.845  12.440
38140SOL    HW214447   7.325   9.878  12.334
38141SOL     OW14448   6.257   9.774  12.441
38141SOL    HW114449   6.223   9.685  12.411
38141SOL    HW214450   6.283   9.828  12.361
38142SOL     OW14451   6.516  10.988  12.637
38142SOL    HW114452   6.492  10.970  12.542
38142SOL    HW214453   6.546  11.082  12.647
38143SOL     OW14454   6.059   9.810  11.363
38143SOL    HW114455   6.120   9.890  11.367
38143SOL    HW214456   5.964   9.841  11.370
38144SOL     OW14457   5.745  10.447  12.638
38144SOL    HW114458   5.767  10.386  12.714
38144SOL    HW214459   5.755  10.398  12.552
38145SOL     OW14460   6.933  10.369  12.406
38145SOL    HW114461   6.957  10.306  12.332
38145SOL    HW214462   6.843  10.409  12.388
38146SOL     OW14463   6.888  10.165  11.481
38146SOL    HW114464   6.802  10.134  11.523
38146SOL    HW214465   6.884  10.151  11.382
38147SOL     OW14466   7.345  11.057  12.326
38147SOL    HW114467   7.406  11.087  12.253
38147SOL    HW214468   7.307  10.968  12.304
38148SOL     OW14469   6.838  11.041  12.300
38148SOL    HW114470   6.922  11.046  12.246
38148SOL    HW214471   6.815  10.945  12.318
38149SOL     OW14472   5.669  10.568  12.194
38149SOL    HW114473   5.664  10.567  12.294
38149SOL    HW214474   5.586  10.527  12.156
38150SOL     OW14475   7.312   9.445  11.695
38150SOL    HW114476   7.385   9.428  11.628
38150SOL    HW214477   7.281   9.358  11.733
38151SOL     OW14478   6.974  10.883  11.649
38151SOL    HW114479   7.041  10.895  11.575
38151SOL    HW214480   6.934  10.972  11.672
38152SOL     OW14481   6.866  10.237  11.844
38152SOL    HW114482   6.926  10.156  11.846
38152SOL    HW214483   6.906  10.306  11.784
38153SOL     OW14484   6.258  10.926  11.326
38153SOL    HW114485   6.267  10.936  11.227
38153SOL    HW214486   6.218  10.837  11.347
38154SOL     OW14487   7.236  11.030  12.566
38154SOL    HW114488   7.289  11.040  12.482
38154SOL    HW214489   7.209  11.120  12.600
38155SOL     OW14490   7.427   9.485  12.135
38155SOL    HW114491   7.466   9.400  12.099
38155SOL    HW214492   7.329   9.487  12.116
38156SOL     OW14493   5.849   9.636  11.892
38156SOL    HW114494   5.770   9.687  11.858
38156SOL    HW214495   5.840   9.621  11.990
38157SOL     OW14496   6.780  10.922  11.203
38157SOL    HW114497   6.786  10.829  11.240
38157SOL    HW214498   6.721  10.922  11.123
38158SOL     OW14499   6.408  10.312  12.544
38158SOL    HW114500   6.448  10.311  12.452
38158SOL    HW214501   6.418  10.404  12.584
38159SOL     OW14502   6.502  10.220  11.463
38159SOL    HW114503   6.565  10.258  11.395
38159SOL    HW214504   6.542  10.137  11.502
38160SOL     OW14505   7.090  10.917  11.216
38160SOL    HW114506   6.998  10.954  11.223
38160SOL    HW214507   7.128  10.937  11.126
38161SOL     OW14508   5.958  10.598  12.662
38161SOL    HW114509   5.945  10.691  12.628
38161SOL    HW214510   5.874  10.546  12.649
38162SOL     OW14511   7.200  10.602  12.461
38162SOL    HW114512   7.260  10.605  12.541
38162SOL    HW214513   7.125  10.666  12.474
38163SOL     OW14514   6.625  10.408  11.868
38163SOL    HW114515   6.555  10.361  11.922
38163SOL    HW214516   6.684  10.340  11.825
38164SOL     OW14517   6.600   9.546  12.143
38164SOL    HW114518   6.592   9.510  12.050
38164SOL    HW214519   6.598   9.470  12.208
38165SOL     OW14520   6.176  10.797  11.663
38165SOL    HW114521   6.218  10.739  11.593
38165SOL    HW214522   6.132  10.876  11.619
38166SOL     OW14523   7.295   9.695  12.553
38166SOL    HW114524   7.368   9.764  12.557
38166SOL    HW214525   7.323   9.620  12.494
38167SOL     OW14526   5.841  10.658  11.462
38167SOL    HW114527   5.745  10.659  11.435
38167SOL    HW214528   5.853  10.711  11.546
38168SOL     OW14529   5.661   9.655  11.205
38168SOL    HW114530   5.569   9.627  11.176
38168SOL    HW214531   5.692   9.732  11.149
38169SOL     OW14532   7.026  10.166  12.570
38169SOL    HW114533   6.969  10.218  12.507
38169SOL    HW214534   7.122  10.178  12.546
38170SOL     OW14535   5.658   9.476  11.490
38170SOL    HW114536   5.641   9.559  11.436
38170SOL    HW214537   5.748   9.439  11.468
38171SOL     OW14538   6.769  10.645  11.291
38171SOL    HW114539   6.670  10.634  11.293
38171SOL    HW214540   6.803  10.660  11.384
38172SOL     OW14541   6.199  10.152  12.603
38172SOL    HW114542   6.255  10.233  12.586
38172SOL    HW214543   6.258  10.072  12.606
38173SOL     OW14544   7.079  11.077  12.131
38173SOL    HW114545   7.112  11.141  12.062
38173SOL    HW214546   7.145  11.071  12.206
38174SOL     OW14547   5.976  11.051  12.732
38174SOL    HW114548   5.885  11.092  12.730
38174SOL    HW214549   5.969  10.957  12.764
38175SOL     OW14550   7.260  10.193  12.426
38175SOL    HW114551   7.233  10.104  12.389
38175SOL    HW214552   7.261  10.261  12.353
38176SOL     OW14553   6.811   9.635  11.621
38176SOL    HW114554   6.876   9.561  11.610
38176SOL    HW214555   6.831   9.685  11.705
38177SOL     OW14556   6.180  10.055  11.824
38177SOL    HW114557   6.230  10.140  11.805
38177SOL    HW214558   6.092  10.057  11.776
38178SOL     OW14559   7.363   9.652  12.814
38178SOL    HW114560   7.346   9.683  12.720
38178SOL    HW214561   7.279   9.615  12.852
38179SOL     OW14562   7.316  10.244  12.689
38179SOL    HW114563   7.354  10.335  12.704
38179SOL    HW214564   7.308  10.227  12.590
38180SOL     OW14565   6.445  10.684  11.188
38180SOL    HW114566   6.399  10.699  11.276
38180SOL    HW214567   6.489  10.769  11.158
38181SOL     OW14568   6.247  11.100  12.125
38181SOL    HW114569   6.201  11.188  12.112
38181SOL    HW214570   6.346  11.112  12.118
38182SOL     OW14571   6.445  10.266  12.033
38182SOL    HW114572   6.499  10.197  12.081
38182SOL    HW214573   6.413  10.335  12.099
38183SOL     OW14574   6.669  10.294  11.259
38183SOL    HW114575   6.646  10.347  11.177
38183SOL    HW214576   6.750  10.238  11.240
38184SOL     OW14577   7.447  10.879  12.023
38184SOL    HW114578   7.376  10.867  11.953
38184SOL    HW214579   7.448  10.800  12.083
38185SOL     OW14580   5.665  10.550  11.825
38185SOL    HW114581   5.664  10.503  11.913
38185SOL    HW214582   5.747  10.522  11.774
38186SOL     OW14583   7.410   9.502  12.399
38186SOL    HW114584   7.406   9.412  12.443
38186SOL    HW214585   7.413   9.491  12.300
38187SOL     OW14586   6.014   9.734  11.692
38187SOL    HW114587   6.044   9.662  11.630
38187SOL    HW214588   5.975   9.694  11.775
38188SOL     OW14589   7.291  10.797  12.276
38188SOL    HW114590   7.198  10.772  12.249
38188SOL    HW214591   7.317  10.747  12.358
38189SOL     OW14592   5.903   9.857  12.452
38189SOL    HW114593   5.941   9.798  12.524
38189SOL    HW214594   5.943   9.831  12.364
38190SOL     OW14595   6.398  10.896  11.859
38190SOL    HW114596   6.430  10.906  11.765
38190SOL    HW214597   6.319  10.834  11.861
38191SOL     OW14598   7.010   9.524  12.284
38191SOL    HW114599   7.062   9.459  12.339
38191SOL    HW214600   6.961   9.587  12.345
38192SOL     OW14601   6.587   9.344  12.326
38192SOL    HW114602   6.524   9.272  12.295
38192SOL    HW214603   6.680   9.308  12.326
38193SOL     OW14604   6.356  10.640  11.473
38193SOL    HW114605   6.310  10.553  11.490
38193SOL    HW214606   6.447  10.637  11.514
38194SOL     OW14607   6.204  10.877  12.456
38194SOL    HW114608   6.199  10.959  12.513
38194SOL    HW214609   6.293  10.874  12.411
38195SOL     OW14610   6.938   9.362  11.340
38195SOL    HW114611   6.973   9.321  11.256
38195SOL    HW214612   6.848   9.324  11.360
38196SOL     OW14613   6.886   9.763  11.863
38196SOL    HW114614   6.827   9.843  11.867
38196SOL    HW214615   6.901   9.728  11.956
38197SOL     OW14616   7.179   9.531  12.054
38197SOL    HW114617   7.095   9.530  12.108
38197SOL    HW214618   7.181   9.614  11.998
38198SOL     OW14619   5.625  10.387  11.472
38198SOL    HW114620   5.724  10.376  11.463
38198SOL    HW214621   5.585  10.301  11.504
38199SOL     OW14622   6.461  10.956  11.509
38199SOL    HW114623   6.384  10.921  11.455
38199SOL    HW214624   6.429  11.027  11.571
38200SOL     OW14625   5.816  11.800   0.113
38200SOL    HW114626   5.723  11.798   0.150
38200SOL    HW214627   5.817  11.761   0.021
38201SOL     OW14628   5.811  11.447   0.996
38201SOL    HW114629   5.846  11.430   1.088
38201SOL    HW214630   5.723  11.402   0.984
38202SOL     OW14631   5.605  11.540   0.647
38202SOL    HW114632   5.523  11.583   0.686
38202SOL    HW214633   5.577  11.467   0.584
38203SOL     OW14634   6.155  12.447   1.165
38203SOL    HW114635   6.062  12.440   1.128
38203SOL    HW214636   6.166  12.536   1.209
38204SOL     OW14637   7.141  12.683   0.703
38204SOL    HW114638   7.084  12.667   0.784
38204SOL    HW214639   7.082  12.693   0.623
38205SOL     OW14640   6.721  11.875   0.717
38205SOL    HW114641   6.778  11.953   0.692
38205SOL    HW214642   6.661  11.901   0.793
38206SOL     OW14643   7.341  11.779   0.231
38206SOL    HW114644   7.329  11.766   0.132
38206SOL    HW214645   7.311  11.698   0.280
38207SOL     OW14646   6.354  12.316   1.023
38207SOL    HW114647   6.276  12.333   1.083
38207SOL    HW214648   6.388  12.403   0.987
38208SOL     OW14649   6.436  11.970   1.823
38208SOL    HW114650   6.432  12.046   1.888
38208SOL    HW214651   6.458  12.006   1.732
38209SOL     OW14652   6.271  12.184   0.665
38209SOL    HW114653   6.340  12.168   0.735
38209SOL    HW214654   6.198  12.241   0.703
38210SOL     OW14655   6.272  12.333   1.803
38210SOL    HW114656   6.332  12.412   1.817
38210SOL    HW214657   6.186  12.364   1.762
38211SOL     OW14658   5.921  12.607   1.061
38211SOL    HW114659   5.843  12.576   1.008
38211SOL    HW214660   5.979  12.665   1.004
38212SOL     OW14661   7.046  12.677   1.339
38212SOL    HW114662   7.070  12.771   1.365
38212SOL    HW214663   7.030  12.623   1.421
38213SOL     OW14664   6.024  11.564   1.499
38213SOL    HW114665   6.106  11.508   1.508
38213SOL    HW214666   5.943  11.506   1.503
38214SOL     OW14667   7.189  11.619   0.737
38214SOL    HW114668   7.115  11.665   0.687
38214SOL    HW214669   7.240  11.687   0.790
38215SOL     OW14670   5.817  12.885   0.483
38215SOL    HW114671   5.851  12.962   0.537
38215SOL    HW214672   5.861  12.885   0.393
38216SOL     OW14673   6.713  12.513   1.690
38216SOL    HW114674   6.760  12.513   1.778
38216SOL    HW214675   6.665  12.426   1.679
38217SOL     OW14676   5.816  12.606   0.538
38217SOL    HW114677   5.790  12.702   0.538
38217SOL    HW214678   5.745  12.552   0.583
38218SOL     OW14679   5.826  12.263   0.886
38218SOL    HW114680   5.840  12.179   0.938
38218SOL    HW214681   5.771  12.327   0.941
38219SOL     OW14682   6.192  12.136   0.123
38219SOL    HW114683   6.199  12.220   0.069
38219SOL    HW214684   6.238  12.149   0.211
38220SOL     OW14685   7.180  11.286   1.480
38220SOL    HW114686   7.162  11.353   1.408
38220SOL    HW214687   7.177  11.332   1.569
38221SOL     OW14688   5.708  11.815   0.563
38221SOL    HW114689   5.663  11.727   0.580
38221SOL    HW214690   5.707  11.869   0.647
38222SOL     OW14691   5.613  12.768   0.117
38222SOL    HW114692   5.594  12.672   0.138
38222SOL    HW214693   5.580  12.826   0.192
38223SOL     OW14694   7.275  12.094   0.612
38223SOL    HW114695   7.370  12.065   0.620
38223SOL    HW214696   7.267  12.159   0.537
38224SOL     OW14697   7.227  12.280   0.432
38224SOL    HW114698   7.313  12.282   0.380
38224SOL    HW214699   7.241  12.327   0.520
38225SOL     OW14700   5.699  11.909   1.597
38225SOL    HW114701   5.787  11.896   1.642
38225SOL    HW214702   5.686  12.006   1.575
38226SOL     OW14703   6.199  12.537   0.726
38226SOL    HW114704   6.150  12.450   0.735
38226SOL    HW214705   6.176  12.580   0.639
38227SOL     OW14706   6.879  12.400   1.423
38227SOL    HW114707   6.916  12.327   1.365
38227SOL    HW214708   6.931  12.405   1.508
38228SOL     OW14709   6.395  11.176   0.502
38228SOL    HW114710   6.435  11.267   0.493
38228SOL    HW214711   6.295  11.184   0.508
38229SOL     OW14712   5.783  12.148   1.264
38229SOL    HW114713   5.872  12.103   1.250
38229SOL    HW214714   5.710  12.083   1.245
38230SOL     OW14715   7.111  12.171   0.190
38230SOL    HW114716   7.048  12.095   0.203
38230SOL    HW214717   7.159  12.189   0.276
38231SOL     OW14718   5.903  11.423   1.801
38231SOL    HW114719   5.974  11.494   1.807
38231SOL    HW214720   5.815  11.462   1.829
38232SOL     OW14721   7.052  12.589   0.953
38232SOL    HW114722   6.993  12.595   1.033
38232SOL    HW214723   7.037  12.501   0.907
38233SOL     OW14724   6.184  11.901   0.270
38233SOL    HW114725   6.208  11.970   0.202
38233SOL    HW214726   6.106  11.934   0.324
38234SOL     OW14727   6.867  11.517   0.944
38234SOL    HW114728   6.781  11.467   0.931
38234SOL    HW214729   6.929  11.463   1.000
38235SOL     OW14730   6.393  11.777   1.465
38235SOL    HW114731   6.346  11.774   1.554
38235SOL    HW214732   6.342  11.722   1.399
38236SOL     OW14733   6.980  11.641   1.674
38236SOL    HW114734   6.960  11.684   1.762
38236SOL    HW214735   7.058  11.579   1.683
38237SOL     OW14736   6.559  12.062   1.572
38237SOL    HW114737   6.605  11.978   1.543
38237SOL    HW214738   6.503  12.096   1.497
38238SOL     OW14739   6.577  11.582   1.242
38238SOL    HW114740   6.500  11.616   1.296
38238SOL    HW214741   6.543  11.531   1.163
38239SOL     OW14742   6.627  11.873   0.429
38239SOL    HW114743   6.653  11.869   0.525
38239SOL    HW214744   6.542  11.822   0.415
38240SOL     OW14745   5.662  11.983   0.789
38240SOL    HW114746   5.761  11.971   0.798
38240SOL    HW214747   5.638  12.078   0.810
38241SOL     OW14748   6.451  11.520   0.195
38241SOL    HW114749   6.510  11.583   0.146
38241SOL    HW214750   6.470  11.426   0.166
38242SOL     OW14751   7.305  11.757   1.831
38242SOL    HW114752   7.279  11.846   1.795
38242SOL    HW214753   7.303  11.689   1.758
38243SOL     OW14754   6.948  12.316   0.545
38243SOL    HW114755   7.031  12.287   0.497
38243SOL    HW214756   6.899  12.383   0.489
38244SOL     OW14757   6.136  11.368   0.885
38244SOL    HW114758   6.131  11.363   0.985
38244SOL    HW214759   6.138  11.464   0.856
38245SOL     OW14760   6.594  12.628   0.477
38245SOL    HW114761   6.548  12.700   0.425
38245SOL    HW214762   6.590  12.648   0.575
38246SOL     OW14763   7.381  12.238   0.873
38246SOL    HW114764   7.319  12.223   0.797
38246SOL    HW214765   7.329  12.249   0.958
38247SOL     OW14766   6.813  12.722   1.506
38247SOL    HW114767   6.819  12.645   1.570
38247SOL    HW214768   6.761  12.696   1.426
38248SOL     OW14769   5.907  12.115   0.242
38248SOL    HW114770   5.989  12.154   0.200
38248SOL    HW214771   5.880  12.033   0.193
38249SOL     OW14772   7.044  11.907   0.728
38249SOL    HW114773   7.039  11.842   0.803
38249SOL    HW214774   7.124  11.966   0.741
38250SOL     OW14775   6.047  12.438   1.727
38250SOL    HW114776   5.997  12.439   1.641
38250SOL    HW214777   5.984  12.420   1.803
38251SOL     OW14778   6.697  12.948   0.237
38251SOL    HW114779   6.637  12.886   0.287
38251SOL    HW214780   6.728  12.904   0.152
38252SOL     OW14781   5.788  11.457   1.498
38252SOL    HW114782   5.708  11.517   1.485
38252SOL    HW214783   5.778  11.408   1.584
38253SOL     OW14784   7.218  12.549   0.081
38253SOL    HW114785   7.186  12.643   0.071
38253SOL    HW214786   7.142  12.486   0.069
38254SOL     OW14787   6.986  11.279   0.426
38254SOL    HW114788   6.962  11.242   0.336
38254SOL    HW214789   7.085  11.295   0.430
38255SOL     OW14790   5.968  11.872   0.480
38255SOL    HW114791   6.013  11.782   0.477
38255SOL    HW214792   5.874  11.861   0.513
38256SOL     OW14793   7.133  11.394   1.729
38256SOL    HW114794   7.128  11.431   1.821
38256SOL    HW214795   7.061  11.325   1.717
38257SOL     OW14796   6.200  11.294   0.117
38257SOL    HW114797   6.298  11.272   0.124
38257SOL    HW214798   6.169  11.277   0.024
38258SOL     OW14799   6.367  11.436   1.749
38258SOL    HW114800   6.434  11.375   1.792
38258SOL    HW214801   6.294  11.455   1.814
38259SOL     OW14802   6.937  11.762   1.433
38259SOL    HW114803   6.965  11.719   1.518
38259SOL    HW214804   6.962  11.858   1.434
38260SOL     OW14805   6.389  12.574   0.924
38260SOL    HW114806   6.479  12.588   0.882
38260SOL    HW214807   6.318  12.576   0.853
38261SOL     OW14808   6.508  11.675   0.899
38261SOL    HW114809   6.483  11.666   0.803
38261SOL    HW214810   6.556  11.593   0.930
38262SOL     OW14811   6.125  11.236   0.512
38262SOL    HW114812   6.044  11.237   0.570
38262SOL    HW214813   6.128  11.319   0.457
38263SOL     OW14814   7.020  12.360   0.041
38263SOL    HW114815   7.052  12.284   0.098
38263SOL    HW214816   6.928  12.387   0.071
38264SOL     OW14817   5.883  11.207   0.171
38264SOL    HW114818   5.932  11.291   0.150
38264SOL    HW214819   5.945  11.142   0.216
38265SOL     OW14820   6.521  11.408   0.480
38265SOL    HW114821   6.473  11.449   0.402
38265SOL    HW214822   6.620  11.406   0.461
38266SOL     OW14823   6.662  11.855   1.464
38266SOL    HW114824   6.582  11.794   1.467
38266SOL    HW214825   6.743  11.802   1.440
38267SOL     OW14826   6.813  12.742   0.793
38267SOL    HW114827   6.834  12.816   0.728
38267SOL    HW214828   6.881  12.742   0.866
38268SOL     OW14829   6.045  12.324   0.741
38268SOL    HW114830   5.974  12.297   0.806
38268SOL    HW214831   6.019  12.296   0.648
38269SOL     OW14832   6.618  11.721   0.016
38269SOL    HW114833   6.577  11.803  -0.023
38269SOL    HW214834   6.682  11.747   0.089
38270SOL     OW14835   5.664  11.728   1.386
38270SOL    HW114836   5.756  11.727   1.345
38270SOL    HW214837   5.658  11.802   1.453
38271SOL     OW14838   6.147  11.394   1.147
38271SOL    HW114839   6.185  11.310   1.184
38271SOL    HW214840   6.059  11.413   1.191
38272SOL     OW14841   6.452  11.626   0.642
38272SOL    HW114842   6.420  11.698   0.580
38272SOL    HW214843   6.476  11.545   0.589
38273SOL     OW14844   6.603  11.211   0.753
38273SOL    HW114845   6.531  11.216   0.684
38273SOL    HW214846   6.579  11.142   0.822
38274SOL     OW14847   7.015  12.345   0.867
38274SOL    HW114848   6.960  12.261   0.860
38274SOL    HW214849   7.041  12.374   0.775
38275SOL     OW14850   7.052  11.762   0.992
38275SOL    HW114851   7.022  11.667   0.999
38275SOL    HW214852   7.125  11.778   1.058
38276SOL     OW14853   7.443  12.005   0.377
38276SOL    HW114854   7.485  11.941   0.441
38276SOL    HW214855   7.405  11.954   0.299
38277SOL     OW14856   6.074  12.557   0.174
38277SOL    HW114857   5.987  12.542   0.221
38277SOL    HW214858   6.057  12.583   0.079
38278SOL     OW14859   7.250  12.452   0.657
38278SOL    HW114860   7.349  12.460   0.671
38278SOL    HW214861   7.205  12.536   0.688
38279SOL     OW14862   6.976  11.747   0.078
38279SOL    HW114863   6.922  11.726   0.159
38279SOL    HW214864   7.067  11.706   0.087
38280SOL     OW14865   6.113  11.428   0.328
38280SOL    HW114866   6.140  11.369   0.253
38280SOL    HW214867   6.113  11.523   0.297
38281SOL     OW14868   7.340  12.395   1.588
38281SOL    HW114869   7.431  12.356   1.575
38281SOL    HW214870   7.348  12.491   1.612
38282SOL     OW14871   6.650  12.519   1.340
38282SOL    HW114872   6.570  12.496   1.395
38282SOL    HW214873   6.733  12.493   1.389
38283SOL     OW14874   6.697  12.367   1.100
38283SOL    HW114875   6.657  12.411   1.181
38283SOL    HW214876   6.656  12.404   1.017
38284SOL     OW14877   7.224  12.271   1.079
38284SOL    HW114878   7.229  12.352   1.138
38284SOL    HW214879   7.138  12.273   1.028
38285SOL     OW14880   6.501  11.261   1.402
38285SOL    HW114881   6.526  11.241   1.307
38285SOL    HW214882   6.573  11.317   1.444
38286SOL     OW14883   6.566  12.288   1.719
38286SOL    HW114884   6.467  12.294   1.729
38286SOL    HW214885   6.589  12.208   1.663
38287SOL     OW14886   6.291  12.222   0.368
38287SOL    HW114887   6.277  12.229   0.467
38287SOL    HW214888   6.375  12.171   0.350
38288SOL     OW14889   5.996  11.985   1.251
38288SOL    HW114890   6.082  11.997   1.301
38288SOL    HW214891   5.954  11.898   1.278
38289SOL     OW14892   6.860  11.558   1.262
38289SOL    HW114893   6.881  11.632   1.326
38289SOL    HW214894   6.771  11.575   1.219
38290SOL     OW14895   5.953  12.272   0.501
38290SOL    HW114896   5.946  12.355   0.445
38290SOL    HW214897   5.957  12.192   0.441
38291SOL     OW14898   6.152  11.709   0.865
38291SOL    HW114899   6.164  11.775   0.791
38291SOL    HW214900   6.198  11.743   0.948
38292SOL     OW14901   6.838  12.520   0.388
38292SOL    HW114902   6.888  12.597   0.428
38292SOL    HW214903   6.743  12.522   0.420
38293SOL     OW14904   6.858  12.617   1.142
38293SOL    HW114905   6.905  12.630   1.229
38293SOL    HW214906   6.792  12.543   1.151
38294SOL     OW14907   7.168  11.811   0.472
38294SOL    HW114908   7.137  11.872   0.545
38294SOL    HW214909   7.218  11.863   0.403
38295SOL     OW14910   5.940  12.682   1.329
38295SOL    HW114911   5.919  12.638   1.242
38295SOL    HW214912   6.037  12.708   1.332
38296SOL     OW14913   5.988  11.923   1.598
38296SOL    HW114914   6.056  11.978   1.551
38296SOL    HW214915   6.028  11.835   1.625
38297SOL     OW14916   7.173  11.951   1.670
38297SOL    HW114917   7.081  11.989   1.665
38297SOL    HW214918   7.233  11.998   1.605
38298SOL     OW14919   6.599  11.277   1.770
38298SOL    HW114920   6.605  11.362   1.718
38298SOL    HW214921   6.631  11.201   1.713
38299SOL     OW14922   6.090  11.222   1.740
38299SOL    HW114923   6.048  11.165   1.670
38299SOL    HW214924   6.024  11.291   1.772
38300SOL     OW14925   6.159  12.042   1.029
38300SOL    HW114926   6.203  12.131   1.020
38300SOL    HW214927   6.096  12.042   1.106
38301SOL     OW14928   6.946  12.034   1.045
38301SOL    HW114929   6.871  12.034   0.979
38301SOL    HW214930   6.983  11.942   1.054
38302SOL     OW14931   6.795  11.697   0.275
38302SOL    HW114932   6.808  11.613   0.329
38302SOL    HW214933   6.766  11.771   0.335
38303SOL     OW14934   5.893  11.385   1.231
38303SOL    HW114935   5.870  11.422   1.321
38303SOL    HW214936   5.863  11.290   1.225
38304SOL     OW14937   5.623  12.482   1.282
38304SOL    HW114938   5.676  12.433   1.350
38304SOL    HW214939   5.645  12.580   1.287
38305SOL     OW14940   6.318  11.806   1.064
38305SOL    HW114941   6.377  11.780   0.988
38305SOL    HW214942   6.290  11.902   1.053
38306SOL     OW14943   7.314  12.107   1.854
38306SOL    HW114944   7.268  12.100   1.765
38306SOL    HW214945   7.252  12.151   1.920
38307SOL     OW14946   5.893  11.235   0.618
38307SOL    HW114947   5.882  11.329   0.651
38307SOL    HW214948   5.888  11.172   0.695
38308SOL     OW14949   7.208  11.539   0.374
38308SOL    HW114950   7.210  11.463   0.438
38308SOL    HW214951   7.160  11.616   0.414
38309SOL     OW14952   6.609  11.938   0.966
38309SOL    HW114953   6.624  11.959   1.062
38309SOL    HW214954   6.579  11.843   0.957
38310SOL     OW14955   7.445  12.690   1.605
38310SOL    HW114956   7.459  12.717   1.510
38310SOL    HW214957   7.528  12.712   1.658
38311SOL     OW14958   5.936  12.070   1.804
38311SOL    HW114959   6.012  12.114   1.852
38311SOL    HW214960   5.971  12.023   1.722
38312SOL     OW14961   7.126  11.446   0.125
38312SOL    HW114962   7.065  11.371   0.148
38312SOL    HW214963   7.148  11.498   0.208
38313SOL     OW14964   6.889  12.010   0.042
38313SOL    HW114965   6.923  11.917   0.057
38313SOL    HW214966   6.907  12.037  -0.053
38314SOL     OW14967   6.654  12.505   0.849
38314SOL    HW114968   6.661  12.421   0.794
38314SOL    HW214969   6.716  12.574   0.813
38315SOL     OW14970   5.905  11.982   0.949
38315SOL    HW114971   5.998  12.018   0.954
38315SOL    HW214972   5.899  11.897   1.001
38316SOL     OW14973   5.925  11.681   1.006
38316SOL    HW114974   5.873  11.598   0.989
38316SOL    HW214975   6.002  11.686   0.942
38317SOL     OW14976   6.724  11.552   1.678
38317SOL    HW114977   6.679  11.615   1.742
38317SOL    HW214978   6.817  11.583   1.661
38318SOL     OW14979   6.746  11.379   1.477
38318SOL    HW114980   6.746  11.443   1.554
38318SOL    HW214981   6.774  11.427   1.394
38319SOL     OW14982   5.594  12.498   0.200
38319SOL    HW114983   5.501  12.519   0.169
38319SOL    HW214984   5.604  12.399   0.213
38320SOL     OW14985   6.588  11.968   1.238
38320SOL    HW114986   6.629  11.936   1.324
38320SOL    HW214987   6.492  11.941   1.235
38321SOL     OW14988   5.626  11.716   1.114
38321SOL    HW114989   5.711  11.683   1.073
38321SOL    HW214990   5.639  11.731   1.212
38322SOL     OW14991   5.775  11.692   1.722
38322SOL    HW114992   5.834  11.652   1.652
38322SOL    HW214993   5.717  11.763   1.681
38323SOL     OW14994   6.955  12.122   1.660
38323SOL    HW114995   6.994  12.211   1.680
38323SOL    HW214996   6.965  12.102   1.563
38324SOL     OW14997   6.401  11.744   0.325
38324SOL    HW114998   6.408  11.655   0.279
38324SOL    HW214999   6.307  11.778   0.317
38325SOL     OW15000   7.243  11.776   1.206
38325SOL    HW115001   7.205  11.707   1.268
38325SOL    HW215002   7.325  11.740   1.162
38326SOL     OW15003   5.838  12.736   1.744
38326SOL    HW115004   5.808  12.793   1.820
38326SOL    HW215005   5.831  12.639   1.770
38327SOL     OW15006   6.257  11.636   1.269
38327SOL    HW115007   6.223  11.547   1.239
38327SOL    HW215008   6.283  11.690   1.189
38328SOL     OW15009   6.059  11.672   0.191
38328SOL    HW115010   6.120  11.752   0.195
38328SOL    HW215011   5.964  11.703   0.198
38329SOL     OW15012   5.745  12.309   1.466
38329SOL    HW115013   5.767  12.248   1.542
38329SOL    HW215014   5.755  12.260   1.380
38330SOL     OW15015   6.933  12.231   1.234
38330SOL    HW115016   6.957  12.168   1.160
38330SOL    HW215017   6.843  12.271   1.216
38331SOL     OW15018   5.669  12.430   1.022
38331SOL    HW115019   5.664  12.429   1.122
38331SOL    HW215020   5.586  12.389   0.984
38332SOL     OW15021   6.489  11.258   0.133
38332SOL    HW115022   6.540  11.259   0.047
38332SOL    HW215023   6.545  11.216   0.204
38333SOL     OW15024   7.312  11.307   0.523
38333SOL    HW115025   7.385  11.290   0.456
38333SOL    HW215026   7.281  11.220   0.561
38334SOL     OW15027   6.866  12.099   0.672
38334SOL    HW115028   6.926  12.018   0.674
38334SOL    HW215029   6.906  12.168   0.612
38335SOL     OW15030   6.416  12.445   1.422
38335SOL    HW115031   6.411  12.478   1.517
38335SOL    HW215032   6.330  12.464   1.376
38336SOL     OW15033   7.427  11.347   0.963
38336SOL    HW115034   7.466  11.262   0.927
38336SOL    HW215035   7.329  11.349   0.944
38337SOL     OW15036   5.849  11.498   0.720
38337SOL    HW115037   5.770  11.549   0.686
38337SOL    HW215038   5.840  11.483   0.818
38338SOL     OW15039   6.780  12.784   0.031
38338SOL    HW115040   6.786  12.691   0.068
38338SOL    HW215041   6.721  12.784  -0.049
38339SOL     OW15042   6.408  12.174   1.372
38339SOL    HW115043   6.448  12.173   1.280
38339SOL    HW215044   6.418  12.266   1.412
38340SOL     OW15045   6.502  12.082   0.291
38340SOL    HW115046   6.565  12.120   0.223
38340SOL    HW215047   6.542  11.999   0.330
38341SOL     OW15048   5.958  12.460   1.490
38341SOL    HW115049   5.945  12.553   1.456
38341SOL    HW215050   5.874  12.408   1.477
38342SOL     OW15051   7.200  12.464   1.289
38342SOL    HW115052   7.260  12.467   1.369
38342SOL    HW215053   7.125  12.528   1.302
38343SOL     OW15054   6.625  12.270   0.696
38343SOL    HW115055   6.555  12.223   0.750
38343SOL    HW215056   6.684  12.202   0.653
38344SOL     OW15057   6.600  11.408   0.971
38344SOL    HW115058   6.592  11.372   0.878
38344SOL    HW215059   6.598  11.332   1.036
38345SOL     OW15060   7.295  11.557   1.381
38345SOL    HW115061   7.368  11.626   1.385
38345SOL    HW215062   7.323  11.482   1.322
38346SOL     OW15063   5.841  12.520   0.290
38346SOL    HW115064   5.745  12.521   0.263
38346SOL    HW215065   5.853  12.573   0.374
38347SOL     OW15066   5.691  12.185   1.726
38347SOL    HW115067   5.614  12.152   1.780
38347SOL    HW215068   5.776  12.155   1.768
38348SOL     OW15069   6.258  11.375   1.489
38348SOL    HW115070   6.348  11.359   1.449
38348SOL    HW215071   6.266  11.380   1.588
38349SOL     OW15072   7.026  12.028   1.398
38349SOL    HW115073   6.969  12.080   1.335
38349SOL    HW215074   7.122  12.040   1.374
38350SOL     OW15075   5.658  11.338   0.318
38350SOL    HW115076   5.641  11.421   0.264
38350SOL    HW215077   5.748  11.301   0.296
38351SOL     OW15078   6.769  12.507   0.119
38351SOL    HW115079   6.670  12.496   0.121
38351SOL    HW215080   6.803  12.522   0.212
38352SOL     OW15081   6.199  12.014   1.431
38352SOL    HW115082   6.255  12.095   1.414
38352SOL    HW215083   6.258  11.934   1.434
38353SOL     OW15084   6.302  11.737   1.708
38353SOL    HW115085   6.321  11.802   1.782
38353SOL    HW215086   6.362  11.657   1.717
38354SOL     OW15087   7.036  12.392   1.633
38354SOL    HW115088   7.027  12.382   1.732
38354SOL    HW215089   7.132  12.385   1.607
38355SOL     OW15090   7.260  12.055   1.254
38355SOL    HW115091   7.233  11.966   1.217
38355SOL    HW215092   7.261  12.123   1.181
38356SOL     OW15093   6.811  11.497   0.449
38356SOL    HW115094   6.876  11.423   0.438
38356SOL    HW215095   6.831  11.547   0.533
38357SOL     OW15096   6.180  11.917   0.652
38357SOL    HW115097   6.230  12.002   0.633
38357SOL    HW215098   6.092  11.919   0.604
38358SOL     OW15099   7.363  11.514   1.642
38358SOL    HW115100   7.346  11.545   1.548
38358SOL    HW215101   7.279  11.477   1.680
38359SOL     OW15102   7.316  12.106   1.517
38359SOL    HW115103   7.354  12.197   1.532
38359SOL    HW215104   7.308  12.089   1.418
38360SOL     OW15105   6.445  12.546   0.016
38360SOL    HW115106   6.399  12.561   0.104
38360SOL    HW215107   6.489  12.631  -0.014
38361SOL     OW15108   6.445  12.128   0.861
38361SOL    HW115109   6.499  12.059   0.909
38361SOL    HW215110   6.413  12.197   0.927
38362SOL     OW15111   6.669  12.156   0.087
38362SOL    HW115112   6.646  12.209   0.005
38362SOL    HW215113   6.750  12.100   0.068
38363SOL     OW15114   5.807  12.486   1.844
38363SOL    HW115115   5.742  12.413   1.823
38363SOL    HW215116   5.811  12.500   1.942
38364SOL     OW15117   5.665  12.412   0.653
38364SOL    HW115118   5.664  12.365   0.741
38364SOL    HW215119   5.747  12.384   0.602
38365SOL     OW15120   6.258  12.563   1.624
38365SOL    HW115121   6.180  12.513   1.662
38365SOL    HW215122   6.255  12.658   1.655
38366SOL     OW15123   7.410  11.364   1.227
38366SOL    HW115124   7.406  11.274   1.271
38366SOL    HW215125   7.413  11.353   1.128
38367SOL     OW15126   6.014  11.596   0.520
38367SOL    HW115127   6.044  11.524   0.458
38367SOL    HW215128   5.975  11.556   0.603
38368SOL     OW15129   7.291  12.659   1.104
38368SOL    HW115130   7.198  12.634   1.077
38368SOL    HW215131   7.317  12.609   1.186
38369SOL     OW15132   5.903  11.719   1.280
38369SOL    HW115133   5.941  11.660   1.352
38369SOL    HW215134   5.943  11.693   1.192
38370SOL     OW15135   7.010  11.386   1.112
38370SOL    HW115136   7.062  11.321   1.167
38370SOL    HW215137   6.961  11.449   1.173
38371SOL     OW15138   6.587  11.206   1.154
38371SOL    HW115139   6.524  11.134   1.123
38371SOL    HW215140   6.680  11.170   1.154
38372SOL     OW15141   6.356  12.502   0.301
38372SOL    HW115142   6.310  12.415   0.318
38372SOL    HW215143   6.447  12.499   0.342
38373SOL     OW15144   6.204  12.739   1.284
38373SOL    HW115145   6.199  12.821   1.341
38373SOL    HW215146   6.293  12.736   1.239
38374SOL     OW15147   6.938  11.224   0.168
38374SOL    HW115148   6.973  11.183   0.084
38374SOL    HW215149   6.848  11.186   0.188
38375SOL     OW15150   6.886  11.625   0.691
38375SOL    HW115151   6.827  11.705   0.695
38375SOL    HW215152   6.901  11.590   0.784
38376SOL     OW15153   7.179  11.393   0.882
38376SOL    HW115154   7.095  11.392   0.936
38376SOL    HW215155   7.181  11.476   0.826
38377SOL     OW15156   5.625  12.249   0.300
38377SOL    HW115157   5.724  12.238   0.291
38377SOL    HW215158   5.585  12.163   0.332
38378SOL     OW15159   5.816  11.800   1.975
38378SOL    HW115160   5.723  11.798   2.012
38378SOL    HW215161   5.817  11.761   1.883
38379SOL     OW15162   5.811  11.447   2.858
38379SOL    HW115163   5.846  11.430   2.950
38379SOL    HW215164   5.723  11.402   2.846
38380SOL     OW15165   5.605  11.540   2.509
38380SOL    HW115166   5.523  11.583   2.548
38380SOL    HW215167   5.577  11.467   2.446
38381SOL     OW15168   6.155  12.447   3.027
38381SOL    HW115169   6.062  12.440   2.990
38381SOL    HW215170   6.166  12.536   3.071
38382SOL     OW15171   7.141  12.683   2.565
38382SOL    HW115172   7.084  12.667   2.646
38382SOL    HW215173   7.082  12.693   2.485
38383SOL     OW15174   6.721  11.875   2.579
38383SOL    HW115175   6.778  11.953   2.554
38383SOL    HW215176   6.661  11.901   2.655
38384SOL     OW15177   7.341  11.779   2.093
38384SOL    HW115178   7.329  11.766   1.994
38384SOL    HW215179   7.311  11.698   2.142
38385SOL     OW15180   6.354  12.316   2.885
38385SOL    HW115181   6.276  12.333   2.945
38385SOL    HW215182   6.388  12.403   2.849
38386SOL     OW15183   6.436  11.970   3.685
38386SOL    HW115184   6.432  12.046   3.750
38386SOL    HW215185   6.458  12.006   3.594
38387SOL     OW15186   6.271  12.184   2.527
38387SOL    HW115187   6.340  12.168   2.597
38387SOL    HW215188   6.198  12.241   2.565
38388SOL     OW15189   6.272  12.333   3.665
38388SOL    HW115190   6.332  12.412   3.679
38388SOL    HW215191   6.186  12.364   3.624
38389SOL     OW15192   5.921  12.607   2.923
38389SOL    HW115193   5.843  12.576   2.870
38389SOL    HW215194   5.979  12.665   2.866
38390SOL     OW15195   7.046  12.677   3.201
38390SOL    HW115196   7.070  12.771   3.227
38390SOL    HW215197   7.030  12.623   3.283
38391SOL     OW15198   6.024  11.564   3.361
38391SOL    HW115199   6.106  11.508   3.370
38391SOL    HW215200   5.943  11.506   3.365
38392SOL     OW15201   7.189  11.619   2.599
38392SOL    HW115202   7.115  11.665   2.549
38392SOL    HW215203   7.240  11.687   2.652
38393SOL     OW15204   5.817  12.885   2.345
38393SOL    HW115205   5.851  12.962   2.399
38393SOL    HW215206   5.861  12.885   2.255
38394SOL     OW15207   6.713  12.513   3.552
38394SOL    HW115208   6.760  12.513   3.640
38394SOL    HW215209   6.665  12.426   3.541
38395SOL     OW15210   5.816  12.606   2.400
38395SOL    HW115211   5.790  12.702   2.400
38395SOL    HW215212   5.745  12.552   2.445
38396SOL     OW15213   5.826  12.263   2.748
38396SOL    HW115214   5.840  12.179   2.800
38396SOL    HW215215   5.771  12.327   2.803
38397SOL     OW15216   6.192  12.136   1.985
38397SOL    HW115217   6.199  12.220   1.931
38397SOL    HW215218   6.238  12.149   2.073
38398SOL     OW15219   7.180  11.286   3.342
38398SOL    HW115220   7.162  11.353   3.270
38398SOL    HW215221   7.177  11.332   3.431
38399SOL     OW15222   5.708  11.815   2.425
38399SOL    HW115223   5.663  11.727   2.442
38399SOL    HW215224   5.707  11.869   2.509
38400SOL     OW15225   5.613  12.768   1.979
38400SOL    HW115226   5.594  12.672   2.000
38400SOL    HW215227   5.580  12.826   2.054
38401SOL     OW15228   7.275  12.094   2.474
38401SOL    HW115229   7.370  12.065   2.482
38401SOL    HW215230   7.267  12.159   2.399
38402SOL     OW15231   7.227  12.280   2.294
38402SOL    HW115232   7.313  12.282   2.242
38402SOL    HW215233   7.241  12.327   2.382
38403SOL     OW15234   5.699  11.909   3.459
38403SOL    HW115235   5.787  11.896   3.504
38403SOL    HW215236   5.686  12.006   3.437
38404SOL     OW15237   6.199  12.537   2.588
38404SOL    HW115238   6.150  12.450   2.597
38404SOL    HW215239   6.176  12.580   2.501
38405SOL     OW15240   6.879  12.400   3.285
38405SOL    HW115241   6.916  12.327   3.227
38405SOL    HW215242   6.931  12.405   3.370
38406SOL     OW15243   6.395  11.176   2.364
38406SOL    HW115244   6.435  11.267   2.355
38406SOL    HW215245   6.295  11.184   2.370
38407SOL     OW15246   5.783  12.148   3.126
38407SOL    HW115247   5.872  12.103   3.112
38407SOL    HW215248   5.710  12.083   3.107
38408SOL     OW15249   7.111  12.171   2.052
38408SOL    HW115250   7.048  12.095   2.065
38408SOL    HW215251   7.159  12.189   2.138
38409SOL     OW15252   5.903  11.423   3.663
38409SOL    HW115253   5.974  11.494   3.669
38409SOL    HW215254   5.815  11.462   3.691
38410SOL     OW15255   7.052  12.589   2.815
38410SOL    HW115256   6.993  12.595   2.895
38410SOL    HW215257   7.037  12.501   2.769
38411SOL     OW15258   6.184  11.901   2.132
38411SOL    HW115259   6.208  11.970   2.064
38411SOL    HW215260   6.106  11.934   2.186
38412SOL     OW15261   6.867  11.517   2.806
38412SOL    HW115262   6.781  11.467   2.793
38412SOL    HW215263   6.929  11.463   2.862
38413SOL     OW15264   6.393  11.777   3.327
38413SOL    HW115265   6.346  11.774   3.416
38413SOL    HW215266   6.342  11.722   3.261
38414SOL     OW15267   6.980  11.641   3.536
38414SOL    HW115268   6.960  11.684   3.624
38414SOL    HW215269   7.058  11.579   3.545
38415SOL     OW15270   6.559  12.062   3.434
38415SOL    HW115271   6.605  11.978   3.405
38415SOL    HW215272   6.503  12.096   3.359
38416SOL     OW15273   6.577  11.582   3.104
38416SOL    HW115274   6.500  11.616   3.158
38416SOL    HW215275   6.543  11.531   3.025
38417SOL     OW15276   6.627  11.873   2.291
38417SOL    HW115277   6.653  11.869   2.387
38417SOL    HW215278   6.542  11.822   2.277
38418SOL     OW15279   5.662  11.983   2.651
38418SOL    HW115280   5.761  11.971   2.660
38418SOL    HW215281   5.638  12.078   2.672
38419SOL     OW15282   6.451  11.520   2.057
38419SOL    HW115283   6.510  11.583   2.008
38419SOL    HW215284   6.470  11.426   2.028
38420SOL     OW15285   7.305  11.757   3.693
38420SOL    HW115286   7.279  11.846   3.657
38420SOL    HW215287   7.303  11.689   3.620
38421SOL     OW15288   6.948  12.316   2.407
38421SOL    HW115289   7.031  12.287   2.359
38421SOL    HW215290   6.899  12.383   2.351
38422SOL     OW15291   6.136  11.368   2.747
38422SOL    HW115292   6.131  11.363   2.847
38422SOL    HW215293   6.138  11.464   2.718
38423SOL     OW15294   6.594  12.628   2.339
38423SOL    HW115295   6.548  12.700   2.287
38423SOL    HW215296   6.590  12.648   2.437
38424SOL     OW15297   7.381  12.238   2.735
38424SOL    HW115298   7.319  12.223   2.659
38424SOL    HW215299   7.329  12.249   2.820
38425SOL     OW15300   6.813  12.722   3.368
38425SOL    HW115301   6.819  12.645   3.432
38425SOL    HW215302   6.761  12.696   3.288
38426SOL     OW15303   5.907  12.115   2.104
38426SOL    HW115304   5.989  12.154   2.062
38426SOL    HW215305   5.880  12.033   2.055
38427SOL     OW15306   7.044  11.907   2.590
38427SOL    HW115307   7.039  11.842   2.665
38427SOL    HW215308   7.124  11.966   2.603
38428SOL     OW15309   6.047  12.438   3.589
38428SOL    HW115310   5.997  12.439   3.503
38428SOL    HW215311   5.984  12.420   3.665
38429SOL     OW15312   6.697  12.948   2.099
38429SOL    HW115313   6.637  12.886   2.149
38429SOL    HW215314   6.728  12.904   2.014
38430SOL     OW15315   5.788  11.457   3.360
38430SOL    HW115316   5.708  11.517   3.347
38430SOL    HW215317   5.778  11.408   3.446
38431SOL     OW15318   7.218  12.549   1.943
38431SOL    HW115319   7.186  12.643   1.933
38431SOL    HW215320   7.142  12.486   1.931
38432SOL     OW15321   6.986  11.279   2.288
38432SOL    HW115322   6.962  11.242   2.198
38432SOL    HW215323   7.085  11.295   2.292
38433SOL     OW15324   5.968  11.872   2.342
38433SOL    HW115325   6.013  11.782   2.339
38433SOL    HW215326   5.874  11.861   2.375
38434SOL     OW15327   7.133  11.394   3.591
38434SOL    HW115328   7.128  11.431   3.683
38434SOL    HW215329   7.061  11.325   3.579
38435SOL     OW15330   6.200  11.294   1.979
38435SOL    HW115331   6.298  11.272   1.986
38435SOL    HW215332   6.169  11.277   1.886
38436SOL     OW15333   6.367  11.436   3.611
38436SOL    HW115334   6.434  11.375   3.654
38436SOL    HW215335   6.294  11.455   3.676
38437SOL     OW15336   6.937  11.762   3.295
38437SOL    HW115337   6.965  11.719   3.380
38437SOL    HW215338   6.962  11.858   3.296
38438SOL     OW15339   6.389  12.574   2.786
38438SOL    HW115340   6.479  12.588   2.744
38438SOL    HW215341   6.318  12.576   2.715
38439SOL     OW15342   6.508  11.675   2.761
38439SOL    HW115343   6.483  11.666   2.665
38439SOL    HW215344   6.556  11.593   2.792
38440SOL     OW15345   6.125  11.236   2.374
38440SOL    HW115346   6.044  11.237   2.432
38440SOL    HW215347   6.128  11.319   2.319
38441SOL     OW15348   7.020  12.360   1.903
38441SOL    HW115349   7.052  12.284   1.960
38441SOL    HW215350   6.928  12.387   1.933
38442SOL     OW15351   5.883  11.207   2.033
38442SOL    HW115352   5.932  11.291   2.012
38442SOL    HW215353   5.945  11.142   2.078
38443SOL     OW15354   6.521  11.408   2.342
38443SOL    HW115355   6.473  11.449   2.264
38443SOL    HW215356   6.620  11.406   2.323
38444SOL     OW15357   6.662  11.855   3.326
38444SOL    HW115358   6.582  11.794   3.329
38444SOL    HW215359   6.743  11.802   3.302
38445SOL     OW15360   6.813  12.742   2.655
38445SOL    HW115361   6.834  12.816   2.590
38445SOL    HW215362   6.881  12.742   2.728
38446SOL     OW15363   6.045  12.324   2.603
38446SOL    HW115364   5.974  12.297   2.668
38446SOL    HW215365   6.019  12.296   2.510
38447SOL     OW15366   6.618  11.721   1.878
38447SOL    HW115367   6.577  11.803   1.839
38447SOL    HW215368   6.682  11.747   1.951
38448SOL     OW15369   5.664  11.728   3.248
38448SOL    HW115370   5.756  11.727   3.207
38448SOL    HW215371   5.658  11.802   3.315
38449SOL     OW15372   6.147  11.394   3.009
38449SOL    HW115373   6.185  11.310   3.046
38449SOL    HW215374   6.059  11.413   3.053
38450SOL     OW15375   6.603  11.211   2.615
38450SOL    HW115376   6.531  11.216   2.546
38450SOL    HW215377   6.579  11.142   2.684
38451SOL     OW15378   7.015  12.345   2.729
38451SOL    HW115379   6.960  12.261   2.722
38451SOL    HW215380   7.041  12.374   2.637
38452SOL     OW15381   7.052  11.762   2.854
38452SOL    HW115382   7.022  11.667   2.861
38452SOL    HW215383   7.125  11.778   2.920
38453SOL     OW15384   7.443  12.005   2.239
38453SOL    HW115385   7.485  11.941   2.303
38453SOL    HW215386   7.405  11.954   2.161
38454SOL     OW15387   6.074  12.557   2.036
38454SOL    HW115388   5.987  12.542   2.083
38454SOL    HW215389   6.057  12.583   1.941
38455SOL     OW15390   7.250  12.452   2.519
38455SOL    HW115391   7.349  12.460   2.533
38455SOL    HW215392   7.205  12.536   2.550
38456SOL     OW15393   6.976  11.747   1.940
38456SOL    HW115394   6.922  11.726   2.021
38456SOL    HW215395   7.067  11.706   1.949
38457SOL     OW15396   6.113  11.428   2.190
38457SOL    HW115397   6.140  11.369   2.115
38457SOL    HW215398   6.113  11.523   2.159
38458SOL     OW15399   7.340  12.395   3.450
38458SOL    HW115400   7.431  12.356   3.437
38458SOL    HW215401   7.348  12.491   3.474
38459SOL     OW15402   6.650  12.519   3.202
38459SOL    HW115403   6.570  12.496   3.257
38459SOL    HW215404   6.733  12.493   3.251
38460SOL     OW15405   6.697  12.367   2.962
38460SOL    HW115406   6.657  12.411   3.043
38460SOL    HW215407   6.656  12.404   2.879
38461SOL     OW15408   7.224  12.271   2.941
38461SOL    HW115409   7.229  12.352   3.000
38461SOL    HW215410   7.138  12.273   2.890
38462SOL     OW15411   6.501  11.261   3.264
38462SOL    HW115412   6.526  11.241   3.169
38462SOL    HW215413   6.573  11.317   3.306
38463SOL     OW15414   6.566  12.288   3.581
38463SOL    HW115415   6.467  12.294   3.591
38463SOL    HW215416   6.589  12.208   3.525
38464SOL     OW15417   6.291  12.222   2.230
38464SOL    HW115418   6.277  12.229   2.329
38464SOL    HW215419   6.375  12.171   2.212
38465SOL     OW15420   5.996  11.985   3.113
38465SOL    HW115421   6.082  11.997   3.163
38465SOL    HW215422   5.954  11.898   3.140
38466SOL     OW15423   6.860  11.558   3.124
38466SOL    HW115424   6.881  11.632   3.188
38466SOL    HW215425   6.771  11.575   3.081
38467SOL     OW15426   5.953  12.272   2.363
38467SOL    HW115427   5.946  12.355   2.307
38467SOL    HW215428   5.957  12.192   2.303
38468SOL     OW15429   6.152  11.709   2.727
38468SOL    HW115430   6.164  11.775   2.653
38468SOL    HW215431   6.198  11.743   2.810
38469SOL     OW15432   6.838  12.520   2.250
38469SOL    HW115433   6.888  12.597   2.290
38469SOL    HW215434   6.743  12.522   2.282
38470SOL     OW15435   6.858  12.617   3.004
38470SOL    HW115436   6.905  12.630   3.091
38470SOL    HW215437   6.792  12.543   3.013
38471SOL     OW15438   7.168  11.811   2.334
38471SOL    HW115439   7.137  11.872   2.407
38471SOL    HW215440   7.218  11.863   2.265
38472SOL     OW15441   5.940  12.682   3.191
38472SOL    HW115442   5.919  12.638   3.104
38472SOL    HW215443   6.037  12.708   3.194
38473SOL     OW15444   5.988  11.923   3.460
38473SOL    HW115445   6.056  11.978   3.413
38473SOL    HW215446   6.028  11.835   3.487
38474SOL     OW15447   7.173  11.951   3.532
38474SOL    HW115448   7.081  11.989   3.527
38474SOL    HW215449   7.233  11.998   3.467
38475SOL     OW15450   6.599  11.277   3.632
38475SOL    HW115451   6.605  11.362   3.580
38475SOL    HW215452   6.631  11.201   3.575
38476SOL     OW15453   6.090  11.222   3.602
38476SOL    HW115454   6.048  11.165   3.532
38476SOL    HW215455   6.024  11.291   3.634
38477SOL     OW15456   6.159  12.042   2.891
38477SOL    HW115457   6.203  12.131   2.882
38477SOL    HW215458   6.096  12.042   2.968
38478SOL     OW15459   6.946  12.034   2.907
38478SOL    HW115460   6.871  12.034   2.841
38478SOL    HW215461   6.983  11.942   2.916
38479SOL     OW15462   6.795  11.697   2.137
38479SOL    HW115463   6.808  11.613   2.191
38479SOL    HW215464   6.766  11.771   2.197
38480SOL     OW15465   5.893  11.385   3.093
38480SOL    HW115466   5.870  11.422   3.183
38480SOL    HW215467   5.863  11.290   3.087
38481SOL     OW15468   5.623  12.482   3.144
38481SOL    HW115469   5.676  12.433   3.212
38481SOL    HW215470   5.645  12.580   3.149
38482SOL     OW15471   6.318  11.806   2.926
38482SOL    HW115472   6.377  11.780   2.850
38482SOL    HW215473   6.290  11.902   2.915
38483SOL     OW15474   7.314  12.107   3.716
38483SOL    HW115475   7.268  12.100   3.627
38483SOL    HW215476   7.252  12.151   3.782
38484SOL     OW15477   5.893  11.235   2.480
38484SOL    HW115478   5.882  11.329   2.513
38484SOL    HW215479   5.888  11.172   2.557
38485SOL     OW15480   7.208  11.539   2.236
38485SOL    HW115481   7.210  11.463   2.300
38485SOL    HW215482   7.160  11.616   2.276
38486SOL     OW15483   6.609  11.938   2.828
38486SOL    HW115484   6.624  11.959   2.924
38486SOL    HW215485   6.579  11.843   2.819
38487SOL     OW15486   7.445  12.690   3.467
38487SOL    HW115487   7.459  12.717   3.372
38487SOL    HW215488   7.528  12.712   3.520
38488SOL     OW15489   5.936  12.070   3.666
38488SOL    HW115490   6.012  12.114   3.714
38488SOL    HW215491   5.971  12.023   3.584
38489SOL     OW15492   7.126  11.446   1.987
38489SOL    HW115493   7.065  11.371   2.010
38489SOL    HW215494   7.148  11.498   2.070
38490SOL     OW15495   6.889  12.010   1.904
38490SOL    HW115496   6.923  11.917   1.919
38490SOL    HW215497   6.907  12.037   1.809
38491SOL     OW15498   6.654  12.505   2.711
38491SOL    HW115499   6.661  12.421   2.656
38491SOL    HW215500   6.716  12.574   2.675
38492SOL     OW15501   5.905  11.982   2.811
38492SOL    HW115502   5.998  12.018   2.816
38492SOL    HW215503   5.899  11.897   2.863
38493SOL     OW15504   5.925  11.681   2.868
38493SOL    HW115505   5.873  11.598   2.851
38493SOL    HW215506   6.002  11.686   2.804
38494SOL     OW15507   6.724  11.552   3.540
38494SOL    HW115508   6.679  11.615   3.604
38494SOL    HW215509   6.817  11.583   3.523
38495SOL     OW15510   6.746  11.379   3.339
38495SOL    HW115511   6.746  11.443   3.416
38495SOL    HW215512   6.774  11.427   3.256
38496SOL     OW15513   5.594  12.498   2.062
38496SOL    HW115514   5.501  12.519   2.031
38496SOL    HW215515   5.604  12.399   2.075
38497SOL     OW15516   6.588  11.968   3.100
38497SOL    HW115517   6.629  11.936   3.186
38497SOL    HW215518   6.492  11.941   3.097
38498SOL     OW15519   5.626  11.716   2.976
38498SOL    HW115520   5.711  11.683   2.935
38498SOL    HW215521   5.639  11.731   3.074
38499SOL     OW15522   5.775  11.692   3.584
38499SOL    HW115523   5.834  11.652   3.514
38499SOL    HW215524   5.717  11.763   3.543
38500SOL     OW15525   6.955  12.122   3.522
38500SOL    HW115526   6.994  12.211   3.542
38500SOL    HW215527   6.965  12.102   3.425
38501SOL     OW15528   6.401  11.744   2.187
38501SOL    HW115529   6.408  11.655   2.141
38501SOL    HW215530   6.307  11.778   2.179
38502SOL     OW15531   7.243  11.776   3.068
38502SOL    HW115532   7.205  11.707   3.130
38502SOL    HW215533   7.325  11.740   3.024
38503SOL     OW15534   5.838  12.736   3.606
38503SOL    HW115535   5.808  12.793   3.682
38503SOL    HW215536   5.831  12.639   3.632
38504SOL     OW15537   6.257  11.636   3.131
38504SOL    HW115538   6.223  11.547   3.101
38504SOL    HW215539   6.283  11.690   3.051
38505SOL     OW15540   6.059  11.672   2.053
38505SOL    HW115541   6.120  11.752   2.057
38505SOL    HW215542   5.964  11.703   2.060
38506SOL     OW15543   5.745  12.309   3.328
38506SOL    HW115544   5.767  12.248   3.404
38506SOL    HW215545   5.755  12.260   3.242
38507SOL     OW15546   6.933  12.231   3.096
38507SOL    HW115547   6.957  12.168   3.022
38507SOL    HW215548   6.843  12.271   3.078
38508SOL     OW15549   6.888  12.027   2.171
38508SOL    HW115550   6.802  11.996   2.213
38508SOL    HW215551   6.884  12.013   2.072
38509SOL     OW15552   5.669  12.430   2.884
38509SOL    HW115553   5.664  12.429   2.984
38509SOL    HW215554   5.586  12.389   2.846
38510SOL     OW15555   7.312  11.307   2.385
38510SOL    HW115556   7.385  11.290   2.318
38510SOL    HW215557   7.281  11.220   2.423
38511SOL     OW15558   6.866  12.099   2.534
38511SOL    HW115559   6.926  12.018   2.536
38511SOL    HW215560   6.906  12.168   2.474
38512SOL     OW15561   6.416  12.445   3.284
38512SOL    HW115562   6.411  12.478   3.379
38512SOL    HW215563   6.330  12.464   3.238
38513SOL     OW15564   7.427  11.347   2.825
38513SOL    HW115565   7.466  11.262   2.789
38513SOL    HW215566   7.329  11.349   2.806
38514SOL     OW15567   5.849  11.498   2.582
38514SOL    HW115568   5.770  11.549   2.548
38514SOL    HW215569   5.840  11.483   2.680
38515SOL     OW15570   6.408  12.174   3.234
38515SOL    HW115571   6.448  12.173   3.142
38515SOL    HW215572   6.418  12.266   3.274
38516SOL     OW15573   6.502  12.082   2.153
38516SOL    HW115574   6.565  12.120   2.085
38516SOL    HW215575   6.542  11.999   2.192
38517SOL     OW15576   5.958  12.460   3.352
38517SOL    HW115577   5.945  12.553   3.318
38517SOL    HW215578   5.874  12.408   3.339
38518SOL     OW15579   7.200  12.464   3.151
38518SOL    HW115580   7.260  12.467   3.231
38518SOL    HW215581   7.125  12.528   3.164
38519SOL     OW15582   6.625  12.270   2.558
38519SOL    HW115583   6.555  12.223   2.612
38519SOL    HW215584   6.684  12.202   2.515
38520SOL     OW15585   6.600  11.408   2.833
38520SOL    HW115586   6.592  11.372   2.740
38520SOL    HW215587   6.598  11.332   2.898
38521SOL     OW15588   7.295  11.557   3.243
38521SOL    HW115589   7.368  11.626   3.247
38521SOL    HW215590   7.323  11.482   3.184
38522SOL     OW15591   5.841  12.520   2.152
38522SOL    HW115592   5.745  12.521   2.125
38522SOL    HW215593   5.853  12.573   2.236
38523SOL     OW15594   5.691  12.185   3.588
38523SOL    HW115595   5.614  12.152   3.642
38523SOL    HW215596   5.776  12.155   3.630
38524SOL     OW15597   6.258  11.375   3.351
38524SOL    HW115598   6.348  11.359   3.311
38524SOL    HW215599   6.266  11.380   3.450
38525SOL     OW15600   5.661  11.517   1.895
38525SOL    HW115601   5.569  11.489   1.866
38525SOL    HW215602   5.692  11.594   1.839
38526SOL     OW15603   7.026  12.028   3.260
38526SOL    HW115604   6.969  12.080   3.197
38526SOL    HW215605   7.122  12.040   3.236
38527SOL     OW15606   5.658  11.338   2.180
38527SOL    HW115607   5.641  11.421   2.126
38527SOL    HW215608   5.748  11.301   2.158
38528SOL     OW15609   6.769  12.507   1.981
38528SOL    HW115610   6.670  12.496   1.983
38528SOL    HW215611   6.803  12.522   2.074
38529SOL     OW15612   6.199  12.014   3.293
38529SOL    HW115613   6.255  12.095   3.276
38529SOL    HW215614   6.258  11.934   3.296
38530SOL     OW15615   6.302  11.737   3.570
38530SOL    HW115616   6.321  11.802   3.644
38530SOL    HW215617   6.362  11.657   3.579
38531SOL     OW15618   7.036  12.392   3.495
38531SOL    HW115619   7.027  12.382   3.594
38531SOL    HW215620   7.132  12.385   3.469
38532SOL     OW15621   7.260  12.055   3.116
38532SOL    HW115622   7.233  11.966   3.079
38532SOL    HW215623   7.261  12.123   3.043
38533SOL     OW15624   6.811  11.497   2.311
38533SOL    HW115625   6.876  11.423   2.300
38533SOL    HW215626   6.831  11.547   2.395
38534SOL     OW15627   6.180  11.917   2.514
38534SOL    HW115628   6.230  12.002   2.495
38534SOL    HW215629   6.092  11.919   2.466
38535SOL     OW15630   7.363  11.514   3.504
38535SOL    HW115631   7.346  11.545   3.410
38535SOL    HW215632   7.279  11.477   3.542
38536SOL     OW15633   7.316  12.106   3.379
38536SOL    HW115634   7.354  12.197   3.394
38536SOL    HW215635   7.308  12.089   3.280
38537SOL     OW15636   6.445  12.546   1.878
38537SOL    HW115637   6.399  12.561   1.966
38537SOL    HW215638   6.489  12.631   1.848
38538SOL     OW15639   6.445  12.128   2.723
38538SOL    HW115640   6.499  12.059   2.771
38538SOL    HW215641   6.413  12.197   2.789
38539SOL     OW15642   6.669  12.156   1.949
38539SOL    HW115643   6.646  12.209   1.867
38539SOL    HW215644   6.750  12.100   1.930
38540SOL     OW15645   5.807  12.486   3.706
38540SOL    HW115646   5.742  12.413   3.685
38540SOL    HW215647   5.811  12.500   3.804
38541SOL     OW15648   5.665  12.412   2.515
38541SOL    HW115649   5.664  12.365   2.603
38541SOL    HW215650   5.747  12.384   2.464
38542SOL     OW15651   6.258  12.563   3.486
38542SOL    HW115652   6.180  12.513   3.524
38542SOL    HW215653   6.255  12.658   3.517
38543SOL     OW15654   7.410  11.364   3.089
38543SOL    HW115655   7.406  11.274   3.133
38543SOL    HW215656   7.413  11.353   2.990
38544SOL     OW15657   6.014  11.596   2.382
38544SOL    HW115658   6.044  11.524   2.320
38544SOL    HW215659   5.975  11.556   2.465
38545SOL     OW15660   7.291  12.659   2.966
38545SOL    HW115661   7.198  12.634   2.939
38545SOL    HW215662   7.317  12.609   3.048
38546SOL     OW15663   5.903  11.719   3.142
38546SOL    HW115664   5.941  11.660   3.214
38546SOL    HW215665   5.943  11.693   3.054
38547SOL     OW15666   7.010  11.386   2.974
38547SOL    HW115667   7.062  11.321   3.029
38547SOL    HW215668   6.961  11.449   3.035
38548SOL     OW15669   6.587  11.206   3.016
38548SOL    HW115670   6.524  11.134   2.985
38548SOL    HW215671   6.680  11.170   3.016
38549SOL     OW15672   6.356  12.502   2.163
38549SOL    HW115673   6.310  12.415   2.180
38549SOL    HW215674   6.447  12.499   2.204
38550SOL     OW15675   6.204  12.739   3.146
38550SOL    HW115676   6.199  12.821   3.203
38550SOL    HW215677   6.293  12.736   3.101
38551SOL     OW15678   6.938  11.224   2.030
38551SOL    HW115679   6.973  11.183   1.946
38551SOL    HW215680   6.848  11.186   2.050
38552SOL     OW15681   6.886  11.625   2.553
38552SOL    HW115682   6.827  11.705   2.557
38552SOL    HW215683   6.901  11.590   2.646
38553SOL     OW15684   7.179  11.393   2.744
38553SOL    HW115685   7.095  11.392   2.798
38553SOL    HW215686   7.181  11.476   2.688
38554SOL     OW15687   5.625  12.249   2.162
38554SOL    HW115688   5.724  12.238   2.153
38554SOL    HW215689   5.585  12.163   2.194
38555SOL     OW15690   5.816  11.800   3.837
38555SOL    HW115691   5.723  11.798   3.874
38555SOL    HW215692   5.817  11.761   3.745
38556SOL     OW15693   5.811  11.447   4.720
38556SOL    HW115694   5.846  11.430   4.812
38556SOL    HW215695   5.723  11.402   4.708
38557SOL     OW15696   5.605  11.540   4.371
38557SOL    HW115697   5.523  11.583   4.410
38557SOL    HW215698   5.577  11.467   4.308
38558SOL     OW15699   6.155  12.447   4.889
38558SOL    HW115700   6.062  12.440   4.852
38558SOL    HW215701   6.166  12.536   4.933
38559SOL     OW15702   7.141  12.683   4.427
38559SOL    HW115703   7.084  12.667   4.508
38559SOL    HW215704   7.082  12.693   4.347
38560SOL     OW15705   6.721  11.875   4.441
38560SOL    HW115706   6.778  11.953   4.416
38560SOL    HW215707   6.661  11.901   4.517
38561SOL     OW15708   7.341  11.779   3.955
38561SOL    HW115709   7.329  11.766   3.856
38561SOL    HW215710   7.311  11.698   4.004
38562SOL     OW15711   6.354  12.316   4.747
38562SOL    HW115712   6.276  12.333   4.807
38562SOL    HW215713   6.388  12.403   4.711
38563SOL     OW15714   6.436  11.970   5.547
38563SOL    HW115715   6.432  12.046   5.612
38563SOL    HW215716   6.458  12.006   5.456
38564SOL     OW15717   6.271  12.184   4.389
38564SOL    HW115718   6.340  12.168   4.459
38564SOL    HW215719   6.198  12.241   4.427
38565SOL     OW15720   6.272  12.333   5.527
38565SOL    HW115721   6.332  12.412   5.541
38565SOL    HW215722   6.186  12.364   5.486
38566SOL     OW15723   5.921  12.607   4.785
38566SOL    HW115724   5.843  12.576   4.732
38566SOL    HW215725   5.979  12.665   4.728
38567SOL     OW15726   7.046  12.677   5.063
38567SOL    HW115727   7.070  12.771   5.089
38567SOL    HW215728   7.030  12.623   5.145
38568SOL     OW15729   6.024  11.564   5.223
38568SOL    HW115730   6.106  11.508   5.232
38568SOL    HW215731   5.943  11.506   5.227
38569SOL     OW15732   7.189  11.619   4.461
38569SOL    HW115733   7.115  11.665   4.411
38569SOL    HW215734   7.240  11.687   4.514
38570SOL     OW15735   5.817  12.885   4.207
38570SOL    HW115736   5.851  12.962   4.261
38570SOL    HW215737   5.861  12.885   4.117
38571SOL     OW15738   6.713  12.513   5.414
38571SOL    HW115739   6.760  12.513   5.502
38571SOL    HW215740   6.665  12.426   5.403
38572SOL     OW15741   5.816  12.606   4.262
38572SOL    HW115742   5.790  12.702   4.262
38572SOL    HW215743   5.745  12.552   4.307
38573SOL     OW15744   5.826  12.263   4.610
38573SOL    HW115745   5.840  12.179   4.662
38573SOL    HW215746   5.771  12.327   4.665
38574SOL     OW15747   6.192  12.136   3.847
38574SOL    HW115748   6.199  12.220   3.793
38574SOL    HW215749   6.238  12.149   3.935
38575SOL     OW15750   7.180  11.286   5.204
38575SOL    HW115751   7.162  11.353   5.132
38575SOL    HW215752   7.177  11.332   5.293
38576SOL     OW15753   5.708  11.815   4.287
38576SOL    HW115754   5.663  11.727   4.304
38576SOL    HW215755   5.707  11.869   4.371
38577SOL     OW15756   5.613  12.768   3.841
38577SOL    HW115757   5.594  12.672   3.862
38577SOL    HW215758   5.580  12.826   3.916
38578SOL     OW15759   7.275  12.094   4.336
38578SOL    HW115760   7.370  12.065   4.344
38578SOL    HW215761   7.267  12.159   4.261
38579SOL     OW15762   7.227  12.280   4.156
38579SOL    HW115763   7.313  12.282   4.104
38579SOL    HW215764   7.241  12.327   4.244
38580SOL     OW15765   5.699  11.909   5.321
38580SOL    HW115766   5.787  11.896   5.366
38580SOL    HW215767   5.686  12.006   5.299
38581SOL     OW15768   6.199  12.537   4.450
38581SOL    HW115769   6.150  12.450   4.459
38581SOL    HW215770   6.176  12.580   4.363
38582SOL     OW15771   6.879  12.400   5.147
38582SOL    HW115772   6.916  12.327   5.089
38582SOL    HW215773   6.931  12.405   5.232
38583SOL     OW15774   6.395  11.176   4.226
38583SOL    HW115775   6.435  11.267   4.217
38583SOL    HW215776   6.295  11.184   4.232
38584SOL     OW15777   5.783  12.148   4.988
38584SOL    HW115778   5.872  12.103   4.974
38584SOL    HW215779   5.710  12.083   4.969
38585SOL     OW15780   7.111  12.171   3.914
38585SOL    HW115781   7.048  12.095   3.927
38585SOL    HW215782   7.159  12.189   4.000
38586SOL     OW15783   5.903  11.423   5.525
38586SOL    HW115784   5.974  11.494   5.531
38586SOL    HW215785   5.815  11.462   5.553
38587SOL     OW15786   7.052  12.589   4.677
38587SOL    HW115787   6.993  12.595   4.757
38587SOL    HW215788   7.037  12.501   4.631
38588SOL     OW15789   6.184  11.901   3.994
38588SOL    HW115790   6.208  11.970   3.926
38588SOL    HW215791   6.106  11.934   4.048
38589SOL     OW15792   6.867  11.517   4.668
38589SOL    HW115793   6.781  11.467   4.655
38589SOL    HW215794   6.929  11.463   4.724
38590SOL     OW15795   6.393  11.777   5.189
38590SOL    HW115796   6.346  11.774   5.278
38590SOL    HW215797   6.342  11.722   5.123
38591SOL     OW15798   6.980  11.641   5.398
38591SOL    HW115799   6.960  11.684   5.486
38591SOL    HW215800   7.058  11.579   5.407
38592SOL     OW15801   6.559  12.062   5.296
38592SOL    HW115802   6.605  11.978   5.267
38592SOL    HW215803   6.503  12.096   5.221
38593SOL     OW15804   6.577  11.582   4.966
38593SOL    HW115805   6.500  11.616   5.020
38593SOL    HW215806   6.543  11.531   4.887
38594SOL     OW15807   6.627  11.873   4.153
38594SOL    HW115808   6.653  11.869   4.249
38594SOL    HW215809   6.542  11.822   4.139
38595SOL     OW15810   5.662  11.983   4.513
38595SOL    HW115811   5.761  11.971   4.522
38595SOL    HW215812   5.638  12.078   4.534
38596SOL     OW15813   6.451  11.520   3.919
38596SOL    HW115814   6.510  11.583   3.870
38596SOL    HW215815   6.470  11.426   3.890
38597SOL     OW15816   7.305  11.757   5.555
38597SOL    HW115817   7.279  11.846   5.519
38597SOL    HW215818   7.303  11.689   5.482
38598SOL     OW15819   6.948  12.316   4.269
38598SOL    HW115820   7.031  12.287   4.221
38598SOL    HW215821   6.899  12.383   4.213
38599SOL     OW15822   6.136  11.368   4.609
38599SOL    HW115823   6.131  11.363   4.709
38599SOL    HW215824   6.138  11.464   4.580
38600SOL     OW15825   6.594  12.628   4.201
38600SOL    HW115826   6.548  12.700   4.149
38600SOL    HW215827   6.590  12.648   4.299
38601SOL     OW15828   7.381  12.238   4.597
38601SOL    HW115829   7.319  12.223   4.521
38601SOL    HW215830   7.329  12.249   4.682
38602SOL     OW15831   6.813  12.722   5.230
38602SOL    HW115832   6.819  12.645   5.294
38602SOL    HW215833   6.761  12.696   5.150
38603SOL     OW15834   5.907  12.115   3.966
38603SOL    HW115835   5.989  12.154   3.924
38603SOL    HW215836   5.880  12.033   3.917
38604SOL     OW15837   7.044  11.907   4.452
38604SOL    HW115838   7.039  11.842   4.527
38604SOL    HW215839   7.124  11.966   4.465
38605SOL     OW15840   6.047  12.438   5.451
38605SOL    HW115841   5.997  12.439   5.365
38605SOL    HW215842   5.984  12.420   5.527
38606SOL     OW15843   6.697  12.948   3.961
38606SOL    HW115844   6.637  12.886   4.011
38606SOL    HW215845   6.728  12.904   3.876
38607SOL     OW15846   5.788  11.457   5.222
38607SOL    HW115847   5.708  11.517   5.209
38607SOL    HW215848   5.778  11.408   5.308
38608SOL     OW15849   6.986  11.279   4.150
38608SOL    HW115850   6.962  11.242   4.060
38608SOL    HW215851   7.085  11.295   4.154
38609SOL     OW15852   5.968  11.872   4.204
38609SOL    HW115853   6.013  11.782   4.201
38609SOL    HW215854   5.874  11.861   4.237
38610SOL     OW15855   7.133  11.394   5.453
38610SOL    HW115856   7.128  11.431   5.545
38610SOL    HW215857   7.061  11.325   5.441
38611SOL     OW15858   6.200  11.294   3.841
38611SOL    HW115859   6.298  11.272   3.848
38611SOL    HW215860   6.169  11.277   3.748
38612SOL     OW15861   6.367  11.436   5.473
38612SOL    HW115862   6.434  11.375   5.516
38612SOL    HW215863   6.294  11.455   5.538
38613SOL     OW15864   6.937  11.762   5.157
38613SOL    HW115865   6.965  11.719   5.242
38613SOL    HW215866   6.962  11.858   5.158
38614SOL     OW15867   6.389  12.574   4.648
38614SOL    HW115868   6.479  12.588   4.606
38614SOL    HW215869   6.318  12.576   4.577
38615SOL     OW15870   6.508  11.675   4.623
38615SOL    HW115871   6.483  11.666   4.527
38615SOL    HW215872   6.556  11.593   4.654
38616SOL     OW15873   6.125  11.236   4.236
38616SOL    HW115874   6.044  11.237   4.294
38616SOL    HW215875   6.128  11.319   4.181
38617SOL     OW15876   7.020  12.360   3.765
38617SOL    HW115877   7.052  12.284   3.822
38617SOL    HW215878   6.928  12.387   3.795
38618SOL     OW15879   5.883  11.207   3.895
38618SOL    HW115880   5.932  11.291   3.874
38618SOL    HW215881   5.945  11.142   3.940
38619SOL     OW15882   6.521  11.408   4.204
38619SOL    HW115883   6.473  11.449   4.126
38619SOL    HW215884   6.620  11.406   4.185
38620SOL     OW15885   6.662  11.855   5.188
38620SOL    HW115886   6.582  11.794   5.191
38620SOL    HW215887   6.743  11.802   5.164
38621SOL     OW15888   6.813  12.742   4.517
38621SOL    HW115889   6.834  12.816   4.452
38621SOL    HW215890   6.881  12.742   4.590
38622SOL     OW15891   6.045  12.324   4.465
38622SOL    HW115892   5.974  12.297   4.530
38622SOL    HW215893   6.019  12.296   4.372
38623SOL     OW15894   6.618  11.721   3.740
38623SOL    HW115895   6.577  11.803   3.701
38623SOL    HW215896   6.682  11.747   3.813
38624SOL     OW15897   5.664  11.728   5.110
38624SOL    HW115898   5.756  11.727   5.069
38624SOL    HW215899   5.658  11.802   5.177
38625SOL     OW15900   6.147  11.394   4.871
38625SOL    HW115901   6.185  11.310   4.908
38625SOL    HW215902   6.059  11.413   4.915
38626SOL     OW15903   6.452  11.626   4.366
38626SOL    HW115904   6.420  11.698   4.304
38626SOL    HW215905   6.476  11.545   4.313
38627SOL     OW15906   6.603  11.211   4.477
38627SOL    HW115907   6.531  11.216   4.408
38627SOL    HW215908   6.579  11.142   4.546
38628SOL     OW15909   7.015  12.345   4.591
38628SOL    HW115910   6.960  12.261   4.584
38628SOL    HW215911   7.041  12.374   4.499
38629SOL     OW15912   7.052  11.762   4.716
38629SOL    HW115913   7.022  11.667   4.723
38629SOL    HW215914   7.125  11.778   4.782
38630SOL     OW15915   7.443  12.005   4.101
38630SOL    HW115916   7.485  11.941   4.165
38630SOL    HW215917   7.405  11.954   4.023
38631SOL     OW15918   6.074  12.557   3.898
38631SOL    HW115919   5.987  12.542   3.945
38631SOL    HW215920   6.057  12.583   3.803
38632SOL     OW15921   7.250  12.452   4.381
38632SOL    HW115922   7.349  12.460   4.395
38632SOL    HW215923   7.205  12.536   4.412
38633SOL     OW15924   6.976  11.747   3.802
38633SOL    HW115925   6.922  11.726   3.883
38633SOL    HW215926   7.067  11.706   3.811
38634SOL     OW15927   6.113  11.428   4.052
38634SOL    HW115928   6.140  11.369   3.977
38634SOL    HW215929   6.113  11.523   4.021
38635SOL     OW15930   7.340  12.395   5.312
38635SOL    HW115931   7.431  12.356   5.299
38635SOL    HW215932   7.348  12.491   5.336
38636SOL     OW15933   6.650  12.519   5.064
38636SOL    HW115934   6.570  12.496   5.119
38636SOL    HW215935   6.733  12.493   5.113
38637SOL     OW15936   6.697  12.367   4.824
38637SOL    HW115937   6.657  12.411   4.905
38637SOL    HW215938   6.656  12.404   4.741
38638SOL     OW15939   7.224  12.271   4.803
38638SOL    HW115940   7.229  12.352   4.862
38638SOL    HW215941   7.138  12.273   4.752
38639SOL     OW15942   6.501  11.261   5.126
38639SOL    HW115943   6.526  11.241   5.031
38639SOL    HW215944   6.573  11.317   5.168
38640SOL     OW15945   6.566  12.288   5.443
38640SOL    HW115946   6.467  12.294   5.453
38640SOL    HW215947   6.589  12.208   5.387
38641SOL     OW15948   6.291  12.222   4.092
38641SOL    HW115949   6.277  12.229   4.191
38641SOL    HW215950   6.375  12.171   4.074
38642SOL     OW15951   5.996  11.985   4.975
38642SOL    HW115952   6.082  11.997   5.025
38642SOL    HW215953   5.954  11.898   5.002
38643SOL     OW15954   6.860  11.558   4.986
38643SOL    HW115955   6.881  11.632   5.050
38643SOL    HW215956   6.771  11.575   4.943
38644SOL     OW15957   5.953  12.272   4.225
38644SOL    HW115958   5.946  12.355   4.169
38644SOL    HW215959   5.957  12.192   4.165
38645SOL     OW15960   6.152  11.709   4.589
38645SOL    HW115961   6.164  11.775   4.515
38645SOL    HW215962   6.198  11.743   4.672
38646SOL     OW15963   6.838  12.520   4.112
38646SOL    HW115964   6.888  12.597   4.152
38646SOL    HW215965   6.743  12.522   4.144
38647SOL     OW15966   6.858  12.617   4.866
38647SOL    HW115967   6.905  12.630   4.953
38647SOL    HW215968   6.792  12.543   4.875
38648SOL     OW15969   7.168  11.811   4.196
38648SOL    HW115970   7.137  11.872   4.269
38648SOL    HW215971   7.218  11.863   4.127
38649SOL     OW15972   5.940  12.682   5.053
38649SOL    HW115973   5.919  12.638   4.966
38649SOL    HW215974   6.037  12.708   5.056
38650SOL     OW15975   5.988  11.923   5.322
38650SOL    HW115976   6.056  11.978   5.275
38650SOL    HW215977   6.028  11.835   5.349
38651SOL     OW15978   7.173  11.951   5.394
38651SOL    HW115979   7.081  11.989   5.389
38651SOL    HW215980   7.233  11.998   5.329
38652SOL     OW15981   6.599  11.277   5.494
38652SOL    HW115982   6.605  11.362   5.442
38652SOL    HW215983   6.631  11.201   5.437
38653SOL     OW15984   6.090  11.222   5.464
38653SOL    HW115985   6.048  11.165   5.394
38653SOL    HW215986   6.024  11.291   5.496
38654SOL     OW15987   6.159  12.042   4.753
38654SOL    HW115988   6.203  12.131   4.744
38654SOL    HW215989   6.096  12.042   4.830
38655SOL     OW15990   6.946  12.034   4.769
38655SOL    HW115991   6.871  12.034   4.703
38655SOL    HW215992   6.983  11.942   4.778
38656SOL     OW15993   6.795  11.697   3.999
38656SOL    HW115994   6.808  11.613   4.053
38656SOL    HW215995   6.766  11.771   4.059
38657SOL     OW15996   5.893  11.385   4.955
38657SOL    HW115997   5.870  11.422   5.045
38657SOL    HW215998   5.863  11.290   4.949
38658SOL     OW15999   5.623  12.482   5.006
38658SOL    HW116000   5.676  12.433   5.074
38658SOL    HW216001   5.645  12.580   5.011
38659SOL     OW16002   6.318  11.806   4.788
38659SOL    HW116003   6.377  11.780   4.712
38659SOL    HW216004   6.290  11.902   4.777
38660SOL     OW16005   7.314  12.107   5.578
38660SOL    HW116006   7.268  12.100   5.489
38660SOL    HW216007   7.252  12.151   5.644
38661SOL     OW16008   5.893  11.235   4.342
38661SOL    HW116009   5.882  11.329   4.375
38661SOL    HW216010   5.888  11.172   4.419
38662SOL     OW16011   7.208  11.539   4.098
38662SOL    HW116012   7.210  11.463   4.162
38662SOL    HW216013   7.160  11.616   4.138
38663SOL     OW16014   6.609  11.938   4.690
38663SOL    HW116015   6.624  11.959   4.786
38663SOL    HW216016   6.579  11.843   4.681
38664SOL     OW16017   7.445  12.690   5.329
38664SOL    HW116018   7.459  12.717   5.234
38664SOL    HW216019   7.528  12.712   5.382
38665SOL     OW16020   5.936  12.070   5.528
38665SOL    HW116021   6.012  12.114   5.576
38665SOL    HW216022   5.971  12.023   5.446
38666SOL     OW16023   7.126  11.446   3.849
38666SOL    HW116024   7.065  11.371   3.872
38666SOL    HW216025   7.148  11.498   3.932
38667SOL     OW16026   6.889  12.010   3.766
38667SOL    HW116027   6.923  11.917   3.781
38667SOL    HW216028   6.907  12.037   3.671
38668SOL     OW16029   6.654  12.505   4.573
38668SOL    HW116030   6.661  12.421   4.518
38668SOL    HW216031   6.716  12.574   4.537
38669SOL     OW16032   5.905  11.982   4.673
38669SOL    HW116033   5.998  12.018   4.678
38669SOL    HW216034   5.899  11.897   4.725
38670SOL     OW16035   5.925  11.681   4.730
38670SOL    HW116036   5.873  11.598   4.713
38670SOL    HW216037   6.002  11.686   4.666
38671SOL     OW16038   6.724  11.552   5.402
38671SOL    HW116039   6.679  11.615   5.466
38671SOL    HW216040   6.817  11.583   5.385
38672SOL     OW16041   6.746  11.379   5.201
38672SOL    HW116042   6.746  11.443   5.278
38672SOL    HW216043   6.774  11.427   5.118
38673SOL     OW16044   5.594  12.498   3.924
38673SOL    HW116045   5.501  12.519   3.893
38673SOL    HW216046   5.604  12.399   3.937
38674SOL     OW16047   6.588  11.968   4.962
38674SOL    HW116048   6.629  11.936   5.048
38674SOL    HW216049   6.492  11.941   4.959
38675SOL     OW16050   5.626  11.716   4.838
38675SOL    HW116051   5.711  11.683   4.797
38675SOL    HW216052   5.639  11.731   4.936
38676SOL     OW16053   5.775  11.692   5.446
38676SOL    HW116054   5.834  11.652   5.376
38676SOL    HW216055   5.717  11.763   5.405
38677SOL     OW16056   6.955  12.122   5.384
38677SOL    HW116057   6.994  12.211   5.404
38677SOL    HW216058   6.965  12.102   5.287
38678SOL     OW16059   6.401  11.744   4.049
38678SOL    HW116060   6.408  11.655   4.003
38678SOL    HW216061   6.307  11.778   4.041
38679SOL     OW16062   7.243  11.776   4.930
38679SOL    HW116063   7.205  11.707   4.992
38679SOL    HW216064   7.325  11.740   4.886
38680SOL     OW16065   5.838  12.736   5.468
38680SOL    HW116066   5.808  12.793   5.544
38680SOL    HW216067   5.831  12.639   5.494
38681SOL     OW16068   6.257  11.636   4.993
38681SOL    HW116069   6.223  11.547   4.963
38681SOL    HW216070   6.283  11.690   4.913
38682SOL     OW16071   6.059  11.672   3.915
38682SOL    HW116072   6.120  11.752   3.919
38682SOL    HW216073   5.964  11.703   3.922
38683SOL     OW16074   5.745  12.309   5.190
38683SOL    HW116075   5.767  12.248   5.266
38683SOL    HW216076   5.755  12.260   5.104
38684SOL     OW16077   6.933  12.231   4.958
38684SOL    HW116078   6.957  12.168   4.884
38684SOL    HW216079   6.843  12.271   4.940
38685SOL     OW16080   6.888  12.027   4.033
38685SOL    HW116081   6.802  11.996   4.075
38685SOL    HW216082   6.884  12.013   3.934
38686SOL     OW16083   5.669  12.430   4.746
38686SOL    HW116084   5.664  12.429   4.846
38686SOL    HW216085   5.586  12.389   4.708
38687SOL     OW16086   7.312  11.307   4.247
38687SOL    HW116087   7.385  11.290   4.180
38687SOL    HW216088   7.281  11.220   4.285
38688SOL     OW16089   6.866  12.099   4.396
38688SOL    HW116090   6.926  12.018   4.398
38688SOL    HW216091   6.906  12.168   4.336
38689SOL     OW16092   6.416  12.445   5.146
38689SOL    HW116093   6.411  12.478   5.241
38689SOL    HW216094   6.330  12.464   5.100
38690SOL     OW16095   7.427  11.347   4.687
38690SOL    HW116096   7.466  11.262   4.651
38690SOL    HW216097   7.329  11.349   4.668
38691SOL     OW16098   5.849  11.498   4.444
38691SOL    HW116099   5.770  11.549   4.410
38691SOL    HW216100   5.840  11.483   4.542
38692SOL     OW16101   6.408  12.174   5.096
38692SOL    HW116102   6.448  12.173   5.004
38692SOL    HW216103   6.418  12.266   5.136
38693SOL     OW16104   6.502  12.082   4.015
38693SOL    HW116105   6.565  12.120   3.947
38693SOL    HW216106   6.542  11.999   4.054
38694SOL     OW16107   5.958  12.460   5.214
38694SOL    HW116108   5.945  12.553   5.180
38694SOL    HW216109   5.874  12.408   5.201
38695SOL     OW16110   7.200  12.464   5.013
38695SOL    HW116111   7.260  12.467   5.093
38695SOL    HW216112   7.125  12.528   5.026
38696SOL     OW16113   6.625  12.270   4.420
38696SOL    HW116114   6.555  12.223   4.474
38696SOL    HW216115   6.684  12.202   4.377
38697SOL     OW16116   6.600  11.408   4.695
38697SOL    HW116117   6.592  11.372   4.602
38697SOL    HW216118   6.598  11.332   4.760
38698SOL     OW16119   7.295  11.557   5.105
38698SOL    HW116120   7.368  11.626   5.109
38698SOL    HW216121   7.323  11.482   5.046
38699SOL     OW16122   5.841  12.520   4.014
38699SOL    HW116123   5.745  12.521   3.987
38699SOL    HW216124   5.853  12.573   4.098
38700SOL     OW16125   5.691  12.185   5.450
38700SOL    HW116126   5.614  12.152   5.504
38700SOL    HW216127   5.776  12.155   5.492
38701SOL     OW16128   6.258  11.375   5.213
38701SOL    HW116129   6.348  11.359   5.173
38701SOL    HW216130   6.266  11.380   5.312
38702SOL     OW16131   5.661  11.517   3.757
38702SOL    HW116132   5.569  11.489   3.728
38702SOL    HW216133   5.692  11.594   3.701
38703SOL     OW16134   7.026  12.028   5.122
38703SOL    HW116135   6.969  12.080   5.059
38703SOL    HW216136   7.122  12.040   5.098
38704SOL     OW16137   5.658  11.338   4.042
38704SOL    HW116138   5.641  11.421   3.988
38704SOL    HW216139   5.748  11.301   4.020
38705SOL     OW16140   6.769  12.507   3.843
38705SOL    HW116141   6.670  12.496   3.845
38705SOL    HW216142   6.803  12.522   3.936
38706SOL     OW16143   6.199  12.014   5.155
38706SOL    HW116144   6.255  12.095   5.138
38706SOL    HW216145   6.258  11.934   5.158
38707SOL     OW16146   6.302  11.737   5.432
38707SOL    HW116147   6.321  11.802   5.506
38707SOL    HW216148   6.362  11.657   5.441
38708SOL     OW16149   7.036  12.392   5.357
38708SOL    HW116150   7.027  12.382   5.456
38708SOL    HW216151   7.132  12.385   5.331
38709SOL     OW16152   7.260  12.055   4.978
38709SOL    HW116153   7.233  11.966   4.941
38709SOL    HW216154   7.261  12.123   4.905
38710SOL     OW16155   6.811  11.497   4.173
38710SOL    HW116156   6.876  11.423   4.162
38710SOL    HW216157   6.831  11.547   4.257
38711SOL     OW16158   6.180  11.917   4.376
38711SOL    HW116159   6.230  12.002   4.357
38711SOL    HW216160   6.092  11.919   4.328
38712SOL     OW16161   7.363  11.514   5.366
38712SOL    HW116162   7.346  11.545   5.272
38712SOL    HW216163   7.279  11.477   5.404
38713SOL     OW16164   7.316  12.106   5.241
38713SOL    HW116165   7.354  12.197   5.256
38713SOL    HW216166   7.308  12.089   5.142
38714SOL     OW16167   6.445  12.546   3.740
38714SOL    HW116168   6.399  12.561   3.828
38714SOL    HW216169   6.489  12.631   3.710
38715SOL     OW16170   6.445  12.128   4.585
38715SOL    HW116171   6.499  12.059   4.633
38715SOL    HW216172   6.413  12.197   4.651
38716SOL     OW16173   6.669  12.156   3.811
38716SOL    HW116174   6.646  12.209   3.729
38716SOL    HW216175   6.750  12.100   3.792
38717SOL     OW16176   5.807  12.486   5.568
38717SOL    HW116177   5.742  12.413   5.547
38717SOL    HW216178   5.811  12.500   5.666
38718SOL     OW16179   5.665  12.412   4.377
38718SOL    HW116180   5.664  12.365   4.465
38718SOL    HW216181   5.747  12.384   4.326
38719SOL     OW16182   6.258  12.563   5.348
38719SOL    HW116183   6.180  12.513   5.386
38719SOL    HW216184   6.255  12.658   5.379
38720SOL     OW16185   7.410  11.364   4.951
38720SOL    HW116186   7.406  11.274   4.995
38720SOL    HW216187   7.413  11.353   4.852
38721SOL     OW16188   6.014  11.596   4.244
38721SOL    HW116189   6.044  11.524   4.182
38721SOL    HW216190   5.975  11.556   4.327
38722SOL     OW16191   7.291  12.659   4.828
38722SOL    HW116192   7.198  12.634   4.801
38722SOL    HW216193   7.317  12.609   4.910
38723SOL     OW16194   5.903  11.719   5.004
38723SOL    HW116195   5.941  11.660   5.076
38723SOL    HW216196   5.943  11.693   4.916
38724SOL     OW16197   7.010  11.386   4.836
38724SOL    HW116198   7.062  11.321   4.891
38724SOL    HW216199   6.961  11.449   4.897
38725SOL     OW16200   6.587  11.206   4.878
38725SOL    HW116201   6.524  11.134   4.847
38725SOL    HW216202   6.680  11.170   4.878
38726SOL     OW16203   6.356  12.502   4.025
38726SOL    HW116204   6.310  12.415   4.042
38726SOL    HW216205   6.447  12.499   4.066
38727SOL     OW16206   6.204  12.739   5.008
38727SOL    HW116207   6.199  12.821   5.065
38727SOL    HW216208   6.293  12.736   4.963
38728SOL     OW16209   6.938  11.224   3.892
38728SOL    HW116210   6.973  11.183   3.808
38728SOL    HW216211   6.848  11.186   3.912
38729SOL     OW16212   6.886  11.625   4.415
38729SOL    HW116213   6.827  11.705   4.419
38729SOL    HW216214   6.901  11.590   4.508
38730SOL     OW16215   7.179  11.393   4.606
38730SOL    HW116216   7.095  11.392   4.660
38730SOL    HW216217   7.181  11.476   4.550
38731SOL     OW16218   5.625  12.249   4.024
38731SOL    HW116219   5.724  12.238   4.015
38731SOL    HW216220   5.585  12.163   4.056
38732SOL     OW16221   5.816  11.800   5.699
38732SOL    HW116222   5.723  11.798   5.736
38732SOL    HW216223   5.817  11.761   5.607
38733SOL     OW16224   5.811  11.447   6.582
38733SOL    HW116225   5.846  11.430   6.674
38733SOL    HW216226   5.723  11.402   6.570
38734SOL     OW16227   5.605  11.540   6.233
38734SOL    HW116228   5.523  11.583   6.272
38734SOL    HW216229   5.577  11.467   6.170
38735SOL     OW16230   6.155  12.447   6.751
38735SOL    HW116231   6.062  12.440   6.714
38735SOL    HW216232   6.166  12.536   6.795
38736SOL     OW16233   7.141  12.683   6.289
38736SOL    HW116234   7.084  12.667   6.370
38736SOL    HW216235   7.082  12.693   6.209
38737SOL     OW16236   6.721  11.875   6.303
38737SOL    HW116237   6.778  11.953   6.278
38737SOL    HW216238   6.661  11.901   6.379
38738SOL     OW16239   7.341  11.779   5.817
38738SOL    HW116240   7.329  11.766   5.718
38738SOL    HW216241   7.311  11.698   5.866
38739SOL     OW16242   6.354  12.316   6.609
38739SOL    HW116243   6.276  12.333   6.669
38739SOL    HW216244   6.388  12.403   6.573
38740SOL     OW16245   6.436  11.970   7.409
38740SOL    HW116246   6.432  12.046   7.474
38740SOL    HW216247   6.458  12.006   7.318
38741SOL     OW16248   6.271  12.184   6.251
38741SOL    HW116249   6.340  12.168   6.321
38741SOL    HW216250   6.198  12.241   6.289
38742SOL     OW16251   6.272  12.333   7.389
38742SOL    HW116252   6.332  12.412   7.403
38742SOL    HW216253   6.186  12.364   7.348
38743SOL     OW16254   5.921  12.607   6.647
38743SOL    HW116255   5.843  12.576   6.594
38743SOL    HW216256   5.979  12.665   6.590
38744SOL     OW16257   7.046  12.677   6.925
38744SOL    HW116258   7.070  12.771   6.951
38744SOL    HW216259   7.030  12.623   7.007
38745SOL     OW16260   6.024  11.564   7.085
38745SOL    HW116261   6.106  11.508   7.094
38745SOL    HW216262   5.943  11.506   7.089
38746SOL     OW16263   7.189  11.619   6.323
38746SOL    HW116264   7.115  11.665   6.273
38746SOL    HW216265   7.240  11.687   6.376
38747SOL     OW16266   5.817  12.885   6.069
38747SOL    HW116267   5.851  12.962   6.123
38747SOL    HW216268   5.861  12.885   5.979
38748SOL     OW16269   6.713  12.513   7.276
38748SOL    HW116270   6.760  12.513   7.364
38748SOL    HW216271   6.665  12.426   7.265
38749SOL     OW16272   5.816  12.606   6.124
38749SOL    HW116273   5.790  12.702   6.124
38749SOL    HW216274   5.745  12.552   6.169
38750SOL     OW16275   5.826  12.263   6.472
38750SOL    HW116276   5.840  12.179   6.524
38750SOL    HW216277   5.771  12.327   6.527
38751SOL     OW16278   6.192  12.136   5.709
38751SOL    HW116279   6.199  12.220   5.655
38751SOL    HW216280   6.238  12.149   5.797
38752SOL     OW16281   7.180  11.286   7.066
38752SOL    HW116282   7.162  11.353   6.994
38752SOL    HW216283   7.177  11.332   7.155
38753SOL     OW16284   5.708  11.815   6.149
38753SOL    HW116285   5.663  11.727   6.166
38753SOL    HW216286   5.707  11.869   6.233
38754SOL     OW16287   5.613  12.768   5.703
38754SOL    HW116288   5.594  12.672   5.724
38754SOL    HW216289   5.580  12.826   5.778
38755SOL     OW16290   7.275  12.094   6.198
38755SOL    HW116291   7.370  12.065   6.206
38755SOL    HW216292   7.267  12.159   6.123
38756SOL     OW16293   7.227  12.280   6.018
38756SOL    HW116294   7.313  12.282   5.966
38756SOL    HW216295   7.241  12.327   6.106
38757SOL     OW16296   5.699  11.909   7.183
38757SOL    HW116297   5.787  11.896   7.228
38757SOL    HW216298   5.686  12.006   7.161
38758SOL     OW16299   6.199  12.537   6.312
38758SOL    HW116300   6.150  12.450   6.321
38758SOL    HW216301   6.176  12.580   6.225
38759SOL     OW16302   6.879  12.400   7.009
38759SOL    HW116303   6.916  12.327   6.951
38759SOL    HW216304   6.931  12.405   7.094
38760SOL     OW16305   6.395  11.176   6.088
38760SOL    HW116306   6.435  11.267   6.079
38760SOL    HW216307   6.295  11.184   6.094
38761SOL     OW16308   5.783  12.148   6.850
38761SOL    HW116309   5.872  12.103   6.836
38761SOL    HW216310   5.710  12.083   6.831
38762SOL     OW16311   7.111  12.171   5.776
38762SOL    HW116312   7.048  12.095   5.789
38762SOL    HW216313   7.159  12.189   5.862
38763SOL     OW16314   5.903  11.423   7.387
38763SOL    HW116315   5.974  11.494   7.393
38763SOL    HW216316   5.815  11.462   7.415
38764SOL     OW16317   7.052  12.589   6.539
38764SOL    HW116318   6.993  12.595   6.619
38764SOL    HW216319   7.037  12.501   6.493
38765SOL     OW16320   6.184  11.901   5.856
38765SOL    HW116321   6.208  11.970   5.788
38765SOL    HW216322   6.106  11.934   5.910
38766SOL     OW16323   6.867  11.517   6.530
38766SOL    HW116324   6.781  11.467   6.517
38766SOL    HW216325   6.929  11.463   6.586
38767SOL     OW16326   6.393  11.777   7.051
38767SOL    HW116327   6.346  11.774   7.140
38767SOL    HW216328   6.342  11.722   6.985
38768SOL     OW16329   6.980  11.641   7.260
38768SOL    HW116330   6.960  11.684   7.348
38768SOL    HW216331   7.058  11.579   7.269
38769SOL     OW16332   6.559  12.062   7.158
38769SOL    HW116333   6.605  11.978   7.129
38769SOL    HW216334   6.503  12.096   7.083
38770SOL     OW16335   6.577  11.582   6.828
38770SOL    HW116336   6.500  11.616   6.882
38770SOL    HW216337   6.543  11.531   6.749
38771SOL     OW16338   6.627  11.873   6.015
38771SOL    HW116339   6.653  11.869   6.111
38771SOL    HW216340   6.542  11.822   6.001
38772SOL     OW16341   5.662  11.983   6.375
38772SOL    HW116342   5.761  11.971   6.384
38772SOL    HW216343   5.638  12.078   6.396
38773SOL     OW16344   6.451  11.520   5.781
38773SOL    HW116345   6.510  11.583   5.732
38773SOL    HW216346   6.470  11.426   5.752
38774SOL     OW16347   7.305  11.757   7.417
38774SOL    HW116348   7.279  11.846   7.381
38774SOL    HW216349   7.303  11.689   7.344
38775SOL     OW16350   6.948  12.316   6.131
38775SOL    HW116351   7.031  12.287   6.083
38775SOL    HW216352   6.899  12.383   6.075
38776SOL     OW16353   6.136  11.368   6.471
38776SOL    HW116354   6.131  11.363   6.571
38776SOL    HW216355   6.138  11.464   6.442
38777SOL     OW16356   6.594  12.628   6.063
38777SOL    HW116357   6.548  12.700   6.011
38777SOL    HW216358   6.590  12.648   6.161
38778SOL     OW16359   7.381  12.238   6.459
38778SOL    HW116360   7.319  12.223   6.383
38778SOL    HW216361   7.329  12.249   6.544
38779SOL     OW16362   6.813  12.722   7.092
38779SOL    HW116363   6.819  12.645   7.156
38779SOL    HW216364   6.761  12.696   7.012
38780SOL     OW16365   5.907  12.115   5.828
38780SOL    HW116366   5.989  12.154   5.786
38780SOL    HW216367   5.880  12.033   5.779
38781SOL     OW16368   7.044  11.907   6.314
38781SOL    HW116369   7.039  11.842   6.389
38781SOL    HW216370   7.124  11.966   6.327
38782SOL     OW16371   6.047  12.438   7.313
38782SOL    HW116372   5.997  12.439   7.227
38782SOL    HW216373   5.984  12.420   7.389
38783SOL     OW16374   6.697  12.948   5.823
38783SOL    HW116375   6.637  12.886   5.873
38783SOL    HW216376   6.728  12.904   5.738
38784SOL     OW16377   5.788  11.457   7.084
38784SOL    HW116378   5.708  11.517   7.071
38784SOL    HW216379   5.778  11.408   7.170
38785SOL     OW16380   7.218  12.549   5.667
38785SOL    HW116381   7.186  12.643   5.657
38785SOL    HW216382   7.142  12.486   5.655
38786SOL     OW16383   6.986  11.279   6.012
38786SOL    HW116384   6.962  11.242   5.922
38786SOL    HW216385   7.085  11.295   6.016
38787SOL     OW16386   5.968  11.872   6.066
38787SOL    HW116387   6.013  11.782   6.063
38787SOL    HW216388   5.874  11.861   6.099
38788SOL     OW16389   7.133  11.394   7.315
38788SOL    HW116390   7.128  11.431   7.407
38788SOL    HW216391   7.061  11.325   7.303
38789SOL     OW16392   6.200  11.294   5.703
38789SOL    HW116393   6.298  11.272   5.710
38789SOL    HW216394   6.169  11.277   5.610
38790SOL     OW16395   6.367  11.436   7.335
38790SOL    HW116396   6.434  11.375   7.378
38790SOL    HW216397   6.294  11.455   7.400
38791SOL     OW16398   6.937  11.762   7.019
38791SOL    HW116399   6.965  11.719   7.104
38791SOL    HW216400   6.962  11.858   7.020
38792SOL     OW16401   6.389  12.574   6.510
38792SOL    HW116402   6.479  12.588   6.468
38792SOL    HW216403   6.318  12.576   6.439
38793SOL     OW16404   6.508  11.675   6.485
38793SOL    HW116405   6.483  11.666   6.389
38793SOL    HW216406   6.556  11.593   6.516
38794SOL     OW16407   6.125  11.236   6.098
38794SOL    HW116408   6.044  11.237   6.156
38794SOL    HW216409   6.128  11.319   6.043
38795SOL     OW16410   7.020  12.360   5.627
38795SOL    HW116411   7.052  12.284   5.684
38795SOL    HW216412   6.928  12.387   5.657
38796SOL     OW16413   5.883  11.207   5.757
38796SOL    HW116414   5.932  11.291   5.736
38796SOL    HW216415   5.945  11.142   5.802
38797SOL     OW16416   6.521  11.408   6.066
38797SOL    HW116417   6.473  11.449   5.988
38797SOL    HW216418   6.620  11.406   6.047
38798SOL     OW16419   6.662  11.855   7.050
38798SOL    HW116420   6.582  11.794   7.053
38798SOL    HW216421   6.743  11.802   7.026
38799SOL     OW16422   6.813  12.742   6.379
38799SOL    HW116423   6.834  12.816   6.314
38799SOL    HW216424   6.881  12.742   6.452
38800SOL     OW16425   6.045  12.324   6.327
38800SOL    HW116426   5.974  12.297   6.392
38800SOL    HW216427   6.019  12.296   6.234
38801SOL     OW16428   6.618  11.721   5.602
38801SOL    HW116429   6.577  11.803   5.563
38801SOL    HW216430   6.682  11.747   5.675
38802SOL     OW16431   5.664  11.728   6.972
38802SOL    HW116432   5.756  11.727   6.931
38802SOL    HW216433   5.658  11.802   7.039
38803SOL     OW16434   6.147  11.394   6.733
38803SOL    HW116435   6.185  11.310   6.770
38803SOL    HW216436   6.059  11.413   6.777
38804SOL     OW16437   6.452  11.626   6.228
38804SOL    HW116438   6.420  11.698   6.166
38804SOL    HW216439   6.476  11.545   6.175
38805SOL     OW16440   6.603  11.211   6.339
38805SOL    HW116441   6.531  11.216   6.270
38805SOL    HW216442   6.579  11.142   6.408
38806SOL     OW16443   7.015  12.345   6.453
38806SOL    HW116444   6.960  12.261   6.446
38806SOL    HW216445   7.041  12.374   6.361
38807SOL     OW16446   7.052  11.762   6.578
38807SOL    HW116447   7.022  11.667   6.585
38807SOL    HW216448   7.125  11.778   6.644
38808SOL     OW16449   7.443  12.005   5.963
38808SOL    HW116450   7.485  11.941   6.027
38808SOL    HW216451   7.405  11.954   5.885
38809SOL     OW16452   6.074  12.557   5.760
38809SOL    HW116453   5.987  12.542   5.807
38809SOL    HW216454   6.057  12.583   5.665
38810SOL     OW16455   7.250  12.452   6.243
38810SOL    HW116456   7.349  12.460   6.257
38810SOL    HW216457   7.205  12.536   6.274
38811SOL     OW16458   6.976  11.747   5.664
38811SOL    HW116459   6.922  11.726   5.745
38811SOL    HW216460   7.067  11.706   5.673
38812SOL     OW16461   6.113  11.428   5.914
38812SOL    HW116462   6.140  11.369   5.839
38812SOL    HW216463   6.113  11.523   5.883
38813SOL     OW16464   7.340  12.395   7.174
38813SOL    HW116465   7.431  12.356   7.161
38813SOL    HW216466   7.348  12.491   7.198
38814SOL     OW16467   6.650  12.519   6.926
38814SOL    HW116468   6.570  12.496   6.981
38814SOL    HW216469   6.733  12.493   6.975
38815SOL     OW16470   6.697  12.367   6.686
38815SOL    HW116471   6.657  12.411   6.767
38815SOL    HW216472   6.656  12.404   6.603
38816SOL     OW16473   7.224  12.271   6.665
38816SOL    HW116474   7.229  12.352   6.724
38816SOL    HW216475   7.138  12.273   6.614
38817SOL     OW16476   6.501  11.261   6.988
38817SOL    HW116477   6.526  11.241   6.893
38817SOL    HW216478   6.573  11.317   7.030
38818SOL     OW16479   6.566  12.288   7.305
38818SOL    HW116480   6.467  12.294   7.315
38818SOL    HW216481   6.589  12.208   7.249
38819SOL     OW16482   6.291  12.222   5.954
38819SOL    HW116483   6.277  12.229   6.053
38819SOL    HW216484   6.375  12.171   5.936
38820SOL     OW16485   5.996  11.985   6.837
38820SOL    HW116486   6.082  11.997   6.887
38820SOL    HW216487   5.954  11.898   6.864
38821SOL     OW16488   6.860  11.558   6.848
38821SOL    HW116489   6.881  11.632   6.912
38821SOL    HW216490   6.771  11.575   6.805
38822SOL     OW16491   5.953  12.272   6.087
38822SOL    HW116492   5.946  12.355   6.031
38822SOL    HW216493   5.957  12.192   6.027
38823SOL     OW16494   6.152  11.709   6.451
38823SOL    HW116495   6.164  11.775   6.377
38823SOL    HW216496   6.198  11.743   6.534
38824SOL     OW16497   6.838  12.520   5.974
38824SOL    HW116498   6.888  12.597   6.014
38824SOL    HW216499   6.743  12.522   6.006
38825SOL     OW16500   6.858  12.617   6.728
38825SOL    HW116501   6.905  12.630   6.815
38825SOL    HW216502   6.792  12.543   6.737
38826SOL     OW16503   7.168  11.811   6.058
38826SOL    HW116504   7.137  11.872   6.131
38826SOL    HW216505   7.218  11.863   5.989
38827SOL     OW16506   5.940  12.682   6.915
38827SOL    HW116507   5.919  12.638   6.828
38827SOL    HW216508   6.037  12.708   6.918
38828SOL     OW16509   5.988  11.923   7.184
38828SOL    HW116510   6.056  11.978   7.137
38828SOL    HW216511   6.028  11.835   7.211
38829SOL     OW16512   7.173  11.951   7.256
38829SOL    HW116513   7.081  11.989   7.251
38829SOL    HW216514   7.233  11.998   7.191
38830SOL     OW16515   6.599  11.277   7.356
38830SOL    HW116516   6.605  11.362   7.304
38830SOL    HW216517   6.631  11.201   7.299
38831SOL     OW16518   6.090  11.222   7.326
38831SOL    HW116519   6.048  11.165   7.256
38831SOL    HW216520   6.024  11.291   7.358
38832SOL     OW16521   6.159  12.042   6.615
38832SOL    HW116522   6.203  12.131   6.606
38832SOL    HW216523   6.096  12.042   6.692
38833SOL     OW16524   6.946  12.034   6.631
38833SOL    HW116525   6.871  12.034   6.565
38833SOL    HW216526   6.983  11.942   6.640
38834SOL     OW16527   6.795  11.697   5.861
38834SOL    HW116528   6.808  11.613   5.915
38834SOL    HW216529   6.766  11.771   5.921
38835SOL     OW16530   5.893  11.385   6.817
38835SOL    HW116531   5.870  11.422   6.907
38835SOL    HW216532   5.863  11.290   6.811
38836SOL     OW16533   5.623  12.482   6.868
38836SOL    HW116534   5.676  12.433   6.936
38836SOL    HW216535   5.645  12.580   6.873
38837SOL     OW16536   6.318  11.806   6.650
38837SOL    HW116537   6.377  11.780   6.574
38837SOL    HW216538   6.290  11.902   6.639
38838SOL     OW16539   7.314  12.107   7.440
38838SOL    HW116540   7.268  12.100   7.351
38838SOL    HW216541   7.252  12.151   7.506
38839SOL     OW16542   5.893  11.235   6.204
38839SOL    HW116543   5.882  11.329   6.237
38839SOL    HW216544   5.888  11.172   6.281
38840SOL     OW16545   7.208  11.539   5.960
38840SOL    HW116546   7.210  11.463   6.024
38840SOL    HW216547   7.160  11.616   6.000
38841SOL     OW16548   6.609  11.938   6.552
38841SOL    HW116549   6.624  11.959   6.648
38841SOL    HW216550   6.579  11.843   6.543
38842SOL     OW16551   7.445  12.690   7.191
38842SOL    HW116552   7.459  12.717   7.096
38842SOL    HW216553   7.528  12.712   7.244
38843SOL     OW16554   5.936  12.070   7.390
38843SOL    HW116555   6.012  12.114   7.438
38843SOL    HW216556   5.971  12.023   7.308
38844SOL     OW16557   7.126  11.446   5.711
38844SOL    HW116558   7.065  11.371   5.734
38844SOL    HW216559   7.148  11.498   5.794
38845SOL     OW16560   6.889  12.010   5.628
38845SOL    HW116561   6.923  11.917   5.643
38845SOL    HW216562   6.907  12.037   5.533
38846SOL     OW16563   6.654  12.505   6.435
38846SOL    HW116564   6.661  12.421   6.380
38846SOL    HW216565   6.716  12.574   6.399
38847SOL     OW16566   5.905  11.982   6.535
38847SOL    HW116567   5.998  12.018   6.540
38847SOL    HW216568   5.899  11.897   6.587
38848SOL     OW16569   5.925  11.681   6.592
38848SOL    HW116570   5.873  11.598   6.575
38848SOL    HW216571   6.002  11.686   6.528
38849SOL     OW16572   6.724  11.552   7.264
38849SOL    HW116573   6.679  11.615   7.328
38849SOL    HW216574   6.817  11.583   7.247
38850SOL     OW16575   6.746  11.379   7.063
38850SOL    HW116576   6.746  11.443   7.140
38850SOL    HW216577   6.774  11.427   6.980
38851SOL     OW16578   5.594  12.498   5.786
38851SOL    HW116579   5.501  12.519   5.755
38851SOL    HW216580   5.604  12.399   5.799
38852SOL     OW16581   6.588  11.968   6.824
38852SOL    HW116582   6.629  11.936   6.910
38852SOL    HW216583   6.492  11.941   6.821
38853SOL     OW16584   5.626  11.716   6.700
38853SOL    HW116585   5.711  11.683   6.659
38853SOL    HW216586   5.639  11.731   6.798
38854SOL     OW16587   5.775  11.692   7.308
38854SOL    HW116588   5.834  11.652   7.238
38854SOL    HW216589   5.717  11.763   7.267
38855SOL     OW16590   6.955  12.122   7.246
38855SOL    HW116591   6.994  12.211   7.266
38855SOL    HW216592   6.965  12.102   7.149
38856SOL     OW16593   6.401  11.744   5.911
38856SOL    HW116594   6.408  11.655   5.865
38856SOL    HW216595   6.307  11.778   5.903
38857SOL     OW16596   7.243  11.776   6.792
38857SOL    HW116597   7.205  11.707   6.854
38857SOL    HW216598   7.325  11.740   6.748
38858SOL     OW16599   5.838  12.736   7.330
38858SOL    HW116600   5.808  12.793   7.406
38858SOL    HW216601   5.831  12.639   7.356
38859SOL     OW16602   6.257  11.636   6.855
38859SOL    HW116603   6.223  11.547   6.825
38859SOL    HW216604   6.283  11.690   6.775
38860SOL     OW16605   6.059  11.672   5.777
38860SOL    HW116606   6.120  11.752   5.781
38860SOL    HW216607   5.964  11.703   5.784
38861SOL     OW16608   5.745  12.309   7.052
38861SOL    HW116609   5.767  12.248   7.128
38861SOL    HW216610   5.755  12.260   6.966
38862SOL     OW16611   6.933  12.231   6.820
38862SOL    HW116612   6.957  12.168   6.746
38862SOL    HW216613   6.843  12.271   6.802
38863SOL     OW16614   6.888  12.027   5.895
38863SOL    HW116615   6.802  11.996   5.937
38863SOL    HW216616   6.884  12.013   5.796
38864SOL     OW16617   5.669  12.430   6.608
38864SOL    HW116618   5.664  12.429   6.708
38864SOL    HW216619   5.586  12.389   6.570
38865SOL     OW16620   7.312  11.307   6.109
38865SOL    HW116621   7.385  11.290   6.042
38865SOL    HW216622   7.281  11.220   6.147
38866SOL     OW16623   6.866  12.099   6.258
38866SOL    HW116624   6.926  12.018   6.260
38866SOL    HW216625   6.906  12.168   6.198
38867SOL     OW16626   6.416  12.445   7.008
38867SOL    HW116627   6.411  12.478   7.103
38867SOL    HW216628   6.330  12.464   6.962
38868SOL     OW16629   7.427  11.347   6.549
38868SOL    HW116630   7.466  11.262   6.513
38868SOL    HW216631   7.329  11.349   6.530
38869SOL     OW16632   5.849  11.498   6.306
38869SOL    HW116633   5.770  11.549   6.272
38869SOL    HW216634   5.840  11.483   6.404
38870SOL     OW16635   6.408  12.174   6.958
38870SOL    HW116636   6.448  12.173   6.866
38870SOL    HW216637   6.418  12.266   6.998
38871SOL     OW16638   6.502  12.082   5.877
38871SOL    HW116639   6.565  12.120   5.809
38871SOL    HW216640   6.542  11.999   5.916
38872SOL     OW16641   5.958  12.460   7.076
38872SOL    HW116642   5.945  12.553   7.042
38872SOL    HW216643   5.874  12.408   7.063
38873SOL     OW16644   7.200  12.464   6.875
38873SOL    HW116645   7.260  12.467   6.955
38873SOL    HW216646   7.125  12.528   6.888
38874SOL     OW16647   6.625  12.270   6.282
38874SOL    HW116648   6.555  12.223   6.336
38874SOL    HW216649   6.684  12.202   6.239
38875SOL     OW16650   6.600  11.408   6.557
38875SOL    HW116651   6.592  11.372   6.464
38875SOL    HW216652   6.598  11.332   6.622
38876SOL     OW16653   7.295  11.557   6.967
38876SOL    HW116654   7.368  11.626   6.971
38876SOL    HW216655   7.323  11.482   6.908
38877SOL     OW16656   5.841  12.520   5.876
38877SOL    HW116657   5.745  12.521   5.849
38877SOL    HW216658   5.853  12.573   5.960
38878SOL     OW16659   5.691  12.185   7.312
38878SOL    HW116660   5.614  12.152   7.366
38878SOL    HW216661   5.776  12.155   7.354
38879SOL     OW16662   6.258  11.375   7.075
38879SOL    HW116663   6.348  11.359   7.035
38879SOL    HW216664   6.266  11.380   7.174
38880SOL     OW16665   5.661  11.517   5.619
38880SOL    HW116666   5.569  11.489   5.590
38880SOL    HW216667   5.692  11.594   5.563
38881SOL     OW16668   7.026  12.028   6.984
38881SOL    HW116669   6.969  12.080   6.921
38881SOL    HW216670   7.122  12.040   6.960
38882SOL     OW16671   5.658  11.338   5.904
38882SOL    HW116672   5.641  11.421   5.850
38882SOL    HW216673   5.748  11.301   5.882
38883SOL     OW16674   6.769  12.507   5.705
38883SOL    HW116675   6.670  12.496   5.707
38883SOL    HW216676   6.803  12.522   5.798
38884SOL     OW16677   6.199  12.014   7.017
38884SOL    HW116678   6.255  12.095   7.000
38884SOL    HW216679   6.258  11.934   7.020
38885SOL     OW16680   6.302  11.737   7.294
38885SOL    HW116681   6.321  11.802   7.368
38885SOL    HW216682   6.362  11.657   7.303
38886SOL     OW16683   7.036  12.392   7.219
38886SOL    HW116684   7.027  12.382   7.318
38886SOL    HW216685   7.132  12.385   7.193
38887SOL     OW16686   7.260  12.055   6.840
38887SOL    HW116687   7.233  11.966   6.803
38887SOL    HW216688   7.261  12.123   6.767
38888SOL     OW16689   6.811  11.497   6.035
38888SOL    HW116690   6.876  11.423   6.024
38888SOL    HW216691   6.831  11.547   6.119
38889SOL     OW16692   6.180  11.917   6.238
38889SOL    HW116693   6.230  12.002   6.219
38889SOL    HW216694   6.092  11.919   6.190
38890SOL     OW16695   7.363  11.514   7.228
38890SOL    HW116696   7.346  11.545   7.134
38890SOL    HW216697   7.279  11.477   7.266
38891SOL     OW16698   7.316  12.106   7.103
38891SOL    HW116699   7.354  12.197   7.118
38891SOL    HW216700   7.308  12.089   7.004
38892SOL     OW16701   6.445  12.546   5.602
38892SOL    HW116702   6.399  12.561   5.690
38892SOL    HW216703   6.489  12.631   5.572
38893SOL     OW16704   6.445  12.128   6.447
38893SOL    HW116705   6.499  12.059   6.495
38893SOL    HW216706   6.413  12.197   6.513
38894SOL     OW16707   6.669  12.156   5.673
38894SOL    HW116708   6.646  12.209   5.591
38894SOL    HW216709   6.750  12.100   5.654
38895SOL     OW16710   5.807  12.486   7.430
38895SOL    HW116711   5.742  12.413   7.409
38895SOL    HW216712   5.811  12.500   7.528
38896SOL     OW16713   5.665  12.412   6.239
38896SOL    HW116714   5.664  12.365   6.327
38896SOL    HW216715   5.747  12.384   6.188
38897SOL     OW16716   6.258  12.563   7.210
38897SOL    HW116717   6.180  12.513   7.248
38897SOL    HW216718   6.255  12.658   7.241
38898SOL     OW16719   7.410  11.364   6.813
38898SOL    HW116720   7.406  11.274   6.857
38898SOL    HW216721   7.413  11.353   6.714
38899SOL     OW16722   6.014  11.596   6.106
38899SOL    HW116723   6.044  11.524   6.044
38899SOL    HW216724   5.975  11.556   6.189
38900SOL     OW16725   7.291  12.659   6.690
38900SOL    HW116726   7.198  12.634   6.663
38900SOL    HW216727   7.317  12.609   6.772
38901SOL     OW16728   5.903  11.719   6.866
38901SOL    HW116729   5.941  11.660   6.938
38901SOL    HW216730   5.943  11.693   6.778
38902SOL     OW16731   7.010  11.386   6.698
38902SOL    HW116732   7.062  11.321   6.753
38902SOL    HW216733   6.961  11.449   6.759
38903SOL     OW16734   6.587  11.206   6.740
38903SOL    HW116735   6.524  11.134   6.709
38903SOL    HW216736   6.680  11.170   6.740
38904SOL     OW16737   6.356  12.502   5.887
38904SOL    HW116738   6.310  12.415   5.904
38904SOL    HW216739   6.447  12.499   5.928
38905SOL     OW16740   6.204  12.739   6.870
38905SOL    HW116741   6.199  12.821   6.927
38905SOL    HW216742   6.293  12.736   6.825
38906SOL     OW16743   6.938  11.224   5.754
38906SOL    HW116744   6.973  11.183   5.670
38906SOL    HW216745   6.848  11.186   5.774
38907SOL     OW16746   6.886  11.625   6.277
38907SOL    HW116747   6.827  11.705   6.281
38907SOL    HW216748   6.901  11.590   6.370
38908SOL     OW16749   7.179  11.393   6.468
38908SOL    HW116750   7.095  11.392   6.522
38908SOL    HW216751   7.181  11.476   6.412
38909SOL     OW16752   5.625  12.249   5.886
38909SOL    HW116753   5.724  12.238   5.877
38909SOL    HW216754   5.585  12.163   5.918
38910SOL     OW16755   5.816  11.800   7.561
38910SOL    HW116756   5.723  11.798   7.598
38910SOL    HW216757   5.817  11.761   7.469
38911SOL     OW16758   5.811  11.447   8.444
38911SOL    HW116759   5.846  11.430   8.536
38911SOL    HW216760   5.723  11.402   8.432
38912SOL     OW16761   5.605  11.540   8.095
38912SOL    HW116762   5.523  11.583   8.134
38912SOL    HW216763   5.577  11.467   8.032
38913SOL     OW16764   6.155  12.447   8.613
38913SOL    HW116765   6.062  12.440   8.576
38913SOL    HW216766   6.166  12.536   8.657
38914SOL     OW16767   7.141  12.683   8.151
38914SOL    HW116768   7.084  12.667   8.232
38914SOL    HW216769   7.082  12.693   8.071
38915SOL     OW16770   6.721  11.875   8.165
38915SOL    HW116771   6.778  11.953   8.140
38915SOL    HW216772   6.661  11.901   8.241
38916SOL     OW16773   7.341  11.779   7.679
38916SOL    HW116774   7.329  11.766   7.580
38916SOL    HW216775   7.311  11.698   7.728
38917SOL     OW16776   6.354  12.316   8.471
38917SOL    HW116777   6.276  12.333   8.531
38917SOL    HW216778   6.388  12.403   8.435
38918SOL     OW16779   6.436  11.970   9.271
38918SOL    HW116780   6.432  12.046   9.336
38918SOL    HW216781   6.458  12.006   9.180
38919SOL     OW16782   6.271  12.184   8.113
38919SOL    HW116783   6.340  12.168   8.183
38919SOL    HW216784   6.198  12.241   8.151
38920SOL     OW16785   6.272  12.333   9.251
38920SOL    HW116786   6.332  12.412   9.265
38920SOL    HW216787   6.186  12.364   9.210
38921SOL     OW16788   5.921  12.607   8.509
38921SOL    HW116789   5.843  12.576   8.456
38921SOL    HW216790   5.979  12.665   8.452
38922SOL     OW16791   7.046  12.677   8.787
38922SOL    HW116792   7.070  12.771   8.813
38922SOL    HW216793   7.030  12.623   8.869
38923SOL     OW16794   6.024  11.564   8.947
38923SOL    HW116795   6.106  11.508   8.956
38923SOL    HW216796   5.943  11.506   8.951
38924SOL     OW16797   7.189  11.619   8.185
38924SOL    HW116798   7.115  11.665   8.135
38924SOL    HW216799   7.240  11.687   8.238
38925SOL     OW16800   5.817  12.885   7.931
38925SOL    HW116801   5.851  12.962   7.985
38925SOL    HW216802   5.861  12.885   7.841
38926SOL     OW16803   6.713  12.513   9.138
38926SOL    HW116804   6.760  12.513   9.226
38926SOL    HW216805   6.665  12.426   9.127
38927SOL     OW16806   5.816  12.606   7.986
38927SOL    HW116807   5.790  12.702   7.986
38927SOL    HW216808   5.745  12.552   8.031
38928SOL     OW16809   5.826  12.263   8.334
38928SOL    HW116810   5.840  12.179   8.386
38928SOL    HW216811   5.771  12.327   8.389
38929SOL     OW16812   6.192  12.136   7.571
38929SOL    HW116813   6.199  12.220   7.517
38929SOL    HW216814   6.238  12.149   7.659
38930SOL     OW16815   7.180  11.286   8.928
38930SOL    HW116816   7.162  11.353   8.856
38930SOL    HW216817   7.177  11.332   9.017
38931SOL     OW16818   5.708  11.815   8.011
38931SOL    HW116819   5.663  11.727   8.028
38931SOL    HW216820   5.707  11.869   8.095
38932SOL     OW16821   5.613  12.768   7.565
38932SOL    HW116822   5.594  12.672   7.586
38932SOL    HW216823   5.580  12.826   7.640
38933SOL     OW16824   7.275  12.094   8.060
38933SOL    HW116825   7.370  12.065   8.068
38933SOL    HW216826   7.267  12.159   7.985
38934SOL     OW16827   7.227  12.280   7.880
38934SOL    HW116828   7.313  12.282   7.828
38934SOL    HW216829   7.241  12.327   7.968
38935SOL     OW16830   5.699  11.909   9.045
38935SOL    HW116831   5.787  11.896   9.090
38935SOL    HW216832   5.686  12.006   9.023
38936SOL     OW16833   6.199  12.537   8.174
38936SOL    HW116834   6.150  12.450   8.183
38936SOL    HW216835   6.176  12.580   8.087
38937SOL     OW16836   6.879  12.400   8.871
38937SOL    HW116837   6.916  12.327   8.813
38937SOL    HW216838   6.931  12.405   8.956
38938SOL     OW16839   6.395  11.176   7.950
38938SOL    HW116840   6.435  11.267   7.941
38938SOL    HW216841   6.295  11.184   7.956
38939SOL     OW16842   5.783  12.148   8.712
38939SOL    HW116843   5.872  12.103   8.698
38939SOL    HW216844   5.710  12.083   8.693
38940SOL     OW16845   7.111  12.171   7.638
38940SOL    HW116846   7.048  12.095   7.651
38940SOL    HW216847   7.159  12.189   7.724
38941SOL     OW16848   5.903  11.423   9.249
38941SOL    HW116849   5.974  11.494   9.255
38941SOL    HW216850   5.815  11.462   9.277
38942SOL     OW16851   7.052  12.589   8.401
38942SOL    HW116852   6.993  12.595   8.481
38942SOL    HW216853   7.037  12.501   8.355
38943SOL     OW16854   6.184  11.901   7.718
38943SOL    HW116855   6.208  11.970   7.650
38943SOL    HW216856   6.106  11.934   7.772
38944SOL     OW16857   6.867  11.517   8.392
38944SOL    HW116858   6.781  11.467   8.379
38944SOL    HW216859   6.929  11.463   8.448
38945SOL     OW16860   6.393  11.777   8.913
38945SOL    HW116861   6.346  11.774   9.002
38945SOL    HW216862   6.342  11.722   8.847
38946SOL     OW16863   6.980  11.641   9.122
38946SOL    HW116864   6.960  11.684   9.210
38946SOL    HW216865   7.058  11.579   9.131
38947SOL     OW16866   6.559  12.062   9.020
38947SOL    HW116867   6.605  11.978   8.991
38947SOL    HW216868   6.503  12.096   8.945
38948SOL     OW16869   6.577  11.582   8.690
38948SOL    HW116870   6.500  11.616   8.744
38948SOL    HW216871   6.543  11.531   8.611
38949SOL     OW16872   6.627  11.873   7.877
38949SOL    HW116873   6.653  11.869   7.973
38949SOL    HW216874   6.542  11.822   7.863
38950SOL     OW16875   5.662  11.983   8.237
38950SOL    HW116876   5.761  11.971   8.246
38950SOL    HW216877   5.638  12.078   8.258
38951SOL     OW16878   6.451  11.520   7.643
38951SOL    HW116879   6.510  11.583   7.594
38951SOL    HW216880   6.470  11.426   7.614
38952SOL     OW16881   7.305  11.757   9.279
38952SOL    HW116882   7.279  11.846   9.243
38952SOL    HW216883   7.303  11.689   9.206
38953SOL     OW16884   6.948  12.316   7.993
38953SOL    HW116885   7.031  12.287   7.945
38953SOL    HW216886   6.899  12.383   7.937
38954SOL     OW16887   6.136  11.368   8.333
38954SOL    HW116888   6.131  11.363   8.433
38954SOL    HW216889   6.138  11.464   8.304
38955SOL     OW16890   6.594  12.628   7.925
38955SOL    HW116891   6.548  12.700   7.873
38955SOL    HW216892   6.590  12.648   8.023
38956SOL     OW16893   7.381  12.238   8.321
38956SOL    HW116894   7.319  12.223   8.245
38956SOL    HW216895   7.329  12.249   8.406
38957SOL     OW16896   6.813  12.722   8.954
38957SOL    HW116897   6.819  12.645   9.018
38957SOL    HW216898   6.761  12.696   8.874
38958SOL     OW16899   5.907  12.115   7.690
38958SOL    HW116900   5.989  12.154   7.648
38958SOL    HW216901   5.880  12.033   7.641
38959SOL     OW16902   7.044  11.907   8.176
38959SOL    HW116903   7.039  11.842   8.251
38959SOL    HW216904   7.124  11.966   8.189
38960SOL     OW16905   6.047  12.438   9.175
38960SOL    HW116906   5.997  12.439   9.089
38960SOL    HW216907   5.984  12.420   9.251
38961SOL     OW16908   6.697  12.948   7.685
38961SOL    HW116909   6.637  12.886   7.735
38961SOL    HW216910   6.728  12.904   7.600
38962SOL     OW16911   5.788  11.457   8.946
38962SOL    HW116912   5.708  11.517   8.933
38962SOL    HW216913   5.778  11.408   9.032
38963SOL     OW16914   7.218  12.549   7.529
38963SOL    HW116915   7.186  12.643   7.519
38963SOL    HW216916   7.142  12.486   7.517
38964SOL     OW16917   6.986  11.279   7.874
38964SOL    HW116918   6.962  11.242   7.784
38964SOL    HW216919   7.085  11.295   7.878
38965SOL     OW16920   5.968  11.872   7.928
38965SOL    HW116921   6.013  11.782   7.925
38965SOL    HW216922   5.874  11.861   7.961
38966SOL     OW16923   7.133  11.394   9.177
38966SOL    HW116924   7.128  11.431   9.269
38966SOL    HW216925   7.061  11.325   9.165
38967SOL     OW16926   6.200  11.294   7.565
38967SOL    HW116927   6.298  11.272   7.572
38967SOL    HW216928   6.169  11.277   7.472
38968SOL     OW16929   6.367  11.436   9.197
38968SOL    HW116930   6.434  11.375   9.240
38968SOL    HW216931   6.294  11.455   9.262
38969SOL     OW16932   6.937  11.762   8.881
38969SOL    HW116933   6.965  11.719   8.966
38969SOL    HW216934   6.962  11.858   8.882
38970SOL     OW16935   6.389  12.574   8.372
38970SOL    HW116936   6.479  12.588   8.330
38970SOL    HW216937   6.318  12.576   8.301
38971SOL     OW16938   6.508  11.675   8.347
38971SOL    HW116939   6.483  11.666   8.251
38971SOL    HW216940   6.556  11.593   8.378
38972SOL     OW16941   6.125  11.236   7.960
38972SOL    HW116942   6.044  11.237   8.018
38972SOL    HW216943   6.128  11.319   7.905
38973SOL     OW16944   7.020  12.360   7.489
38973SOL    HW116945   7.052  12.284   7.546
38973SOL    HW216946   6.928  12.387   7.519
38974SOL     OW16947   5.883  11.207   7.619
38974SOL    HW116948   5.932  11.291   7.598
38974SOL    HW216949   5.945  11.142   7.664
38975SOL     OW16950   6.521  11.408   7.928
38975SOL    HW116951   6.473  11.449   7.850
38975SOL    HW216952   6.620  11.406   7.909
38976SOL     OW16953   6.662  11.855   8.912
38976SOL    HW116954   6.582  11.794   8.915
38976SOL    HW216955   6.743  11.802   8.888
38977SOL     OW16956   6.813  12.742   8.241
38977SOL    HW116957   6.834  12.816   8.176
38977SOL    HW216958   6.881  12.742   8.314
38978SOL     OW16959   6.045  12.324   8.189
38978SOL    HW116960   5.974  12.297   8.254
38978SOL    HW216961   6.019  12.296   8.096
38979SOL     OW16962   6.618  11.721   7.464
38979SOL    HW116963   6.577  11.803   7.425
38979SOL    HW216964   6.682  11.747   7.537
38980SOL     OW16965   5.664  11.728   8.834
38980SOL    HW116966   5.756  11.727   8.793
38980SOL    HW216967   5.658  11.802   8.901
38981SOL     OW16968   6.147  11.394   8.595
38981SOL    HW116969   6.185  11.310   8.632
38981SOL    HW216970   6.059  11.413   8.639
38982SOL     OW16971   6.452  11.626   8.090
38982SOL    HW116972   6.420  11.698   8.028
38982SOL    HW216973   6.476  11.545   8.037
38983SOL     OW16974   6.603  11.211   8.201
38983SOL    HW116975   6.531  11.216   8.132
38983SOL    HW216976   6.579  11.142   8.270
38984SOL     OW16977   7.015  12.345   8.315
38984SOL    HW116978   6.960  12.261   8.308
38984SOL    HW216979   7.041  12.374   8.223
38985SOL     OW16980   7.052  11.762   8.440
38985SOL    HW116981   7.022  11.667   8.447
38985SOL    HW216982   7.125  11.778   8.506
38986SOL     OW16983   7.443  12.005   7.825
38986SOL    HW116984   7.485  11.941   7.889
38986SOL    HW216985   7.405  11.954   7.747
38987SOL     OW16986   6.074  12.557   7.622
38987SOL    HW116987   5.987  12.542   7.669
38987SOL    HW216988   6.057  12.583   7.527
38988SOL     OW16989   6.976  11.747   7.526
38988SOL    HW116990   6.922  11.726   7.607
38988SOL    HW216991   7.067  11.706   7.535
38989SOL     OW16992   6.113  11.428   7.776
38989SOL    HW116993   6.140  11.369   7.701
38989SOL    HW216994   6.113  11.523   7.745
38990SOL     OW16995   7.340  12.395   9.036
38990SOL    HW116996   7.431  12.356   9.023
38990SOL    HW216997   7.348  12.491   9.060
38991SOL     OW16998   6.650  12.519   8.788
38991SOL    HW116999   6.570  12.496   8.843
38991SOL    HW217000   6.733  12.493   8.837
38992SOL     OW17001   6.697  12.367   8.548
38992SOL    HW117002   6.657  12.411   8.629
38992SOL    HW217003   6.656  12.404   8.465
38993SOL     OW17004   7.224  12.271   8.527
38993SOL    HW117005   7.229  12.352   8.586
38993SOL    HW217006   7.138  12.273   8.476
38994SOL     OW17007   6.501  11.261   8.850
38994SOL    HW117008   6.526  11.241   8.755
38994SOL    HW217009   6.573  11.317   8.892
38995SOL     OW17010   6.566  12.288   9.167
38995SOL    HW117011   6.467  12.294   9.177
38995SOL    HW217012   6.589  12.208   9.111
38996SOL     OW17013   6.291  12.222   7.816
38996SOL    HW117014   6.277  12.229   7.915
38996SOL    HW217015   6.375  12.171   7.798
38997SOL     OW17016   5.996  11.985   8.699
38997SOL    HW117017   6.082  11.997   8.749
38997SOL    HW217018   5.954  11.898   8.726
38998SOL     OW17019   6.860  11.558   8.710
38998SOL    HW117020   6.881  11.632   8.774
38998SOL    HW217021   6.771  11.575   8.667
38999SOL     OW17022   5.953  12.272   7.949
38999SOL    HW117023   5.946  12.355   7.893
38999SOL    HW217024   5.957  12.192   7.889
39000SOL     OW17025   6.152  11.709   8.313
39000SOL    HW117026   6.164  11.775   8.239
39000SOL    HW217027   6.198  11.743   8.396
39001SOL     OW17028   6.838  12.520   7.836
39001SOL    HW117029   6.888  12.597   7.876
39001SOL    HW217030   6.743  12.522   7.868
39002SOL     OW17031   6.858  12.617   8.590
39002SOL    HW117032   6.905  12.630   8.677
39002SOL    HW217033   6.792  12.543   8.599
39003SOL     OW17034   7.168  11.811   7.920
39003SOL    HW117035   7.137  11.872   7.993
39003SOL    HW217036   7.218  11.863   7.851
39004SOL     OW17037   5.940  12.682   8.777
39004SOL    HW117038   5.919  12.638   8.690
39004SOL    HW217039   6.037  12.708   8.780
39005SOL     OW17040   5.988  11.923   9.046
39005SOL    HW117041   6.056  11.978   8.999
39005SOL    HW217042   6.028  11.835   9.073
39006SOL     OW17043   7.173  11.951   9.118
39006SOL    HW117044   7.081  11.989   9.113
39006SOL    HW217045   7.233  11.998   9.053
39007SOL     OW17046   6.599  11.277   9.218
39007SOL    HW117047   6.605  11.362   9.166
39007SOL    HW217048   6.631  11.201   9.161
39008SOL     OW17049   6.090  11.222   9.188
39008SOL    HW117050   6.048  11.165   9.118
39008SOL    HW217051   6.024  11.291   9.220
39009SOL     OW17052   6.159  12.042   8.477
39009SOL    HW117053   6.203  12.131   8.468
39009SOL    HW217054   6.096  12.042   8.554
39010SOL     OW17055   6.946  12.034   8.493
39010SOL    HW117056   6.871  12.034   8.427
39010SOL    HW217057   6.983  11.942   8.502
39011SOL     OW17058   6.795  11.697   7.723
39011SOL    HW117059   6.808  11.613   7.777
39011SOL    HW217060   6.766  11.771   7.783
39012SOL     OW17061   5.893  11.385   8.679
39012SOL    HW117062   5.870  11.422   8.769
39012SOL    HW217063   5.863  11.290   8.673
39013SOL     OW17064   5.623  12.482   8.730
39013SOL    HW117065   5.676  12.433   8.798
39013SOL    HW217066   5.645  12.580   8.735
39014SOL     OW17067   6.318  11.806   8.512
39014SOL    HW117068   6.377  11.780   8.436
39014SOL    HW217069   6.290  11.902   8.501
39015SOL     OW17070   7.314  12.107   9.302
39015SOL    HW117071   7.268  12.100   9.213
39015SOL    HW217072   7.252  12.151   9.368
39016SOL     OW17073   5.893  11.235   8.066
39016SOL    HW117074   5.882  11.329   8.099
39016SOL    HW217075   5.888  11.172   8.143
39017SOL     OW17076   7.208  11.539   7.822
39017SOL    HW117077   7.210  11.463   7.886
39017SOL    HW217078   7.160  11.616   7.862
39018SOL     OW17079   6.609  11.938   8.414
39018SOL    HW117080   6.624  11.959   8.510
39018SOL    HW217081   6.579  11.843   8.405
39019SOL     OW17082   7.445  12.690   9.053
39019SOL    HW117083   7.459  12.717   8.958
39019SOL    HW217084   7.528  12.712   9.106
39020SOL     OW17085   5.936  12.070   9.252
39020SOL    HW117086   6.012  12.114   9.300
39020SOL    HW217087   5.971  12.023   9.170
39021SOL     OW17088   7.126  11.446   7.573
39021SOL    HW117089   7.065  11.371   7.596
39021SOL    HW217090   7.148  11.498   7.656
39022SOL     OW17091   6.889  12.010   7.490
39022SOL    HW117092   6.923  11.917   7.505
39022SOL    HW217093   6.907  12.037   7.395
39023SOL     OW17094   6.654  12.505   8.297
39023SOL    HW117095   6.661  12.421   8.242
39023SOL    HW217096   6.716  12.574   8.261
39024SOL     OW17097   5.905  11.982   8.397
39024SOL    HW117098   5.998  12.018   8.402
39024SOL    HW217099   5.899  11.897   8.449
39025SOL     OW17100   5.925  11.681   8.454
39025SOL    HW117101   5.873  11.598   8.437
39025SOL    HW217102   6.002  11.686   8.390
39026SOL     OW17103   6.724  11.552   9.126
39026SOL    HW117104   6.679  11.615   9.190
39026SOL    HW217105   6.817  11.583   9.109
39027SOL     OW17106   6.746  11.379   8.925
39027SOL    HW117107   6.746  11.443   9.002
39027SOL    HW217108   6.774  11.427   8.842
39028SOL     OW17109   5.594  12.498   7.648
39028SOL    HW117110   5.501  12.519   7.617
39028SOL    HW217111   5.604  12.399   7.661
39029SOL     OW17112   6.588  11.968   8.686
39029SOL    HW117113   6.629  11.936   8.772
39029SOL    HW217114   6.492  11.941   8.683
39030SOL     OW17115   5.626  11.716   8.562
39030SOL    HW117116   5.711  11.683   8.521
39030SOL    HW217117   5.639  11.731   8.660
39031SOL     OW17118   5.775  11.692   9.170
39031SOL    HW117119   5.834  11.652   9.100
39031SOL    HW217120   5.717  11.763   9.129
39032SOL     OW17121   6.955  12.122   9.108
39032SOL    HW117122   6.994  12.211   9.128
39032SOL    HW217123   6.965  12.102   9.011
39033SOL     OW17124   6.401  11.744   7.773
39033SOL    HW117125   6.408  11.655   7.727
39033SOL    HW217126   6.307  11.778   7.765
39034SOL     OW17127   7.243  11.776   8.654
39034SOL    HW117128   7.205  11.707   8.716
39034SOL    HW217129   7.325  11.740   8.610
39035SOL     OW17130   5.838  12.736   9.192
39035SOL    HW117131   5.808  12.793   9.268
39035SOL    HW217132   5.831  12.639   9.218
39036SOL     OW17133   6.257  11.636   8.717
39036SOL    HW117134   6.223  11.547   8.687
39036SOL    HW217135   6.283  11.690   8.637
39037SOL     OW17136   6.059  11.672   7.639
39037SOL    HW117137   6.120  11.752   7.643
39037SOL    HW217138   5.964  11.703   7.646
39038SOL     OW17139   5.745  12.309   8.914
39038SOL    HW117140   5.767  12.248   8.990
39038SOL    HW217141   5.755  12.260   8.828
39039SOL     OW17142   6.933  12.231   8.682
39039SOL    HW117143   6.957  12.168   8.608
39039SOL    HW217144   6.843  12.271   8.664
39040SOL     OW17145   6.888  12.027   7.757
39040SOL    HW117146   6.802  11.996   7.799
39040SOL    HW217147   6.884  12.013   7.658
39041SOL     OW17148   5.669  12.430   8.470
39041SOL    HW117149   5.664  12.429   8.570
39041SOL    HW217150   5.586  12.389   8.432
39042SOL     OW17151   7.312  11.307   7.971
39042SOL    HW117152   7.385  11.290   7.904
39042SOL    HW217153   7.281  11.220   8.009
39043SOL     OW17154   6.866  12.099   8.120
39043SOL    HW117155   6.926  12.018   8.122
39043SOL    HW217156   6.906  12.168   8.060
39044SOL     OW17157   6.416  12.445   8.870
39044SOL    HW117158   6.411  12.478   8.965
39044SOL    HW217159   6.330  12.464   8.824
39045SOL     OW17160   7.427  11.347   8.411
39045SOL    HW117161   7.466  11.262   8.375
39045SOL    HW217162   7.329  11.349   8.392
39046SOL     OW17163   5.849  11.498   8.168
39046SOL    HW117164   5.770  11.549   8.134
39046SOL    HW217165   5.840  11.483   8.266
39047SOL     OW17166   6.408  12.174   8.820
39047SOL    HW117167   6.448  12.173   8.728
39047SOL    HW217168   6.418  12.266   8.860
39048SOL     OW17169   6.502  12.082   7.739
39048SOL    HW117170   6.565  12.120   7.671
39048SOL    HW217171   6.542  11.999   7.778
39049SOL     OW17172   5.958  12.460   8.938
39049SOL    HW117173   5.945  12.553   8.904
39049SOL    HW217174   5.874  12.408   8.925
39050SOL     OW17175   7.200  12.464   8.737
39050SOL    HW117176   7.260  12.467   8.817
39050SOL    HW217177   7.125  12.528   8.750
39051SOL     OW17178   6.625  12.270   8.144
39051SOL    HW117179   6.555  12.223   8.198
39051SOL    HW217180   6.684  12.202   8.101
39052SOL     OW17181   6.600  11.408   8.419
39052SOL    HW117182   6.592  11.372   8.326
39052SOL    HW217183   6.598  11.332   8.484
39053SOL     OW17184   7.295  11.557   8.829
39053SOL    HW117185   7.368  11.626   8.833
39053SOL    HW217186   7.323  11.482   8.770
39054SOL     OW17187   5.841  12.520   7.738
39054SOL    HW117188   5.745  12.521   7.711
39054SOL    HW217189   5.853  12.573   7.822
39055SOL     OW17190   5.691  12.185   9.174
39055SOL    HW117191   5.614  12.152   9.228
39055SOL    HW217192   5.776  12.155   9.216
39056SOL     OW17193   6.258  11.375   8.937
39056SOL    HW117194   6.348  11.359   8.897
39056SOL    HW217195   6.266  11.380   9.036
39057SOL     OW17196   5.661  11.517   7.481
39057SOL    HW117197   5.569  11.489   7.452
39057SOL    HW217198   5.692  11.594   7.425
39058SOL     OW17199   7.026  12.028   8.846
39058SOL    HW117200   6.969  12.080   8.783
39058SOL    HW217201   7.122  12.040   8.822
39059SOL     OW17202   5.658  11.338   7.766
39059SOL    HW117203   5.641  11.421   7.712
39059SOL    HW217204   5.748  11.301   7.744
39060SOL     OW17205   6.769  12.507   7.567
39060SOL    HW117206   6.670  12.496   7.569
39060SOL    HW217207   6.803  12.522   7.660
39061SOL     OW17208   6.199  12.014   8.879
39061SOL    HW117209   6.255  12.095   8.862
39061SOL    HW217210   6.258  11.934   8.882
39062SOL     OW17211   6.302  11.737   9.156
39062SOL    HW117212   6.321  11.802   9.230
39062SOL    HW217213   6.362  11.657   9.165
39063SOL     OW17214   7.036  12.392   9.081
39063SOL    HW117215   7.027  12.382   9.180
39063SOL    HW217216   7.132  12.385   9.055
39064SOL     OW17217   7.260  12.055   8.702
39064SOL    HW117218   7.233  11.966   8.665
39064SOL    HW217219   7.261  12.123   8.629
39065SOL     OW17220   6.811  11.497   7.897
39065SOL    HW117221   6.876  11.423   7.886
39065SOL    HW217222   6.831  11.547   7.981
39066SOL     OW17223   6.180  11.917   8.100
39066SOL    HW117224   6.230  12.002   8.081
39066SOL    HW217225   6.092  11.919   8.052
39067SOL     OW17226   7.363  11.514   9.090
39067SOL    HW117227   7.346  11.545   8.996
39067SOL    HW217228   7.279  11.477   9.128
39068SOL     OW17229   7.316  12.106   8.965
39068SOL    HW117230   7.354  12.197   8.980
39068SOL    HW217231   7.308  12.089   8.866
39069SOL     OW17232   6.445  12.546   7.464
39069SOL    HW117233   6.399  12.561   7.552
39069SOL    HW217234   6.489  12.631   7.434
39070SOL     OW17235   6.445  12.128   8.309
39070SOL    HW117236   6.499  12.059   8.357
39070SOL    HW217237   6.413  12.197   8.375
39071SOL     OW17238   6.669  12.156   7.535
39071SOL    HW117239   6.646  12.209   7.453
39071SOL    HW217240   6.750  12.100   7.516
39072SOL     OW17241   5.807  12.486   9.292
39072SOL    HW117242   5.742  12.413   9.271
39072SOL    HW217243   5.811  12.500   9.390
39073SOL     OW17244   5.665  12.412   8.101
39073SOL    HW117245   5.664  12.365   8.189
39073SOL    HW217246   5.747  12.384   8.050
39074SOL     OW17247   6.258  12.563   9.072
39074SOL    HW117248   6.180  12.513   9.110
39074SOL    HW217249   6.255  12.658   9.103
39075SOL     OW17250   7.410  11.364   8.675
39075SOL    HW117251   7.406  11.274   8.719
39075SOL    HW217252   7.413  11.353   8.576
39076SOL     OW17253   6.014  11.596   7.968
39076SOL    HW117254   6.044  11.524   7.906
39076SOL    HW217255   5.975  11.556   8.051
39077SOL     OW17256   7.291  12.659   8.552
39077SOL    HW117257   7.198  12.634   8.525
39077SOL    HW217258   7.317  12.609   8.634
39078SOL     OW17259   5.903  11.719   8.728
39078SOL    HW117260   5.941  11.660   8.800
39078SOL    HW217261   5.943  11.693   8.640
39079SOL     OW17262   7.010  11.386   8.560
39079SOL    HW117263   7.062  11.321   8.615
39079SOL    HW217264   6.961  11.449   8.621
39080SOL     OW17265   6.587  11.206   8.602
39080SOL    HW117266   6.524  11.134   8.571
39080SOL    HW217267   6.680  11.170   8.602
39081SOL     OW17268   6.356  12.502   7.749
39081SOL    HW117269   6.310  12.415   7.766
39081SOL    HW217270   6.447  12.499   7.790
39082SOL     OW17271   6.204  12.739   8.732
39082SOL    HW117272   6.199  12.821   8.789
39082SOL    HW217273   6.293  12.736   8.687
39083SOL     OW17274   6.938  11.224   7.616
39083SOL    HW117275   6.973  11.183   7.532
39083SOL    HW217276   6.848  11.186   7.636
39084SOL     OW17277   6.886  11.625   8.139
39084SOL    HW117278   6.827  11.705   8.143
39084SOL    HW217279   6.901  11.590   8.232
39085SOL     OW17280   7.179  11.393   8.330
39085SOL    HW117281   7.095  11.392   8.384
39085SOL    HW217282   7.181  11.476   8.274
39086SOL     OW17283   5.625  12.249   7.748
39086SOL    HW117284   5.724  12.238   7.739
39086SOL    HW217285   5.585  12.163   7.780
39087SOL     OW17286   5.816  11.800   9.423
39087SOL    HW117287   5.723  11.798   9.460
39087SOL    HW217288   5.817  11.761   9.331
39088SOL     OW17289   5.811  11.447  10.306
39088SOL    HW117290   5.846  11.430  10.398
39088SOL    HW217291   5.723  11.402  10.294
39089SOL     OW17292   5.605  11.540   9.957
39089SOL    HW117293   5.523  11.583   9.996
39089SOL    HW217294   5.577  11.467   9.894
39090SOL     OW17295   6.155  12.447  10.475
39090SOL    HW117296   6.062  12.440  10.438
39090SOL    HW217297   6.166  12.536  10.519
39091SOL     OW17298   7.141  12.683  10.013
39091SOL    HW117299   7.084  12.667  10.094
39091SOL    HW217300   7.082  12.693   9.933
39092SOL     OW17301   6.721  11.875  10.027
39092SOL    HW117302   6.778  11.953  10.002
39092SOL    HW217303   6.661  11.901  10.103
39093SOL     OW17304   7.341  11.779   9.541
39093SOL    HW117305   7.329  11.766   9.442
39093SOL    HW217306   7.311  11.698   9.590
39094SOL     OW17307   6.354  12.316  10.333
39094SOL    HW117308   6.276  12.333  10.393
39094SOL    HW217309   6.388  12.403  10.297
39095SOL     OW17310   6.436  11.970  11.133
39095SOL    HW117311   6.432  12.046  11.198
39095SOL    HW217312   6.458  12.006  11.042
39096SOL     OW17313   6.271  12.184   9.975
39096SOL    HW117314   6.340  12.168  10.045
39096SOL    HW217315   6.198  12.241  10.013
39097SOL     OW17316   6.272  12.333  11.113
39097SOL    HW117317   6.332  12.412  11.127
39097SOL    HW217318   6.186  12.364  11.072
39098SOL     OW17319   5.921  12.607  10.371
39098SOL    HW117320   5.843  12.576  10.318
39098SOL    HW217321   5.979  12.665  10.314
39099SOL     OW17322   7.046  12.677  10.649
39099SOL    HW117323   7.070  12.771  10.675
39099SOL    HW217324   7.030  12.623  10.731
39100SOL     OW17325   6.024  11.564  10.809
39100SOL    HW117326   6.106  11.508  10.818
39100SOL    HW217327   5.943  11.506  10.813
39101SOL     OW17328   7.189  11.619  10.047
39101SOL    HW117329   7.115  11.665   9.997
39101SOL    HW217330   7.240  11.687  10.100
39102SOL     OW17331   5.817  12.885   9.793
39102SOL    HW117332   5.851  12.962   9.847
39102SOL    HW217333   5.861  12.885   9.703
39103SOL     OW17334   6.713  12.513  11.000
39103SOL    HW117335   6.760  12.513  11.088
39103SOL    HW217336   6.665  12.426  10.989
39104SOL     OW17337   5.816  12.606   9.848
39104SOL    HW117338   5.790  12.702   9.848
39104SOL    HW217339   5.745  12.552   9.893
39105SOL     OW17340   5.826  12.263  10.196
39105SOL    HW117341   5.840  12.179  10.248
39105SOL    HW217342   5.771  12.327  10.251
39106SOL     OW17343   6.192  12.136   9.433
39106SOL    HW117344   6.199  12.220   9.379
39106SOL    HW217345   6.238  12.149   9.521
39107SOL     OW17346   7.180  11.286  10.790
39107SOL    HW117347   7.162  11.353  10.718
39107SOL    HW217348   7.177  11.332  10.879
39108SOL     OW17349   5.708  11.815   9.873
39108SOL    HW117350   5.663  11.727   9.890
39108SOL    HW217351   5.707  11.869   9.957
39109SOL     OW17352   5.613  12.768   9.427
39109SOL    HW117353   5.594  12.672   9.448
39109SOL    HW217354   5.580  12.826   9.502
39110SOL     OW17355   7.275  12.094   9.922
39110SOL    HW117356   7.370  12.065   9.930
39110SOL    HW217357   7.267  12.159   9.847
39111SOL     OW17358   7.227  12.280   9.742
39111SOL    HW117359   7.313  12.282   9.690
39111SOL    HW217360   7.241  12.327   9.830
39112SOL     OW17361   5.699  11.909  10.907
39112SOL    HW117362   5.787  11.896  10.952
39112SOL    HW217363   5.686  12.006  10.885
39113SOL     OW17364   6.199  12.537  10.036
39113SOL    HW117365   6.150  12.450  10.045
39113SOL    HW217366   6.176  12.580   9.949
39114SOL     OW17367   6.879  12.400  10.733
39114SOL    HW117368   6.916  12.327  10.675
39114SOL    HW217369   6.931  12.405  10.818
39115SOL     OW17370   6.395  11.176   9.812
39115SOL    HW117371   6.435  11.267   9.803
39115SOL    HW217372   6.295  11.184   9.818
39116SOL     OW17373   5.783  12.148  10.574
39116SOL    HW117374   5.872  12.103  10.560
39116SOL    HW217375   5.710  12.083  10.555
39117SOL     OW17376   7.111  12.171   9.500
39117SOL    HW117377   7.048  12.095   9.513
39117SOL    HW217378   7.159  12.189   9.586
39118SOL     OW17379   5.903  11.423  11.111
39118SOL    HW117380   5.974  11.494  11.117
39118SOL    HW217381   5.815  11.462  11.139
39119SOL     OW17382   7.052  12.589  10.263
39119SOL    HW117383   6.993  12.595  10.343
39119SOL    HW217384   7.037  12.501  10.217
39120SOL     OW17385   6.184  11.901   9.580
39120SOL    HW117386   6.208  11.970   9.512
39120SOL    HW217387   6.106  11.934   9.634
39121SOL     OW17388   6.867  11.517  10.254
39121SOL    HW117389   6.781  11.467  10.241
39121SOL    HW217390   6.929  11.463  10.310
39122SOL     OW17391   6.393  11.777  10.775
39122SOL    HW117392   6.346  11.774  10.864
39122SOL    HW217393   6.342  11.722  10.709
39123SOL     OW17394   6.980  11.641  10.984
39123SOL    HW117395   6.960  11.684  11.072
39123SOL    HW217396   7.058  11.579  10.993
39124SOL     OW17397   6.559  12.062  10.882
39124SOL    HW117398   6.605  11.978  10.853
39124SOL    HW217399   6.503  12.096  10.807
39125SOL     OW17400   6.577  11.582  10.552
39125SOL    HW117401   6.500  11.616  10.606
39125SOL    HW217402   6.543  11.531  10.473
39126SOL     OW17403   6.627  11.873   9.739
39126SOL    HW117404   6.653  11.869   9.835
39126SOL    HW217405   6.542  11.822   9.725
39127SOL     OW17406   5.662  11.983  10.099
39127SOL    HW117407   5.761  11.971  10.108
39127SOL    HW217408   5.638  12.078  10.120
39128SOL     OW17409   6.451  11.520   9.505
39128SOL    HW117410   6.510  11.583   9.456
39128SOL    HW217411   6.470  11.426   9.476
39129SOL     OW17412   7.305  11.757  11.141
39129SOL    HW117413   7.279  11.846  11.105
39129SOL    HW217414   7.303  11.689  11.068
39130SOL     OW17415   6.948  12.316   9.855
39130SOL    HW117416   7.031  12.287   9.807
39130SOL    HW217417   6.899  12.383   9.799
39131SOL     OW17418   6.136  11.368  10.195
39131SOL    HW117419   6.131  11.363  10.295
39131SOL    HW217420   6.138  11.464  10.166
39132SOL     OW17421   6.594  12.628   9.787
39132SOL    HW117422   6.548  12.700   9.735
39132SOL    HW217423   6.590  12.648   9.885
39133SOL     OW17424   7.381  12.238  10.183
39133SOL    HW117425   7.319  12.223  10.107
39133SOL    HW217426   7.329  12.249  10.268
39134SOL     OW17427   6.813  12.722  10.816
39134SOL    HW117428   6.819  12.645  10.880
39134SOL    HW217429   6.761  12.696  10.736
39135SOL     OW17430   5.907  12.115   9.552
39135SOL    HW117431   5.989  12.154   9.510
39135SOL    HW217432   5.880  12.033   9.503
39136SOL     OW17433   7.044  11.907  10.038
39136SOL    HW117434   7.039  11.842  10.113
39136SOL    HW217435   7.124  11.966  10.051
39137SOL     OW17436   6.047  12.438  11.037
39137SOL    HW117437   5.997  12.439  10.951
39137SOL    HW217438   5.984  12.420  11.113
39138SOL     OW17439   6.697  12.948   9.547
39138SOL    HW117440   6.637  12.886   9.597
39138SOL    HW217441   6.728  12.904   9.462
39139SOL     OW17442   5.788  11.457  10.808
39139SOL    HW117443   5.708  11.517  10.795
39139SOL    HW217444   5.778  11.408  10.894
39140SOL     OW17445   7.218  12.549   9.391
39140SOL    HW117446   7.186  12.643   9.381
39140SOL    HW217447   7.142  12.486   9.379
39141SOL     OW17448   6.986  11.279   9.736
39141SOL    HW117449   6.962  11.242   9.646
39141SOL    HW217450   7.085  11.295   9.740
39142SOL     OW17451   5.968  11.872   9.790
39142SOL    HW117452   6.013  11.782   9.787
39142SOL    HW217453   5.874  11.861   9.823
39143SOL     OW17454   7.133  11.394  11.039
39143SOL    HW117455   7.128  11.431  11.131
39143SOL    HW217456   7.061  11.325  11.027
39144SOL     OW17457   6.200  11.294   9.427
39144SOL    HW117458   6.298  11.272   9.434
39144SOL    HW217459   6.169  11.277   9.334
39145SOL     OW17460   6.367  11.436  11.059
39145SOL    HW117461   6.434  11.375  11.102
39145SOL    HW217462   6.294  11.455  11.124
39146SOL     OW17463   6.937  11.762  10.743
39146SOL    HW117464   6.965  11.719  10.828
39146SOL    HW217465   6.962  11.858  10.744
39147SOL     OW17466   6.389  12.574  10.234
39147SOL    HW117467   6.479  12.588  10.192
39147SOL    HW217468   6.318  12.576  10.163
39148SOL     OW17469   6.508  11.675  10.209
39148SOL    HW117470   6.483  11.666  10.113
39148SOL    HW217471   6.556  11.593  10.240
39149SOL     OW17472   6.125  11.236   9.822
39149SOL    HW117473   6.044  11.237   9.880
39149SOL    HW217474   6.128  11.319   9.767
39150SOL     OW17475   7.020  12.360   9.351
39150SOL    HW117476   7.052  12.284   9.408
39150SOL    HW217477   6.928  12.387   9.381
39151SOL     OW17478   5.883  11.207   9.481
39151SOL    HW117479   5.932  11.291   9.460
39151SOL    HW217480   5.945  11.142   9.526
39152SOL     OW17481   6.521  11.408   9.790
39152SOL    HW117482   6.473  11.449   9.712
39152SOL    HW217483   6.620  11.406   9.771
39153SOL     OW17484   6.662  11.855  10.774
39153SOL    HW117485   6.582  11.794  10.777
39153SOL    HW217486   6.743  11.802  10.750
39154SOL     OW17487   6.813  12.742  10.103
39154SOL    HW117488   6.834  12.816  10.038
39154SOL    HW217489   6.881  12.742  10.176
39155SOL     OW17490   6.045  12.324  10.051
39155SOL    HW117491   5.974  12.297  10.116
39155SOL    HW217492   6.019  12.296   9.958
39156SOL     OW17493   6.618  11.721   9.326
39156SOL    HW117494   6.577  11.803   9.287
39156SOL    HW217495   6.682  11.747   9.399
39157SOL     OW17496   5.664  11.728  10.696
39157SOL    HW117497   5.756  11.727  10.655
39157SOL    HW217498   5.658  11.802  10.763
39158SOL     OW17499   6.147  11.394  10.457
39158SOL    HW117500   6.185  11.310  10.494
39158SOL    HW217501   6.059  11.413  10.501
39159SOL     OW17502   6.452  11.626   9.952
39159SOL    HW117503   6.420  11.698   9.890
39159SOL    HW217504   6.476  11.545   9.899
39160SOL     OW17505   6.603  11.211  10.063
39160SOL    HW117506   6.531  11.216   9.994
39160SOL    HW217507   6.579  11.142  10.132
39161SOL     OW17508   7.015  12.345  10.177
39161SOL    HW117509   6.960  12.261  10.170
39161SOL    HW217510   7.041  12.374  10.085
39162SOL     OW17511   7.052  11.762  10.302
39162SOL    HW117512   7.022  11.667  10.309
39162SOL    HW217513   7.125  11.778  10.368
39163SOL     OW17514   7.443  12.005   9.687
39163SOL    HW117515   7.485  11.941   9.751
39163SOL    HW217516   7.405  11.954   9.609
39164SOL     OW17517   6.074  12.557   9.484
39164SOL    HW117518   5.987  12.542   9.531
39164SOL    HW217519   6.057  12.583   9.389
39165SOL     OW17520   7.250  12.452   9.967
39165SOL    HW117521   7.349  12.460   9.981
39165SOL    HW217522   7.205  12.536   9.998
39166SOL     OW17523   6.976  11.747   9.388
39166SOL    HW117524   6.922  11.726   9.469
39166SOL    HW217525   7.067  11.706   9.397
39167SOL     OW17526   6.113  11.428   9.638
39167SOL    HW117527   6.140  11.369   9.563
39167SOL    HW217528   6.113  11.523   9.607
39168SOL     OW17529   7.340  12.395  10.898
39168SOL    HW117530   7.431  12.356  10.885
39168SOL    HW217531   7.348  12.491  10.922
39169SOL     OW17532   6.650  12.519  10.650
39169SOL    HW117533   6.570  12.496  10.705
39169SOL    HW217534   6.733  12.493  10.699
39170SOL     OW17535   6.697  12.367  10.410
39170SOL    HW117536   6.657  12.411  10.491
39170SOL    HW217537   6.656  12.404  10.327
39171SOL     OW17538   7.224  12.271  10.389
39171SOL    HW117539   7.229  12.352  10.448
39171SOL    HW217540   7.138  12.273  10.338
39172SOL     OW17541   6.501  11.261  10.712
39172SOL    HW117542   6.526  11.241  10.617
39172SOL    HW217543   6.573  11.317  10.754
39173SOL     OW17544   6.566  12.288  11.029
39173SOL    HW117545   6.467  12.294  11.039
39173SOL    HW217546   6.589  12.208  10.973
39174SOL     OW17547   6.291  12.222   9.678
39174SOL    HW117548   6.277  12.229   9.777
39174SOL    HW217549   6.375  12.171   9.660
39175SOL     OW17550   5.996  11.985  10.561
39175SOL    HW117551   6.082  11.997  10.611
39175SOL    HW217552   5.954  11.898  10.588
39176SOL     OW17553   6.860  11.558  10.572
39176SOL    HW117554   6.881  11.632  10.636
39176SOL    HW217555   6.771  11.575  10.529
39177SOL     OW17556   5.953  12.272   9.811
39177SOL    HW117557   5.946  12.355   9.755
39177SOL    HW217558   5.957  12.192   9.751
39178SOL     OW17559   6.152  11.709  10.175
39178SOL    HW117560   6.164  11.775  10.101
39178SOL    HW217561   6.198  11.743  10.258
39179SOL     OW17562   6.838  12.520   9.698
39179SOL    HW117563   6.888  12.597   9.738
39179SOL    HW217564   6.743  12.522   9.730
39180SOL     OW17565   6.858  12.617  10.452
39180SOL    HW117566   6.905  12.630  10.539
39180SOL    HW217567   6.792  12.543  10.461
39181SOL     OW17568   7.168  11.811   9.782
39181SOL    HW117569   7.137  11.872   9.855
39181SOL    HW217570   7.218  11.863   9.713
39182SOL     OW17571   5.940  12.682  10.639
39182SOL    HW117572   5.919  12.638  10.552
39182SOL    HW217573   6.037  12.708  10.642
39183SOL     OW17574   5.988  11.923  10.908
39183SOL    HW117575   6.056  11.978  10.861
39183SOL    HW217576   6.028  11.835  10.935
39184SOL     OW17577   7.173  11.951  10.980
39184SOL    HW117578   7.081  11.989  10.975
39184SOL    HW217579   7.233  11.998  10.915
39185SOL     OW17580   6.599  11.277  11.080
39185SOL    HW117581   6.605  11.362  11.028
39185SOL    HW217582   6.631  11.201  11.023
39186SOL     OW17583   6.090  11.222  11.050
39186SOL    HW117584   6.048  11.165  10.980
39186SOL    HW217585   6.024  11.291  11.082
39187SOL     OW17586   6.159  12.042  10.339
39187SOL    HW117587   6.203  12.131  10.330
39187SOL    HW217588   6.096  12.042  10.416
39188SOL     OW17589   6.946  12.034  10.355
39188SOL    HW117590   6.871  12.034  10.289
39188SOL    HW217591   6.983  11.942  10.364
39189SOL     OW17592   6.795  11.697   9.585
39189SOL    HW117593   6.808  11.613   9.639
39189SOL    HW217594   6.766  11.771   9.645
39190SOL     OW17595   5.893  11.385  10.541
39190SOL    HW117596   5.870  11.422  10.631
39190SOL    HW217597   5.863  11.290  10.535
39191SOL     OW17598   5.623  12.482  10.592
39191SOL    HW117599   5.676  12.433  10.660
39191SOL    HW217600   5.645  12.580  10.597
39192SOL     OW17601   7.314  12.107  11.164
39192SOL    HW117602   7.268  12.100  11.075
39192SOL    HW217603   7.252  12.151  11.230
39193SOL     OW17604   5.893  11.235   9.928
39193SOL    HW117605   5.882  11.329   9.961
39193SOL    HW217606   5.888  11.172  10.005
39194SOL     OW17607   7.208  11.539   9.684
39194SOL    HW117608   7.210  11.463   9.748
39194SOL    HW217609   7.160  11.616   9.724
39195SOL     OW17610   6.609  11.938  10.276
39195SOL    HW117611   6.624  11.959  10.372
39195SOL    HW217612   6.579  11.843  10.267
39196SOL     OW17613   7.445  12.690  10.915
39196SOL    HW117614   7.459  12.717  10.820
39196SOL    HW217615   7.528  12.712  10.968
39197SOL     OW17616   5.936  12.070  11.114
39197SOL    HW117617   6.012  12.114  11.162
39197SOL    HW217618   5.971  12.023  11.032
39198SOL     OW17619   7.126  11.446   9.435
39198SOL    HW117620   7.065  11.371   9.458
39198SOL    HW217621   7.148  11.498   9.518
39199SOL     OW17622   6.889  12.010   9.352
39199SOL    HW117623   6.923  11.917   9.367
39199SOL    HW217624   6.907  12.037   9.257
39200SOL     OW17625   6.654  12.505  10.159
39200SOL    HW117626   6.661  12.421  10.104
39200SOL    HW217627   6.716  12.574  10.123
39201SOL     OW17628   5.905  11.982  10.259
39201SOL    HW117629   5.998  12.018  10.264
39201SOL    HW217630   5.899  11.897  10.311
39202SOL     OW17631   5.925  11.681  10.316
39202SOL    HW117632   5.873  11.598  10.299
39202SOL    HW217633   6.002  11.686  10.252
39203SOL     OW17634   6.724  11.552  10.988
39203SOL    HW117635   6.679  11.615  11.052
39203SOL    HW217636   6.817  11.583  10.971
39204SOL     OW17637   6.746  11.379  10.787
39204SOL    HW117638   6.746  11.443  10.864
39204SOL    HW217639   6.774  11.427  10.704
39205SOL     OW17640   5.594  12.498   9.510
39205SOL    HW117641   5.501  12.519   9.479
39205SOL    HW217642   5.604  12.399   9.523
39206SOL     OW17643   6.588  11.968  10.548
39206SOL    HW117644   6.629  11.936  10.634
39206SOL    HW217645   6.492  11.941  10.545
39207SOL     OW17646   5.626  11.716  10.424
39207SOL    HW117647   5.711  11.683  10.383
39207SOL    HW217648   5.639  11.731  10.522
39208SOL     OW17649   5.775  11.692  11.032
39208SOL    HW117650   5.834  11.652  10.962
39208SOL    HW217651   5.717  11.763  10.991
39209SOL     OW17652   6.955  12.122  10.970
39209SOL    HW117653   6.994  12.211  10.990
39209SOL    HW217654   6.965  12.102  10.873
39210SOL     OW17655   6.401  11.744   9.635
39210SOL    HW117656   6.408  11.655   9.589
39210SOL    HW217657   6.307  11.778   9.627
39211SOL     OW17658   7.243  11.776  10.516
39211SOL    HW117659   7.205  11.707  10.578
39211SOL    HW217660   7.325  11.740  10.472
39212SOL     OW17661   5.838  12.736  11.054
39212SOL    HW117662   5.808  12.793  11.130
39212SOL    HW217663   5.831  12.639  11.080
39213SOL     OW17664   6.257  11.636  10.579
39213SOL    HW117665   6.223  11.547  10.549
39213SOL    HW217666   6.283  11.690  10.499
39214SOL     OW17667   6.059  11.672   9.501
39214SOL    HW117668   6.120  11.752   9.505
39214SOL    HW217669   5.964  11.703   9.508
39215SOL     OW17670   5.745  12.309  10.776
39215SOL    HW117671   5.767  12.248  10.852
39215SOL    HW217672   5.755  12.260  10.690
39216SOL     OW17673   6.933  12.231  10.544
39216SOL    HW117674   6.957  12.168  10.470
39216SOL    HW217675   6.843  12.271  10.526
39217SOL     OW17676   6.888  12.027   9.619
39217SOL    HW117677   6.802  11.996   9.661
39217SOL    HW217678   6.884  12.013   9.520
39218SOL     OW17679   5.669  12.430  10.332
39218SOL    HW117680   5.664  12.429  10.432
39218SOL    HW217681   5.586  12.389  10.294
39219SOL     OW17682   7.312  11.307   9.833
39219SOL    HW117683   7.385  11.290   9.766
39219SOL    HW217684   7.281  11.220   9.871
39220SOL     OW17685   6.866  12.099   9.982
39220SOL    HW117686   6.926  12.018   9.984
39220SOL    HW217687   6.906  12.168   9.922
39221SOL     OW17688   6.416  12.445  10.732
39221SOL    HW117689   6.411  12.478  10.827
39221SOL    HW217690   6.330  12.464  10.686
39222SOL     OW17691   7.427  11.347  10.273
39222SOL    HW117692   7.466  11.262  10.237
39222SOL    HW217693   7.329  11.349  10.254
39223SOL     OW17694   5.849  11.498  10.030
39223SOL    HW117695   5.770  11.549   9.996
39223SOL    HW217696   5.840  11.483  10.128
39224SOL     OW17697   6.408  12.174  10.682
39224SOL    HW117698   6.448  12.173  10.590
39224SOL    HW217699   6.418  12.266  10.722
39225SOL     OW17700   6.502  12.082   9.601
39225SOL    HW117701   6.565  12.120   9.533
39225SOL    HW217702   6.542  11.999   9.640
39226SOL     OW17703   5.958  12.460  10.800
39226SOL    HW117704   5.945  12.553  10.766
39226SOL    HW217705   5.874  12.408  10.787
39227SOL     OW17706   7.200  12.464  10.599
39227SOL    HW117707   7.260  12.467  10.679
39227SOL    HW217708   7.125  12.528  10.612
39228SOL     OW17709   6.625  12.270  10.006
39228SOL    HW117710   6.555  12.223  10.060
39228SOL    HW217711   6.684  12.202   9.963
39229SOL     OW17712   6.600  11.408  10.281
39229SOL    HW117713   6.592  11.372  10.188
39229SOL    HW217714   6.598  11.332  10.346
39230SOL     OW17715   7.295  11.557  10.691
39230SOL    HW117716   7.368  11.626  10.695
39230SOL    HW217717   7.323  11.482  10.632
39231SOL     OW17718   5.841  12.520   9.600
39231SOL    HW117719   5.745  12.521   9.573
39231SOL    HW217720   5.853  12.573   9.684
39232SOL     OW17721   5.691  12.185  11.036
39232SOL    HW117722   5.614  12.152  11.090
39232SOL    HW217723   5.776  12.155  11.078
39233SOL     OW17724   6.258  11.375  10.799
39233SOL    HW117725   6.348  11.359  10.759
39233SOL    HW217726   6.266  11.380  10.898
39234SOL     OW17727   5.661  11.517   9.343
39234SOL    HW117728   5.569  11.489   9.314
39234SOL    HW217729   5.692  11.594   9.287
39235SOL     OW17730   7.026  12.028  10.708
39235SOL    HW117731   6.969  12.080  10.645
39235SOL    HW217732   7.122  12.040  10.684
39236SOL     OW17733   5.658  11.338   9.628
39236SOL    HW117734   5.641  11.421   9.574
39236SOL    HW217735   5.748  11.301   9.606
39237SOL     OW17736   6.769  12.507   9.429
39237SOL    HW117737   6.670  12.496   9.431
39237SOL    HW217738   6.803  12.522   9.522
39238SOL     OW17739   6.199  12.014  10.741
39238SOL    HW117740   6.255  12.095  10.724
39238SOL    HW217741   6.258  11.934  10.744
39239SOL     OW17742   6.302  11.737  11.018
39239SOL    HW117743   6.321  11.802  11.092
39239SOL    HW217744   6.362  11.657  11.027
39240SOL     OW17745   7.260  12.055  10.564
39240SOL    HW117746   7.233  11.966  10.527
39240SOL    HW217747   7.261  12.123  10.491
39241SOL     OW17748   6.811  11.497   9.759
39241SOL    HW117749   6.876  11.423   9.748
39241SOL    HW217750   6.831  11.547   9.843
39242SOL     OW17751   6.180  11.917   9.962
39242SOL    HW117752   6.230  12.002   9.943
39242SOL    HW217753   6.092  11.919   9.914
39243SOL     OW17754   7.363  11.514  10.952
39243SOL    HW117755   7.346  11.545  10.858
39243SOL    HW217756   7.279  11.477  10.990
39244SOL     OW17757   7.316  12.106  10.827
39244SOL    HW117758   7.354  12.197  10.842
39244SOL    HW217759   7.308  12.089  10.728
39245SOL     OW17760   6.445  12.546   9.326
39245SOL    HW117761   6.399  12.561   9.414
39245SOL    HW217762   6.489  12.631   9.296
39246SOL     OW17763   6.445  12.128  10.171
39246SOL    HW117764   6.499  12.059  10.219
39246SOL    HW217765   6.413  12.197  10.237
39247SOL     OW17766   6.669  12.156   9.397
39247SOL    HW117767   6.646  12.209   9.315
39247SOL    HW217768   6.750  12.100   9.378
39248SOL     OW17769   5.807  12.486  11.154
39248SOL    HW117770   5.742  12.413  11.133
39248SOL    HW217771   5.811  12.500  11.252
39249SOL     OW17772   5.665  12.412   9.963
39249SOL    HW117773   5.664  12.365  10.051
39249SOL    HW217774   5.747  12.384   9.912
39250SOL     OW17775   6.258  12.563  10.934
39250SOL    HW117776   6.180  12.513  10.972
39250SOL    HW217777   6.255  12.658  10.965
39251SOL     OW17778   7.410  11.364  10.537
39251SOL    HW117779   7.406  11.274  10.581
39251SOL    HW217780   7.413  11.353  10.438
39252SOL     OW17781   6.014  11.596   9.830
39252SOL    HW117782   6.044  11.524   9.768
39252SOL    HW217783   5.975  11.556   9.913
39253SOL     OW17784   7.291  12.659  10.414
39253SOL    HW117785   7.198  12.634  10.387
39253SOL    HW217786   7.317  12.609  10.496
39254SOL     OW17787   5.903  11.719  10.590
39254SOL    HW117788   5.941  11.660  10.662
39254SOL    HW217789   5.943  11.693  10.502
39255SOL     OW17790   7.010  11.386  10.422
39255SOL    HW117791   7.062  11.321  10.477
39255SOL    HW217792   6.961  11.449  10.483
39256SOL     OW17793   6.587  11.206  10.464
39256SOL    HW117794   6.524  11.134  10.433
39256SOL    HW217795   6.680  11.170  10.464
39257SOL     OW17796   6.356  12.502   9.611
39257SOL    HW117797   6.310  12.415   9.628
39257SOL    HW217798   6.447  12.499   9.652
39258SOL     OW17799   6.204  12.739  10.594
39258SOL    HW117800   6.199  12.821  10.651
39258SOL    HW217801   6.293  12.736  10.549
39259SOL     OW17802   6.938  11.224   9.478
39259SOL    HW117803   6.973  11.183   9.394
39259SOL    HW217804   6.848  11.186   9.498
39260SOL     OW17805   6.886  11.625  10.001
39260SOL    HW117806   6.827  11.705  10.005
39260SOL    HW217807   6.901  11.590  10.094
39261SOL     OW17808   7.179  11.393  10.192
39261SOL    HW117809   7.095  11.392  10.246
39261SOL    HW217810   7.181  11.476  10.136
39262SOL     OW17811   5.625  12.249   9.610
39262SOL    HW117812   5.724  12.238   9.601
39262SOL    HW217813   5.585  12.163   9.642
39263SOL     OW17814   5.816  11.800  11.285
39263SOL    HW117815   5.723  11.798  11.322
39263SOL    HW217816   5.817  11.761  11.193
39264SOL     OW17817   5.811  11.447  12.168
39264SOL    HW117818   5.846  11.430  12.260
39264SOL    HW217819   5.723  11.402  12.156
39265SOL     OW17820   5.605  11.540  11.819
39265SOL    HW117821   5.523  11.583  11.858
39265SOL    HW217822   5.577  11.467  11.756
39266SOL     OW17823   6.155  12.447  12.337
39266SOL    HW117824   6.062  12.440  12.300
39266SOL    HW217825   6.166  12.536  12.381
39267SOL     OW17826   7.141  12.683  11.875
39267SOL    HW117827   7.084  12.667  11.956
39267SOL    HW217828   7.082  12.693  11.795
39268SOL     OW17829   6.721  11.875  11.889
39268SOL    HW117830   6.778  11.953  11.864
39268SOL    HW217831   6.661  11.901  11.965
39269SOL     OW17832   7.341  11.779  11.403
39269SOL    HW117833   7.329  11.766  11.304
39269SOL    HW217834   7.311  11.698  11.452
39270SOL     OW17835   6.354  12.316  12.195
39270SOL    HW117836   6.276  12.333  12.255
39270SOL    HW217837   6.388  12.403  12.159
39271SOL     OW17838   6.271  12.184  11.837
39271SOL    HW117839   6.340  12.168  11.907
39271SOL    HW217840   6.198  12.241  11.875
39272SOL     OW17841   5.921  12.607  12.233
39272SOL    HW117842   5.843  12.576  12.180
39272SOL    HW217843   5.979  12.665  12.176
39273SOL     OW17844   7.046  12.677  12.511
39273SOL    HW117845   7.070  12.771  12.537
39273SOL    HW217846   7.030  12.623  12.593
39274SOL     OW17847   6.024  11.564  12.671
39274SOL    HW117848   6.106  11.508  12.680
39274SOL    HW217849   5.943  11.506  12.675
39275SOL     OW17850   7.189  11.619  11.909
39275SOL    HW117851   7.115  11.665  11.859
39275SOL    HW217852   7.240  11.687  11.962
39276SOL     OW17853   5.817  12.885  11.655
39276SOL    HW117854   5.851  12.962  11.709
39276SOL    HW217855   5.861  12.885  11.565
39277SOL     OW17856   5.816  12.606  11.710
39277SOL    HW117857   5.790  12.702  11.710
39277SOL    HW217858   5.745  12.552  11.755
39278SOL     OW17859   5.826  12.263  12.058
39278SOL    HW117860   5.840  12.179  12.110
39278SOL    HW217861   5.771  12.327  12.113
39279SOL     OW17862   6.192  12.136  11.295
39279SOL    HW117863   6.199  12.220  11.241
39279SOL    HW217864   6.238  12.149  11.383
39280SOL     OW17865   7.180  11.286  12.652
39280SOL    HW117866   7.162  11.353  12.580
39280SOL    HW217867   7.177  11.332  12.741
39281SOL     OW17868   5.708  11.815  11.735
39281SOL    HW117869   5.663  11.727  11.752
39281SOL    HW217870   5.707  11.869  11.819
39282SOL     OW17871   5.613  12.768  11.289
39282SOL    HW117872   5.594  12.672  11.310
39282SOL    HW217873   5.580  12.826  11.364
39283SOL     OW17874   7.275  12.094  11.784
39283SOL    HW117875   7.370  12.065  11.792
39283SOL    HW217876   7.267  12.159  11.709
39284SOL     OW17877   7.227  12.280  11.604
39284SOL    HW117878   7.313  12.282  11.552
39284SOL    HW217879   7.241  12.327  11.692
39285SOL     OW17880   6.199  12.537  11.898
39285SOL    HW117881   6.150  12.450  11.907
39285SOL    HW217882   6.176  12.580  11.811
39286SOL     OW17883   6.395  11.176  11.674
39286SOL    HW117884   6.435  11.267  11.665
39286SOL    HW217885   6.295  11.184  11.680
39287SOL     OW17886   5.783  12.148  12.436
39287SOL    HW117887   5.872  12.103  12.422
39287SOL    HW217888   5.710  12.083  12.417
39288SOL     OW17889   7.111  12.171  11.362
39288SOL    HW117890   7.048  12.095  11.375
39288SOL    HW217891   7.159  12.189  11.448
39289SOL     OW17892   5.903  11.423  12.973
39289SOL    HW117893   5.974  11.494  12.979
39289SOL    HW217894   5.815  11.462  13.001
39290SOL     OW17895   7.052  12.589  12.125
39290SOL    HW117896   6.993  12.595  12.205
39290SOL    HW217897   7.037  12.501  12.079
39291SOL     OW17898   6.184  11.901  11.442
39291SOL    HW117899   6.208  11.970  11.374
39291SOL    HW217900   6.106  11.934  11.496
39292SOL     OW17901   6.867  11.517  12.116
39292SOL    HW117902   6.781  11.467  12.103
39292SOL    HW217903   6.929  11.463  12.172
39293SOL     OW17904   6.393  11.777  12.637
39293SOL    HW117905   6.346  11.774  12.726
39293SOL    HW217906   6.342  11.722  12.571
39294SOL     OW17907   6.577  11.582  12.414
39294SOL    HW117908   6.500  11.616  12.468
39294SOL    HW217909   6.543  11.531  12.335
39295SOL     OW17910   6.627  11.873  11.601
39295SOL    HW117911   6.653  11.869  11.697
39295SOL    HW217912   6.542  11.822  11.587
39296SOL     OW17913   5.662  11.983  11.961
39296SOL    HW117914   5.761  11.971  11.970
39296SOL    HW217915   5.638  12.078  11.982
39297SOL     OW17916   6.451  11.520  11.367
39297SOL    HW117917   6.510  11.583  11.318
39297SOL    HW217918   6.470  11.426  11.338
39298SOL     OW17919   6.948  12.316  11.717
39298SOL    HW117920   7.031  12.287  11.669
39298SOL    HW217921   6.899  12.383  11.661
39299SOL     OW17922   6.136  11.368  12.057
39299SOL    HW117923   6.131  11.363  12.157
39299SOL    HW217924   6.138  11.464  12.028
39300SOL     OW17925   6.594  12.628  11.649
39300SOL    HW117926   6.548  12.700  11.597
39300SOL    HW217927   6.590  12.648  11.747
39301SOL     OW17928   7.381  12.238  12.045
39301SOL    HW117929   7.319  12.223  11.969
39301SOL    HW217930   7.329  12.249  12.130
39302SOL     OW17931   5.907  12.115  11.414
39302SOL    HW117932   5.989  12.154  11.372
39302SOL    HW217933   5.880  12.033  11.365
39303SOL     OW17934   7.044  11.907  11.900
39303SOL    HW117935   7.039  11.842  11.975
39303SOL    HW217936   7.124  11.966  11.913
39304SOL     OW17937   6.697  12.948  11.409
39304SOL    HW117938   6.637  12.886  11.459
39304SOL    HW217939   6.728  12.904  11.324
39305SOL     OW17940   5.788  11.457  12.670
39305SOL    HW117941   5.708  11.517  12.657
39305SOL    HW217942   5.778  11.408  12.756
39306SOL     OW17943   7.218  12.549  11.253
39306SOL    HW117944   7.186  12.643  11.243
39306SOL    HW217945   7.142  12.486  11.241
39307SOL     OW17946   6.986  11.279  11.598
39307SOL    HW117947   6.962  11.242  11.508
39307SOL    HW217948   7.085  11.295  11.602
39308SOL     OW17949   5.968  11.872  11.652
39308SOL    HW117950   6.013  11.782  11.649
39308SOL    HW217951   5.874  11.861  11.685
39309SOL     OW17952   6.200  11.294  11.289
39309SOL    HW117953   6.298  11.272  11.296
39309SOL    HW217954   6.169  11.277  11.196
39310SOL     OW17955   6.389  12.574  12.096
39310SOL    HW117956   6.479  12.588  12.054
39310SOL    HW217957   6.318  12.576  12.025
39311SOL     OW17958   6.508  11.675  12.071
39311SOL    HW117959   6.483  11.666  11.975
39311SOL    HW217960   6.556  11.593  12.102
39312SOL     OW17961   6.125  11.236  11.684
39312SOL    HW117962   6.044  11.237  11.742
39312SOL    HW217963   6.128  11.319  11.629
39313SOL     OW17964   7.020  12.360  11.213
39313SOL    HW117965   7.052  12.284  11.270
39313SOL    HW217966   6.928  12.387  11.243
39314SOL     OW17967   5.883  11.207  11.343
39314SOL    HW117968   5.932  11.291  11.322
39314SOL    HW217969   5.945  11.142  11.388
39315SOL     OW17970   6.521  11.408  11.652
39315SOL    HW117971   6.473  11.449  11.574
39315SOL    HW217972   6.620  11.406  11.633
39316SOL     OW17973   6.813  12.742  11.965
39316SOL    HW117974   6.834  12.816  11.900
39316SOL    HW217975   6.881  12.742  12.038
39317SOL     OW17976   6.045  12.324  11.913
39317SOL    HW117977   5.974  12.297  11.978
39317SOL    HW217978   6.019  12.296  11.820
39318SOL     OW17979   6.618  11.721  11.188
39318SOL    HW117980   6.577  11.803  11.149
39318SOL    HW217981   6.682  11.747  11.261
39319SOL     OW17982   5.664  11.728  12.558
39319SOL    HW117983   5.756  11.727  12.517
39319SOL    HW217984   5.658  11.802  12.625
39320SOL     OW17985   6.147  11.394  12.319
39320SOL    HW117986   6.185  11.310  12.356
39320SOL    HW217987   6.059  11.413  12.363
39321SOL     OW17988   6.452  11.626  11.814
39321SOL    HW117989   6.420  11.698  11.752
39321SOL    HW217990   6.476  11.545  11.761
39322SOL     OW17991   6.603  11.211  11.925
39322SOL    HW117992   6.531  11.216  11.856
39322SOL    HW217993   6.579  11.142  11.994
39323SOL     OW17994   7.015  12.345  12.039
39323SOL    HW117995   6.960  12.261  12.032
39323SOL    HW217996   7.041  12.374  11.947
39324SOL     OW17997   7.052  11.762  12.164
39324SOL    HW117998   7.022  11.667  12.171
39324SOL    HW217999   7.125  11.778  12.230
39325SOL     OW18000   7.443  12.005  11.549
39325SOL    HW118001   7.485  11.941  11.613
39325SOL    HW218002   7.405  11.954  11.471
39326SOL     OW18003   6.074  12.557  11.346
39326SOL    HW118004   5.987  12.542  11.393
39326SOL    HW218005   6.057  12.583  11.251
39327SOL     OW18006   7.250  12.452  11.829
39327SOL    HW118007   7.349  12.460  11.843
39327SOL    HW218008   7.205  12.536  11.860
39328SOL     OW18009   6.976  11.747  11.250
39328SOL    HW118010   6.922  11.726  11.331
39328SOL    HW218011   7.067  11.706  11.259
39329SOL     OW18012   6.113  11.428  11.500
39329SOL    HW118013   6.140  11.369  11.425
39329SOL    HW218014   6.113  11.523  11.469
39330SOL     OW18015   6.650  12.519  12.512
39330SOL    HW118016   6.570  12.496  12.567
39330SOL    HW218017   6.733  12.493  12.561
39331SOL     OW18018   6.697  12.367  12.272
39331SOL    HW118019   6.657  12.411  12.353
39331SOL    HW218020   6.656  12.404  12.189
39332SOL     OW18021   7.224  12.271  12.251
39332SOL    HW118022   7.229  12.352  12.310
39332SOL    HW218023   7.138  12.273  12.200
39333SOL     OW18024   6.501  11.261  12.574
39333SOL    HW118025   6.526  11.241  12.479
39333SOL    HW218026   6.573  11.317  12.616
39334SOL     OW18027   6.291  12.222  11.540
39334SOL    HW118028   6.277  12.229  11.639
39334SOL    HW218029   6.375  12.171  11.522
39335SOL     OW18030   5.996  11.985  12.423
39335SOL    HW118031   6.082  11.997  12.473
39335SOL    HW218032   5.954  11.898  12.450
39336SOL     OW18033   6.860  11.558  12.434
39336SOL    HW118034   6.881  11.632  12.498
39336SOL    HW218035   6.771  11.575  12.391
39337SOL     OW18036   5.953  12.272  11.673
39337SOL    HW118037   5.946  12.355  11.617
39337SOL    HW218038   5.957  12.192  11.613
39338SOL     OW18039   6.152  11.709  12.037
39338SOL    HW118040   6.164  11.775  11.963
39338SOL    HW218041   6.198  11.743  12.120
39339SOL     OW18042   6.838  12.520  11.560
39339SOL    HW118043   6.888  12.597  11.600
39339SOL    HW218044   6.743  12.522  11.592
39340SOL     OW18045   6.858  12.617  12.314
39340SOL    HW118046   6.905  12.630  12.401
39340SOL    HW218047   6.792  12.543  12.323
39341SOL     OW18048   7.168  11.811  11.644
39341SOL    HW118049   7.137  11.872  11.717
39341SOL    HW218050   7.218  11.863  11.575
39342SOL     OW18051   5.940  12.682  12.501
39342SOL    HW118052   5.919  12.638  12.414
39342SOL    HW218053   6.037  12.708  12.504
39343SOL     OW18054   5.988  11.923  12.770
39343SOL    HW118055   6.056  11.978  12.723
39343SOL    HW218056   6.028  11.835  12.797
39344SOL     OW18057   7.173  11.951  12.842
39344SOL    HW118058   7.081  11.989  12.837
39344SOL    HW218059   7.233  11.998  12.777
39345SOL     OW18060   6.159  12.042  12.201
39345SOL    HW118061   6.203  12.131  12.192
39345SOL    HW218062   6.096  12.042  12.278
39346SOL     OW18063   6.946  12.034  12.217
39346SOL    HW118064   6.871  12.034  12.151
39346SOL    HW218065   6.983  11.942  12.226
39347SOL     OW18066   6.795  11.697  11.447
39347SOL    HW118067   6.808  11.613  11.501
39347SOL    HW218068   6.766  11.771  11.507
39348SOL     OW18069   5.623  12.482  12.454
39348SOL    HW118070   5.676  12.433  12.522
39348SOL    HW218071   5.645  12.580  12.459
39349SOL     OW18072   6.318  11.806  12.236
39349SOL    HW118073   6.377  11.780  12.160
39349SOL    HW218074   6.290  11.902  12.225
39350SOL     OW18075   5.893  11.235  11.790
39350SOL    HW118076   5.882  11.329  11.823
39350SOL    HW218077   5.888  11.172  11.867
39351SOL     OW18078   7.208  11.539  11.546
39351SOL    HW118079   7.210  11.463  11.610
39351SOL    HW218080   7.160  11.616  11.586
39352SOL     OW18081   6.609  11.938  12.138
39352SOL    HW118082   6.624  11.959  12.234
39352SOL    HW218083   6.579  11.843  12.129
39353SOL     OW18084   7.126  11.446  11.297
39353SOL    HW118085   7.065  11.371  11.320
39353SOL    HW218086   7.148  11.498  11.380
39354SOL     OW18087   6.889  12.010  11.214
39354SOL    HW118088   6.923  11.917  11.229
39354SOL    HW218089   6.907  12.037  11.119
39355SOL     OW18090   6.654  12.505  12.021
39355SOL    HW118091   6.661  12.421  11.966
39355SOL    HW218092   6.716  12.574  11.985
39356SOL     OW18093   5.905  11.982  12.121
39356SOL    HW118094   5.998  12.018  12.126
39356SOL    HW218095   5.899  11.897  12.173
39357SOL     OW18096   5.925  11.681  12.178
39357SOL    HW118097   5.873  11.598  12.161
39357SOL    HW218098   6.002  11.686  12.114
39358SOL     OW18099   6.724  11.552  12.850
39358SOL    HW118100   6.679  11.615  12.914
39358SOL    HW218101   6.817  11.583  12.833
39359SOL     OW18102   6.746  11.379  12.649
39359SOL    HW118103   6.746  11.443  12.726
39359SOL    HW218104   6.774  11.427  12.566
39360SOL     OW18105   5.594  12.498  11.372
39360SOL    HW118106   5.501  12.519  11.341
39360SOL    HW218107   5.604  12.399  11.385
39361SOL     OW18108   6.588  11.968  12.410
39361SOL    HW118109   6.629  11.936  12.496
39361SOL    HW218110   6.492  11.941  12.407
39362SOL     OW18111   5.626  11.716  12.286
39362SOL    HW118112   5.711  11.683  12.245
39362SOL    HW218113   5.639  11.731  12.384
39363SOL     OW18114   6.401  11.744  11.497
39363SOL    HW118115   6.408  11.655  11.451
39363SOL    HW218116   6.307  11.778  11.489
39364SOL     OW18117   7.243  11.776  12.378
39364SOL    HW118118   7.205  11.707  12.440
39364SOL    HW218119   7.325  11.740  12.334
39365SOL     OW18120   6.257  11.636  12.441
39365SOL    HW118121   6.223  11.547  12.411
39365SOL    HW218122   6.283  11.690  12.361
39366SOL     OW18123   6.059  11.672  11.363
39366SOL    HW118124   6.120  11.752  11.367
39366SOL    HW218125   5.964  11.703  11.370
39367SOL     OW18126   5.745  12.309  12.638
39367SOL    HW118127   5.767  12.248  12.714
39367SOL    HW218128   5.755  12.260  12.552
39368SOL     OW18129   6.933  12.231  12.406
39368SOL    HW118130   6.957  12.168  12.332
39368SOL    HW218131   6.843  12.271  12.388
39369SOL     OW18132   6.888  12.027  11.481
39369SOL    HW118133   6.802  11.996  11.523
39369SOL    HW218134   6.884  12.013  11.382
39370SOL     OW18135   5.669  12.430  12.194
39370SOL    HW118136   5.664  12.429  12.294
39370SOL    HW218137   5.586  12.389  12.156
39371SOL     OW18138   7.312  11.307  11.695
39371SOL    HW118139   7.385  11.290  11.628
39371SOL    HW218140   7.281  11.220  11.733
39372SOL     OW18141   6.866  12.099  11.844
39372SOL    HW118142   6.926  12.018  11.846
39372SOL    HW218143   6.906  12.168  11.784
39373SOL     OW18144   7.427  11.347  12.135
39373SOL    HW118145   7.466  11.262  12.099
39373SOL    HW218146   7.329  11.349  12.116
39374SOL     OW18147   5.849  11.498  11.892
39374SOL    HW118148   5.770  11.549  11.858
39374SOL    HW218149   5.840  11.483  11.990
39375SOL     OW18150   6.408  12.174  12.544
39375SOL    HW118151   6.448  12.173  12.452
39375SOL    HW218152   6.418  12.266  12.584
39376SOL     OW18153   6.502  12.082  11.463
39376SOL    HW118154   6.565  12.120  11.395
39376SOL    HW218155   6.542  11.999  11.502
39377SOL     OW18156   5.958  12.460  12.662
39377SOL    HW118157   5.945  12.553  12.628
39377SOL    HW218158   5.874  12.408  12.649
39378SOL     OW18159   7.200  12.464  12.461
39378SOL    HW118160   7.260  12.467  12.541
39378SOL    HW218161   7.125  12.528  12.474
39379SOL     OW18162   6.625  12.270  11.868
39379SOL    HW118163   6.555  12.223  11.922
39379SOL    HW218164   6.684  12.202  11.825
39380SOL     OW18165   6.600  11.408  12.143
39380SOL    HW118166   6.592  11.372  12.050
39380SOL    HW218167   6.598  11.332  12.208
39381SOL     OW18168   7.295  11.557  12.553
39381SOL    HW118169   7.368  11.626  12.557
39381SOL    HW218170   7.323  11.482  12.494
39382SOL     OW18171   5.841  12.520  11.462
39382SOL    HW118172   5.745  12.521  11.435
39382SOL    HW218173   5.853  12.573  11.546
39383SOL     OW18174   5.661  11.517  11.205
39383SOL    HW118175   5.569  11.489  11.176
39383SOL    HW218176   5.692  11.594  11.149
39384SOL     OW18177   7.026  12.028  12.570
39384SOL    HW118178   6.969  12.080  12.507
39384SOL    HW218179   7.122  12.040  12.546
39385SOL     OW18180   5.658  11.338  11.490
39385SOL    HW118181   5.641  11.421  11.436
39385SOL    HW218182   5.748  11.301  11.468
39386SOL     OW18183   6.769  12.507  11.291
39386SOL    HW118184   6.670  12.496  11.293
39386SOL    HW218185   6.803  12.522  11.384
39387SOL     OW18186   6.199  12.014  12.603
39387SOL    HW118187   6.255  12.095  12.586
39387SOL    HW218188   6.258  11.934  12.606
39388SOL     OW18189   7.260  12.055  12.426
39388SOL    HW118190   7.233  11.966  12.389
39388SOL    HW218191   7.261  12.123  12.353
39389SOL     OW18192   6.811  11.497  11.621
39389SOL    HW118193   6.876  11.423  11.610
39389SOL    HW218194   6.831  11.547  11.705
39390SOL     OW18195   6.180  11.917  11.824
39390SOL    HW118196   6.230  12.002  11.805
39390SOL    HW218197   6.092  11.919  11.776
39391SOL     OW18198   7.363  11.514  12.814
39391SOL    HW118199   7.346  11.545  12.720
39391SOL    HW218200   7.279  11.477  12.852
39392SOL     OW18201   7.316  12.106  12.689
39392SOL    HW118202   7.354  12.197  12.704
39392SOL    HW218203   7.308  12.089  12.590
39393SOL     OW18204   6.445  12.546  11.188
39393SOL    HW118205   6.399  12.561  11.276
39393SOL    HW218206   6.489  12.631  11.158
39394SOL     OW18207   6.445  12.128  12.033
39394SOL    HW118208   6.499  12.059  12.081
39394SOL    HW218209   6.413  12.197  12.099
39395SOL     OW18210   6.669  12.156  11.259
39395SOL    HW118211   6.646  12.209  11.177
39395SOL    HW218212   6.750  12.100  11.240
39396SOL     OW18213   5.665  12.412  11.825
39396SOL    HW118214   5.664  12.365  11.913
39396SOL    HW218215   5.747  12.384  11.774
39397SOL     OW18216   7.410  11.364  12.399
39397SOL    HW118217   7.406  11.274  12.443
39397SOL    HW218218   7.413  11.353  12.300
39398SOL     OW18219   6.014  11.596  11.692
39398SOL    HW118220   6.044  11.524  11.630
39398SOL    HW218221   5.975  11.556  11.775
39399SOL     OW18222   7.291  12.659  12.276
39399SOL    HW118223   7.198  12.634  12.249
39399SOL    HW218224   7.317  12.609  12.358
39400SOL     OW18225   5.903  11.719  12.452
39400SOL    HW118226   5.941  11.660  12.524
39400SOL    HW218227   5.943  11.693  12.364
39401SOL     OW18228   7.010  11.386  12.284
39401SOL    HW118229   7.062  11.321  12.339
39401SOL    HW218230   6.961  11.449  12.345
39402SOL     OW18231   6.587  11.206  12.326
39402SOL    HW118232   6.524  11.134  12.295
39402SOL    HW218233   6.680  11.170  12.326
39403SOL     OW18234   6.356  12.502  11.473
39403SOL    HW118235   6.310  12.415  11.490
39403SOL    HW218236   6.447  12.499  11.514
39404SOL     OW18237   6.204  12.739  12.456
39404SOL    HW118238   6.199  12.821  12.513
39404SOL    HW218239   6.293  12.736  12.411
39405SOL     OW18240   6.938  11.224  11.340
39405SOL    HW118241   6.973  11.183  11.256
39405SOL    HW218242   6.848  11.186  11.360
39406SOL     OW18243   6.886  11.625  11.863
39406SOL    HW118244   6.827  11.705  11.867
39406SOL    HW218245   6.901  11.590  11.956
39407SOL     OW18246   7.179  11.393  12.054
39407SOL    HW118247   7.095  11.392  12.108
39407SOL    HW218248   7.181  11.476  11.998
39408SOL     OW18249   5.625  12.249  11.472
39408SOL    HW118250   5.724  12.238  11.463
39408SOL    HW218251   5.585  12.163  11.504
39409SOL     OW18252   7.678   0.628   0.113
39409SOL    HW118253   7.585   0.626   0.150
39409SOL    HW218254   7.679   0.589   0.021
39410SOL     OW18255   7.673   0.275   0.996
39410SOL    HW118256   7.708   0.258   1.088
39410SOL    HW218257   7.585   0.230   0.984
39411SOL     OW18258   7.467   0.368   0.647
39411SOL    HW118259   7.385   0.411   0.686
39411SOL    HW218260   7.439   0.295   0.584
39412SOL     OW18261   8.017   1.275   1.165
39412SOL    HW118262   7.924   1.268   1.128
39412SOL    HW218263   8.028   1.364   1.209
39413SOL     OW18264   9.003   1.511   0.703
39413SOL    HW118265   8.946   1.495   0.784
39413SOL    HW218266   8.944   1.521   0.623
39414SOL     OW18267   8.583   0.703   0.717
39414SOL    HW118268   8.640   0.781   0.692
39414SOL    HW218269   8.523   0.729   0.793
39415SOL     OW18270   9.203   0.607   0.231
39415SOL    HW118271   9.191   0.594   0.132
39415SOL    HW218272   9.173   0.526   0.280
39416SOL     OW18273   8.216   1.144   1.023
39416SOL    HW118274   8.138   1.161   1.083
39416SOL    HW218275   8.250   1.231   0.987
39417SOL     OW18276   8.298   0.798   1.823
39417SOL    HW118277   8.294   0.874   1.888
39417SOL    HW218278   8.320   0.834   1.732
39418SOL     OW18279   8.133   1.012   0.665
39418SOL    HW118280   8.202   0.996   0.735
39418SOL    HW218281   8.060   1.069   0.703
39419SOL     OW18282   8.134   1.161   1.803
39419SOL    HW118283   8.194   1.240   1.817
39419SOL    HW218284   8.048   1.192   1.762
39420SOL     OW18285   7.783   1.435   1.061
39420SOL    HW118286   7.705   1.404   1.008
39420SOL    HW218287   7.841   1.493   1.004
39421SOL     OW18288   8.908   1.505   1.339
39421SOL    HW118289   8.932   1.599   1.365
39421SOL    HW218290   8.892   1.451   1.421
39422SOL     OW18291   7.886   0.392   1.499
39422SOL    HW118292   7.968   0.336   1.508
39422SOL    HW218293   7.805   0.334   1.503
39423SOL     OW18294   9.051   0.447   0.737
39423SOL    HW118295   8.977   0.493   0.687
39423SOL    HW218296   9.102   0.515   0.790
39424SOL     OW18297   7.679   1.713   0.483
39424SOL    HW118298   7.713   1.790   0.537
39424SOL    HW218299   7.723   1.713   0.393
39425SOL     OW18300   8.575   1.341   1.690
39425SOL    HW118301   8.622   1.341   1.778
39425SOL    HW218302   8.527   1.254   1.679
39426SOL     OW18303   7.678   1.434   0.538
39426SOL    HW118304   7.652   1.530   0.538
39426SOL    HW218305   7.607   1.380   0.583
39427SOL     OW18306   7.688   1.091   0.886
39427SOL    HW118307   7.702   1.007   0.938
39427SOL    HW218308   7.633   1.155   0.941
39428SOL     OW18309   8.068   1.786   1.439
39428SOL    HW118310   7.976   1.769   1.474
39428SOL    HW218311   8.096   1.878   1.465
39429SOL     OW18312   8.054   0.964   0.123
39429SOL    HW118313   8.061   1.048   0.069
39429SOL    HW218314   8.100   0.977   0.211
39430SOL     OW18315   9.042   0.114   1.480
39430SOL    HW118316   9.024   0.181   1.408
39430SOL    HW218317   9.039   0.160   1.569
39431SOL     OW18318   7.570   0.643   0.563
39431SOL    HW118319   7.525   0.555   0.580
39431SOL    HW218320   7.569   0.697   0.647
39432SOL     OW18321   9.290   1.767   0.359
39432SOL    HW118322   9.344   1.738   0.439
39432SOL    HW218323   9.320   1.857   0.330
39433SOL     OW18324   7.475   1.596   0.117
39433SOL    HW118325   7.456   1.500   0.138
39433SOL    HW218326   7.442   1.654   0.192
39434SOL     OW18327   9.137   0.922   0.612
39434SOL    HW118328   9.232   0.893   0.620
39434SOL    HW218329   9.129   0.987   0.537
39435SOL     OW18330   9.089   1.108   0.432
39435SOL    HW118331   9.175   1.110   0.380
39435SOL    HW218332   9.103   1.155   0.520
39436SOL     OW18333   7.561   0.737   1.597
39436SOL    HW118334   7.649   0.724   1.642
39436SOL    HW218335   7.548   0.834   1.575
39437SOL     OW18336   8.061   1.365   0.726
39437SOL    HW118337   8.012   1.278   0.735
39437SOL    HW218338   8.038   1.408   0.639
39438SOL     OW18339   8.741   1.228   1.423
39438SOL    HW118340   8.778   1.155   1.365
39438SOL    HW218341   8.793   1.233   1.508
39439SOL     OW18342   8.257   0.004   0.502
39439SOL    HW118343   8.297   0.095   0.493
39439SOL    HW218344   8.157   0.012   0.508
39440SOL     OW18345   7.645   0.976   1.264
39440SOL    HW118346   7.734   0.931   1.250
39440SOL    HW218347   7.572   0.911   1.245
39441SOL     OW18348   8.973   0.999   0.190
39441SOL    HW118349   8.910   0.923   0.203
39441SOL    HW218350   9.021   1.017   0.276
39442SOL     OW18351   8.635   1.792   1.616
39442SOL    HW118352   8.659   1.852   1.540
39442SOL    HW218353   8.642   1.697   1.586
39443SOL     OW18354   7.765   0.251   1.801
39443SOL    HW118355   7.836   0.322   1.807
39443SOL    HW218356   7.677   0.290   1.829
39444SOL     OW18357   8.914   1.417   0.953
39444SOL    HW118358   8.855   1.423   1.033
39444SOL    HW218359   8.899   1.329   0.907
39445SOL     OW18360   9.115   1.714   0.572
39445SOL    HW118361   9.074   1.691   0.484
39445SOL    HW218362   9.097   1.640   0.637
39446SOL     OW18363   8.046   0.729   0.270
39446SOL    HW118364   8.070   0.798   0.202
39446SOL    HW218365   7.968   0.762   0.324
39447SOL     OW18366   8.729   0.345   0.944
39447SOL    HW118367   8.643   0.295   0.931
39447SOL    HW218368   8.791   0.291   1.000
39448SOL     OW18369   9.024   1.662   0.307
39448SOL    HW118370   9.113   1.708   0.310
39448SOL    HW218371   9.003   1.638   0.212
39449SOL     OW18372   8.255   0.605   1.465
39449SOL    HW118373   8.208   0.602   1.554
39449SOL    HW218374   8.204   0.550   1.399
39450SOL     OW18375   8.842   0.469   1.674
39450SOL    HW118376   8.822   0.512   1.762
39450SOL    HW218377   8.920   0.407   1.683
39451SOL     OW18378   8.421   0.890   1.572
39451SOL    HW118379   8.467   0.806   1.543
39451SOL    HW218380   8.365   0.924   1.497
39452SOL     OW18381   8.439   0.410   1.242
39452SOL    HW118382   8.362   0.444   1.296
39452SOL    HW218383   8.405   0.359   1.163
39453SOL     OW18384   8.489   0.701   0.429
39453SOL    HW118385   8.515   0.697   0.525
39453SOL    HW218386   8.404   0.650   0.415
39454SOL     OW18387   7.524   0.811   0.789
39454SOL    HW118388   7.623   0.799   0.798
39454SOL    HW218389   7.500   0.906   0.810
39455SOL     OW18390   7.578   1.821   1.571
39455SOL    HW118391   7.568   1.806   1.670
39455SOL    HW218392   7.492   1.857   1.535
39456SOL     OW18393   8.313   0.348   0.195
39456SOL    HW118394   8.372   0.411   0.146
39456SOL    HW218395   8.332   0.254   0.166
39457SOL     OW18396   9.167   0.585   1.831
39457SOL    HW118397   9.141   0.674   1.795
39457SOL    HW218398   9.165   0.517   1.758
39458SOL     OW18399   8.810   1.144   0.545
39458SOL    HW118400   8.893   1.115   0.497
39458SOL    HW218401   8.761   1.211   0.489
39459SOL     OW18402   7.998   0.196   0.885
39459SOL    HW118403   7.993   0.191   0.985
39459SOL    HW218404   8.000   0.292   0.856
39460SOL     OW18405   8.456   1.456   0.477
39460SOL    HW118406   8.410   1.528   0.425
39460SOL    HW218407   8.452   1.476   0.575
39461SOL     OW18408   7.799   1.801   0.853
39461SOL    HW118409   7.849   1.715   0.859
39461SOL    HW218410   7.864   1.878   0.850
39462SOL     OW18411   9.243   1.066   0.873
39462SOL    HW118412   9.181   1.051   0.797
39462SOL    HW218413   9.191   1.077   0.958
39463SOL     OW18414   8.675   1.550   1.506
39463SOL    HW118415   8.681   1.473   1.570
39463SOL    HW218416   8.623   1.524   1.426
39464SOL     OW18417   7.769   0.943   0.242
39464SOL    HW118418   7.851   0.982   0.200
39464SOL    HW218419   7.742   0.861   0.193
39465SOL     OW18420   8.906   0.735   0.728
39465SOL    HW118421   8.901   0.670   0.803
39465SOL    HW218422   8.986   0.794   0.741
39466SOL     OW18423   7.909   1.266   1.727
39466SOL    HW118424   7.859   1.267   1.641
39466SOL    HW218425   7.846   1.248   1.803
39467SOL     OW18426   8.559   1.776   0.237
39467SOL    HW118427   8.499   1.714   0.287
39467SOL    HW218428   8.590   1.732   0.152
39468SOL     OW18429   7.650   0.285   1.498
39468SOL    HW118430   7.570   0.345   1.485
39468SOL    HW218431   7.640   0.236   1.584
39469SOL     OW18432   9.080   1.377   0.081
39469SOL    HW118433   9.048   1.471   0.071
39469SOL    HW218434   9.004   1.314   0.069
39470SOL     OW18435   7.912   1.743   0.323
39470SOL    HW118436   7.945   1.782   0.409
39470SOL    HW218437   7.988   1.736   0.258
39471SOL     OW18438   8.848   0.107   0.426
39471SOL    HW118439   8.824   0.070   0.336
39471SOL    HW218440   8.947   0.123   0.430
39472SOL     OW18441   7.697   1.785   1.241
39472SOL    HW118442   7.754   1.720   1.291
39472SOL    HW218443   7.681   1.752   1.148
39473SOL     OW18444   8.388   1.698   0.904
39473SOL    HW118445   8.468   1.641   0.925
39473SOL    HW218446   8.339   1.658   0.827
39474SOL     OW18447   7.830   0.700   0.480
39474SOL    HW118448   7.875   0.610   0.477
39474SOL    HW218449   7.736   0.689   0.513
39475SOL     OW18450   8.995   0.222   1.729
39475SOL    HW118451   8.990   0.259   1.821
39475SOL    HW218452   8.923   0.153   1.717
39476SOL     OW18453   8.062   0.122   0.117
39476SOL    HW118454   8.160   0.100   0.124
39476SOL    HW218455   8.031   0.105   0.024
39477SOL     OW18456   8.229   0.264   1.749
39477SOL    HW118457   8.296   0.203   1.792
39477SOL    HW218458   8.156   0.283   1.814
39478SOL     OW18459   8.336   1.514   1.195
39478SOL    HW118460   8.313   1.489   1.101
39478SOL    HW218461   8.397   1.445   1.234
39479SOL     OW18462   8.799   0.590   1.433
39479SOL    HW118463   8.827   0.547   1.518
39479SOL    HW218464   8.824   0.686   1.434
39480SOL     OW18465   8.251   1.402   0.924
39480SOL    HW118466   8.341   1.416   0.882
39480SOL    HW218467   8.180   1.404   0.853
39481SOL     OW18468   8.370   0.503   0.899
39481SOL    HW118469   8.345   0.494   0.803
39481SOL    HW218470   8.418   0.421   0.930
39482SOL     OW18471   7.987   0.064   0.512
39482SOL    HW118472   7.906   0.065   0.570
39482SOL    HW218473   7.990   0.147   0.457
39483SOL     OW18474   8.882   1.188   0.041
39483SOL    HW118475   8.914   1.112   0.098
39483SOL    HW218476   8.790   1.215   0.071
39484SOL     OW18477   7.745   0.035   0.171
39484SOL    HW118478   7.794   0.119   0.150
39484SOL    HW218479   7.807  -0.030   0.216
39485SOL     OW18480   8.383   0.236   0.480
39485SOL    HW118481   8.335   0.277   0.402
39485SOL    HW218482   8.482   0.234   0.461
39486SOL     OW18483   8.524   0.683   1.464
39486SOL    HW118484   8.444   0.622   1.467
39486SOL    HW218485   8.605   0.630   1.440
39487SOL     OW18486   8.675   1.570   0.793
39487SOL    HW118487   8.696   1.644   0.728
39487SOL    HW218488   8.743   1.570   0.866
39488SOL     OW18489   7.907   1.152   0.741
39488SOL    HW118490   7.836   1.125   0.806
39488SOL    HW218491   7.881   1.124   0.648
39489SOL     OW18492   8.719   1.797   0.591
39489SOL    HW118493   8.763   1.861   0.527
39489SOL    HW218494   8.669   1.849   0.661
39490SOL     OW18495   8.480   0.549   0.016
39490SOL    HW118496   8.439   0.631  -0.023
39490SOL    HW218497   8.544   0.575   0.089
39491SOL     OW18498   7.526   0.556   1.386
39491SOL    HW118499   7.618   0.555   1.345
39491SOL    HW218500   7.520   0.630   1.453
39492SOL     OW18501   8.009   0.222   1.147
39492SOL    HW118502   8.047   0.138   1.184
39492SOL    HW218503   7.921   0.241   1.191
39493SOL     OW18504   8.314   0.454   0.642
39493SOL    HW118505   8.282   0.526   0.580
39493SOL    HW218506   8.338   0.373   0.589
39494SOL     OW18507   8.465   0.039   0.753
39494SOL    HW118508   8.393   0.044   0.684
39494SOL    HW218509   8.441  -0.030   0.822
39495SOL     OW18510   8.877   1.173   0.867
39495SOL    HW118511   8.822   1.089   0.860
39495SOL    HW218512   8.903   1.202   0.775
39496SOL     OW18513   8.914   0.590   0.992
39496SOL    HW118514   8.884   0.495   0.999
39496SOL    HW218515   8.987   0.606   1.058
39497SOL     OW18516   9.305   0.833   0.377
39497SOL    HW118517   9.347   0.769   0.441
39497SOL    HW218518   9.267   0.782   0.299
39498SOL     OW18519   7.936   1.385   0.174
39498SOL    HW118520   7.849   1.370   0.221
39498SOL    HW218521   7.919   1.411   0.079
39499SOL     OW18522   9.112   1.280   0.657
39499SOL    HW118523   9.211   1.288   0.671
39499SOL    HW218524   9.067   1.364   0.688
39500SOL     OW18525   8.838   0.575   0.078
39500SOL    HW118526   8.784   0.554   0.159
39500SOL    HW218527   8.929   0.534   0.087
39501SOL     OW18528   7.975   0.256   0.328
39501SOL    HW118529   8.002   0.197   0.253
39501SOL    HW218530   7.975   0.351   0.297
39502SOL     OW18531   9.202   1.223   1.588
39502SOL    HW118532   9.293   1.184   1.575
39502SOL    HW218533   9.210   1.319   1.612
39503SOL     OW18534   8.512   1.347   1.340
39503SOL    HW118535   8.432   1.324   1.395
39503SOL    HW218536   8.595   1.321   1.389
39504SOL     OW18537   9.040   1.629   1.625
39504SOL    HW118538   9.067   1.663   1.535
39504SOL    HW218539   9.119   1.591   1.671
39505SOL     OW18540   8.559   1.195   1.100
39505SOL    HW118541   8.519   1.239   1.181
39505SOL    HW218542   8.518   1.232   1.017
39506SOL     OW18543   9.086   1.099   1.079
39506SOL    HW118544   9.091   1.180   1.138
39506SOL    HW218545   9.000   1.101   1.028
39507SOL     OW18546   8.363   0.089   1.402
39507SOL    HW118547   8.388   0.069   1.307
39507SOL    HW218548   8.435   0.145   1.444
39508SOL     OW18549   8.428   1.116   1.719
39508SOL    HW118550   8.329   1.122   1.729
39508SOL    HW218551   8.451   1.036   1.663
39509SOL     OW18552   8.153   1.050   0.368
39509SOL    HW118553   8.139   1.057   0.467
39509SOL    HW218554   8.237   0.999   0.350
39510SOL     OW18555   7.858   0.813   1.251
39510SOL    HW118556   7.944   0.825   1.301
39510SOL    HW218557   7.816   0.726   1.278
39511SOL     OW18558   8.722   0.386   1.262
39511SOL    HW118559   8.743   0.460   1.326
39511SOL    HW218560   8.633   0.403   1.219
39512SOL     OW18561   7.512   1.564   1.331
39512SOL    HW118562   7.466   1.646   1.297
39512SOL    HW218563   7.610   1.583   1.340
39513SOL     OW18564   7.815   1.100   0.501
39513SOL    HW118565   7.808   1.183   0.445
39513SOL    HW218566   7.819   1.020   0.441
39514SOL     OW18567   8.014   0.537   0.865
39514SOL    HW118568   8.026   0.603   0.791
39514SOL    HW218569   8.060   0.571   0.948
39515SOL     OW18570   8.700   1.348   0.388
39515SOL    HW118571   8.750   1.425   0.428
39515SOL    HW218572   8.605   1.350   0.420
39516SOL     OW18573   8.720   1.445   1.142
39516SOL    HW118574   8.767   1.458   1.229
39516SOL    HW218575   8.654   1.371   1.151
39517SOL     OW18576   9.030   0.639   0.472
39517SOL    HW118577   8.999   0.700   0.545
39517SOL    HW218578   9.080   0.691   0.403
39518SOL     OW18579   7.802   1.510   1.329
39518SOL    HW118580   7.781   1.466   1.242
39518SOL    HW218581   7.899   1.536   1.332
39519SOL     OW18582   7.850   0.751   1.598
39519SOL    HW118583   7.918   0.806   1.551
39519SOL    HW218584   7.890   0.663   1.625
39520SOL     OW18585   9.035   0.779   1.670
39520SOL    HW118586   8.943   0.817   1.665
39520SOL    HW218587   9.095   0.826   1.605
39521SOL     OW18588   8.461   0.105   1.770
39521SOL    HW118589   8.467   0.190   1.718
39521SOL    HW218590   8.493   0.029   1.713
39522SOL     OW18591   7.952   0.050   1.740
39522SOL    HW118592   7.910  -0.007   1.670
39522SOL    HW218593   7.886   0.119   1.772
39523SOL     OW18594   8.021   0.870   1.029
39523SOL    HW118595   8.065   0.959   1.020
39523SOL    HW218596   7.958   0.870   1.106
39524SOL     OW18597   8.808   0.862   1.045
39524SOL    HW118598   8.733   0.862   0.979
39524SOL    HW218599   8.845   0.770   1.054
39525SOL     OW18600   8.657   0.525   0.275
39525SOL    HW118601   8.670   0.441   0.329
39525SOL    HW218602   8.628   0.599   0.335
39526SOL     OW18603   7.755   0.213   1.231
39526SOL    HW118604   7.732   0.250   1.321
39526SOL    HW218605   7.725   0.118   1.225
39527SOL     OW18606   7.485   1.310   1.282
39527SOL    HW118607   7.538   1.261   1.350
39527SOL    HW218608   7.507   1.408   1.287
39528SOL     OW18609   8.180   0.634   1.064
39528SOL    HW118610   8.239   0.608   0.988
39528SOL    HW218611   8.152   0.730   1.053
39529SOL     OW18612   9.176   0.935   1.854
39529SOL    HW118613   9.130   0.928   1.765
39529SOL    HW218614   9.114   0.979   1.920
39530SOL     OW18615   7.755   0.063   0.618
39530SOL    HW118616   7.744   0.157   0.651
39530SOL    HW218617   7.750   0.000   0.695
39531SOL     OW18618   9.070   0.367   0.374
39531SOL    HW118619   9.072   0.291   0.438
39531SOL    HW218620   9.022   0.444   0.414
39532SOL     OW18621   8.471   0.766   0.966
39532SOL    HW118622   8.486   0.787   1.062
39532SOL    HW218623   8.441   0.671   0.957
39533SOL     OW18624   8.428   1.573   1.700
39533SOL    HW118625   8.408   1.617   1.612
39533SOL    HW218626   8.467   1.482   1.684
39534SOL     OW18627   9.307   1.518   1.605
39534SOL    HW118628   9.321   1.545   1.510
39534SOL    HW218629   9.390   1.540   1.658
39535SOL     OW18630   7.798   0.898   1.804
39535SOL    HW118631   7.874   0.942   1.852
39535SOL    HW218632   7.833   0.851   1.722
39536SOL     OW18633   8.988   0.274   0.125
39536SOL    HW118634   8.927   0.199   0.148
39536SOL    HW218635   9.010   0.326   0.208
39537SOL     OW18636   8.751   0.838   0.042
39537SOL    HW118637   8.785   0.745   0.057
39537SOL    HW218638   8.769   0.865  -0.053
39538SOL     OW18639   8.516   1.333   0.849
39538SOL    HW118640   8.523   1.249   0.794
39538SOL    HW218641   8.578   1.402   0.813
39539SOL     OW18642   7.767   0.810   0.949
39539SOL    HW118643   7.860   0.846   0.954
39539SOL    HW218644   7.761   0.725   1.001
39540SOL     OW18645   7.787   0.509   1.006
39540SOL    HW118646   7.735   0.426   0.989
39540SOL    HW218647   7.864   0.514   0.942
39541SOL     OW18648   8.586   0.380   1.678
39541SOL    HW118649   8.541   0.443   1.742
39541SOL    HW218650   8.679   0.411   1.661
39542SOL     OW18651   8.608   0.207   1.477
39542SOL    HW118652   8.608   0.271   1.554
39542SOL    HW218653   8.636   0.255   1.394
39543SOL     OW18654   7.456   1.326   0.200
39543SOL    HW118655   7.363   1.347   0.169
39543SOL    HW218656   7.466   1.227   0.213
39544SOL     OW18657   7.536   1.801   0.927
39544SOL    HW118658   7.494   1.715   0.900
39544SOL    HW218659   7.630   1.804   0.893
39545SOL     OW18660   7.952   1.568   0.910
39545SOL    HW118661   8.018   1.642   0.919
39545SOL    HW218662   7.996   1.489   0.868
39546SOL     OW18663   8.450   0.796   1.238
39546SOL    HW118664   8.491   0.764   1.324
39546SOL    HW218665   8.354   0.769   1.235
39547SOL     OW18666   7.488   0.544   1.114
39547SOL    HW118667   7.573   0.511   1.073
39547SOL    HW218668   7.501   0.559   1.212
39548SOL     OW18669   7.637   0.520   1.722
39548SOL    HW118670   7.696   0.480   1.652
39548SOL    HW218671   7.579   0.591   1.681
39549SOL     OW18672   8.817   0.950   1.660
39549SOL    HW118673   8.856   1.039   1.680
39549SOL    HW218674   8.827   0.930   1.563
39550SOL     OW18675   8.263   0.572   0.325
39550SOL    HW118676   8.270   0.483   0.279
39550SOL    HW218677   8.169   0.606   0.317
39551SOL     OW18678   9.105   0.604   1.206
39551SOL    HW118679   9.067   0.535   1.268
39551SOL    HW218680   9.187   0.568   1.162
39552SOL     OW18681   7.700   1.564   1.744
39552SOL    HW118682   7.670   1.621   1.820
39552SOL    HW218683   7.693   1.467   1.770
39553SOL     OW18684   8.119   0.464   1.269
39553SOL    HW118685   8.085   0.375   1.239
39553SOL    HW218686   8.145   0.518   1.189
39554SOL     OW18687   8.378   1.678   1.465
39554SOL    HW118688   8.354   1.660   1.370
39554SOL    HW218689   8.408   1.772   1.475
39555SOL     OW18690   7.921   0.500   0.191
39555SOL    HW118691   7.982   0.580   0.195
39555SOL    HW218692   7.826   0.531   0.198
39556SOL     OW18693   7.607   1.137   1.466
39556SOL    HW118694   7.629   1.076   1.542
39556SOL    HW218695   7.617   1.088   1.380
39557SOL     OW18696   8.795   1.059   1.234
39557SOL    HW118697   8.819   0.996   1.160
39557SOL    HW218698   8.705   1.099   1.216
39558SOL     OW18699   8.750   0.855   0.309
39558SOL    HW118700   8.664   0.824   0.351
39558SOL    HW218701   8.746   0.841   0.210
39559SOL     OW18702   9.207   1.747   1.154
39559SOL    HW118703   9.268   1.777   1.081
39559SOL    HW218704   9.169   1.658   1.132
39560SOL     OW18705   8.700   1.731   1.128
39560SOL    HW118706   8.784   1.736   1.074
39560SOL    HW218707   8.677   1.635   1.146
39561SOL     OW18708   7.531   1.258   1.022
39561SOL    HW118709   7.526   1.257   1.122
39561SOL    HW218710   7.448   1.217   0.984
39562SOL     OW18711   8.136   1.662   1.716
39562SOL    HW118712   8.080   1.743   1.725
39562SOL    HW218713   8.188   1.666   1.630
39563SOL     OW18714   8.351   0.086   0.133
39563SOL    HW118715   8.402   0.087   0.047
39563SOL    HW218716   8.407   0.044   0.204
39564SOL     OW18717   9.174   0.135   0.523
39564SOL    HW118718   9.247   0.118   0.456
39564SOL    HW218719   9.143   0.048   0.561
39565SOL     OW18720   8.836   1.573   0.477
39565SOL    HW118721   8.903   1.585   0.403
39565SOL    HW218722   8.796   1.662   0.500
39566SOL     OW18723   7.578   1.794   1.851
39566SOL    HW118724   7.537   1.720   1.904
39566SOL    HW218725   7.642   1.845   1.909
39567SOL     OW18726   8.728   0.927   0.672
39567SOL    HW118727   8.788   0.846   0.674
39567SOL    HW218728   8.768   0.996   0.612
39568SOL     OW18729   8.278   1.273   1.422
39568SOL    HW118730   8.273   1.306   1.517
39568SOL    HW218731   8.192   1.292   1.376
39569SOL     OW18732   8.120   1.616   0.154
39569SOL    HW118733   8.129   1.626   0.055
39569SOL    HW218734   8.080   1.527   0.175
39570SOL     OW18735   9.098   1.720   1.394
39570SOL    HW118736   9.151   1.730   1.310
39570SOL    HW218737   9.071   1.810   1.428
39571SOL     OW18738   9.289   0.175   0.963
39571SOL    HW118739   9.328   0.090   0.927
39571SOL    HW218740   9.191   0.177   0.944
39572SOL     OW18741   7.711   0.326   0.720
39572SOL    HW118742   7.632   0.377   0.686
39572SOL    HW218743   7.702   0.311   0.818
39573SOL     OW18744   8.642   1.612   0.031
39573SOL    HW118745   8.648   1.519   0.068
39573SOL    HW218746   8.583   1.612  -0.049
39574SOL     OW18747   8.270   1.002   1.372
39574SOL    HW118748   8.310   1.001   1.280
39574SOL    HW218749   8.280   1.094   1.412
39575SOL     OW18750   8.364   0.910   0.291
39575SOL    HW118751   8.427   0.948   0.223
39575SOL    HW218752   8.404   0.827   0.330
39576SOL     OW18753   8.952   1.607   0.044
39576SOL    HW118754   8.860   1.644   0.051
39576SOL    HW218755   8.990   1.627  -0.046
39577SOL     OW18756   7.820   1.288   1.490
39577SOL    HW118757   7.807   1.381   1.456
39577SOL    HW218758   7.736   1.236   1.477
39578SOL     OW18759   9.062   1.292   1.289
39578SOL    HW118760   9.122   1.295   1.369
39578SOL    HW218761   8.987   1.356   1.302
39579SOL     OW18762   8.487   1.098   0.696
39579SOL    HW118763   8.417   1.051   0.750
39579SOL    HW218764   8.546   1.030   0.653
39580SOL     OW18765   8.462   0.236   0.971
39580SOL    HW118766   8.454   0.200   0.878
39580SOL    HW218767   8.460   0.160   1.036
39581SOL     OW18768   8.038   1.487   0.491
39581SOL    HW118769   8.080   1.429   0.421
39581SOL    HW218770   7.994   1.566   0.447
39582SOL     OW18771   9.157   0.385   1.381
39582SOL    HW118772   9.230   0.454   1.385
39582SOL    HW218773   9.185   0.310   1.322
39583SOL     OW18774   7.703   1.348   0.290
39583SOL    HW118775   7.607   1.349   0.263
39583SOL    HW218776   7.715   1.401   0.374
39584SOL     OW18777   7.553   1.013   1.726
39584SOL    HW118778   7.476   0.980   1.780
39584SOL    HW218779   7.638   0.983   1.768
39585SOL     OW18780   8.120   0.203   1.489
39585SOL    HW118781   8.210   0.187   1.449
39585SOL    HW218782   8.128   0.208   1.588
39586SOL     OW18783   8.888   0.856   1.398
39586SOL    HW118784   8.831   0.908   1.335
39586SOL    HW218785   8.984   0.868   1.374
39587SOL     OW18786   7.520   0.166   0.318
39587SOL    HW118787   7.503   0.249   0.264
39587SOL    HW218788   7.610   0.129   0.296
39588SOL     OW18789   8.631   1.335   0.119
39588SOL    HW118790   8.532   1.324   0.121
39588SOL    HW218791   8.665   1.350   0.212
39589SOL     OW18792   8.061   0.842   1.431
39589SOL    HW118793   8.117   0.923   1.414
39589SOL    HW218794   8.120   0.762   1.434
39590SOL     OW18795   8.941   1.767   0.959
39590SOL    HW118796   8.974   1.831   0.890
39590SOL    HW218797   9.007   1.761   1.034
39591SOL     OW18798   8.164   0.565   1.708
39591SOL    HW118799   8.183   0.630   1.782
39591SOL    HW218800   8.224   0.485   1.717
39592SOL     OW18801   8.898   1.220   1.633
39592SOL    HW118802   8.889   1.210   1.732
39592SOL    HW218803   8.994   1.213   1.607
39593SOL     OW18804   7.838   1.741   1.560
39593SOL    HW118805   7.747   1.782   1.558
39593SOL    HW218806   7.831   1.647   1.592
39594SOL     OW18807   9.122   0.883   1.254
39594SOL    HW118808   9.095   0.794   1.217
39594SOL    HW218809   9.123   0.951   1.181
39595SOL     OW18810   8.673   0.325   0.449
39595SOL    HW118811   8.738   0.251   0.438
39595SOL    HW218812   8.693   0.375   0.533
39596SOL     OW18813   8.042   0.745   0.652
39596SOL    HW118814   8.092   0.830   0.633
39596SOL    HW218815   7.954   0.747   0.604
39597SOL     OW18816   9.225   0.342   1.642
39597SOL    HW118817   9.208   0.373   1.548
39597SOL    HW218818   9.141   0.305   1.680
39598SOL     OW18819   9.178   0.934   1.517
39598SOL    HW118820   9.216   1.025   1.532
39598SOL    HW218821   9.170   0.917   1.418
39599SOL     OW18822   8.307   1.374   0.016
39599SOL    HW118823   8.261   1.389   0.104
39599SOL    HW218824   8.351   1.459  -0.014
39600SOL     OW18825   8.109   1.790   0.953
39600SOL    HW118826   8.063   1.878   0.940
39600SOL    HW218827   8.208   1.802   0.946
39601SOL     OW18828   8.307   0.956   0.861
39601SOL    HW118829   8.361   0.887   0.909
39601SOL    HW218830   8.275   1.025   0.927
39602SOL     OW18831   8.531   0.984   0.087
39602SOL    HW118832   8.508   1.037   0.005
39602SOL    HW218833   8.612   0.928   0.068
39603SOL     OW18834   9.309   1.569   0.851
39603SOL    HW118835   9.238   1.557   0.781
39603SOL    HW218836   9.310   1.490   0.911
39604SOL     OW18837   7.669   1.314   1.844
39604SOL    HW118838   7.604   1.241   1.823
39604SOL    HW218839   7.673   1.328   1.942
39605SOL     OW18840   7.527   1.240   0.653
39605SOL    HW118841   7.526   1.193   0.741
39605SOL    HW218842   7.609   1.212   0.602
39606SOL     OW18843   8.120   1.391   1.624
39606SOL    HW118844   8.042   1.341   1.662
39606SOL    HW218845   8.117   1.486   1.655
39607SOL     OW18846   9.272   0.192   1.227
39607SOL    HW118847   9.268   0.102   1.271
39607SOL    HW218848   9.275   0.181   1.128
39608SOL     OW18849   7.876   0.424   0.520
39608SOL    HW118850   7.906   0.352   0.458
39608SOL    HW218851   7.837   0.384   0.603
39609SOL     OW18852   9.153   1.487   1.104
39609SOL    HW118853   9.060   1.462   1.077
39609SOL    HW218854   9.179   1.437   1.186
39610SOL     OW18855   7.765   0.547   1.280
39610SOL    HW118856   7.803   0.488   1.352
39610SOL    HW218857   7.805   0.521   1.192
39611SOL     OW18858   8.260   1.586   0.687
39611SOL    HW118859   8.292   1.596   0.593
39611SOL    HW218860   8.181   1.524   0.689
39612SOL     OW18861   8.872   0.214   1.112
39612SOL    HW118862   8.924   0.149   1.167
39612SOL    HW218863   8.823   0.277   1.173
39613SOL     OW18864   8.449   0.034   1.154
39613SOL    HW118865   8.386  -0.038   1.123
39613SOL    HW218866   8.542  -0.002   1.154
39614SOL     OW18867   8.218   1.330   0.301
39614SOL    HW118868   8.172   1.243   0.318
39614SOL    HW218869   8.309   1.327   0.342
39615SOL     OW18870   8.066   1.567   1.284
39615SOL    HW118871   8.061   1.649   1.341
39615SOL    HW218872   8.155   1.564   1.239
39616SOL     OW18873   8.800   0.052   0.168
39616SOL    HW118874   8.835   0.011   0.084
39616SOL    HW218875   8.710   0.014   0.188
39617SOL     OW18876   8.748   0.453   0.691
39617SOL    HW118877   8.689   0.533   0.695
39617SOL    HW218878   8.763   0.418   0.784
39618SOL     OW18879   9.041   0.221   0.882
39618SOL    HW118880   8.957   0.220   0.936
39618SOL    HW218881   9.043   0.304   0.826
39619SOL     OW18882   7.487   1.077   0.300
39619SOL    HW118883   7.586   1.066   0.291
39619SOL    HW218884   7.447   0.991   0.332
39620SOL     OW18885   8.323   1.646   0.337
39620SOL    HW118886   8.246   1.611   0.283
39620SOL    HW218887   8.291   1.717   0.399
39621SOL     OW18888   7.678   0.628   1.975
39621SOL    HW118889   7.585   0.626   2.012
39621SOL    HW218890   7.679   0.589   1.883
39622SOL     OW18891   7.673   0.275   2.858
39622SOL    HW118892   7.708   0.258   2.950
39622SOL    HW218893   7.585   0.230   2.846
39623SOL     OW18894   7.467   0.368   2.509
39623SOL    HW118895   7.385   0.411   2.548
39623SOL    HW218896   7.439   0.295   2.446
39624SOL     OW18897   8.017   1.275   3.027
39624SOL    HW118898   7.924   1.268   2.990
39624SOL    HW218899   8.028   1.364   3.071
39625SOL     OW18900   9.003   1.511   2.565
39625SOL    HW118901   8.946   1.495   2.646
39625SOL    HW218902   8.944   1.521   2.485
39626SOL     OW18903   8.583   0.703   2.579
39626SOL    HW118904   8.640   0.781   2.554
39626SOL    HW218905   8.523   0.729   2.655
39627SOL     OW18906   9.203   0.607   2.093
39627SOL    HW118907   9.191   0.594   1.994
39627SOL    HW218908   9.173   0.526   2.142
39628SOL     OW18909   8.216   1.144   2.885
39628SOL    HW118910   8.138   1.161   2.945
39628SOL    HW218911   8.250   1.231   2.849
39629SOL     OW18912   8.298   0.798   3.685
39629SOL    HW118913   8.294   0.874   3.750
39629SOL    HW218914   8.320   0.834   3.594
39630SOL     OW18915   8.133   1.012   2.527
39630SOL    HW118916   8.202   0.996   2.597
39630SOL    HW218917   8.060   1.069   2.565
39631SOL     OW18918   8.134   1.161   3.665
39631SOL    HW118919   8.194   1.240   3.679
39631SOL    HW218920   8.048   1.192   3.624
39632SOL     OW18921   7.783   1.435   2.923
39632SOL    HW118922   7.705   1.404   2.870
39632SOL    HW218923   7.841   1.493   2.866
39633SOL     OW18924   8.908   1.505   3.201
39633SOL    HW118925   8.932   1.599   3.227
39633SOL    HW218926   8.892   1.451   3.283
39634SOL     OW18927   7.886   0.392   3.361
39634SOL    HW118928   7.968   0.336   3.370
39634SOL    HW218929   7.805   0.334   3.365
39635SOL     OW18930   9.051   0.447   2.599
39635SOL    HW118931   8.977   0.493   2.549
39635SOL    HW218932   9.102   0.515   2.652
39636SOL     OW18933   7.679   1.713   2.345
39636SOL    HW118934   7.713   1.790   2.399
39636SOL    HW218935   7.723   1.713   2.255
39637SOL     OW18936   8.575   1.341   3.552
39637SOL    HW118937   8.622   1.341   3.640
39637SOL    HW218938   8.527   1.254   3.541
39638SOL     OW18939   7.678   1.434   2.400
39638SOL    HW118940   7.652   1.530   2.400
39638SOL    HW218941   7.607   1.380   2.445
39639SOL     OW18942   7.688   1.091   2.748
39639SOL    HW118943   7.702   1.007   2.800
39639SOL    HW218944   7.633   1.155   2.803
39640SOL     OW18945   8.068   1.786   3.301
39640SOL    HW118946   7.976   1.769   3.336
39640SOL    HW218947   8.096   1.878   3.327
39641SOL     OW18948   8.054   0.964   1.985
39641SOL    HW118949   8.061   1.048   1.931
39641SOL    HW218950   8.100   0.977   2.073
39642SOL     OW18951   9.042   0.114   3.342
39642SOL    HW118952   9.024   0.181   3.270
39642SOL    HW218953   9.039   0.160   3.431
39643SOL     OW18954   7.570   0.643   2.425
39643SOL    HW118955   7.525   0.555   2.442
39643SOL    HW218956   7.569   0.697   2.509
39644SOL     OW18957   9.290   1.767   2.221
39644SOL    HW118958   9.344   1.738   2.301
39644SOL    HW218959   9.320   1.857   2.192
39645SOL     OW18960   7.475   1.596   1.979
39645SOL    HW118961   7.456   1.500   2.000
39645SOL    HW218962   7.442   1.654   2.054
39646SOL     OW18963   9.137   0.922   2.474
39646SOL    HW118964   9.232   0.893   2.482
39646SOL    HW218965   9.129   0.987   2.399
39647SOL     OW18966   9.089   1.108   2.294
39647SOL    HW118967   9.175   1.110   2.242
39647SOL    HW218968   9.103   1.155   2.382
39648SOL     OW18969   7.561   0.737   3.459
39648SOL    HW118970   7.649   0.724   3.504
39648SOL    HW218971   7.548   0.834   3.437
39649SOL     OW18972   8.061   1.365   2.588
39649SOL    HW118973   8.012   1.278   2.597
39649SOL    HW218974   8.038   1.408   2.501
39650SOL     OW18975   8.257   0.004   2.364
39650SOL    HW118976   8.297   0.095   2.355
39650SOL    HW218977   8.157   0.012   2.370
39651SOL     OW18978   7.645   0.976   3.126
39651SOL    HW118979   7.734   0.931   3.112
39651SOL    HW218980   7.572   0.911   3.107
39652SOL     OW18981   8.973   0.999   2.052
39652SOL    HW118982   8.910   0.923   2.065
39652SOL    HW218983   9.021   1.017   2.138
39653SOL     OW18984   8.635   1.792   3.478
39653SOL    HW118985   8.659   1.852   3.402
39653SOL    HW218986   8.642   1.697   3.448
39654SOL     OW18987   7.765   0.251   3.663
39654SOL    HW118988   7.836   0.322   3.669
39654SOL    HW218989   7.677   0.290   3.691
39655SOL     OW18990   8.914   1.417   2.815
39655SOL    HW118991   8.855   1.423   2.895
39655SOL    HW218992   8.899   1.329   2.769
39656SOL     OW18993   9.115   1.714   2.434
39656SOL    HW118994   9.074   1.691   2.346
39656SOL    HW218995   9.097   1.640   2.499
39657SOL     OW18996   8.046   0.729   2.132
39657SOL    HW118997   8.070   0.798   2.064
39657SOL    HW218998   7.968   0.762   2.186
39658SOL     OW18999   8.729   0.345   2.806
39658SOL    HW119000   8.643   0.295   2.793
39658SOL    HW219001   8.791   0.291   2.862
39659SOL     OW19002   9.024   1.662   2.169
39659SOL    HW119003   9.113   1.708   2.172
39659SOL    HW219004   9.003   1.638   2.074
39660SOL     OW19005   8.255   0.605   3.327
39660SOL    HW119006   8.208   0.602   3.416
39660SOL    HW219007   8.204   0.550   3.261
39661SOL     OW19008   8.842   0.469   3.536
39661SOL    HW119009   8.822   0.512   3.624
39661SOL    HW219010   8.920   0.407   3.545
39662SOL     OW19011   8.421   0.890   3.434
39662SOL    HW119012   8.467   0.806   3.405
39662SOL    HW219013   8.365   0.924   3.359
39663SOL     OW19014   8.439   0.410   3.104
39663SOL    HW119015   8.362   0.444   3.158
39663SOL    HW219016   8.405   0.359   3.025
39664SOL     OW19017   8.489   0.701   2.291
39664SOL    HW119018   8.515   0.697   2.387
39664SOL    HW219019   8.404   0.650   2.277
39665SOL     OW19020   7.524   0.811   2.651
39665SOL    HW119021   7.623   0.799   2.660
39665SOL    HW219022   7.500   0.906   2.672
39666SOL     OW19023   7.578   1.821   3.433
39666SOL    HW119024   7.568   1.806   3.532
39666SOL    HW219025   7.492   1.857   3.397
39667SOL     OW19026   8.313   0.348   2.057
39667SOL    HW119027   8.372   0.411   2.008
39667SOL    HW219028   8.332   0.254   2.028
39668SOL     OW19029   9.167   0.585   3.693
39668SOL    HW119030   9.141   0.674   3.657
39668SOL    HW219031   9.165   0.517   3.620
39669SOL     OW19032   8.810   1.144   2.407
39669SOL    HW119033   8.893   1.115   2.359
39669SOL    HW219034   8.761   1.211   2.351
39670SOL     OW19035   7.998   0.196   2.747
39670SOL    HW119036   7.993   0.191   2.847
39670SOL    HW219037   8.000   0.292   2.718
39671SOL     OW19038   8.456   1.456   2.339
39671SOL    HW119039   8.410   1.528   2.287
39671SOL    HW219040   8.452   1.476   2.437
39672SOL     OW19041   7.799   1.801   2.715
39672SOL    HW119042   7.849   1.715   2.721
39672SOL    HW219043   7.864   1.878   2.712
39673SOL     OW19044   9.243   1.066   2.735
39673SOL    HW119045   9.181   1.051   2.659
39673SOL    HW219046   9.191   1.077   2.820
39674SOL     OW19047   8.675   1.550   3.368
39674SOL    HW119048   8.681   1.473   3.432
39674SOL    HW219049   8.623   1.524   3.288
39675SOL     OW19050   7.769   0.943   2.104
39675SOL    HW119051   7.851   0.982   2.062
39675SOL    HW219052   7.742   0.861   2.055
39676SOL     OW19053   8.906   0.735   2.590
39676SOL    HW119054   8.901   0.670   2.665
39676SOL    HW219055   8.986   0.794   2.603
39677SOL     OW19056   7.909   1.266   3.589
39677SOL    HW119057   7.859   1.267   3.503
39677SOL    HW219058   7.846   1.248   3.665
39678SOL     OW19059   8.559   1.776   2.099
39678SOL    HW119060   8.499   1.714   2.149
39678SOL    HW219061   8.590   1.732   2.014
39679SOL     OW19062   7.650   0.285   3.360
39679SOL    HW119063   7.570   0.345   3.347
39679SOL    HW219064   7.640   0.236   3.446
39680SOL     OW19065   9.080   1.377   1.943
39680SOL    HW119066   9.048   1.471   1.933
39680SOL    HW219067   9.004   1.314   1.931
39681SOL     OW19068   7.912   1.743   2.185
39681SOL    HW119069   7.945   1.782   2.271
39681SOL    HW219070   7.988   1.736   2.120
39682SOL     OW19071   8.848   0.107   2.288
39682SOL    HW119072   8.824   0.070   2.198
39682SOL    HW219073   8.947   0.123   2.292
39683SOL     OW19074   7.697   1.785   3.103
39683SOL    HW119075   7.754   1.720   3.153
39683SOL    HW219076   7.681   1.752   3.010
39684SOL     OW19077   8.388   1.698   2.766
39684SOL    HW119078   8.468   1.641   2.787
39684SOL    HW219079   8.339   1.658   2.689
39685SOL     OW19080   7.830   0.700   2.342
39685SOL    HW119081   7.875   0.610   2.339
39685SOL    HW219082   7.736   0.689   2.375
39686SOL     OW19083   8.995   0.222   3.591
39686SOL    HW119084   8.990   0.259   3.683
39686SOL    HW219085   8.923   0.153   3.579
39687SOL     OW19086   8.062   0.122   1.979
39687SOL    HW119087   8.160   0.100   1.986
39687SOL    HW219088   8.031   0.105   1.886
39688SOL     OW19089   8.229   0.264   3.611
39688SOL    HW119090   8.296   0.203   3.654
39688SOL    HW219091   8.156   0.283   3.676
39689SOL     OW19092   8.336   1.514   3.057
39689SOL    HW119093   8.313   1.489   2.963
39689SOL    HW219094   8.397   1.445   3.096
39690SOL     OW19095   8.799   0.590   3.295
39690SOL    HW119096   8.827   0.547   3.380
39690SOL    HW219097   8.824   0.686   3.296
39691SOL     OW19098   8.251   1.402   2.786
39691SOL    HW119099   8.341   1.416   2.744
39691SOL    HW219100   8.180   1.404   2.715
39692SOL     OW19101   8.370   0.503   2.761
39692SOL    HW119102   8.345   0.494   2.665
39692SOL    HW219103   8.418   0.421   2.792
39693SOL     OW19104   7.987   0.064   2.374
39693SOL    HW119105   7.906   0.065   2.432
39693SOL    HW219106   7.990   0.147   2.319
39694SOL     OW19107   8.882   1.188   1.903
39694SOL    HW119108   8.914   1.112   1.960
39694SOL    HW219109   8.790   1.215   1.933
39695SOL     OW19110   7.745   0.035   2.033
39695SOL    HW119111   7.794   0.119   2.012
39695SOL    HW219112   7.807  -0.030   2.078
39696SOL     OW19113   8.383   0.236   2.342
39696SOL    HW119114   8.335   0.277   2.264
39696SOL    HW219115   8.482   0.234   2.323
39697SOL     OW19116   8.524   0.683   3.326
39697SOL    HW119117   8.444   0.622   3.329
39697SOL    HW219118   8.605   0.630   3.302
39698SOL     OW19119   8.675   1.570   2.655
39698SOL    HW119120   8.696   1.644   2.590
39698SOL    HW219121   8.743   1.570   2.728
39699SOL     OW19122   7.907   1.152   2.603
39699SOL    HW119123   7.836   1.125   2.668
39699SOL    HW219124   7.881   1.124   2.510
39700SOL     OW19125   8.719   1.797   2.453
39700SOL    HW119126   8.763   1.861   2.389
39700SOL    HW219127   8.669   1.849   2.523
39701SOL     OW19128   8.480   0.549   1.878
39701SOL    HW119129   8.439   0.631   1.839
39701SOL    HW219130   8.544   0.575   1.951
39702SOL     OW19131   7.526   0.556   3.248
39702SOL    HW119132   7.618   0.555   3.207
39702SOL    HW219133   7.520   0.630   3.315
39703SOL     OW19134   8.009   0.222   3.009
39703SOL    HW119135   8.047   0.138   3.046
39703SOL    HW219136   7.921   0.241   3.053
39704SOL     OW19137   8.314   0.454   2.504
39704SOL    HW119138   8.282   0.526   2.442
39704SOL    HW219139   8.338   0.373   2.451
39705SOL     OW19140   8.465   0.039   2.615
39705SOL    HW119141   8.393   0.044   2.546
39705SOL    HW219142   8.441  -0.030   2.684
39706SOL     OW19143   8.877   1.173   2.729
39706SOL    HW119144   8.822   1.089   2.722
39706SOL    HW219145   8.903   1.202   2.637
39707SOL     OW19146   8.914   0.590   2.854
39707SOL    HW119147   8.884   0.495   2.861
39707SOL    HW219148   8.987   0.606   2.920
39708SOL     OW19149   9.305   0.833   2.239
39708SOL    HW119150   9.347   0.769   2.303
39708SOL    HW219151   9.267   0.782   2.161
39709SOL     OW19152   7.936   1.385   2.036
39709SOL    HW119153   7.849   1.370   2.083
39709SOL    HW219154   7.919   1.411   1.941
39710SOL     OW19155   9.112   1.280   2.519
39710SOL    HW119156   9.211   1.288   2.533
39710SOL    HW219157   9.067   1.364   2.550
39711SOL     OW19158   8.838   0.575   1.940
39711SOL    HW119159   8.784   0.554   2.021
39711SOL    HW219160   8.929   0.534   1.949
39712SOL     OW19161   7.975   0.256   2.190
39712SOL    HW119162   8.002   0.197   2.115
39712SOL    HW219163   7.975   0.351   2.159
39713SOL     OW19164   9.202   1.223   3.450
39713SOL    HW119165   9.293   1.184   3.437
39713SOL    HW219166   9.210   1.319   3.474
39714SOL     OW19167   8.512   1.347   3.202
39714SOL    HW119168   8.432   1.324   3.257
39714SOL    HW219169   8.595   1.321   3.251
39715SOL     OW19170   9.040   1.629   3.487
39715SOL    HW119171   9.067   1.663   3.397
39715SOL    HW219172   9.119   1.591   3.533
39716SOL     OW19173   8.559   1.195   2.962
39716SOL    HW119174   8.519   1.239   3.043
39716SOL    HW219175   8.518   1.232   2.879
39717SOL     OW19176   9.086   1.099   2.941
39717SOL    HW119177   9.091   1.180   3.000
39717SOL    HW219178   9.000   1.101   2.890
39718SOL     OW19179   8.363   0.089   3.264
39718SOL    HW119180   8.388   0.069   3.169
39718SOL    HW219181   8.435   0.145   3.306
39719SOL     OW19182   8.428   1.116   3.581
39719SOL    HW119183   8.329   1.122   3.591
39719SOL    HW219184   8.451   1.036   3.525
39720SOL     OW19185   8.153   1.050   2.230
39720SOL    HW119186   8.139   1.057   2.329
39720SOL    HW219187   8.237   0.999   2.212
39721SOL     OW19188   7.858   0.813   3.113
39721SOL    HW119189   7.944   0.825   3.163
39721SOL    HW219190   7.816   0.726   3.140
39722SOL     OW19191   8.722   0.386   3.124
39722SOL    HW119192   8.743   0.460   3.188
39722SOL    HW219193   8.633   0.403   3.081
39723SOL     OW19194   7.512   1.564   3.193
39723SOL    HW119195   7.466   1.646   3.159
39723SOL    HW219196   7.610   1.583   3.202
39724SOL     OW19197   7.815   1.100   2.363
39724SOL    HW119198   7.808   1.183   2.307
39724SOL    HW219199   7.819   1.020   2.303
39725SOL     OW19200   8.014   0.537   2.727
39725SOL    HW119201   8.026   0.603   2.653
39725SOL    HW219202   8.060   0.571   2.810
39726SOL     OW19203   8.700   1.348   2.250
39726SOL    HW119204   8.750   1.425   2.290
39726SOL    HW219205   8.605   1.350   2.282
39727SOL     OW19206   8.720   1.445   3.004
39727SOL    HW119207   8.767   1.458   3.091
39727SOL    HW219208   8.654   1.371   3.013
39728SOL     OW19209   9.030   0.639   2.334
39728SOL    HW119210   8.999   0.700   2.407
39728SOL    HW219211   9.080   0.691   2.265
39729SOL     OW19212   7.802   1.510   3.191
39729SOL    HW119213   7.781   1.466   3.104
39729SOL    HW219214   7.899   1.536   3.194
39730SOL     OW19215   7.850   0.751   3.460
39730SOL    HW119216   7.918   0.806   3.413
39730SOL    HW219217   7.890   0.663   3.487
39731SOL     OW19218   9.035   0.779   3.532
39731SOL    HW119219   8.943   0.817   3.527
39731SOL    HW219220   9.095   0.826   3.467
39732SOL     OW19221   8.461   0.105   3.632
39732SOL    HW119222   8.467   0.190   3.580
39732SOL    HW219223   8.493   0.029   3.575
39733SOL     OW19224   7.952   0.050   3.602
39733SOL    HW119225   7.910  -0.007   3.532
39733SOL    HW219226   7.886   0.119   3.634
39734SOL     OW19227   8.021   0.870   2.891
39734SOL    HW119228   8.065   0.959   2.882
39734SOL    HW219229   7.958   0.870   2.968
39735SOL     OW19230   8.808   0.862   2.907
39735SOL    HW119231   8.733   0.862   2.841
39735SOL    HW219232   8.845   0.770   2.916
39736SOL     OW19233   8.657   0.525   2.137
39736SOL    HW119234   8.670   0.441   2.191
39736SOL    HW219235   8.628   0.599   2.197
39737SOL     OW19236   7.755   0.213   3.093
39737SOL    HW119237   7.732   0.250   3.183
39737SOL    HW219238   7.725   0.118   3.087
39738SOL     OW19239   7.485   1.310   3.144
39738SOL    HW119240   7.538   1.261   3.212
39738SOL    HW219241   7.507   1.408   3.149
39739SOL     OW19242   8.180   0.634   2.926
39739SOL    HW119243   8.239   0.608   2.850
39739SOL    HW219244   8.152   0.730   2.915
39740SOL     OW19245   9.176   0.935   3.716
39740SOL    HW119246   9.130   0.928   3.627
39740SOL    HW219247   9.114   0.979   3.782
39741SOL     OW19248   7.755   0.063   2.480
39741SOL    HW119249   7.744   0.157   2.513
39741SOL    HW219250   7.750   0.000   2.557
39742SOL     OW19251   9.070   0.367   2.236
39742SOL    HW119252   9.072   0.291   2.300
39742SOL    HW219253   9.022   0.444   2.276
39743SOL     OW19254   8.471   0.766   2.828
39743SOL    HW119255   8.486   0.787   2.924
39743SOL    HW219256   8.441   0.671   2.819
39744SOL     OW19257   8.428   1.573   3.562
39744SOL    HW119258   8.408   1.617   3.474
39744SOL    HW219259   8.467   1.482   3.546
39745SOL     OW19260   9.307   1.518   3.467
39745SOL    HW119261   9.321   1.545   3.372
39745SOL    HW219262   9.390   1.540   3.520
39746SOL     OW19263   7.798   0.898   3.666
39746SOL    HW119264   7.874   0.942   3.714
39746SOL    HW219265   7.833   0.851   3.584
39747SOL     OW19266   8.988   0.274   1.987
39747SOL    HW119267   8.927   0.199   2.010
39747SOL    HW219268   9.010   0.326   2.070
39748SOL     OW19269   8.751   0.838   1.904
39748SOL    HW119270   8.785   0.745   1.919
39748SOL    HW219271   8.769   0.865   1.809
39749SOL     OW19272   8.516   1.333   2.711
39749SOL    HW119273   8.523   1.249   2.656
39749SOL    HW219274   8.578   1.402   2.675
39750SOL     OW19275   7.767   0.810   2.811
39750SOL    HW119276   7.860   0.846   2.816
39750SOL    HW219277   7.761   0.725   2.863
39751SOL     OW19278   7.787   0.509   2.868
39751SOL    HW119279   7.735   0.426   2.851
39751SOL    HW219280   7.864   0.514   2.804
39752SOL     OW19281   8.586   0.380   3.540
39752SOL    HW119282   8.541   0.443   3.604
39752SOL    HW219283   8.679   0.411   3.523
39753SOL     OW19284   8.608   0.207   3.339
39753SOL    HW119285   8.608   0.271   3.416
39753SOL    HW219286   8.636   0.255   3.256
39754SOL     OW19287   7.456   1.326   2.062
39754SOL    HW119288   7.363   1.347   2.031
39754SOL    HW219289   7.466   1.227   2.075
39755SOL     OW19290   7.536   1.801   2.789
39755SOL    HW119291   7.494   1.715   2.762
39755SOL    HW219292   7.630   1.804   2.755
39756SOL     OW19293   7.952   1.568   2.772
39756SOL    HW119294   8.018   1.642   2.781
39756SOL    HW219295   7.996   1.489   2.730
39757SOL     OW19296   8.450   0.796   3.100
39757SOL    HW119297   8.491   0.764   3.186
39757SOL    HW219298   8.354   0.769   3.097
39758SOL     OW19299   7.488   0.544   2.976
39758SOL    HW119300   7.573   0.511   2.935
39758SOL    HW219301   7.501   0.559   3.074
39759SOL     OW19302   7.637   0.520   3.584
39759SOL    HW119303   7.696   0.480   3.514
39759SOL    HW219304   7.579   0.591   3.543
39760SOL     OW19305   8.817   0.950   3.522
39760SOL    HW119306   8.856   1.039   3.542
39760SOL    HW219307   8.827   0.930   3.425
39761SOL     OW19308   8.263   0.572   2.187
39761SOL    HW119309   8.270   0.483   2.141
39761SOL    HW219310   8.169   0.606   2.179
39762SOL     OW19311   9.105   0.604   3.068
39762SOL    HW119312   9.067   0.535   3.130
39762SOL    HW219313   9.187   0.568   3.024
39763SOL     OW19314   7.700   1.564   3.606
39763SOL    HW119315   7.670   1.621   3.682
39763SOL    HW219316   7.693   1.467   3.632
39764SOL     OW19317   8.119   0.464   3.131
39764SOL    HW119318   8.085   0.375   3.101
39764SOL    HW219319   8.145   0.518   3.051
39765SOL     OW19320   8.378   1.678   3.327
39765SOL    HW119321   8.354   1.660   3.232
39765SOL    HW219322   8.408   1.772   3.337
39766SOL     OW19323   7.921   0.500   2.053
39766SOL    HW119324   7.982   0.580   2.057
39766SOL    HW219325   7.826   0.531   2.060
39767SOL     OW19326   7.607   1.137   3.328
39767SOL    HW119327   7.629   1.076   3.404
39767SOL    HW219328   7.617   1.088   3.242
39768SOL     OW19329   8.795   1.059   3.096
39768SOL    HW119330   8.819   0.996   3.022
39768SOL    HW219331   8.705   1.099   3.078
39769SOL     OW19332   8.750   0.855   2.171
39769SOL    HW119333   8.664   0.824   2.213
39769SOL    HW219334   8.746   0.841   2.072
39770SOL     OW19335   9.207   1.747   3.016
39770SOL    HW119336   9.268   1.777   2.943
39770SOL    HW219337   9.169   1.658   2.994
39771SOL     OW19338   8.700   1.731   2.990
39771SOL    HW119339   8.784   1.736   2.936
39771SOL    HW219340   8.677   1.635   3.008
39772SOL     OW19341   7.531   1.258   2.884
39772SOL    HW119342   7.526   1.257   2.984
39772SOL    HW219343   7.448   1.217   2.846
39773SOL     OW19344   8.136   1.662   3.578
39773SOL    HW119345   8.080   1.743   3.587
39773SOL    HW219346   8.188   1.666   3.492
39774SOL     OW19347   9.174   0.135   2.385
39774SOL    HW119348   9.247   0.118   2.318
39774SOL    HW219349   9.143   0.048   2.423
39775SOL     OW19350   8.836   1.573   2.339
39775SOL    HW119351   8.903   1.585   2.265
39775SOL    HW219352   8.796   1.662   2.362
39776SOL     OW19353   7.578   1.794   3.713
39776SOL    HW119354   7.537   1.720   3.766
39776SOL    HW219355   7.642   1.845   3.771
39777SOL     OW19356   8.728   0.927   2.534
39777SOL    HW119357   8.788   0.846   2.536
39777SOL    HW219358   8.768   0.996   2.474
39778SOL     OW19359   8.278   1.273   3.284
39778SOL    HW119360   8.273   1.306   3.379
39778SOL    HW219361   8.192   1.292   3.238
39779SOL     OW19362   8.120   1.616   2.016
39779SOL    HW119363   8.129   1.626   1.917
39779SOL    HW219364   8.080   1.527   2.037
39780SOL     OW19365   9.098   1.720   3.256
39780SOL    HW119366   9.151   1.730   3.172
39780SOL    HW219367   9.071   1.810   3.290
39781SOL     OW19368   9.289   0.175   2.825
39781SOL    HW119369   9.328   0.090   2.789
39781SOL    HW219370   9.191   0.177   2.806
39782SOL     OW19371   7.711   0.326   2.582
39782SOL    HW119372   7.632   0.377   2.548
39782SOL    HW219373   7.702   0.311   2.680
39783SOL     OW19374   8.642   1.612   1.893
39783SOL    HW119375   8.648   1.519   1.930
39783SOL    HW219376   8.583   1.612   1.813
39784SOL     OW19377   8.270   1.002   3.234
39784SOL    HW119378   8.310   1.001   3.142
39784SOL    HW219379   8.280   1.094   3.274
39785SOL     OW19380   8.364   0.910   2.153
39785SOL    HW119381   8.427   0.948   2.085
39785SOL    HW219382   8.404   0.827   2.192
39786SOL     OW19383   8.952   1.607   1.906
39786SOL    HW119384   8.860   1.644   1.913
39786SOL    HW219385   8.990   1.627   1.816
39787SOL     OW19386   7.820   1.288   3.352
39787SOL    HW119387   7.807   1.381   3.318
39787SOL    HW219388   7.736   1.236   3.339
39788SOL     OW19389   9.062   1.292   3.151
39788SOL    HW119390   9.122   1.295   3.231
39788SOL    HW219391   8.987   1.356   3.164
39789SOL     OW19392   8.487   1.098   2.558
39789SOL    HW119393   8.417   1.051   2.612
39789SOL    HW219394   8.546   1.030   2.515
39790SOL     OW19395   8.462   0.236   2.833
39790SOL    HW119396   8.454   0.200   2.740
39790SOL    HW219397   8.460   0.160   2.898
39791SOL     OW19398   8.038   1.487   2.353
39791SOL    HW119399   8.080   1.429   2.283
39791SOL    HW219400   7.994   1.566   2.309
39792SOL     OW19401   9.157   0.385   3.243
39792SOL    HW119402   9.230   0.454   3.247
39792SOL    HW219403   9.185   0.310   3.184
39793SOL     OW19404   7.703   1.348   2.152
39793SOL    HW119405   7.607   1.349   2.125
39793SOL    HW219406   7.715   1.401   2.236
39794SOL     OW19407   7.553   1.013   3.588
39794SOL    HW119408   7.476   0.980   3.642
39794SOL    HW219409   7.638   0.983   3.630
39795SOL     OW19410   8.120   0.203   3.351
39795SOL    HW119411   8.210   0.187   3.311
39795SOL    HW219412   8.128   0.208   3.450
39796SOL     OW19413   7.523   0.345   1.895
39796SOL    HW119414   7.431   0.317   1.866
39796SOL    HW219415   7.554   0.422   1.839
39797SOL     OW19416   8.888   0.856   3.260
39797SOL    HW119417   8.831   0.908   3.197
39797SOL    HW219418   8.984   0.868   3.236
39798SOL     OW19419   7.520   0.166   2.180
39798SOL    HW119420   7.503   0.249   2.126
39798SOL    HW219421   7.610   0.129   2.158
39799SOL     OW19422   8.631   1.335   1.981
39799SOL    HW119423   8.532   1.324   1.983
39799SOL    HW219424   8.665   1.350   2.074
39800SOL     OW19425   8.061   0.842   3.293
39800SOL    HW119426   8.117   0.923   3.276
39800SOL    HW219427   8.120   0.762   3.296
39801SOL     OW19428   8.941   1.767   2.821
39801SOL    HW119429   8.974   1.831   2.752
39801SOL    HW219430   9.007   1.761   2.896
39802SOL     OW19431   8.164   0.565   3.570
39802SOL    HW119432   8.183   0.630   3.644
39802SOL    HW219433   8.224   0.485   3.579
39803SOL     OW19434   8.898   1.220   3.495
39803SOL    HW119435   8.889   1.210   3.594
39803SOL    HW219436   8.994   1.213   3.469
39804SOL     OW19437   7.838   1.741   3.422
39804SOL    HW119438   7.747   1.782   3.420
39804SOL    HW219439   7.831   1.647   3.454
39805SOL     OW19440   9.122   0.883   3.116
39805SOL    HW119441   9.095   0.794   3.079
39805SOL    HW219442   9.123   0.951   3.043
39806SOL     OW19443   8.673   0.325   2.311
39806SOL    HW119444   8.738   0.251   2.300
39806SOL    HW219445   8.693   0.375   2.395
39807SOL     OW19446   8.042   0.745   2.514
39807SOL    HW119447   8.092   0.830   2.495
39807SOL    HW219448   7.954   0.747   2.466
39808SOL     OW19449   9.225   0.342   3.504
39808SOL    HW119450   9.208   0.373   3.410
39808SOL    HW219451   9.141   0.305   3.542
39809SOL     OW19452   9.178   0.934   3.379
39809SOL    HW119453   9.216   1.025   3.394
39809SOL    HW219454   9.170   0.917   3.280
39810SOL     OW19455   8.307   1.374   1.878
39810SOL    HW119456   8.261   1.389   1.966
39810SOL    HW219457   8.351   1.459   1.848
39811SOL     OW19458   8.109   1.790   2.815
39811SOL    HW119459   8.063   1.878   2.802
39811SOL    HW219460   8.208   1.802   2.808
39812SOL     OW19461   8.307   0.956   2.723
39812SOL    HW119462   8.361   0.887   2.771
39812SOL    HW219463   8.275   1.025   2.789
39813SOL     OW19464   8.531   0.984   1.949
39813SOL    HW119465   8.508   1.037   1.867
39813SOL    HW219466   8.612   0.928   1.930
39814SOL     OW19467   9.309   1.569   2.713
39814SOL    HW119468   9.238   1.557   2.643
39814SOL    HW219469   9.310   1.490   2.773
39815SOL     OW19470   7.669   1.314   3.706
39815SOL    HW119471   7.604   1.241   3.685
39815SOL    HW219472   7.673   1.328   3.804
39816SOL     OW19473   7.527   1.240   2.515
39816SOL    HW119474   7.526   1.193   2.603
39816SOL    HW219475   7.609   1.212   2.464
39817SOL     OW19476   8.120   1.391   3.486
39817SOL    HW119477   8.042   1.341   3.524
39817SOL    HW219478   8.117   1.486   3.517
39818SOL     OW19479   9.272   0.192   3.089
39818SOL    HW119480   9.268   0.102   3.133
39818SOL    HW219481   9.275   0.181   2.990
39819SOL     OW19482   7.876   0.424   2.382
39819SOL    HW119483   7.906   0.352   2.320
39819SOL    HW219484   7.837   0.384   2.465
39820SOL     OW19485   9.153   1.487   2.966
39820SOL    HW119486   9.060   1.462   2.939
39820SOL    HW219487   9.179   1.437   3.048
39821SOL     OW19488   7.765   0.547   3.142
39821SOL    HW119489   7.803   0.488   3.214
39821SOL    HW219490   7.805   0.521   3.054
39822SOL     OW19491   8.260   1.586   2.549
39822SOL    HW119492   8.292   1.596   2.455
39822SOL    HW219493   8.181   1.524   2.551
39823SOL     OW19494   8.872   0.214   2.974
39823SOL    HW119495   8.924   0.149   3.029
39823SOL    HW219496   8.823   0.277   3.035
39824SOL     OW19497   8.449   0.034   3.016
39824SOL    HW119498   8.386  -0.038   2.985
39824SOL    HW219499   8.542  -0.002   3.016
39825SOL     OW19500   8.218   1.330   2.163
39825SOL    HW119501   8.172   1.243   2.180
39825SOL    HW219502   8.309   1.327   2.204
39826SOL     OW19503   8.066   1.567   3.146
39826SOL    HW119504   8.061   1.649   3.203
39826SOL    HW219505   8.155   1.564   3.101
39827SOL     OW19506   8.800   0.052   2.030
39827SOL    HW119507   8.835   0.011   1.946
39827SOL    HW219508   8.710   0.014   2.050
39828SOL     OW19509   8.748   0.453   2.553
39828SOL    HW119510   8.689   0.533   2.557
39828SOL    HW219511   8.763   0.418   2.646
39829SOL     OW19512   9.041   0.221   2.744
39829SOL    HW119513   8.957   0.220   2.798
39829SOL    HW219514   9.043   0.304   2.688
39830SOL     OW19515   7.487   1.077   2.162
39830SOL    HW119516   7.586   1.066   2.153
39830SOL    HW219517   7.447   0.991   2.194
39831SOL     OW19518   8.323   1.646   2.199
39831SOL    HW119519   8.246   1.611   2.145
39831SOL    HW219520   8.291   1.717   2.261
39832SOL     OW19521   7.678   0.628   3.837
39832SOL    HW119522   7.585   0.626   3.874
39832SOL    HW219523   7.679   0.589   3.745
39833SOL     OW19524   7.673   0.275   4.720
39833SOL    HW119525   7.708   0.258   4.812
39833SOL    HW219526   7.585   0.230   4.708
39834SOL     OW19527   7.467   0.368   4.371
39834SOL    HW119528   7.385   0.411   4.410
39834SOL    HW219529   7.439   0.295   4.308
39835SOL     OW19530   8.017   1.275   4.889
39835SOL    HW119531   7.924   1.268   4.852
39835SOL    HW219532   8.028   1.364   4.933
39836SOL     OW19533   9.003   1.511   4.427
39836SOL    HW119534   8.946   1.495   4.508
39836SOL    HW219535   8.944   1.521   4.347
39837SOL     OW19536   8.583   0.703   4.441
39837SOL    HW119537   8.640   0.781   4.416
39837SOL    HW219538   8.523   0.729   4.517
39838SOL     OW19539   9.203   0.607   3.955
39838SOL    HW119540   9.191   0.594   3.856
39838SOL    HW219541   9.173   0.526   4.004
39839SOL     OW19542   8.216   1.144   4.747
39839SOL    HW119543   8.138   1.161   4.807
39839SOL    HW219544   8.250   1.231   4.711
39840SOL     OW19545   8.298   0.798   5.547
39840SOL    HW119546   8.294   0.874   5.612
39840SOL    HW219547   8.320   0.834   5.456
39841SOL     OW19548   8.133   1.012   4.389
39841SOL    HW119549   8.202   0.996   4.459
39841SOL    HW219550   8.060   1.069   4.427
39842SOL     OW19551   8.134   1.161   5.527
39842SOL    HW119552   8.194   1.240   5.541
39842SOL    HW219553   8.048   1.192   5.486
39843SOL     OW19554   7.783   1.435   4.785
39843SOL    HW119555   7.705   1.404   4.732
39843SOL    HW219556   7.841   1.493   4.728
39844SOL     OW19557   8.908   1.505   5.063
39844SOL    HW119558   8.932   1.599   5.089
39844SOL    HW219559   8.892   1.451   5.145
39845SOL     OW19560   7.886   0.392   5.223
39845SOL    HW119561   7.968   0.336   5.232
39845SOL    HW219562   7.805   0.334   5.227
39846SOL     OW19563   9.051   0.447   4.461
39846SOL    HW119564   8.977   0.493   4.411
39846SOL    HW219565   9.102   0.515   4.514
39847SOL     OW19566   7.679   1.713   4.207
39847SOL    HW119567   7.713   1.790   4.261
39847SOL    HW219568   7.723   1.713   4.117
39848SOL     OW19569   8.575   1.341   5.414
39848SOL    HW119570   8.622   1.341   5.502
39848SOL    HW219571   8.527   1.254   5.403
39849SOL     OW19572   7.678   1.434   4.262
39849SOL    HW119573   7.652   1.530   4.262
39849SOL    HW219574   7.607   1.380   4.307
39850SOL     OW19575   7.688   1.091   4.610
39850SOL    HW119576   7.702   1.007   4.662
39850SOL    HW219577   7.633   1.155   4.665
39851SOL     OW19578   8.068   1.786   5.163
39851SOL    HW119579   7.976   1.769   5.198
39851SOL    HW219580   8.096   1.878   5.189
39852SOL     OW19581   8.054   0.964   3.847
39852SOL    HW119582   8.061   1.048   3.793
39852SOL    HW219583   8.100   0.977   3.935
39853SOL     OW19584   9.042   0.114   5.204
39853SOL    HW119585   9.024   0.181   5.132
39853SOL    HW219586   9.039   0.160   5.293
39854SOL     OW19587   7.570   0.643   4.287
39854SOL    HW119588   7.525   0.555   4.304
39854SOL    HW219589   7.569   0.697   4.371
39855SOL     OW19590   9.290   1.767   4.083
39855SOL    HW119591   9.344   1.738   4.163
39855SOL    HW219592   9.320   1.857   4.054
39856SOL     OW19593   7.475   1.596   3.841
39856SOL    HW119594   7.456   1.500   3.862
39856SOL    HW219595   7.442   1.654   3.916
39857SOL     OW19596   9.137   0.922   4.336
39857SOL    HW119597   9.232   0.893   4.344
39857SOL    HW219598   9.129   0.987   4.261
39858SOL     OW19599   9.089   1.108   4.156
39858SOL    HW119600   9.175   1.110   4.104
39858SOL    HW219601   9.103   1.155   4.244
39859SOL     OW19602   7.561   0.737   5.321
39859SOL    HW119603   7.649   0.724   5.366
39859SOL    HW219604   7.548   0.834   5.299
39860SOL     OW19605   8.061   1.365   4.450
39860SOL    HW119606   8.012   1.278   4.459
39860SOL    HW219607   8.038   1.408   4.363
39861SOL     OW19608   8.741   1.228   5.147
39861SOL    HW119609   8.778   1.155   5.089
39861SOL    HW219610   8.793   1.233   5.232
39862SOL     OW19611   8.257   0.004   4.226
39862SOL    HW119612   8.297   0.095   4.217
39862SOL    HW219613   8.157   0.012   4.232
39863SOL     OW19614   7.645   0.976   4.988
39863SOL    HW119615   7.734   0.931   4.974
39863SOL    HW219616   7.572   0.911   4.969
39864SOL     OW19617   8.973   0.999   3.914
39864SOL    HW119618   8.910   0.923   3.927
39864SOL    HW219619   9.021   1.017   4.000
39865SOL     OW19620   8.635   1.792   5.340
39865SOL    HW119621   8.659   1.852   5.264
39865SOL    HW219622   8.642   1.697   5.310
39866SOL     OW19623   7.765   0.251   5.525
39866SOL    HW119624   7.836   0.322   5.531
39866SOL    HW219625   7.677   0.290   5.553
39867SOL     OW19626   8.914   1.417   4.677
39867SOL    HW119627   8.855   1.423   4.757
39867SOL    HW219628   8.899   1.329   4.631
39868SOL     OW19629   9.115   1.714   4.296
39868SOL    HW119630   9.074   1.691   4.208
39868SOL    HW219631   9.097   1.640   4.361
39869SOL     OW19632   8.046   0.729   3.994
39869SOL    HW119633   8.070   0.798   3.926
39869SOL    HW219634   7.968   0.762   4.048
39870SOL     OW19635   8.729   0.345   4.668
39870SOL    HW119636   8.643   0.295   4.655
39870SOL    HW219637   8.791   0.291   4.724
39871SOL     OW19638   9.024   1.662   4.031
39871SOL    HW119639   9.113   1.708   4.034
39871SOL    HW219640   9.003   1.638   3.936
39872SOL     OW19641   8.255   0.605   5.189
39872SOL    HW119642   8.208   0.602   5.278
39872SOL    HW219643   8.204   0.550   5.123
39873SOL     OW19644   8.842   0.469   5.398
39873SOL    HW119645   8.822   0.512   5.486
39873SOL    HW219646   8.920   0.407   5.407
39874SOL     OW19647   8.421   0.890   5.296
39874SOL    HW119648   8.467   0.806   5.267
39874SOL    HW219649   8.365   0.924   5.221
39875SOL     OW19650   8.439   0.410   4.966
39875SOL    HW119651   8.362   0.444   5.020
39875SOL    HW219652   8.405   0.359   4.887
39876SOL     OW19653   8.489   0.701   4.153
39876SOL    HW119654   8.515   0.697   4.249
39876SOL    HW219655   8.404   0.650   4.139
39877SOL     OW19656   7.524   0.811   4.513
39877SOL    HW119657   7.623   0.799   4.522
39877SOL    HW219658   7.500   0.906   4.534
39878SOL     OW19659   7.578   1.821   5.295
39878SOL    HW119660   7.568   1.806   5.394
39878SOL    HW219661   7.492   1.857   5.259
39879SOL     OW19662   8.313   0.348   3.919
39879SOL    HW119663   8.372   0.411   3.870
39879SOL    HW219664   8.332   0.254   3.890
39880SOL     OW19665   9.167   0.585   5.555
39880SOL    HW119666   9.141   0.674   5.519
39880SOL    HW219667   9.165   0.517   5.482
39881SOL     OW19668   8.810   1.144   4.269
39881SOL    HW119669   8.893   1.115   4.221
39881SOL    HW219670   8.761   1.211   4.213
39882SOL     OW19671   7.998   0.196   4.609
39882SOL    HW119672   7.993   0.191   4.709
39882SOL    HW219673   8.000   0.292   4.580
39883SOL     OW19674   8.456   1.456   4.201
39883SOL    HW119675   8.410   1.528   4.149
39883SOL    HW219676   8.452   1.476   4.299
39884SOL     OW19677   7.799   1.801   4.577
39884SOL    HW119678   7.849   1.715   4.583
39884SOL    HW219679   7.864   1.878   4.574
39885SOL     OW19680   9.243   1.066   4.597
39885SOL    HW119681   9.181   1.051   4.521
39885SOL    HW219682   9.191   1.077   4.682
39886SOL     OW19683   8.675   1.550   5.230
39886SOL    HW119684   8.681   1.473   5.294
39886SOL    HW219685   8.623   1.524   5.150
39887SOL     OW19686   7.769   0.943   3.966
39887SOL    HW119687   7.851   0.982   3.924
39887SOL    HW219688   7.742   0.861   3.917
39888SOL     OW19689   8.906   0.735   4.452
39888SOL    HW119690   8.901   0.670   4.527
39888SOL    HW219691   8.986   0.794   4.465
39889SOL     OW19692   7.909   1.266   5.451
39889SOL    HW119693   7.859   1.267   5.365
39889SOL    HW219694   7.846   1.248   5.527
39890SOL     OW19695   8.559   1.776   3.961
39890SOL    HW119696   8.499   1.714   4.011
39890SOL    HW219697   8.590   1.732   3.876
39891SOL     OW19698   7.650   0.285   5.222
39891SOL    HW119699   7.570   0.345   5.209
39891SOL    HW219700   7.640   0.236   5.308
39892SOL     OW19701   9.080   1.377   3.805
39892SOL    HW119702   9.048   1.471   3.795
39892SOL    HW219703   9.004   1.314   3.793
39893SOL     OW19704   7.912   1.743   4.047
39893SOL    HW119705   7.945   1.782   4.133
39893SOL    HW219706   7.988   1.736   3.982
39894SOL     OW19707   8.848   0.107   4.150
39894SOL    HW119708   8.824   0.070   4.060
39894SOL    HW219709   8.947   0.123   4.154
39895SOL     OW19710   7.697   1.785   4.965
39895SOL    HW119711   7.754   1.720   5.015
39895SOL    HW219712   7.681   1.752   4.872
39896SOL     OW19713   8.388   1.698   4.628
39896SOL    HW119714   8.468   1.641   4.649
39896SOL    HW219715   8.339   1.658   4.551
39897SOL     OW19716   7.830   0.700   4.204
39897SOL    HW119717   7.875   0.610   4.201
39897SOL    HW219718   7.736   0.689   4.237
39898SOL     OW19719   8.995   0.222   5.453
39898SOL    HW119720   8.990   0.259   5.545
39898SOL    HW219721   8.923   0.153   5.441
39899SOL     OW19722   8.062   0.122   3.841
39899SOL    HW119723   8.160   0.100   3.848
39899SOL    HW219724   8.031   0.105   3.748
39900SOL     OW19725   8.229   0.264   5.473
39900SOL    HW119726   8.296   0.203   5.516
39900SOL    HW219727   8.156   0.283   5.538
39901SOL     OW19728   8.336   1.514   4.919
39901SOL    HW119729   8.313   1.489   4.825
39901SOL    HW219730   8.397   1.445   4.958
39902SOL     OW19731   8.799   0.590   5.157
39902SOL    HW119732   8.827   0.547   5.242
39902SOL    HW219733   8.824   0.686   5.158
39903SOL     OW19734   8.251   1.402   4.648
39903SOL    HW119735   8.341   1.416   4.606
39903SOL    HW219736   8.180   1.404   4.577
39904SOL     OW19737   8.370   0.503   4.623
39904SOL    HW119738   8.345   0.494   4.527
39904SOL    HW219739   8.418   0.421   4.654
39905SOL     OW19740   7.987   0.064   4.236
39905SOL    HW119741   7.906   0.065   4.294
39905SOL    HW219742   7.990   0.147   4.181
39906SOL     OW19743   8.882   1.188   3.765
39906SOL    HW119744   8.914   1.112   3.822
39906SOL    HW219745   8.790   1.215   3.795
39907SOL     OW19746   7.745   0.035   3.895
39907SOL    HW119747   7.794   0.119   3.874
39907SOL    HW219748   7.807  -0.030   3.940
39908SOL     OW19749   8.383   0.236   4.204
39908SOL    HW119750   8.335   0.277   4.126
39908SOL    HW219751   8.482   0.234   4.185
39909SOL     OW19752   8.524   0.683   5.188
39909SOL    HW119753   8.444   0.622   5.191
39909SOL    HW219754   8.605   0.630   5.164
39910SOL     OW19755   8.675   1.570   4.517
39910SOL    HW119756   8.696   1.644   4.452
39910SOL    HW219757   8.743   1.570   4.590
39911SOL     OW19758   7.907   1.152   4.465
39911SOL    HW119759   7.836   1.125   4.530
39911SOL    HW219760   7.881   1.124   4.372
39912SOL     OW19761   8.719   1.797   4.315
39912SOL    HW119762   8.763   1.861   4.251
39912SOL    HW219763   8.669   1.849   4.385
39913SOL     OW19764   8.480   0.549   3.740
39913SOL    HW119765   8.439   0.631   3.701
39913SOL    HW219766   8.544   0.575   3.813
39914SOL     OW19767   7.526   0.556   5.110
39914SOL    HW119768   7.618   0.555   5.069
39914SOL    HW219769   7.520   0.630   5.177
39915SOL     OW19770   8.009   0.222   4.871
39915SOL    HW119771   8.047   0.138   4.908
39915SOL    HW219772   7.921   0.241   4.915
39916SOL     OW19773   8.314   0.454   4.366
39916SOL    HW119774   8.282   0.526   4.304
39916SOL    HW219775   8.338   0.373   4.313
39917SOL     OW19776   8.465   0.039   4.477
39917SOL    HW119777   8.393   0.044   4.408
39917SOL    HW219778   8.441  -0.030   4.546
39918SOL     OW19779   8.877   1.173   4.591
39918SOL    HW119780   8.822   1.089   4.584
39918SOL    HW219781   8.903   1.202   4.499
39919SOL     OW19782   8.914   0.590   4.716
39919SOL    HW119783   8.884   0.495   4.723
39919SOL    HW219784   8.987   0.606   4.782
39920SOL     OW19785   9.305   0.833   4.101
39920SOL    HW119786   9.347   0.769   4.165
39920SOL    HW219787   9.267   0.782   4.023
39921SOL     OW19788   7.936   1.385   3.898
39921SOL    HW119789   7.849   1.370   3.945
39921SOL    HW219790   7.919   1.411   3.803
39922SOL     OW19791   9.112   1.280   4.381
39922SOL    HW119792   9.211   1.288   4.395
39922SOL    HW219793   9.067   1.364   4.412
39923SOL     OW19794   8.838   0.575   3.802
39923SOL    HW119795   8.784   0.554   3.883
39923SOL    HW219796   8.929   0.534   3.811
39924SOL     OW19797   7.975   0.256   4.052
39924SOL    HW119798   8.002   0.197   3.977
39924SOL    HW219799   7.975   0.351   4.021
39925SOL     OW19800   9.202   1.223   5.312
39925SOL    HW119801   9.293   1.184   5.299
39925SOL    HW219802   9.210   1.319   5.336
39926SOL     OW19803   8.512   1.347   5.064
39926SOL    HW119804   8.432   1.324   5.119
39926SOL    HW219805   8.595   1.321   5.113
39927SOL     OW19806   9.040   1.629   5.349
39927SOL    HW119807   9.067   1.663   5.259
39927SOL    HW219808   9.119   1.591   5.395
39928SOL     OW19809   8.559   1.195   4.824
39928SOL    HW119810   8.519   1.239   4.905
39928SOL    HW219811   8.518   1.232   4.741
39929SOL     OW19812   9.086   1.099   4.803
39929SOL    HW119813   9.091   1.180   4.862
39929SOL    HW219814   9.000   1.101   4.752
39930SOL     OW19815   8.363   0.089   5.126
39930SOL    HW119816   8.388   0.069   5.031
39930SOL    HW219817   8.435   0.145   5.168
39931SOL     OW19818   8.428   1.116   5.443
39931SOL    HW119819   8.329   1.122   5.453
39931SOL    HW219820   8.451   1.036   5.387
39932SOL     OW19821   8.153   1.050   4.092
39932SOL    HW119822   8.139   1.057   4.191
39932SOL    HW219823   8.237   0.999   4.074
39933SOL     OW19824   7.858   0.813   4.975
39933SOL    HW119825   7.944   0.825   5.025
39933SOL    HW219826   7.816   0.726   5.002
39934SOL     OW19827   8.722   0.386   4.986
39934SOL    HW119828   8.743   0.460   5.050
39934SOL    HW219829   8.633   0.403   4.943
39935SOL     OW19830   7.512   1.564   5.055
39935SOL    HW119831   7.466   1.646   5.021
39935SOL    HW219832   7.610   1.583   5.064
39936SOL     OW19833   7.815   1.100   4.225
39936SOL    HW119834   7.808   1.183   4.169
39936SOL    HW219835   7.819   1.020   4.165
39937SOL     OW19836   8.014   0.537   4.589
39937SOL    HW119837   8.026   0.603   4.515
39937SOL    HW219838   8.060   0.571   4.672
39938SOL     OW19839   8.700   1.348   4.112
39938SOL    HW119840   8.750   1.425   4.152
39938SOL    HW219841   8.605   1.350   4.144
39939SOL     OW19842   8.720   1.445   4.866
39939SOL    HW119843   8.767   1.458   4.953
39939SOL    HW219844   8.654   1.371   4.875
39940SOL     OW19845   9.030   0.639   4.196
39940SOL    HW119846   8.999   0.700   4.269
39940SOL    HW219847   9.080   0.691   4.127
39941SOL     OW19848   7.802   1.510   5.053
39941SOL    HW119849   7.781   1.466   4.966
39941SOL    HW219850   7.899   1.536   5.056
39942SOL     OW19851   7.850   0.751   5.322
39942SOL    HW119852   7.918   0.806   5.275
39942SOL    HW219853   7.890   0.663   5.349
39943SOL     OW19854   9.035   0.779   5.394
39943SOL    HW119855   8.943   0.817   5.389
39943SOL    HW219856   9.095   0.826   5.329
39944SOL     OW19857   8.461   0.105   5.494
39944SOL    HW119858   8.467   0.190   5.442
39944SOL    HW219859   8.493   0.029   5.437
39945SOL     OW19860   7.952   0.050   5.464
39945SOL    HW119861   7.910  -0.007   5.394
39945SOL    HW219862   7.886   0.119   5.496
39946SOL     OW19863   8.021   0.870   4.753
39946SOL    HW119864   8.065   0.959   4.744
39946SOL    HW219865   7.958   0.870   4.830
39947SOL     OW19866   8.808   0.862   4.769
39947SOL    HW119867   8.733   0.862   4.703
39947SOL    HW219868   8.845   0.770   4.778
39948SOL     OW19869   8.657   0.525   3.999
39948SOL    HW119870   8.670   0.441   4.053
39948SOL    HW219871   8.628   0.599   4.059
39949SOL     OW19872   7.755   0.213   4.955
39949SOL    HW119873   7.732   0.250   5.045
39949SOL    HW219874   7.725   0.118   4.949
39950SOL     OW19875   7.485   1.310   5.006
39950SOL    HW119876   7.538   1.261   5.074
39950SOL    HW219877   7.507   1.408   5.011
39951SOL     OW19878   8.180   0.634   4.788
39951SOL    HW119879   8.239   0.608   4.712
39951SOL    HW219880   8.152   0.730   4.777
39952SOL     OW19881   9.176   0.935   5.578
39952SOL    HW119882   9.130   0.928   5.489
39952SOL    HW219883   9.114   0.979   5.644
39953SOL     OW19884   7.755   0.063   4.342
39953SOL    HW119885   7.744   0.157   4.375
39953SOL    HW219886   7.750   0.000   4.419
39954SOL     OW19887   9.070   0.367   4.098
39954SOL    HW119888   9.072   0.291   4.162
39954SOL    HW219889   9.022   0.444   4.138
39955SOL     OW19890   8.471   0.766   4.690
39955SOL    HW119891   8.486   0.787   4.786
39955SOL    HW219892   8.441   0.671   4.681
39956SOL     OW19893   8.428   1.573   5.424
39956SOL    HW119894   8.408   1.617   5.336
39956SOL    HW219895   8.467   1.482   5.408
39957SOL     OW19896   9.307   1.518   5.329
39957SOL    HW119897   9.321   1.545   5.234
39957SOL    HW219898   9.390   1.540   5.382
39958SOL     OW19899   7.798   0.898   5.528
39958SOL    HW119900   7.874   0.942   5.576
39958SOL    HW219901   7.833   0.851   5.446
39959SOL     OW19902   8.988   0.274   3.849
39959SOL    HW119903   8.927   0.199   3.872
39959SOL    HW219904   9.010   0.326   3.932
39960SOL     OW19905   8.751   0.838   3.766
39960SOL    HW119906   8.785   0.745   3.781
39960SOL    HW219907   8.769   0.865   3.671
39961SOL     OW19908   8.516   1.333   4.573
39961SOL    HW119909   8.523   1.249   4.518
39961SOL    HW219910   8.578   1.402   4.537
39962SOL     OW19911   7.767   0.810   4.673
39962SOL    HW119912   7.860   0.846   4.678
39962SOL    HW219913   7.761   0.725   4.725
39963SOL     OW19914   7.787   0.509   4.730
39963SOL    HW119915   7.735   0.426   4.713
39963SOL    HW219916   7.864   0.514   4.666
39964SOL     OW19917   8.586   0.380   5.402
39964SOL    HW119918   8.541   0.443   5.466
39964SOL    HW219919   8.679   0.411   5.385
39965SOL     OW19920   8.608   0.207   5.201
39965SOL    HW119921   8.608   0.271   5.278
39965SOL    HW219922   8.636   0.255   5.118
39966SOL     OW19923   7.456   1.326   3.924
39966SOL    HW119924   7.363   1.347   3.893
39966SOL    HW219925   7.466   1.227   3.937
39967SOL     OW19926   7.536   1.801   4.651
39967SOL    HW119927   7.494   1.715   4.624
39967SOL    HW219928   7.630   1.804   4.617
39968SOL     OW19929   7.952   1.568   4.634
39968SOL    HW119930   8.018   1.642   4.643
39968SOL    HW219931   7.996   1.489   4.592
39969SOL     OW19932   8.450   0.796   4.962
39969SOL    HW119933   8.491   0.764   5.048
39969SOL    HW219934   8.354   0.769   4.959
39970SOL     OW19935   7.488   0.544   4.838
39970SOL    HW119936   7.573   0.511   4.797
39970SOL    HW219937   7.501   0.559   4.936
39971SOL     OW19938   7.637   0.520   5.446
39971SOL    HW119939   7.696   0.480   5.376
39971SOL    HW219940   7.579   0.591   5.405
39972SOL     OW19941   8.817   0.950   5.384
39972SOL    HW119942   8.856   1.039   5.404
39972SOL    HW219943   8.827   0.930   5.287
39973SOL     OW19944   8.263   0.572   4.049
39973SOL    HW119945   8.270   0.483   4.003
39973SOL    HW219946   8.169   0.606   4.041
39974SOL     OW19947   9.105   0.604   4.930
39974SOL    HW119948   9.067   0.535   4.992
39974SOL    HW219949   9.187   0.568   4.886
39975SOL     OW19950   7.700   1.564   5.468
39975SOL    HW119951   7.670   1.621   5.544
39975SOL    HW219952   7.693   1.467   5.494
39976SOL     OW19953   8.119   0.464   4.993
39976SOL    HW119954   8.085   0.375   4.963
39976SOL    HW219955   8.145   0.518   4.913
39977SOL     OW19956   8.378   1.678   5.189
39977SOL    HW119957   8.354   1.660   5.094
39977SOL    HW219958   8.408   1.772   5.199
39978SOL     OW19959   7.921   0.500   3.915
39978SOL    HW119960   7.982   0.580   3.919
39978SOL    HW219961   7.826   0.531   3.922
39979SOL     OW19962   7.607   1.137   5.190
39979SOL    HW119963   7.629   1.076   5.266
39979SOL    HW219964   7.617   1.088   5.104
39980SOL     OW19965   8.795   1.059   4.958
39980SOL    HW119966   8.819   0.996   4.884
39980SOL    HW219967   8.705   1.099   4.940
39981SOL     OW19968   8.750   0.855   4.033
39981SOL    HW119969   8.664   0.824   4.075
39981SOL    HW219970   8.746   0.841   3.934
39982SOL     OW19971   9.207   1.747   4.878
39982SOL    HW119972   9.268   1.777   4.805
39982SOL    HW219973   9.169   1.658   4.856
39983SOL     OW19974   8.700   1.731   4.852
39983SOL    HW119975   8.784   1.736   4.798
39983SOL    HW219976   8.677   1.635   4.870
39984SOL     OW19977   7.531   1.258   4.746
39984SOL    HW119978   7.526   1.257   4.846
39984SOL    HW219979   7.448   1.217   4.708
39985SOL     OW19980   8.136   1.662   5.440
39985SOL    HW119981   8.080   1.743   5.449
39985SOL    HW219982   8.188   1.666   5.354
39986SOL     OW19983   9.174   0.135   4.247
39986SOL    HW119984   9.247   0.118   4.180
39986SOL    HW219985   9.143   0.048   4.285
39987SOL     OW19986   8.836   1.573   4.201
39987SOL    HW119987   8.903   1.585   4.127
39987SOL    HW219988   8.796   1.662   4.224
39988SOL     OW19989   7.578   1.794   5.575
39988SOL    HW119990   7.537   1.720   5.628
39988SOL    HW219991   7.642   1.845   5.633
39989SOL     OW19992   8.728   0.927   4.396
39989SOL    HW119993   8.788   0.846   4.398
39989SOL    HW219994   8.768   0.996   4.336
39990SOL     OW19995   8.278   1.273   5.146
39990SOL    HW119996   8.273   1.306   5.241
39990SOL    HW219997   8.192   1.292   5.100
39991SOL     OW19998   8.120   1.616   3.878
39991SOL    HW119999   8.129   1.626   3.779
39991SOL    HW220000   8.080   1.527   3.899
39992SOL     OW20001   9.098   1.720   5.118
39992SOL    HW120002   9.151   1.730   5.034
39992SOL    HW220003   9.071   1.810   5.152
39993SOL     OW20004   9.289   0.175   4.687
39993SOL    HW120005   9.328   0.090   4.651
39993SOL    HW220006   9.191   0.177   4.668
39994SOL     OW20007   7.711   0.326   4.444
39994SOL    HW120008   7.632   0.377   4.410
39994SOL    HW220009   7.702   0.311   4.542
39995SOL     OW20010   8.642   1.612   3.755
39995SOL    HW120011   8.648   1.519   3.792
39995SOL    HW220012   8.583   1.612   3.675
39996SOL     OW20013   8.270   1.002   5.096
39996SOL    HW120014   8.310   1.001   5.004
39996SOL    HW220015   8.280   1.094   5.136
39997SOL     OW20016   8.364   0.910   4.015
39997SOL    HW120017   8.427   0.948   3.947
39997SOL    HW220018   8.404   0.827   4.054
39998SOL     OW20019   8.952   1.607   3.768
39998SOL    HW120020   8.860   1.644   3.775
39998SOL    HW220021   8.990   1.627   3.678
39999SOL     OW20022   7.820   1.288   5.214
39999SOL    HW120023   7.807   1.381   5.180
39999SOL    HW220024   7.736   1.236   5.201
40000SOL     OW20025   9.062   1.292   5.013
40000SOL    HW120026   9.122   1.295   5.093
40000SOL    HW220027   8.987   1.356   5.026
40001SOL     OW20028   8.487   1.098   4.420
40001SOL    HW120029   8.417   1.051   4.474
40001SOL    HW220030   8.546   1.030   4.377
40002SOL     OW20031   8.462   0.236   4.695
40002SOL    HW120032   8.454   0.200   4.602
40002SOL    HW220033   8.460   0.160   4.760
40003SOL     OW20034   8.038   1.487   4.215
40003SOL    HW120035   8.080   1.429   4.145
40003SOL    HW220036   7.994   1.566   4.171
40004SOL     OW20037   9.157   0.385   5.105
40004SOL    HW120038   9.230   0.454   5.109
40004SOL    HW220039   9.185   0.310   5.046
40005SOL     OW20040   7.703   1.348   4.014
40005SOL    HW120041   7.607   1.349   3.987
40005SOL    HW220042   7.715   1.401   4.098
40006SOL     OW20043   7.553   1.013   5.450
40006SOL    HW120044   7.476   0.980   5.504
40006SOL    HW220045   7.638   0.983   5.492
40007SOL     OW20046   8.120   0.203   5.213
40007SOL    HW120047   8.210   0.187   5.173
40007SOL    HW220048   8.128   0.208   5.312
40008SOL     OW20049   7.523   0.345   3.757
40008SOL    HW120050   7.431   0.317   3.728
40008SOL    HW220051   7.554   0.422   3.701
40009SOL     OW20052   8.888   0.856   5.122
40009SOL    HW120053   8.831   0.908   5.059
40009SOL    HW220054   8.984   0.868   5.098
40010SOL     OW20055   7.520   0.166   4.042
40010SOL    HW120056   7.503   0.249   3.988
40010SOL    HW220057   7.610   0.129   4.020
40011SOL     OW20058   8.631   1.335   3.843
40011SOL    HW120059   8.532   1.324   3.845
40011SOL    HW220060   8.665   1.350   3.936
40012SOL     OW20061   8.061   0.842   5.155
40012SOL    HW120062   8.117   0.923   5.138
40012SOL    HW220063   8.120   0.762   5.158
40013SOL     OW20064   8.941   1.767   4.683
40013SOL    HW120065   8.974   1.831   4.614
40013SOL    HW220066   9.007   1.761   4.758
40014SOL     OW20067   8.164   0.565   5.432
40014SOL    HW120068   8.183   0.630   5.506
40014SOL    HW220069   8.224   0.485   5.441
40015SOL     OW20070   8.898   1.220   5.357
40015SOL    HW120071   8.889   1.210   5.456
40015SOL    HW220072   8.994   1.213   5.331
40016SOL     OW20073   7.838   1.741   5.284
40016SOL    HW120074   7.747   1.782   5.282
40016SOL    HW220075   7.831   1.647   5.316
40017SOL     OW20076   9.122   0.883   4.978
40017SOL    HW120077   9.095   0.794   4.941
40017SOL    HW220078   9.123   0.951   4.905
40018SOL     OW20079   8.673   0.325   4.173
40018SOL    HW120080   8.738   0.251   4.162
40018SOL    HW220081   8.693   0.375   4.257
40019SOL     OW20082   8.042   0.745   4.376
40019SOL    HW120083   8.092   0.830   4.357
40019SOL    HW220084   7.954   0.747   4.328
40020SOL     OW20085   9.225   0.342   5.366
40020SOL    HW120086   9.208   0.373   5.272
40020SOL    HW220087   9.141   0.305   5.404
40021SOL     OW20088   9.178   0.934   5.241
40021SOL    HW120089   9.216   1.025   5.256
40021SOL    HW220090   9.170   0.917   5.142
40022SOL     OW20091   8.307   1.374   3.740
40022SOL    HW120092   8.261   1.389   3.828
40022SOL    HW220093   8.351   1.459   3.710
40023SOL     OW20094   8.109   1.790   4.677
40023SOL    HW120095   8.063   1.878   4.664
40023SOL    HW220096   8.208   1.802   4.670
40024SOL     OW20097   8.307   0.956   4.585
40024SOL    HW120098   8.361   0.887   4.633
40024SOL    HW220099   8.275   1.025   4.651
40025SOL     OW20100   8.531   0.984   3.811
40025SOL    HW120101   8.508   1.037   3.729
40025SOL    HW220102   8.612   0.928   3.792
40026SOL     OW20103   9.309   1.569   4.575
40026SOL    HW120104   9.238   1.557   4.505
40026SOL    HW220105   9.310   1.490   4.635
40027SOL     OW20106   7.669   1.314   5.568
40027SOL    HW120107   7.604   1.241   5.547
40027SOL    HW220108   7.673   1.328   5.666
40028SOL     OW20109   7.527   1.240   4.377
40028SOL    HW120110   7.526   1.193   4.465
40028SOL    HW220111   7.609   1.212   4.326
40029SOL     OW20112   8.120   1.391   5.348
40029SOL    HW120113   8.042   1.341   5.386
40029SOL    HW220114   8.117   1.486   5.379
40030SOL     OW20115   9.272   0.192   4.951
40030SOL    HW120116   9.268   0.102   4.995
40030SOL    HW220117   9.275   0.181   4.852
40031SOL     OW20118   7.876   0.424   4.244
40031SOL    HW120119   7.906   0.352   4.182
40031SOL    HW220120   7.837   0.384   4.327
40032SOL     OW20121   9.153   1.487   4.828
40032SOL    HW120122   9.060   1.462   4.801
40032SOL    HW220123   9.179   1.437   4.910
40033SOL     OW20124   7.765   0.547   5.004
40033SOL    HW120125   7.803   0.488   5.076
40033SOL    HW220126   7.805   0.521   4.916
40034SOL     OW20127   8.260   1.586   4.411
40034SOL    HW120128   8.292   1.596   4.317
40034SOL    HW220129   8.181   1.524   4.413
40035SOL     OW20130   8.872   0.214   4.836
40035SOL    HW120131   8.924   0.149   4.891
40035SOL    HW220132   8.823   0.277   4.897
40036SOL     OW20133   8.449   0.034   4.878
40036SOL    HW120134   8.386  -0.038   4.847
40036SOL    HW220135   8.542  -0.002   4.878
40037SOL     OW20136   8.218   1.330   4.025
40037SOL    HW120137   8.172   1.243   4.042
40037SOL    HW220138   8.309   1.327   4.066
40038SOL     OW20139   8.066   1.567   5.008
40038SOL    HW120140   8.061   1.649   5.065
40038SOL    HW220141   8.155   1.564   4.963
40039SOL     OW20142   8.800   0.052   3.892
40039SOL    HW120143   8.835   0.011   3.808
40039SOL    HW220144   8.710   0.014   3.912
40040SOL     OW20145   8.748   0.453   4.415
40040SOL    HW120146   8.689   0.533   4.419
40040SOL    HW220147   8.763   0.418   4.508
40041SOL     OW20148   9.041   0.221   4.606
40041SOL    HW120149   8.957   0.220   4.660
40041SOL    HW220150   9.043   0.304   4.550
40042SOL     OW20151   7.487   1.077   4.024
40042SOL    HW120152   7.586   1.066   4.015
40042SOL    HW220153   7.447   0.991   4.056
40043SOL     OW20154   8.323   1.646   4.061
40043SOL    HW120155   8.246   1.611   4.007
40043SOL    HW220156   8.291   1.717   4.123
40044SOL     OW20157   7.678   0.628   5.699
40044SOL    HW120158   7.585   0.626   5.736
40044SOL    HW220159   7.679   0.589   5.607
40045SOL     OW20160   7.673   0.275   6.582
40045SOL    HW120161   7.708   0.258   6.674
40045SOL    HW220162   7.585   0.230   6.570
40046SOL     OW20163   7.467   0.368   6.233
40046SOL    HW120164   7.385   0.411   6.272
40046SOL    HW220165   7.439   0.295   6.170
40047SOL     OW20166   8.017   1.275   6.751
40047SOL    HW120167   7.924   1.268   6.714
40047SOL    HW220168   8.028   1.364   6.795
40048SOL     OW20169   9.003   1.511   6.289
40048SOL    HW120170   8.946   1.495   6.370
40048SOL    HW220171   8.944   1.521   6.209
40049SOL     OW20172   8.583   0.703   6.303
40049SOL    HW120173   8.640   0.781   6.278
40049SOL    HW220174   8.523   0.729   6.379
40050SOL     OW20175   9.203   0.607   5.817
40050SOL    HW120176   9.191   0.594   5.718
40050SOL    HW220177   9.173   0.526   5.866
40051SOL     OW20178   8.216   1.144   6.609
40051SOL    HW120179   8.138   1.161   6.669
40051SOL    HW220180   8.250   1.231   6.573
40052SOL     OW20181   8.298   0.798   7.409
40052SOL    HW120182   8.294   0.874   7.474
40052SOL    HW220183   8.320   0.834   7.318
40053SOL     OW20184   8.133   1.012   6.251
40053SOL    HW120185   8.202   0.996   6.321
40053SOL    HW220186   8.060   1.069   6.289
40054SOL     OW20187   8.134   1.161   7.389
40054SOL    HW120188   8.194   1.240   7.403
40054SOL    HW220189   8.048   1.192   7.348
40055SOL     OW20190   7.783   1.435   6.647
40055SOL    HW120191   7.705   1.404   6.594
40055SOL    HW220192   7.841   1.493   6.590
40056SOL     OW20193   8.908   1.505   6.925
40056SOL    HW120194   8.932   1.599   6.951
40056SOL    HW220195   8.892   1.451   7.007
40057SOL     OW20196   7.886   0.392   7.085
40057SOL    HW120197   7.968   0.336   7.094
40057SOL    HW220198   7.805   0.334   7.089
40058SOL     OW20199   9.051   0.447   6.323
40058SOL    HW120200   8.977   0.493   6.273
40058SOL    HW220201   9.102   0.515   6.376
40059SOL     OW20202   7.679   1.713   6.069
40059SOL    HW120203   7.713   1.790   6.123
40059SOL    HW220204   7.723   1.713   5.979
40060SOL     OW20205   8.575   1.341   7.276
40060SOL    HW120206   8.622   1.341   7.364
40060SOL    HW220207   8.527   1.254   7.265
40061SOL     OW20208   7.678   1.434   6.124
40061SOL    HW120209   7.652   1.530   6.124
40061SOL    HW220210   7.607   1.380   6.169
40062SOL     OW20211   7.688   1.091   6.472
40062SOL    HW120212   7.702   1.007   6.524
40062SOL    HW220213   7.633   1.155   6.527
40063SOL     OW20214   8.068   1.786   7.025
40063SOL    HW120215   7.976   1.769   7.060
40063SOL    HW220216   8.096   1.878   7.051
40064SOL     OW20217   8.054   0.964   5.709
40064SOL    HW120218   8.061   1.048   5.655
40064SOL    HW220219   8.100   0.977   5.797
40065SOL     OW20220   9.042   0.114   7.066
40065SOL    HW120221   9.024   0.181   6.994
40065SOL    HW220222   9.039   0.160   7.155
40066SOL     OW20223   7.570   0.643   6.149
40066SOL    HW120224   7.525   0.555   6.166
40066SOL    HW220225   7.569   0.697   6.233
40067SOL     OW20226   9.290   1.767   5.945
40067SOL    HW120227   9.344   1.738   6.025
40067SOL    HW220228   9.320   1.857   5.916
40068SOL     OW20229   7.475   1.596   5.703
40068SOL    HW120230   7.456   1.500   5.724
40068SOL    HW220231   7.442   1.654   5.778
40069SOL     OW20232   9.137   0.922   6.198
40069SOL    HW120233   9.232   0.893   6.206
40069SOL    HW220234   9.129   0.987   6.123
40070SOL     OW20235   9.089   1.108   6.018
40070SOL    HW120236   9.175   1.110   5.966
40070SOL    HW220237   9.103   1.155   6.106
40071SOL     OW20238   7.561   0.737   7.183
40071SOL    HW120239   7.649   0.724   7.228
40071SOL    HW220240   7.548   0.834   7.161
40072SOL     OW20241   8.061   1.365   6.312
40072SOL    HW120242   8.012   1.278   6.321
40072SOL    HW220243   8.038   1.408   6.225
40073SOL     OW20244   8.741   1.228   7.009
40073SOL    HW120245   8.778   1.155   6.951
40073SOL    HW220246   8.793   1.233   7.094
40074SOL     OW20247   8.257   0.004   6.088
40074SOL    HW120248   8.297   0.095   6.079
40074SOL    HW220249   8.157   0.012   6.094
40075SOL     OW20250   7.645   0.976   6.850
40075SOL    HW120251   7.734   0.931   6.836
40075SOL    HW220252   7.572   0.911   6.831
40076SOL     OW20253   8.973   0.999   5.776
40076SOL    HW120254   8.910   0.923   5.789
40076SOL    HW220255   9.021   1.017   5.862
40077SOL     OW20256   8.635   1.792   7.202
40077SOL    HW120257   8.659   1.852   7.126
40077SOL    HW220258   8.642   1.697   7.172
40078SOL     OW20259   7.765   0.251   7.387
40078SOL    HW120260   7.836   0.322   7.393
40078SOL    HW220261   7.677   0.290   7.415
40079SOL     OW20262   8.914   1.417   6.539
40079SOL    HW120263   8.855   1.423   6.619
40079SOL    HW220264   8.899   1.329   6.493
40080SOL     OW20265   9.115   1.714   6.158
40080SOL    HW120266   9.074   1.691   6.070
40080SOL    HW220267   9.097   1.640   6.223
40081SOL     OW20268   8.046   0.729   5.856
40081SOL    HW120269   8.070   0.798   5.788
40081SOL    HW220270   7.968   0.762   5.910
40082SOL     OW20271   8.729   0.345   6.530
40082SOL    HW120272   8.643   0.295   6.517
40082SOL    HW220273   8.791   0.291   6.586
40083SOL     OW20274   9.024   1.662   5.893
40083SOL    HW120275   9.113   1.708   5.896
40083SOL    HW220276   9.003   1.638   5.798
40084SOL     OW20277   8.255   0.605   7.051
40084SOL    HW120278   8.208   0.602   7.140
40084SOL    HW220279   8.204   0.550   6.985
40085SOL     OW20280   8.842   0.469   7.260
40085SOL    HW120281   8.822   0.512   7.348
40085SOL    HW220282   8.920   0.407   7.269
40086SOL     OW20283   8.421   0.890   7.158
40086SOL    HW120284   8.467   0.806   7.129
40086SOL    HW220285   8.365   0.924   7.083
40087SOL     OW20286   8.439   0.410   6.828
40087SOL    HW120287   8.362   0.444   6.882
40087SOL    HW220288   8.405   0.359   6.749
40088SOL     OW20289   8.489   0.701   6.015
40088SOL    HW120290   8.515   0.697   6.111
40088SOL    HW220291   8.404   0.650   6.001
40089SOL     OW20292   7.524   0.811   6.375
40089SOL    HW120293   7.623   0.799   6.384
40089SOL    HW220294   7.500   0.906   6.396
40090SOL     OW20295   7.578   1.821   7.157
40090SOL    HW120296   7.568   1.806   7.256
40090SOL    HW220297   7.492   1.857   7.121
40091SOL     OW20298   8.313   0.348   5.781
40091SOL    HW120299   8.372   0.411   5.732
40091SOL    HW220300   8.332   0.254   5.752
40092SOL     OW20301   9.167   0.585   7.417
40092SOL    HW120302   9.141   0.674   7.381
40092SOL    HW220303   9.165   0.517   7.344
40093SOL     OW20304   8.810   1.144   6.131
40093SOL    HW120305   8.893   1.115   6.083
40093SOL    HW220306   8.761   1.211   6.075
40094SOL     OW20307   7.998   0.196   6.471
40094SOL    HW120308   7.993   0.191   6.571
40094SOL    HW220309   8.000   0.292   6.442
40095SOL     OW20310   8.456   1.456   6.063
40095SOL    HW120311   8.410   1.528   6.011
40095SOL    HW220312   8.452   1.476   6.161
40096SOL     OW20313   7.799   1.801   6.439
40096SOL    HW120314   7.849   1.715   6.445
40096SOL    HW220315   7.864   1.878   6.436
40097SOL     OW20316   9.243   1.066   6.459
40097SOL    HW120317   9.181   1.051   6.383
40097SOL    HW220318   9.191   1.077   6.544
40098SOL     OW20319   8.675   1.550   7.092
40098SOL    HW120320   8.681   1.473   7.156
40098SOL    HW220321   8.623   1.524   7.012
40099SOL     OW20322   7.769   0.943   5.828
40099SOL    HW120323   7.851   0.982   5.786
40099SOL    HW220324   7.742   0.861   5.779
40100SOL     OW20325   8.906   0.735   6.314
40100SOL    HW120326   8.901   0.670   6.389
40100SOL    HW220327   8.986   0.794   6.327
40101SOL     OW20328   7.909   1.266   7.313
40101SOL    HW120329   7.859   1.267   7.227
40101SOL    HW220330   7.846   1.248   7.389
40102SOL     OW20331   8.559   1.776   5.823
40102SOL    HW120332   8.499   1.714   5.873
40102SOL    HW220333   8.590   1.732   5.738
40103SOL     OW20334   7.650   0.285   7.084
40103SOL    HW120335   7.570   0.345   7.071
40103SOL    HW220336   7.640   0.236   7.170
40104SOL     OW20337   9.080   1.377   5.667
40104SOL    HW120338   9.048   1.471   5.657
40104SOL    HW220339   9.004   1.314   5.655
40105SOL     OW20340   7.912   1.743   5.909
40105SOL    HW120341   7.945   1.782   5.995
40105SOL    HW220342   7.988   1.736   5.844
40106SOL     OW20343   8.848   0.107   6.012
40106SOL    HW120344   8.824   0.070   5.922
40106SOL    HW220345   8.947   0.123   6.016
40107SOL     OW20346   7.697   1.785   6.827
40107SOL    HW120347   7.754   1.720   6.877
40107SOL    HW220348   7.681   1.752   6.734
40108SOL     OW20349   8.388   1.698   6.490
40108SOL    HW120350   8.468   1.641   6.511
40108SOL    HW220351   8.339   1.658   6.413
40109SOL     OW20352   7.830   0.700   6.066
40109SOL    HW120353   7.875   0.610   6.063
40109SOL    HW220354   7.736   0.689   6.099
40110SOL     OW20355   8.995   0.222   7.315
40110SOL    HW120356   8.990   0.259   7.407
40110SOL    HW220357   8.923   0.153   7.303
40111SOL     OW20358   8.062   0.122   5.703
40111SOL    HW120359   8.160   0.100   5.710
40111SOL    HW220360   8.031   0.105   5.610
40112SOL     OW20361   8.229   0.264   7.335
40112SOL    HW120362   8.296   0.203   7.378
40112SOL    HW220363   8.156   0.283   7.400
40113SOL     OW20364   8.336   1.514   6.781
40113SOL    HW120365   8.313   1.489   6.687
40113SOL    HW220366   8.397   1.445   6.820
40114SOL     OW20367   8.799   0.590   7.019
40114SOL    HW120368   8.827   0.547   7.104
40114SOL    HW220369   8.824   0.686   7.020
40115SOL     OW20370   8.251   1.402   6.510
40115SOL    HW120371   8.341   1.416   6.468
40115SOL    HW220372   8.180   1.404   6.439
40116SOL     OW20373   8.370   0.503   6.485
40116SOL    HW120374   8.345   0.494   6.389
40116SOL    HW220375   8.418   0.421   6.516
40117SOL     OW20376   7.987   0.064   6.098
40117SOL    HW120377   7.906   0.065   6.156
40117SOL    HW220378   7.990   0.147   6.043
40118SOL     OW20379   8.882   1.188   5.627
40118SOL    HW120380   8.914   1.112   5.684
40118SOL    HW220381   8.790   1.215   5.657
40119SOL     OW20382   7.745   0.035   5.757
40119SOL    HW120383   7.794   0.119   5.736
40119SOL    HW220384   7.807  -0.030   5.802
40120SOL     OW20385   8.383   0.236   6.066
40120SOL    HW120386   8.335   0.277   5.988
40120SOL    HW220387   8.482   0.234   6.047
40121SOL     OW20388   8.524   0.683   7.050
40121SOL    HW120389   8.444   0.622   7.053
40121SOL    HW220390   8.605   0.630   7.026
40122SOL     OW20391   8.675   1.570   6.379
40122SOL    HW120392   8.696   1.644   6.314
40122SOL    HW220393   8.743   1.570   6.452
40123SOL     OW20394   7.907   1.152   6.327
40123SOL    HW120395   7.836   1.125   6.392
40123SOL    HW220396   7.881   1.124   6.234
40124SOL     OW20397   8.719   1.797   6.177
40124SOL    HW120398   8.763   1.861   6.113
40124SOL    HW220399   8.669   1.849   6.247
40125SOL     OW20400   8.480   0.549   5.602
40125SOL    HW120401   8.439   0.631   5.563
40125SOL    HW220402   8.544   0.575   5.675
40126SOL     OW20403   7.526   0.556   6.972
40126SOL    HW120404   7.618   0.555   6.931
40126SOL    HW220405   7.520   0.630   7.039
40127SOL     OW20406   8.009   0.222   6.733
40127SOL    HW120407   8.047   0.138   6.770
40127SOL    HW220408   7.921   0.241   6.777
40128SOL     OW20409   8.314   0.454   6.228
40128SOL    HW120410   8.282   0.526   6.166
40128SOL    HW220411   8.338   0.373   6.175
40129SOL     OW20412   8.465   0.039   6.339
40129SOL    HW120413   8.393   0.044   6.270
40129SOL    HW220414   8.441  -0.030   6.408
40130SOL     OW20415   8.877   1.173   6.453
40130SOL    HW120416   8.822   1.089   6.446
40130SOL    HW220417   8.903   1.202   6.361
40131SOL     OW20418   8.914   0.590   6.578
40131SOL    HW120419   8.884   0.495   6.585
40131SOL    HW220420   8.987   0.606   6.644
40132SOL     OW20421   9.305   0.833   5.963
40132SOL    HW120422   9.347   0.769   6.027
40132SOL    HW220423   9.267   0.782   5.885
40133SOL     OW20424   7.936   1.385   5.760
40133SOL    HW120425   7.849   1.370   5.807
40133SOL    HW220426   7.919   1.411   5.665
40134SOL     OW20427   9.112   1.280   6.243
40134SOL    HW120428   9.211   1.288   6.257
40134SOL    HW220429   9.067   1.364   6.274
40135SOL     OW20430   8.838   0.575   5.664
40135SOL    HW120431   8.784   0.554   5.745
40135SOL    HW220432   8.929   0.534   5.673
40136SOL     OW20433   7.975   0.256   5.914
40136SOL    HW120434   8.002   0.197   5.839
40136SOL    HW220435   7.975   0.351   5.883
40137SOL     OW20436   9.202   1.223   7.174
40137SOL    HW120437   9.293   1.184   7.161
40137SOL    HW220438   9.210   1.319   7.198
40138SOL     OW20439   8.512   1.347   6.926
40138SOL    HW120440   8.432   1.324   6.981
40138SOL    HW220441   8.595   1.321   6.975
40139SOL     OW20442   9.040   1.629   7.211
40139SOL    HW120443   9.067   1.663   7.121
40139SOL    HW220444   9.119   1.591   7.257
40140SOL     OW20445   8.559   1.195   6.686
40140SOL    HW120446   8.519   1.239   6.767
40140SOL    HW220447   8.518   1.232   6.603
40141SOL     OW20448   9.086   1.099   6.665
40141SOL    HW120449   9.091   1.180   6.724
40141SOL    HW220450   9.000   1.101   6.614
40142SOL     OW20451   8.363   0.089   6.988
40142SOL    HW120452   8.388   0.069   6.893
40142SOL    HW220453   8.435   0.145   7.030
40143SOL     OW20454   8.428   1.116   7.305
40143SOL    HW120455   8.329   1.122   7.315
40143SOL    HW220456   8.451   1.036   7.249
40144SOL     OW20457   8.153   1.050   5.954
40144SOL    HW120458   8.139   1.057   6.053
40144SOL    HW220459   8.237   0.999   5.936
40145SOL     OW20460   7.858   0.813   6.837
40145SOL    HW120461   7.944   0.825   6.887
40145SOL    HW220462   7.816   0.726   6.864
40146SOL     OW20463   8.722   0.386   6.848
40146SOL    HW120464   8.743   0.460   6.912
40146SOL    HW220465   8.633   0.403   6.805
40147SOL     OW20466   7.512   1.564   6.917
40147SOL    HW120467   7.466   1.646   6.883
40147SOL    HW220468   7.610   1.583   6.926
40148SOL     OW20469   7.815   1.100   6.087
40148SOL    HW120470   7.808   1.183   6.031
40148SOL    HW220471   7.819   1.020   6.027
40149SOL     OW20472   8.014   0.537   6.451
40149SOL    HW120473   8.026   0.603   6.377
40149SOL    HW220474   8.060   0.571   6.534
40150SOL     OW20475   8.700   1.348   5.974
40150SOL    HW120476   8.750   1.425   6.014
40150SOL    HW220477   8.605   1.350   6.006
40151SOL     OW20478   8.720   1.445   6.728
40151SOL    HW120479   8.767   1.458   6.815
40151SOL    HW220480   8.654   1.371   6.737
40152SOL     OW20481   9.030   0.639   6.058
40152SOL    HW120482   8.999   0.700   6.131
40152SOL    HW220483   9.080   0.691   5.989
40153SOL     OW20484   7.802   1.510   6.915
40153SOL    HW120485   7.781   1.466   6.828
40153SOL    HW220486   7.899   1.536   6.918
40154SOL     OW20487   7.850   0.751   7.184
40154SOL    HW120488   7.918   0.806   7.137
40154SOL    HW220489   7.890   0.663   7.211
40155SOL     OW20490   9.035   0.779   7.256
40155SOL    HW120491   8.943   0.817   7.251
40155SOL    HW220492   9.095   0.826   7.191
40156SOL     OW20493   8.461   0.105   7.356
40156SOL    HW120494   8.467   0.190   7.304
40156SOL    HW220495   8.493   0.029   7.299
40157SOL     OW20496   7.952   0.050   7.326
40157SOL    HW120497   7.910  -0.007   7.256
40157SOL    HW220498   7.886   0.119   7.358
40158SOL     OW20499   8.021   0.870   6.615
40158SOL    HW120500   8.065   0.959   6.606
40158SOL    HW220501   7.958   0.870   6.692
40159SOL     OW20502   8.808   0.862   6.631
40159SOL    HW120503   8.733   0.862   6.565
40159SOL    HW220504   8.845   0.770   6.640
40160SOL     OW20505   8.657   0.525   5.861
40160SOL    HW120506   8.670   0.441   5.915
40160SOL    HW220507   8.628   0.599   5.921
40161SOL     OW20508   7.755   0.213   6.817
40161SOL    HW120509   7.732   0.250   6.907
40161SOL    HW220510   7.725   0.118   6.811
40162SOL     OW20511   7.485   1.310   6.868
40162SOL    HW120512   7.538   1.261   6.936
40162SOL    HW220513   7.507   1.408   6.873
40163SOL     OW20514   8.180   0.634   6.650
40163SOL    HW120515   8.239   0.608   6.574
40163SOL    HW220516   8.152   0.730   6.639
40164SOL     OW20517   9.176   0.935   7.440
40164SOL    HW120518   9.130   0.928   7.351
40164SOL    HW220519   9.114   0.979   7.506
40165SOL     OW20520   7.755   0.063   6.204
40165SOL    HW120521   7.744   0.157   6.237
40165SOL    HW220522   7.750   0.000   6.281
40166SOL     OW20523   9.070   0.367   5.960
40166SOL    HW120524   9.072   0.291   6.024
40166SOL    HW220525   9.022   0.444   6.000
40167SOL     OW20526   8.471   0.766   6.552
40167SOL    HW120527   8.486   0.787   6.648
40167SOL    HW220528   8.441   0.671   6.543
40168SOL     OW20529   8.428   1.573   7.286
40168SOL    HW120530   8.408   1.617   7.198
40168SOL    HW220531   8.467   1.482   7.270
40169SOL     OW20532   9.307   1.518   7.191
40169SOL    HW120533   9.321   1.545   7.096
40169SOL    HW220534   9.390   1.540   7.244
40170SOL     OW20535   7.798   0.898   7.390
40170SOL    HW120536   7.874   0.942   7.438
40170SOL    HW220537   7.833   0.851   7.308
40171SOL     OW20538   8.988   0.274   5.711
40171SOL    HW120539   8.927   0.199   5.734
40171SOL    HW220540   9.010   0.326   5.794
40172SOL     OW20541   8.751   0.838   5.628
40172SOL    HW120542   8.785   0.745   5.643
40172SOL    HW220543   8.769   0.865   5.533
40173SOL     OW20544   8.516   1.333   6.435
40173SOL    HW120545   8.523   1.249   6.380
40173SOL    HW220546   8.578   1.402   6.399
40174SOL     OW20547   7.767   0.810   6.535
40174SOL    HW120548   7.860   0.846   6.540
40174SOL    HW220549   7.761   0.725   6.587
40175SOL     OW20550   7.787   0.509   6.592
40175SOL    HW120551   7.735   0.426   6.575
40175SOL    HW220552   7.864   0.514   6.528
40176SOL     OW20553   8.586   0.380   7.264
40176SOL    HW120554   8.541   0.443   7.328
40176SOL    HW220555   8.679   0.411   7.247
40177SOL     OW20556   8.608   0.207   7.063
40177SOL    HW120557   8.608   0.271   7.140
40177SOL    HW220558   8.636   0.255   6.980
40178SOL     OW20559   7.456   1.326   5.786
40178SOL    HW120560   7.363   1.347   5.755
40178SOL    HW220561   7.466   1.227   5.799
40179SOL     OW20562   7.536   1.801   6.513
40179SOL    HW120563   7.494   1.715   6.486
40179SOL    HW220564   7.630   1.804   6.479
40180SOL     OW20565   7.952   1.568   6.496
40180SOL    HW120566   8.018   1.642   6.505
40180SOL    HW220567   7.996   1.489   6.454
40181SOL     OW20568   8.450   0.796   6.824
40181SOL    HW120569   8.491   0.764   6.910
40181SOL    HW220570   8.354   0.769   6.821
40182SOL     OW20571   7.488   0.544   6.700
40182SOL    HW120572   7.573   0.511   6.659
40182SOL    HW220573   7.501   0.559   6.798
40183SOL     OW20574   7.637   0.520   7.308
40183SOL    HW120575   7.696   0.480   7.238
40183SOL    HW220576   7.579   0.591   7.267
40184SOL     OW20577   8.817   0.950   7.246
40184SOL    HW120578   8.856   1.039   7.266
40184SOL    HW220579   8.827   0.930   7.149
40185SOL     OW20580   8.263   0.572   5.911
40185SOL    HW120581   8.270   0.483   5.865
40185SOL    HW220582   8.169   0.606   5.903
40186SOL     OW20583   9.105   0.604   6.792
40186SOL    HW120584   9.067   0.535   6.854
40186SOL    HW220585   9.187   0.568   6.748
40187SOL     OW20586   7.700   1.564   7.330
40187SOL    HW120587   7.670   1.621   7.406
40187SOL    HW220588   7.693   1.467   7.356
40188SOL     OW20589   8.119   0.464   6.855
40188SOL    HW120590   8.085   0.375   6.825
40188SOL    HW220591   8.145   0.518   6.775
40189SOL     OW20592   8.378   1.678   7.051
40189SOL    HW120593   8.354   1.660   6.956
40189SOL    HW220594   8.408   1.772   7.061
40190SOL     OW20595   7.607   1.137   7.052
40190SOL    HW120596   7.629   1.076   7.128
40190SOL    HW220597   7.617   1.088   6.966
40191SOL     OW20598   8.795   1.059   6.820
40191SOL    HW120599   8.819   0.996   6.746
40191SOL    HW220600   8.705   1.099   6.802
40192SOL     OW20601   8.750   0.855   5.895
40192SOL    HW120602   8.664   0.824   5.937
40192SOL    HW220603   8.746   0.841   5.796
40193SOL     OW20604   9.207   1.747   6.740
40193SOL    HW120605   9.268   1.777   6.667
40193SOL    HW220606   9.169   1.658   6.718
40194SOL     OW20607   8.700   1.731   6.714
40194SOL    HW120608   8.784   1.736   6.660
40194SOL    HW220609   8.677   1.635   6.732
40195SOL     OW20610   7.531   1.258   6.608
40195SOL    HW120611   7.526   1.257   6.708
40195SOL    HW220612   7.448   1.217   6.570
40196SOL     OW20613   8.136   1.662   7.302
40196SOL    HW120614   8.080   1.743   7.311
40196SOL    HW220615   8.188   1.666   7.216
40197SOL     OW20616   9.174   0.135   6.109
40197SOL    HW120617   9.247   0.118   6.042
40197SOL    HW220618   9.143   0.048   6.147
40198SOL     OW20619   8.836   1.573   6.063
40198SOL    HW120620   8.903   1.585   5.989
40198SOL    HW220621   8.796   1.662   6.086
40199SOL     OW20622   7.578   1.794   7.437
40199SOL    HW120623   7.537   1.720   7.490
40199SOL    HW220624   7.642   1.845   7.495
40200SOL     OW20625   8.728   0.927   6.258
40200SOL    HW120626   8.788   0.846   6.260
40200SOL    HW220627   8.768   0.996   6.198
40201SOL     OW20628   8.278   1.273   7.008
40201SOL    HW120629   8.273   1.306   7.103
40201SOL    HW220630   8.192   1.292   6.962
40202SOL     OW20631   8.120   1.616   5.740
40202SOL    HW120632   8.129   1.626   5.641
40202SOL    HW220633   8.080   1.527   5.761
40203SOL     OW20634   9.098   1.720   6.980
40203SOL    HW120635   9.151   1.730   6.896
40203SOL    HW220636   9.071   1.810   7.014
40204SOL     OW20637   9.289   0.175   6.549
40204SOL    HW120638   9.328   0.090   6.513
40204SOL    HW220639   9.191   0.177   6.530
40205SOL     OW20640   7.711   0.326   6.306
40205SOL    HW120641   7.632   0.377   6.272
40205SOL    HW220642   7.702   0.311   6.404
40206SOL     OW20643   8.642   1.612   5.617
40206SOL    HW120644   8.648   1.519   5.654
40206SOL    HW220645   8.583   1.612   5.537
40207SOL     OW20646   8.270   1.002   6.958
40207SOL    HW120647   8.310   1.001   6.866
40207SOL    HW220648   8.280   1.094   6.998
40208SOL     OW20649   8.364   0.910   5.877
40208SOL    HW120650   8.427   0.948   5.809
40208SOL    HW220651   8.404   0.827   5.916
40209SOL     OW20652   8.952   1.607   5.630
40209SOL    HW120653   8.860   1.644   5.637
40209SOL    HW220654   8.990   1.627   5.540
40210SOL     OW20655   7.820   1.288   7.076
40210SOL    HW120656   7.807   1.381   7.042
40210SOL    HW220657   7.736   1.236   7.063
40211SOL     OW20658   9.062   1.292   6.875
40211SOL    HW120659   9.122   1.295   6.955
40211SOL    HW220660   8.987   1.356   6.888
40212SOL     OW20661   8.487   1.098   6.282
40212SOL    HW120662   8.417   1.051   6.336
40212SOL    HW220663   8.546   1.030   6.239
40213SOL     OW20664   8.462   0.236   6.557
40213SOL    HW120665   8.454   0.200   6.464
40213SOL    HW220666   8.460   0.160   6.622
40214SOL     OW20667   8.038   1.487   6.077
40214SOL    HW120668   8.080   1.429   6.007
40214SOL    HW220669   7.994   1.566   6.033
40215SOL     OW20670   9.157   0.385   6.967
40215SOL    HW120671   9.230   0.454   6.971
40215SOL    HW220672   9.185   0.310   6.908
40216SOL     OW20673   7.703   1.348   5.876
40216SOL    HW120674   7.607   1.349   5.849
40216SOL    HW220675   7.715   1.401   5.960
40217SOL     OW20676   7.553   1.013   7.312
40217SOL    HW120677   7.476   0.980   7.366
40217SOL    HW220678   7.638   0.983   7.354
40218SOL     OW20679   8.120   0.203   7.075
40218SOL    HW120680   8.210   0.187   7.035
40218SOL    HW220681   8.128   0.208   7.174
40219SOL     OW20682   7.523   0.345   5.619
40219SOL    HW120683   7.431   0.317   5.590
40219SOL    HW220684   7.554   0.422   5.563
40220SOL     OW20685   8.888   0.856   6.984
40220SOL    HW120686   8.831   0.908   6.921
40220SOL    HW220687   8.984   0.868   6.960
40221SOL     OW20688   7.520   0.166   5.904
40221SOL    HW120689   7.503   0.249   5.850
40221SOL    HW220690   7.610   0.129   5.882
40222SOL     OW20691   8.631   1.335   5.705
40222SOL    HW120692   8.532   1.324   5.707
40222SOL    HW220693   8.665   1.350   5.798
40223SOL     OW20694   8.061   0.842   7.017
40223SOL    HW120695   8.117   0.923   7.000
40223SOL    HW220696   8.120   0.762   7.020
40224SOL     OW20697   8.941   1.767   6.545
40224SOL    HW120698   8.974   1.831   6.476
40224SOL    HW220699   9.007   1.761   6.620
40225SOL     OW20700   8.164   0.565   7.294
40225SOL    HW120701   8.183   0.630   7.368
40225SOL    HW220702   8.224   0.485   7.303
40226SOL     OW20703   8.898   1.220   7.219
40226SOL    HW120704   8.889   1.210   7.318
40226SOL    HW220705   8.994   1.213   7.193
40227SOL     OW20706   7.838   1.741   7.146
40227SOL    HW120707   7.747   1.782   7.144
40227SOL    HW220708   7.831   1.647   7.178
40228SOL     OW20709   9.122   0.883   6.840
40228SOL    HW120710   9.095   0.794   6.803
40228SOL    HW220711   9.123   0.951   6.767
40229SOL     OW20712   8.673   0.325   6.035
40229SOL    HW120713   8.738   0.251   6.024
40229SOL    HW220714   8.693   0.375   6.119
40230SOL     OW20715   8.042   0.745   6.238
40230SOL    HW120716   8.092   0.830   6.219
40230SOL    HW220717   7.954   0.747   6.190
40231SOL     OW20718   9.225   0.342   7.228
40231SOL    HW120719   9.208   0.373   7.134
40231SOL    HW220720   9.141   0.305   7.266
40232SOL     OW20721   9.178   0.934   7.103
40232SOL    HW120722   9.216   1.025   7.118
40232SOL    HW220723   9.170   0.917   7.004
40233SOL     OW20724   8.307   1.374   5.602
40233SOL    HW120725   8.261   1.389   5.690
40233SOL    HW220726   8.351   1.459   5.572
40234SOL     OW20727   8.109   1.790   6.539
40234SOL    HW120728   8.063   1.878   6.526
40234SOL    HW220729   8.208   1.802   6.532
40235SOL     OW20730   8.307   0.956   6.447
40235SOL    HW120731   8.361   0.887   6.495
40235SOL    HW220732   8.275   1.025   6.513
40236SOL     OW20733   8.531   0.984   5.673
40236SOL    HW120734   8.508   1.037   5.591
40236SOL    HW220735   8.612   0.928   5.654
40237SOL     OW20736   9.309   1.569   6.437
40237SOL    HW120737   9.238   1.557   6.367
40237SOL    HW220738   9.310   1.490   6.497
40238SOL     OW20739   7.669   1.314   7.430
40238SOL    HW120740   7.604   1.241   7.409
40238SOL    HW220741   7.673   1.328   7.528
40239SOL     OW20742   7.527   1.240   6.239
40239SOL    HW120743   7.526   1.193   6.327
40239SOL    HW220744   7.609   1.212   6.188
40240SOL     OW20745   8.120   1.391   7.210
40240SOL    HW120746   8.042   1.341   7.248
40240SOL    HW220747   8.117   1.486   7.241
40241SOL     OW20748   9.272   0.192   6.813
40241SOL    HW120749   9.268   0.102   6.857
40241SOL    HW220750   9.275   0.181   6.714
40242SOL     OW20751   7.876   0.424   6.106
40242SOL    HW120752   7.906   0.352   6.044
40242SOL    HW220753   7.837   0.384   6.189
40243SOL     OW20754   9.153   1.487   6.690
40243SOL    HW120755   9.060   1.462   6.663
40243SOL    HW220756   9.179   1.437   6.772
40244SOL     OW20757   7.765   0.547   6.866
40244SOL    HW120758   7.803   0.488   6.938
40244SOL    HW220759   7.805   0.521   6.778
40245SOL     OW20760   8.260   1.586   6.273
40245SOL    HW120761   8.292   1.596   6.179
40245SOL    HW220762   8.181   1.524   6.275
40246SOL     OW20763   8.872   0.214   6.698
40246SOL    HW120764   8.924   0.149   6.753
40246SOL    HW220765   8.823   0.277   6.759
40247SOL     OW20766   8.449   0.034   6.740
40247SOL    HW120767   8.386  -0.038   6.709
40247SOL    HW220768   8.542  -0.002   6.740
40248SOL     OW20769   8.218   1.330   5.887
40248SOL    HW120770   8.172   1.243   5.904
40248SOL    HW220771   8.309   1.327   5.928
40249SOL     OW20772   8.066   1.567   6.870
40249SOL    HW120773   8.061   1.649   6.927
40249SOL    HW220774   8.155   1.564   6.825
40250SOL     OW20775   8.800   0.052   5.754
40250SOL    HW120776   8.835   0.011   5.670
40250SOL    HW220777   8.710   0.014   5.774
40251SOL     OW20778   8.748   0.453   6.277
40251SOL    HW120779   8.689   0.533   6.281
40251SOL    HW220780   8.763   0.418   6.370
40252SOL     OW20781   9.041   0.221   6.468
40252SOL    HW120782   8.957   0.220   6.522
40252SOL    HW220783   9.043   0.304   6.412
40253SOL     OW20784   7.487   1.077   5.886
40253SOL    HW120785   7.586   1.066   5.877
40253SOL    HW220786   7.447   0.991   5.918
40254SOL     OW20787   8.323   1.646   5.923
40254SOL    HW120788   8.246   1.611   5.869
40254SOL    HW220789   8.291   1.717   5.985
40255SOL     OW20790   7.678   0.628   7.561
40255SOL    HW120791   7.585   0.626   7.598
40255SOL    HW220792   7.679   0.589   7.469
40256SOL     OW20793   7.673   0.275   8.444
40256SOL    HW120794   7.708   0.258   8.536
40256SOL    HW220795   7.585   0.230   8.432
40257SOL     OW20796   7.467   0.368   8.095
40257SOL    HW120797   7.385   0.411   8.134
40257SOL    HW220798   7.439   0.295   8.032
40258SOL     OW20799   8.017   1.275   8.613
40258SOL    HW120800   7.924   1.268   8.576
40258SOL    HW220801   8.028   1.364   8.657
40259SOL     OW20802   9.003   1.511   8.151
40259SOL    HW120803   8.946   1.495   8.232
40259SOL    HW220804   8.944   1.521   8.071
40260SOL     OW20805   8.583   0.703   8.165
40260SOL    HW120806   8.640   0.781   8.140
40260SOL    HW220807   8.523   0.729   8.241
40261SOL     OW20808   9.203   0.607   7.679
40261SOL    HW120809   9.191   0.594   7.580
40261SOL    HW220810   9.173   0.526   7.728
40262SOL     OW20811   8.216   1.144   8.471
40262SOL    HW120812   8.138   1.161   8.531
40262SOL    HW220813   8.250   1.231   8.435
40263SOL     OW20814   8.298   0.798   9.271
40263SOL    HW120815   8.294   0.874   9.336
40263SOL    HW220816   8.320   0.834   9.180
40264SOL     OW20817   8.133   1.012   8.113
40264SOL    HW120818   8.202   0.996   8.183
40264SOL    HW220819   8.060   1.069   8.151
40265SOL     OW20820   8.134   1.161   9.251
40265SOL    HW120821   8.194   1.240   9.265
40265SOL    HW220822   8.048   1.192   9.210
40266SOL     OW20823   7.783   1.435   8.509
40266SOL    HW120824   7.705   1.404   8.456
40266SOL    HW220825   7.841   1.493   8.452
40267SOL     OW20826   8.908   1.505   8.787
40267SOL    HW120827   8.932   1.599   8.813
40267SOL    HW220828   8.892   1.451   8.869
40268SOL     OW20829   7.886   0.392   8.947
40268SOL    HW120830   7.968   0.336   8.956
40268SOL    HW220831   7.805   0.334   8.951
40269SOL     OW20832   9.051   0.447   8.185
40269SOL    HW120833   8.977   0.493   8.135
40269SOL    HW220834   9.102   0.515   8.238
40270SOL     OW20835   7.679   1.713   7.931
40270SOL    HW120836   7.713   1.790   7.985
40270SOL    HW220837   7.723   1.713   7.841
40271SOL     OW20838   8.575   1.341   9.138
40271SOL    HW120839   8.622   1.341   9.226
40271SOL    HW220840   8.527   1.254   9.127
40272SOL     OW20841   7.678   1.434   7.986
40272SOL    HW120842   7.652   1.530   7.986
40272SOL    HW220843   7.607   1.380   8.031
40273SOL     OW20844   7.688   1.091   8.334
40273SOL    HW120845   7.702   1.007   8.386
40273SOL    HW220846   7.633   1.155   8.389
40274SOL     OW20847   8.068   1.786   8.887
40274SOL    HW120848   7.976   1.769   8.922
40274SOL    HW220849   8.096   1.878   8.913
40275SOL     OW20850   8.054   0.964   7.571
40275SOL    HW120851   8.061   1.048   7.517
40275SOL    HW220852   8.100   0.977   7.659
40276SOL     OW20853   9.042   0.114   8.928
40276SOL    HW120854   9.024   0.181   8.856
40276SOL    HW220855   9.039   0.160   9.017
40277SOL     OW20856   7.570   0.643   8.011
40277SOL    HW120857   7.525   0.555   8.028
40277SOL    HW220858   7.569   0.697   8.095
40278SOL     OW20859   9.290   1.767   7.807
40278SOL    HW120860   9.344   1.738   7.887
40278SOL    HW220861   9.320   1.857   7.778
40279SOL     OW20862   7.475   1.596   7.565
40279SOL    HW120863   7.456   1.500   7.586
40279SOL    HW220864   7.442   1.654   7.640
40280SOL     OW20865   9.137   0.922   8.060
40280SOL    HW120866   9.232   0.893   8.068
40280SOL    HW220867   9.129   0.987   7.985
40281SOL     OW20868   9.089   1.108   7.880
40281SOL    HW120869   9.175   1.110   7.828
40281SOL    HW220870   9.103   1.155   7.968
40282SOL     OW20871   7.561   0.737   9.045
40282SOL    HW120872   7.649   0.724   9.090
40282SOL    HW220873   7.548   0.834   9.023
40283SOL     OW20874   8.061   1.365   8.174
40283SOL    HW120875   8.012   1.278   8.183
40283SOL    HW220876   8.038   1.408   8.087
40284SOL     OW20877   8.741   1.228   8.871
40284SOL    HW120878   8.778   1.155   8.813
40284SOL    HW220879   8.793   1.233   8.956
40285SOL     OW20880   8.257   0.004   7.950
40285SOL    HW120881   8.297   0.095   7.941
40285SOL    HW220882   8.157   0.012   7.956
40286SOL     OW20883   7.645   0.976   8.712
40286SOL    HW120884   7.734   0.931   8.698
40286SOL    HW220885   7.572   0.911   8.693
40287SOL     OW20886   8.973   0.999   7.638
40287SOL    HW120887   8.910   0.923   7.651
40287SOL    HW220888   9.021   1.017   7.724
40288SOL     OW20889   8.635   1.792   9.064
40288SOL    HW120890   8.659   1.852   8.988
40288SOL    HW220891   8.642   1.697   9.034
40289SOL     OW20892   7.765   0.251   9.249
40289SOL    HW120893   7.836   0.322   9.255
40289SOL    HW220894   7.677   0.290   9.277
40290SOL     OW20895   8.914   1.417   8.401
40290SOL    HW120896   8.855   1.423   8.481
40290SOL    HW220897   8.899   1.329   8.355
40291SOL     OW20898   9.115   1.714   8.020
40291SOL    HW120899   9.074   1.691   7.932
40291SOL    HW220900   9.097   1.640   8.085
40292SOL     OW20901   8.046   0.729   7.718
40292SOL    HW120902   8.070   0.798   7.650
40292SOL    HW220903   7.968   0.762   7.772
40293SOL     OW20904   8.729   0.345   8.392
40293SOL    HW120905   8.643   0.295   8.379
40293SOL    HW220906   8.791   0.291   8.448
40294SOL     OW20907   9.024   1.662   7.755
40294SOL    HW120908   9.113   1.708   7.758
40294SOL    HW220909   9.003   1.638   7.660
40295SOL     OW20910   8.255   0.605   8.913
40295SOL    HW120911   8.208   0.602   9.002
40295SOL    HW220912   8.204   0.550   8.847
40296SOL     OW20913   8.842   0.469   9.122
40296SOL    HW120914   8.822   0.512   9.210
40296SOL    HW220915   8.920   0.407   9.131
40297SOL     OW20916   8.421   0.890   9.020
40297SOL    HW120917   8.467   0.806   8.991
40297SOL    HW220918   8.365   0.924   8.945
40298SOL     OW20919   8.439   0.410   8.690
40298SOL    HW120920   8.362   0.444   8.744
40298SOL    HW220921   8.405   0.359   8.611
40299SOL     OW20922   8.489   0.701   7.877
40299SOL    HW120923   8.515   0.697   7.973
40299SOL    HW220924   8.404   0.650   7.863
40300SOL     OW20925   7.524   0.811   8.237
40300SOL    HW120926   7.623   0.799   8.246
40300SOL    HW220927   7.500   0.906   8.258
40301SOL     OW20928   7.578   1.821   9.019
40301SOL    HW120929   7.568   1.806   9.118
40301SOL    HW220930   7.492   1.857   8.983
40302SOL     OW20931   8.313   0.348   7.643
40302SOL    HW120932   8.372   0.411   7.594
40302SOL    HW220933   8.332   0.254   7.614
40303SOL     OW20934   9.167   0.585   9.279
40303SOL    HW120935   9.141   0.674   9.243
40303SOL    HW220936   9.165   0.517   9.206
40304SOL     OW20937   8.810   1.144   7.993
40304SOL    HW120938   8.893   1.115   7.945
40304SOL    HW220939   8.761   1.211   7.937
40305SOL     OW20940   7.998   0.196   8.333
40305SOL    HW120941   7.993   0.191   8.433
40305SOL    HW220942   8.000   0.292   8.304
40306SOL     OW20943   8.456   1.456   7.925
40306SOL    HW120944   8.410   1.528   7.873
40306SOL    HW220945   8.452   1.476   8.023
40307SOL     OW20946   7.799   1.801   8.301
40307SOL    HW120947   7.849   1.715   8.307
40307SOL    HW220948   7.864   1.878   8.298
40308SOL     OW20949   9.243   1.066   8.321
40308SOL    HW120950   9.181   1.051   8.245
40308SOL    HW220951   9.191   1.077   8.406
40309SOL     OW20952   8.675   1.550   8.954
40309SOL    HW120953   8.681   1.473   9.018
40309SOL    HW220954   8.623   1.524   8.874
40310SOL     OW20955   7.769   0.943   7.690
40310SOL    HW120956   7.851   0.982   7.648
40310SOL    HW220957   7.742   0.861   7.641
40311SOL     OW20958   8.906   0.735   8.176
40311SOL    HW120959   8.901   0.670   8.251
40311SOL    HW220960   8.986   0.794   8.189
40312SOL     OW20961   7.909   1.266   9.175
40312SOL    HW120962   7.859   1.267   9.089
40312SOL    HW220963   7.846   1.248   9.251
40313SOL     OW20964   8.559   1.776   7.685
40313SOL    HW120965   8.499   1.714   7.735
40313SOL    HW220966   8.590   1.732   7.600
40314SOL     OW20967   7.650   0.285   8.946
40314SOL    HW120968   7.570   0.345   8.933
40314SOL    HW220969   7.640   0.236   9.032
40315SOL     OW20970   9.080   1.377   7.529
40315SOL    HW120971   9.048   1.471   7.519
40315SOL    HW220972   9.004   1.314   7.517
40316SOL     OW20973   7.912   1.743   7.771
40316SOL    HW120974   7.945   1.782   7.857
40316SOL    HW220975   7.988   1.736   7.706
40317SOL     OW20976   8.848   0.107   7.874
40317SOL    HW120977   8.824   0.070   7.784
40317SOL    HW220978   8.947   0.123   7.878
40318SOL     OW20979   7.697   1.785   8.689
40318SOL    HW120980   7.754   1.720   8.739
40318SOL    HW220981   7.681   1.752   8.596
40319SOL     OW20982   8.388   1.698   8.352
40319SOL    HW120983   8.468   1.641   8.373
40319SOL    HW220984   8.339   1.658   8.275
40320SOL     OW20985   7.830   0.700   7.928
40320SOL    HW120986   7.875   0.610   7.925
40320SOL    HW220987   7.736   0.689   7.961
40321SOL     OW20988   8.995   0.222   9.177
40321SOL    HW120989   8.990   0.259   9.269
40321SOL    HW220990   8.923   0.153   9.165
40322SOL     OW20991   8.062   0.122   7.565
40322SOL    HW120992   8.160   0.100   7.572
40322SOL    HW220993   8.031   0.105   7.472
40323SOL     OW20994   8.229   0.264   9.197
40323SOL    HW120995   8.296   0.203   9.240
40323SOL    HW220996   8.156   0.283   9.262
40324SOL     OW20997   8.336   1.514   8.643
40324SOL    HW120998   8.313   1.489   8.549
40324SOL    HW220999   8.397   1.445   8.682
40325SOL     OW21000   8.799   0.590   8.881
40325SOL    HW121001   8.827   0.547   8.966
40325SOL    HW221002   8.824   0.686   8.882
40326SOL     OW21003   8.251   1.402   8.372
40326SOL    HW121004   8.341   1.416   8.330
40326SOL    HW221005   8.180   1.404   8.301
40327SOL     OW21006   8.370   0.503   8.347
40327SOL    HW121007   8.345   0.494   8.251
40327SOL    HW221008   8.418   0.421   8.378
40328SOL     OW21009   7.987   0.064   7.960
40328SOL    HW121010   7.906   0.065   8.018
40328SOL    HW221011   7.990   0.147   7.905
40329SOL     OW21012   8.882   1.188   7.489
40329SOL    HW121013   8.914   1.112   7.546
40329SOL    HW221014   8.790   1.215   7.519
40330SOL     OW21015   7.745   0.035   7.619
40330SOL    HW121016   7.794   0.119   7.598
40330SOL    HW221017   7.807  -0.030   7.664
40331SOL     OW21018   8.383   0.236   7.928
40331SOL    HW121019   8.335   0.277   7.850
40331SOL    HW221020   8.482   0.234   7.909
40332SOL     OW21021   8.524   0.683   8.912
40332SOL    HW121022   8.444   0.622   8.915
40332SOL    HW221023   8.605   0.630   8.888
40333SOL     OW21024   8.675   1.570   8.241
40333SOL    HW121025   8.696   1.644   8.176
40333SOL    HW221026   8.743   1.570   8.314
40334SOL     OW21027   7.907   1.152   8.189
40334SOL    HW121028   7.836   1.125   8.254
40334SOL    HW221029   7.881   1.124   8.096
40335SOL     OW21030   8.719   1.797   8.039
40335SOL    HW121031   8.763   1.861   7.975
40335SOL    HW221032   8.669   1.849   8.109
40336SOL     OW21033   8.480   0.549   7.464
40336SOL    HW121034   8.439   0.631   7.425
40336SOL    HW221035   8.544   0.575   7.537
40337SOL     OW21036   7.526   0.556   8.834
40337SOL    HW121037   7.618   0.555   8.793
40337SOL    HW221038   7.520   0.630   8.901
40338SOL     OW21039   8.009   0.222   8.595
40338SOL    HW121040   8.047   0.138   8.632
40338SOL    HW221041   7.921   0.241   8.639
40339SOL     OW21042   8.314   0.454   8.090
40339SOL    HW121043   8.282   0.526   8.028
40339SOL    HW221044   8.338   0.373   8.037
40340SOL     OW21045   8.465   0.039   8.201
40340SOL    HW121046   8.393   0.044   8.132
40340SOL    HW221047   8.441  -0.030   8.270
40341SOL     OW21048   8.877   1.173   8.315
40341SOL    HW121049   8.822   1.089   8.308
40341SOL    HW221050   8.903   1.202   8.223
40342SOL     OW21051   8.914   0.590   8.440
40342SOL    HW121052   8.884   0.495   8.447
40342SOL    HW221053   8.987   0.606   8.506
40343SOL     OW21054   9.305   0.833   7.825
40343SOL    HW121055   9.347   0.769   7.889
40343SOL    HW221056   9.267   0.782   7.747
40344SOL     OW21057   7.936   1.385   7.622
40344SOL    HW121058   7.849   1.370   7.669
40344SOL    HW221059   7.919   1.411   7.527
40345SOL     OW21060   9.112   1.280   8.105
40345SOL    HW121061   9.211   1.288   8.119
40345SOL    HW221062   9.067   1.364   8.136
40346SOL     OW21063   8.838   0.575   7.526
40346SOL    HW121064   8.784   0.554   7.607
40346SOL    HW221065   8.929   0.534   7.535
40347SOL     OW21066   7.975   0.256   7.776
40347SOL    HW121067   8.002   0.197   7.701
40347SOL    HW221068   7.975   0.351   7.745
40348SOL     OW21069   9.202   1.223   9.036
40348SOL    HW121070   9.293   1.184   9.023
40348SOL    HW221071   9.210   1.319   9.060
40349SOL     OW21072   8.512   1.347   8.788
40349SOL    HW121073   8.432   1.324   8.843
40349SOL    HW221074   8.595   1.321   8.837
40350SOL     OW21075   9.040   1.629   9.073
40350SOL    HW121076   9.067   1.663   8.983
40350SOL    HW221077   9.119   1.591   9.119
40351SOL     OW21078   8.559   1.195   8.548
40351SOL    HW121079   8.519   1.239   8.629
40351SOL    HW221080   8.518   1.232   8.465
40352SOL     OW21081   9.086   1.099   8.527
40352SOL    HW121082   9.091   1.180   8.586
40352SOL    HW221083   9.000   1.101   8.476
40353SOL     OW21084   8.363   0.089   8.850
40353SOL    HW121085   8.388   0.069   8.755
40353SOL    HW221086   8.435   0.145   8.892
40354SOL     OW21087   8.428   1.116   9.167
40354SOL    HW121088   8.329   1.122   9.177
40354SOL    HW221089   8.451   1.036   9.111
40355SOL     OW21090   8.153   1.050   7.816
40355SOL    HW121091   8.139   1.057   7.915
40355SOL    HW221092   8.237   0.999   7.798
40356SOL     OW21093   7.858   0.813   8.699
40356SOL    HW121094   7.944   0.825   8.749
40356SOL    HW221095   7.816   0.726   8.726
40357SOL     OW21096   8.722   0.386   8.710
40357SOL    HW121097   8.743   0.460   8.774
40357SOL    HW221098   8.633   0.403   8.667
40358SOL     OW21099   7.512   1.564   8.779
40358SOL    HW121100   7.466   1.646   8.745
40358SOL    HW221101   7.610   1.583   8.788
40359SOL     OW21102   7.815   1.100   7.949
40359SOL    HW121103   7.808   1.183   7.893
40359SOL    HW221104   7.819   1.020   7.889
40360SOL     OW21105   8.014   0.537   8.313
40360SOL    HW121106   8.026   0.603   8.239
40360SOL    HW221107   8.060   0.571   8.396
40361SOL     OW21108   8.700   1.348   7.836
40361SOL    HW121109   8.750   1.425   7.876
40361SOL    HW221110   8.605   1.350   7.868
40362SOL     OW21111   8.720   1.445   8.590
40362SOL    HW121112   8.767   1.458   8.677
40362SOL    HW221113   8.654   1.371   8.599
40363SOL     OW21114   9.030   0.639   7.920
40363SOL    HW121115   8.999   0.700   7.993
40363SOL    HW221116   9.080   0.691   7.851
40364SOL     OW21117   7.802   1.510   8.777
40364SOL    HW121118   7.781   1.466   8.690
40364SOL    HW221119   7.899   1.536   8.780
40365SOL     OW21120   7.850   0.751   9.046
40365SOL    HW121121   7.918   0.806   8.999
40365SOL    HW221122   7.890   0.663   9.073
40366SOL     OW21123   9.035   0.779   9.118
40366SOL    HW121124   8.943   0.817   9.113
40366SOL    HW221125   9.095   0.826   9.053
40367SOL     OW21126   8.461   0.105   9.218
40367SOL    HW121127   8.467   0.190   9.166
40367SOL    HW221128   8.493   0.029   9.161
40368SOL     OW21129   7.952   0.050   9.188
40368SOL    HW121130   7.910  -0.007   9.118
40368SOL    HW221131   7.886   0.119   9.220
40369SOL     OW21132   8.021   0.870   8.477
40369SOL    HW121133   8.065   0.959   8.468
40369SOL    HW221134   7.958   0.870   8.554
40370SOL     OW21135   8.808   0.862   8.493
40370SOL    HW121136   8.733   0.862   8.427
40370SOL    HW221137   8.845   0.770   8.502
40371SOL     OW21138   8.657   0.525   7.723
40371SOL    HW121139   8.670   0.441   7.777
40371SOL    HW221140   8.628   0.599   7.783
40372SOL     OW21141   7.755   0.213   8.679
40372SOL    HW121142   7.732   0.250   8.769
40372SOL    HW221143   7.725   0.118   8.673
40373SOL     OW21144   7.485   1.310   8.730
40373SOL    HW121145   7.538   1.261   8.798
40373SOL    HW221146   7.507   1.408   8.735
40374SOL     OW21147   8.180   0.634   8.512
40374SOL    HW121148   8.239   0.608   8.436
40374SOL    HW221149   8.152   0.730   8.501
40375SOL     OW21150   9.176   0.935   9.302
40375SOL    HW121151   9.130   0.928   9.213
40375SOL    HW221152   9.114   0.979   9.368
40376SOL     OW21153   7.755   0.063   8.066
40376SOL    HW121154   7.744   0.157   8.099
40376SOL    HW221155   7.750   0.000   8.143
40377SOL     OW21156   9.070   0.367   7.822
40377SOL    HW121157   9.072   0.291   7.886
40377SOL    HW221158   9.022   0.444   7.862
40378SOL     OW21159   8.471   0.766   8.414
40378SOL    HW121160   8.486   0.787   8.510
40378SOL    HW221161   8.441   0.671   8.405
40379SOL     OW21162   8.428   1.573   9.148
40379SOL    HW121163   8.408   1.617   9.060
40379SOL    HW221164   8.467   1.482   9.132
40380SOL     OW21165   9.307   1.518   9.053
40380SOL    HW121166   9.321   1.545   8.958
40380SOL    HW221167   9.390   1.540   9.106
40381SOL     OW21168   7.798   0.898   9.252
40381SOL    HW121169   7.874   0.942   9.300
40381SOL    HW221170   7.833   0.851   9.170
40382SOL     OW21171   8.988   0.274   7.573
40382SOL    HW121172   8.927   0.199   7.596
40382SOL    HW221173   9.010   0.326   7.656
40383SOL     OW21174   8.751   0.838   7.490
40383SOL    HW121175   8.785   0.745   7.505
40383SOL    HW221176   8.769   0.865   7.395
40384SOL     OW21177   8.516   1.333   8.297
40384SOL    HW121178   8.523   1.249   8.242
40384SOL    HW221179   8.578   1.402   8.261
40385SOL     OW21180   7.767   0.810   8.397
40385SOL    HW121181   7.860   0.846   8.402
40385SOL    HW221182   7.761   0.725   8.449
40386SOL     OW21183   7.787   0.509   8.454
40386SOL    HW121184   7.735   0.426   8.437
40386SOL    HW221185   7.864   0.514   8.390
40387SOL     OW21186   8.586   0.380   9.126
40387SOL    HW121187   8.541   0.443   9.190
40387SOL    HW221188   8.679   0.411   9.109
40388SOL     OW21189   8.608   0.207   8.925
40388SOL    HW121190   8.608   0.271   9.002
40388SOL    HW221191   8.636   0.255   8.842
40389SOL     OW21192   7.456   1.326   7.648
40389SOL    HW121193   7.363   1.347   7.617
40389SOL    HW221194   7.466   1.227   7.661
40390SOL     OW21195   7.536   1.801   8.375
40390SOL    HW121196   7.494   1.715   8.348
40390SOL    HW221197   7.630   1.804   8.341
40391SOL     OW21198   7.952   1.568   8.358
40391SOL    HW121199   8.018   1.642   8.367
40391SOL    HW221200   7.996   1.489   8.316
40392SOL     OW21201   8.450   0.796   8.686
40392SOL    HW121202   8.491   0.764   8.772
40392SOL    HW221203   8.354   0.769   8.683
40393SOL     OW21204   7.488   0.544   8.562
40393SOL    HW121205   7.573   0.511   8.521
40393SOL    HW221206   7.501   0.559   8.660
40394SOL     OW21207   7.637   0.520   9.170
40394SOL    HW121208   7.696   0.480   9.100
40394SOL    HW221209   7.579   0.591   9.129
40395SOL     OW21210   8.817   0.950   9.108
40395SOL    HW121211   8.856   1.039   9.128
40395SOL    HW221212   8.827   0.930   9.011
40396SOL     OW21213   8.263   0.572   7.773
40396SOL    HW121214   8.270   0.483   7.727
40396SOL    HW221215   8.169   0.606   7.765
40397SOL     OW21216   9.105   0.604   8.654
40397SOL    HW121217   9.067   0.535   8.716
40397SOL    HW221218   9.187   0.568   8.610
40398SOL     OW21219   7.700   1.564   9.192
40398SOL    HW121220   7.670   1.621   9.268
40398SOL    HW221221   7.693   1.467   9.218
40399SOL     OW21222   8.119   0.464   8.717
40399SOL    HW121223   8.085   0.375   8.687
40399SOL    HW221224   8.145   0.518   8.637
40400SOL     OW21225   8.378   1.678   8.913
40400SOL    HW121226   8.354   1.660   8.818
40400SOL    HW221227   8.408   1.772   8.923
40401SOL     OW21228   7.921   0.500   7.639
40401SOL    HW121229   7.982   0.580   7.643
40401SOL    HW221230   7.826   0.531   7.646
40402SOL     OW21231   7.607   1.137   8.914
40402SOL    HW121232   7.629   1.076   8.990
40402SOL    HW221233   7.617   1.088   8.828
40403SOL     OW21234   8.795   1.059   8.682
40403SOL    HW121235   8.819   0.996   8.608
40403SOL    HW221236   8.705   1.099   8.664
40404SOL     OW21237   8.750   0.855   7.757
40404SOL    HW121238   8.664   0.824   7.799
40404SOL    HW221239   8.746   0.841   7.658
40405SOL     OW21240   9.207   1.747   8.602
40405SOL    HW121241   9.268   1.777   8.529
40405SOL    HW221242   9.169   1.658   8.580
40406SOL     OW21243   8.700   1.731   8.576
40406SOL    HW121244   8.784   1.736   8.522
40406SOL    HW221245   8.677   1.635   8.594
40407SOL     OW21246   7.531   1.258   8.470
40407SOL    HW121247   7.526   1.257   8.570
40407SOL    HW221248   7.448   1.217   8.432
40408SOL     OW21249   8.136   1.662   9.164
40408SOL    HW121250   8.080   1.743   9.173
40408SOL    HW221251   8.188   1.666   9.078
40409SOL     OW21252   9.174   0.135   7.971
40409SOL    HW121253   9.247   0.118   7.904
40409SOL    HW221254   9.143   0.048   8.009
40410SOL     OW21255   8.836   1.573   7.925
40410SOL    HW121256   8.903   1.585   7.851
40410SOL    HW221257   8.796   1.662   7.948
40411SOL     OW21258   7.578   1.794   9.299
40411SOL    HW121259   7.537   1.720   9.352
40411SOL    HW221260   7.642   1.845   9.357
40412SOL     OW21261   8.728   0.927   8.120
40412SOL    HW121262   8.788   0.846   8.122
40412SOL    HW221263   8.768   0.996   8.060
40413SOL     OW21264   8.278   1.273   8.870
40413SOL    HW121265   8.273   1.306   8.965
40413SOL    HW221266   8.192   1.292   8.824
40414SOL     OW21267   8.120   1.616   7.602
40414SOL    HW121268   8.129   1.626   7.503
40414SOL    HW221269   8.080   1.527   7.623
40415SOL     OW21270   9.098   1.720   8.842
40415SOL    HW121271   9.151   1.730   8.758
40415SOL    HW221272   9.071   1.810   8.876
40416SOL     OW21273   9.289   0.175   8.411
40416SOL    HW121274   9.328   0.090   8.375
40416SOL    HW221275   9.191   0.177   8.392
40417SOL     OW21276   7.711   0.326   8.168
40417SOL    HW121277   7.632   0.377   8.134
40417SOL    HW221278   7.702   0.311   8.266
40418SOL     OW21279   8.642   1.612   7.479
40418SOL    HW121280   8.648   1.519   7.516
40418SOL    HW221281   8.583   1.612   7.399
40419SOL     OW21282   8.270   1.002   8.820
40419SOL    HW121283   8.310   1.001   8.728
40419SOL    HW221284   8.280   1.094   8.860
40420SOL     OW21285   8.364   0.910   7.739
40420SOL    HW121286   8.427   0.948   7.671
40420SOL    HW221287   8.404   0.827   7.778
40421SOL     OW21288   8.952   1.607   7.492
40421SOL    HW121289   8.860   1.644   7.499
40421SOL    HW221290   8.990   1.627   7.402
40422SOL     OW21291   7.820   1.288   8.938
40422SOL    HW121292   7.807   1.381   8.904
40422SOL    HW221293   7.736   1.236   8.925
40423SOL     OW21294   9.062   1.292   8.737
40423SOL    HW121295   9.122   1.295   8.817
40423SOL    HW221296   8.987   1.356   8.750
40424SOL     OW21297   8.487   1.098   8.144
40424SOL    HW121298   8.417   1.051   8.198
40424SOL    HW221299   8.546   1.030   8.101
40425SOL     OW21300   8.462   0.236   8.419
40425SOL    HW121301   8.454   0.200   8.326
40425SOL    HW221302   8.460   0.160   8.484
40426SOL     OW21303   8.038   1.487   7.939
40426SOL    HW121304   8.080   1.429   7.869
40426SOL    HW221305   7.994   1.566   7.895
40427SOL     OW21306   9.157   0.385   8.829
40427SOL    HW121307   9.230   0.454   8.833
40427SOL    HW221308   9.185   0.310   8.770
40428SOL     OW21309   7.703   1.348   7.738
40428SOL    HW121310   7.607   1.349   7.711
40428SOL    HW221311   7.715   1.401   7.822
40429SOL     OW21312   7.553   1.013   9.174
40429SOL    HW121313   7.476   0.980   9.228
40429SOL    HW221314   7.638   0.983   9.216
40430SOL     OW21315   8.120   0.203   8.937
40430SOL    HW121316   8.210   0.187   8.897
40430SOL    HW221317   8.128   0.208   9.036
40431SOL     OW21318   7.523   0.345   7.481
40431SOL    HW121319   7.431   0.317   7.452
40431SOL    HW221320   7.554   0.422   7.425
40432SOL     OW21321   8.888   0.856   8.846
40432SOL    HW121322   8.831   0.908   8.783
40432SOL    HW221323   8.984   0.868   8.822
40433SOL     OW21324   7.520   0.166   7.766
40433SOL    HW121325   7.503   0.249   7.712
40433SOL    HW221326   7.610   0.129   7.744
40434SOL     OW21327   8.631   1.335   7.567
40434SOL    HW121328   8.532   1.324   7.569
40434SOL    HW221329   8.665   1.350   7.660
40435SOL     OW21330   8.061   0.842   8.879
40435SOL    HW121331   8.117   0.923   8.862
40435SOL    HW221332   8.120   0.762   8.882
40436SOL     OW21333   8.941   1.767   8.407
40436SOL    HW121334   8.974   1.831   8.338
40436SOL    HW221335   9.007   1.761   8.482
40437SOL     OW21336   8.164   0.565   9.156
40437SOL    HW121337   8.183   0.630   9.230
40437SOL    HW221338   8.224   0.485   9.165
40438SOL     OW21339   8.898   1.220   9.081
40438SOL    HW121340   8.889   1.210   9.180
40438SOL    HW221341   8.994   1.213   9.055
40439SOL     OW21342   7.838   1.741   9.008
40439SOL    HW121343   7.747   1.782   9.006
40439SOL    HW221344   7.831   1.647   9.040
40440SOL     OW21345   9.122   0.883   8.702
40440SOL    HW121346   9.095   0.794   8.665
40440SOL    HW221347   9.123   0.951   8.629
40441SOL     OW21348   8.673   0.325   7.897
40441SOL    HW121349   8.738   0.251   7.886
40441SOL    HW221350   8.693   0.375   7.981
40442SOL     OW21351   8.042   0.745   8.100
40442SOL    HW121352   8.092   0.830   8.081
40442SOL    HW221353   7.954   0.747   8.052
40443SOL     OW21354   9.225   0.342   9.090
40443SOL    HW121355   9.208   0.373   8.996
40443SOL    HW221356   9.141   0.305   9.128
40444SOL     OW21357   9.178   0.934   8.965
40444SOL    HW121358   9.216   1.025   8.980
40444SOL    HW221359   9.170   0.917   8.866
40445SOL     OW21360   8.307   1.374   7.464
40445SOL    HW121361   8.261   1.389   7.552
40445SOL    HW221362   8.351   1.459   7.434
40446SOL     OW21363   8.109   1.790   8.401
40446SOL    HW121364   8.063   1.878   8.388
40446SOL    HW221365   8.208   1.802   8.394
40447SOL     OW21366   8.307   0.956   8.309
40447SOL    HW121367   8.361   0.887   8.357
40447SOL    HW221368   8.275   1.025   8.375
40448SOL     OW21369   8.531   0.984   7.535
40448SOL    HW121370   8.508   1.037   7.453
40448SOL    HW221371   8.612   0.928   7.516
40449SOL     OW21372   9.309   1.569   8.299
40449SOL    HW121373   9.238   1.557   8.229
40449SOL    HW221374   9.310   1.490   8.359
40450SOL     OW21375   7.669   1.314   9.292
40450SOL    HW121376   7.604   1.241   9.271
40450SOL    HW221377   7.673   1.328   9.390
40451SOL     OW21378   7.527   1.240   8.101
40451SOL    HW121379   7.526   1.193   8.189
40451SOL    HW221380   7.609   1.212   8.050
40452SOL     OW21381   8.120   1.391   9.072
40452SOL    HW121382   8.042   1.341   9.110
40452SOL    HW221383   8.117   1.486   9.103
40453SOL     OW21384   9.272   0.192   8.675
40453SOL    HW121385   9.268   0.102   8.719
40453SOL    HW221386   9.275   0.181   8.576
40454SOL     OW21387   7.876   0.424   7.968
40454SOL    HW121388   7.906   0.352   7.906
40454SOL    HW221389   7.837   0.384   8.051
40455SOL     OW21390   9.153   1.487   8.552
40455SOL    HW121391   9.060   1.462   8.525
40455SOL    HW221392   9.179   1.437   8.634
40456SOL     OW21393   7.765   0.547   8.728
40456SOL    HW121394   7.803   0.488   8.800
40456SOL    HW221395   7.805   0.521   8.640
40457SOL     OW21396   8.260   1.586   8.135
40457SOL    HW121397   8.292   1.596   8.041
40457SOL    HW221398   8.181   1.524   8.137
40458SOL     OW21399   8.872   0.214   8.560
40458SOL    HW121400   8.924   0.149   8.615
40458SOL    HW221401   8.823   0.277   8.621
40459SOL     OW21402   8.449   0.034   8.602
40459SOL    HW121403   8.386  -0.038   8.571
40459SOL    HW221404   8.542  -0.002   8.602
40460SOL     OW21405   8.218   1.330   7.749
40460SOL    HW121406   8.172   1.243   7.766
40460SOL    HW221407   8.309   1.327   7.790
40461SOL     OW21408   8.066   1.567   8.732
40461SOL    HW121409   8.061   1.649   8.789
40461SOL    HW221410   8.155   1.564   8.687
40462SOL     OW21411   8.800   0.052   7.616
40462SOL    HW121412   8.835   0.011   7.532
40462SOL    HW221413   8.710   0.014   7.636
40463SOL     OW21414   8.748   0.453   8.139
40463SOL    HW121415   8.689   0.533   8.143
40463SOL    HW221416   8.763   0.418   8.232
40464SOL     OW21417   9.041   0.221   8.330
40464SOL    HW121418   8.957   0.220   8.384
40464SOL    HW221419   9.043   0.304   8.274
40465SOL     OW21420   7.487   1.077   7.748
40465SOL    HW121421   7.586   1.066   7.739
40465SOL    HW221422   7.447   0.991   7.780
40466SOL     OW21423   8.323   1.646   7.785
40466SOL    HW121424   8.246   1.611   7.731
40466SOL    HW221425   8.291   1.717   7.847
40467SOL     OW21426   7.678   0.628   9.423
40467SOL    HW121427   7.585   0.626   9.460
40467SOL    HW221428   7.679   0.589   9.331
40468SOL     OW21429   7.673   0.275  10.306
40468SOL    HW121430   7.708   0.258  10.398
40468SOL    HW221431   7.585   0.230  10.294
40469SOL     OW21432   7.467   0.368   9.957
40469SOL    HW121433   7.385   0.411   9.996
40469SOL    HW221434   7.439   0.295   9.894
40470SOL     OW21435   8.017   1.275  10.475
40470SOL    HW121436   7.924   1.268  10.438
40470SOL    HW221437   8.028   1.364  10.519
40471SOL     OW21438   9.003   1.511  10.013
40471SOL    HW121439   8.946   1.495  10.094
40471SOL    HW221440   8.944   1.521   9.933
40472SOL     OW21441   8.583   0.703  10.027
40472SOL    HW121442   8.640   0.781  10.002
40472SOL    HW221443   8.523   0.729  10.103
40473SOL     OW21444   9.203   0.607   9.541
40473SOL    HW121445   9.191   0.594   9.442
40473SOL    HW221446   9.173   0.526   9.590
40474SOL     OW21447   8.216   1.144  10.333
40474SOL    HW121448   8.138   1.161  10.393
40474SOL    HW221449   8.250   1.231  10.297
40475SOL     OW21450   8.298   0.798  11.133
40475SOL    HW121451   8.294   0.874  11.198
40475SOL    HW221452   8.320   0.834  11.042
40476SOL     OW21453   8.133   1.012   9.975
40476SOL    HW121454   8.202   0.996  10.045
40476SOL    HW221455   8.060   1.069  10.013
40477SOL     OW21456   8.134   1.161  11.113
40477SOL    HW121457   8.194   1.240  11.127
40477SOL    HW221458   8.048   1.192  11.072
40478SOL     OW21459   7.783   1.435  10.371
40478SOL    HW121460   7.705   1.404  10.318
40478SOL    HW221461   7.841   1.493  10.314
40479SOL     OW21462   8.908   1.505  10.649
40479SOL    HW121463   8.932   1.599  10.675
40479SOL    HW221464   8.892   1.451  10.731
40480SOL     OW21465   7.886   0.392  10.809
40480SOL    HW121466   7.968   0.336  10.818
40480SOL    HW221467   7.805   0.334  10.813
40481SOL     OW21468   9.051   0.447  10.047
40481SOL    HW121469   8.977   0.493   9.997
40481SOL    HW221470   9.102   0.515  10.100
40482SOL     OW21471   7.679   1.713   9.793
40482SOL    HW121472   7.713   1.790   9.847
40482SOL    HW221473   7.723   1.713   9.703
40483SOL     OW21474   8.575   1.341  11.000
40483SOL    HW121475   8.622   1.341  11.088
40483SOL    HW221476   8.527   1.254  10.989
40484SOL     OW21477   7.678   1.434   9.848
40484SOL    HW121478   7.652   1.530   9.848
40484SOL    HW221479   7.607   1.380   9.893
40485SOL     OW21480   7.688   1.091  10.196
40485SOL    HW121481   7.702   1.007  10.248
40485SOL    HW221482   7.633   1.155  10.251
40486SOL     OW21483   8.068   1.786  10.749
40486SOL    HW121484   7.976   1.769  10.784
40486SOL    HW221485   8.096   1.878  10.775
40487SOL     OW21486   8.054   0.964   9.433
40487SOL    HW121487   8.061   1.048   9.379
40487SOL    HW221488   8.100   0.977   9.521
40488SOL     OW21489   9.042   0.114  10.790
40488SOL    HW121490   9.024   0.181  10.718
40488SOL    HW221491   9.039   0.160  10.879
40489SOL     OW21492   7.570   0.643   9.873
40489SOL    HW121493   7.525   0.555   9.890
40489SOL    HW221494   7.569   0.697   9.957
40490SOL     OW21495   9.290   1.767   9.669
40490SOL    HW121496   9.344   1.738   9.749
40490SOL    HW221497   9.320   1.857   9.640
40491SOL     OW21498   7.475   1.596   9.427
40491SOL    HW121499   7.456   1.500   9.448
40491SOL    HW221500   7.442   1.654   9.502
40492SOL     OW21501   9.137   0.922   9.922
40492SOL    HW121502   9.232   0.893   9.930
40492SOL    HW221503   9.129   0.987   9.847
40493SOL     OW21504   9.089   1.108   9.742
40493SOL    HW121505   9.175   1.110   9.690
40493SOL    HW221506   9.103   1.155   9.830
40494SOL     OW21507   7.561   0.737  10.907
40494SOL    HW121508   7.649   0.724  10.952
40494SOL    HW221509   7.548   0.834  10.885
40495SOL     OW21510   8.061   1.365  10.036
40495SOL    HW121511   8.012   1.278  10.045
40495SOL    HW221512   8.038   1.408   9.949
40496SOL     OW21513   8.741   1.228  10.733
40496SOL    HW121514   8.778   1.155  10.675
40496SOL    HW221515   8.793   1.233  10.818
40497SOL     OW21516   8.257   0.004   9.812
40497SOL    HW121517   8.297   0.095   9.803
40497SOL    HW221518   8.157   0.012   9.818
40498SOL     OW21519   7.645   0.976  10.574
40498SOL    HW121520   7.734   0.931  10.560
40498SOL    HW221521   7.572   0.911  10.555
40499SOL     OW21522   8.973   0.999   9.500
40499SOL    HW121523   8.910   0.923   9.513
40499SOL    HW221524   9.021   1.017   9.586
40500SOL     OW21525   8.635   1.792  10.926
40500SOL    HW121526   8.659   1.852  10.850
40500SOL    HW221527   8.642   1.697  10.896
40501SOL     OW21528   7.765   0.251  11.111
40501SOL    HW121529   7.836   0.322  11.117
40501SOL    HW221530   7.677   0.290  11.139
40502SOL     OW21531   8.914   1.417  10.263
40502SOL    HW121532   8.855   1.423  10.343
40502SOL    HW221533   8.899   1.329  10.217
40503SOL     OW21534   9.115   1.714   9.882
40503SOL    HW121535   9.074   1.691   9.794
40503SOL    HW221536   9.097   1.640   9.947
40504SOL     OW21537   8.046   0.729   9.580
40504SOL    HW121538   8.070   0.798   9.512
40504SOL    HW221539   7.968   0.762   9.634
40505SOL     OW21540   8.729   0.345  10.254
40505SOL    HW121541   8.643   0.295  10.241
40505SOL    HW221542   8.791   0.291  10.310
40506SOL     OW21543   9.024   1.662   9.617
40506SOL    HW121544   9.113   1.708   9.620
40506SOL    HW221545   9.003   1.638   9.522
40507SOL     OW21546   8.255   0.605  10.775
40507SOL    HW121547   8.208   0.602  10.864
40507SOL    HW221548   8.204   0.550  10.709
40508SOL     OW21549   8.842   0.469  10.984
40508SOL    HW121550   8.822   0.512  11.072
40508SOL    HW221551   8.920   0.407  10.993
40509SOL     OW21552   8.421   0.890  10.882
40509SOL    HW121553   8.467   0.806  10.853
40509SOL    HW221554   8.365   0.924  10.807
40510SOL     OW21555   8.439   0.410  10.552
40510SOL    HW121556   8.362   0.444  10.606
40510SOL    HW221557   8.405   0.359  10.473
40511SOL     OW21558   8.489   0.701   9.739
40511SOL    HW121559   8.515   0.697   9.835
40511SOL    HW221560   8.404   0.650   9.725
40512SOL     OW21561   7.524   0.811  10.099
40512SOL    HW121562   7.623   0.799  10.108
40512SOL    HW221563   7.500   0.906  10.120
40513SOL     OW21564   7.578   1.821  10.881
40513SOL    HW121565   7.568   1.806  10.980
40513SOL    HW221566   7.492   1.857  10.845
40514SOL     OW21567   8.313   0.348   9.505
40514SOL    HW121568   8.372   0.411   9.456
40514SOL    HW221569   8.332   0.254   9.476
40515SOL     OW21570   9.167   0.585  11.141
40515SOL    HW121571   9.141   0.674  11.105
40515SOL    HW221572   9.165   0.517  11.068
40516SOL     OW21573   8.810   1.144   9.855
40516SOL    HW121574   8.893   1.115   9.807
40516SOL    HW221575   8.761   1.211   9.799
40517SOL     OW21576   7.998   0.196  10.195
40517SOL    HW121577   7.993   0.191  10.295
40517SOL    HW221578   8.000   0.292  10.166
40518SOL     OW21579   8.456   1.456   9.787
40518SOL    HW121580   8.410   1.528   9.735
40518SOL    HW221581   8.452   1.476   9.885
40519SOL     OW21582   7.799   1.801  10.163
40519SOL    HW121583   7.849   1.715  10.169
40519SOL    HW221584   7.864   1.878  10.160
40520SOL     OW21585   9.243   1.066  10.183
40520SOL    HW121586   9.181   1.051  10.107
40520SOL    HW221587   9.191   1.077  10.268
40521SOL     OW21588   8.675   1.550  10.816
40521SOL    HW121589   8.681   1.473  10.880
40521SOL    HW221590   8.623   1.524  10.736
40522SOL     OW21591   7.769   0.943   9.552
40522SOL    HW121592   7.851   0.982   9.510
40522SOL    HW221593   7.742   0.861   9.503
40523SOL     OW21594   8.906   0.735  10.038
40523SOL    HW121595   8.901   0.670  10.113
40523SOL    HW221596   8.986   0.794  10.051
40524SOL     OW21597   7.909   1.266  11.037
40524SOL    HW121598   7.859   1.267  10.951
40524SOL    HW221599   7.846   1.248  11.113
40525SOL     OW21600   8.559   1.776   9.547
40525SOL    HW121601   8.499   1.714   9.597
40525SOL    HW221602   8.590   1.732   9.462
40526SOL     OW21603   7.650   0.285  10.808
40526SOL    HW121604   7.570   0.345  10.795
40526SOL    HW221605   7.640   0.236  10.894
40527SOL     OW21606   9.080   1.377   9.391
40527SOL    HW121607   9.048   1.471   9.381
40527SOL    HW221608   9.004   1.314   9.379
40528SOL     OW21609   7.912   1.743   9.633
40528SOL    HW121610   7.945   1.782   9.719
40528SOL    HW221611   7.988   1.736   9.568
40529SOL     OW21612   8.848   0.107   9.736
40529SOL    HW121613   8.824   0.070   9.646
40529SOL    HW221614   8.947   0.123   9.740
40530SOL     OW21615   7.697   1.785  10.551
40530SOL    HW121616   7.754   1.720  10.601
40530SOL    HW221617   7.681   1.752  10.458
40531SOL     OW21618   8.388   1.698  10.214
40531SOL    HW121619   8.468   1.641  10.235
40531SOL    HW221620   8.339   1.658  10.137
40532SOL     OW21621   7.830   0.700   9.790
40532SOL    HW121622   7.875   0.610   9.787
40532SOL    HW221623   7.736   0.689   9.823
40533SOL     OW21624   8.995   0.222  11.039
40533SOL    HW121625   8.990   0.259  11.131
40533SOL    HW221626   8.923   0.153  11.027
40534SOL     OW21627   8.062   0.122   9.427
40534SOL    HW121628   8.160   0.100   9.434
40534SOL    HW221629   8.031   0.105   9.334
40535SOL     OW21630   8.229   0.264  11.059
40535SOL    HW121631   8.296   0.203  11.102
40535SOL    HW221632   8.156   0.283  11.124
40536SOL     OW21633   8.336   1.514  10.505
40536SOL    HW121634   8.313   1.489  10.411
40536SOL    HW221635   8.397   1.445  10.544
40537SOL     OW21636   8.799   0.590  10.743
40537SOL    HW121637   8.827   0.547  10.828
40537SOL    HW221638   8.824   0.686  10.744
40538SOL     OW21639   8.251   1.402  10.234
40538SOL    HW121640   8.341   1.416  10.192
40538SOL    HW221641   8.180   1.404  10.163
40539SOL     OW21642   8.370   0.503  10.209
40539SOL    HW121643   8.345   0.494  10.113
40539SOL    HW221644   8.418   0.421  10.240
40540SOL     OW21645   7.987   0.064   9.822
40540SOL    HW121646   7.906   0.065   9.880
40540SOL    HW221647   7.990   0.147   9.767
40541SOL     OW21648   8.882   1.188   9.351
40541SOL    HW121649   8.914   1.112   9.408
40541SOL    HW221650   8.790   1.215   9.381
40542SOL     OW21651   7.745   0.035   9.481
40542SOL    HW121652   7.794   0.119   9.460
40542SOL    HW221653   7.807  -0.030   9.526
40543SOL     OW21654   8.383   0.236   9.790
40543SOL    HW121655   8.335   0.277   9.712
40543SOL    HW221656   8.482   0.234   9.771
40544SOL     OW21657   8.524   0.683  10.774
40544SOL    HW121658   8.444   0.622  10.777
40544SOL    HW221659   8.605   0.630  10.750
40545SOL     OW21660   8.675   1.570  10.103
40545SOL    HW121661   8.696   1.644  10.038
40545SOL    HW221662   8.743   1.570  10.176
40546SOL     OW21663   7.907   1.152  10.051
40546SOL    HW121664   7.836   1.125  10.116
40546SOL    HW221665   7.881   1.124   9.958
40547SOL     OW21666   8.719   1.797   9.901
40547SOL    HW121667   8.763   1.861   9.837
40547SOL    HW221668   8.669   1.849   9.971
40548SOL     OW21669   8.480   0.549   9.326
40548SOL    HW121670   8.439   0.631   9.287
40548SOL    HW221671   8.544   0.575   9.399
40549SOL     OW21672   7.526   0.556  10.696
40549SOL    HW121673   7.618   0.555  10.655
40549SOL    HW221674   7.520   0.630  10.763
40550SOL     OW21675   8.009   0.222  10.457
40550SOL    HW121676   8.047   0.138  10.494
40550SOL    HW221677   7.921   0.241  10.501
40551SOL     OW21678   8.314   0.454   9.952
40551SOL    HW121679   8.282   0.526   9.890
40551SOL    HW221680   8.338   0.373   9.899
40552SOL     OW21681   8.465   0.039  10.063
40552SOL    HW121682   8.393   0.044   9.994
40552SOL    HW221683   8.441  -0.030  10.132
40553SOL     OW21684   8.877   1.173  10.177
40553SOL    HW121685   8.822   1.089  10.170
40553SOL    HW221686   8.903   1.202  10.085
40554SOL     OW21687   8.914   0.590  10.302
40554SOL    HW121688   8.884   0.495  10.309
40554SOL    HW221689   8.987   0.606  10.368
40555SOL     OW21690   9.305   0.833   9.687
40555SOL    HW121691   9.347   0.769   9.751
40555SOL    HW221692   9.267   0.782   9.609
40556SOL     OW21693   7.936   1.385   9.484
40556SOL    HW121694   7.849   1.370   9.531
40556SOL    HW221695   7.919   1.411   9.389
40557SOL     OW21696   9.112   1.280   9.967
40557SOL    HW121697   9.211   1.288   9.981
40557SOL    HW221698   9.067   1.364   9.998
40558SOL     OW21699   8.838   0.575   9.388
40558SOL    HW121700   8.784   0.554   9.469
40558SOL    HW221701   8.929   0.534   9.397
40559SOL     OW21702   7.975   0.256   9.638
40559SOL    HW121703   8.002   0.197   9.563
40559SOL    HW221704   7.975   0.351   9.607
40560SOL     OW21705   9.202   1.223  10.898
40560SOL    HW121706   9.293   1.184  10.885
40560SOL    HW221707   9.210   1.319  10.922
40561SOL     OW21708   8.512   1.347  10.650
40561SOL    HW121709   8.432   1.324  10.705
40561SOL    HW221710   8.595   1.321  10.699
40562SOL     OW21711   9.040   1.629  10.935
40562SOL    HW121712   9.067   1.663  10.845
40562SOL    HW221713   9.119   1.591  10.981
40563SOL     OW21714   8.559   1.195  10.410
40563SOL    HW121715   8.519   1.239  10.491
40563SOL    HW221716   8.518   1.232  10.327
40564SOL     OW21717   9.086   1.099  10.389
40564SOL    HW121718   9.091   1.180  10.448
40564SOL    HW221719   9.000   1.101  10.338
40565SOL     OW21720   8.363   0.089  10.712
40565SOL    HW121721   8.388   0.069  10.617
40565SOL    HW221722   8.435   0.145  10.754
40566SOL     OW21723   8.428   1.116  11.029
40566SOL    HW121724   8.329   1.122  11.039
40566SOL    HW221725   8.451   1.036  10.973
40567SOL     OW21726   8.153   1.050   9.678
40567SOL    HW121727   8.139   1.057   9.777
40567SOL    HW221728   8.237   0.999   9.660
40568SOL     OW21729   7.858   0.813  10.561
40568SOL    HW121730   7.944   0.825  10.611
40568SOL    HW221731   7.816   0.726  10.588
40569SOL     OW21732   8.722   0.386  10.572
40569SOL    HW121733   8.743   0.460  10.636
40569SOL    HW221734   8.633   0.403  10.529
40570SOL     OW21735   7.512   1.564  10.641
40570SOL    HW121736   7.466   1.646  10.607
40570SOL    HW221737   7.610   1.583  10.650
40571SOL     OW21738   7.815   1.100   9.811
40571SOL    HW121739   7.808   1.183   9.755
40571SOL    HW221740   7.819   1.020   9.751
40572SOL     OW21741   8.014   0.537  10.175
40572SOL    HW121742   8.026   0.603  10.101
40572SOL    HW221743   8.060   0.571  10.258
40573SOL     OW21744   8.700   1.348   9.698
40573SOL    HW121745   8.750   1.425   9.738
40573SOL    HW221746   8.605   1.350   9.730
40574SOL     OW21747   8.720   1.445  10.452
40574SOL    HW121748   8.767   1.458  10.539
40574SOL    HW221749   8.654   1.371  10.461
40575SOL     OW21750   9.030   0.639   9.782
40575SOL    HW121751   8.999   0.700   9.855
40575SOL    HW221752   9.080   0.691   9.713
40576SOL     OW21753   7.802   1.510  10.639
40576SOL    HW121754   7.781   1.466  10.552
40576SOL    HW221755   7.899   1.536  10.642
40577SOL     OW21756   7.850   0.751  10.908
40577SOL    HW121757   7.918   0.806  10.861
40577SOL    HW221758   7.890   0.663  10.935
40578SOL     OW21759   9.035   0.779  10.980
40578SOL    HW121760   8.943   0.817  10.975
40578SOL    HW221761   9.095   0.826  10.915
40579SOL     OW21762   8.461   0.105  11.080
40579SOL    HW121763   8.467   0.190  11.028
40579SOL    HW221764   8.493   0.029  11.023
40580SOL     OW21765   7.952   0.050  11.050
40580SOL    HW121766   7.910  -0.007  10.980
40580SOL    HW221767   7.886   0.119  11.082
40581SOL     OW21768   8.021   0.870  10.339
40581SOL    HW121769   8.065   0.959  10.330
40581SOL    HW221770   7.958   0.870  10.416
40582SOL     OW21771   8.808   0.862  10.355
40582SOL    HW121772   8.733   0.862  10.289
40582SOL    HW221773   8.845   0.770  10.364
40583SOL     OW21774   8.657   0.525   9.585
40583SOL    HW121775   8.670   0.441   9.639
40583SOL    HW221776   8.628   0.599   9.645
40584SOL     OW21777   7.755   0.213  10.541
40584SOL    HW121778   7.732   0.250  10.631
40584SOL    HW221779   7.725   0.118  10.535
40585SOL     OW21780   7.485   1.310  10.592
40585SOL    HW121781   7.538   1.261  10.660
40585SOL    HW221782   7.507   1.408  10.597
40586SOL     OW21783   8.180   0.634  10.374
40586SOL    HW121784   8.239   0.608  10.298
40586SOL    HW221785   8.152   0.730  10.363
40587SOL     OW21786   9.176   0.935  11.164
40587SOL    HW121787   9.130   0.928  11.075
40587SOL    HW221788   9.114   0.979  11.230
40588SOL     OW21789   7.755   0.063   9.928
40588SOL    HW121790   7.744   0.157   9.961
40588SOL    HW221791   7.750   0.000  10.005
40589SOL     OW21792   9.070   0.367   9.684
40589SOL    HW121793   9.072   0.291   9.748
40589SOL    HW221794   9.022   0.444   9.724
40590SOL     OW21795   8.471   0.766  10.276
40590SOL    HW121796   8.486   0.787  10.372
40590SOL    HW221797   8.441   0.671  10.267
40591SOL     OW21798   8.428   1.573  11.010
40591SOL    HW121799   8.408   1.617  10.922
40591SOL    HW221800   8.467   1.482  10.994
40592SOL     OW21801   9.307   1.518  10.915
40592SOL    HW121802   9.321   1.545  10.820
40592SOL    HW221803   9.390   1.540  10.968
40593SOL     OW21804   7.798   0.898  11.114
40593SOL    HW121805   7.874   0.942  11.162
40593SOL    HW221806   7.833   0.851  11.032
40594SOL     OW21807   8.988   0.274   9.435
40594SOL    HW121808   8.927   0.199   9.458
40594SOL    HW221809   9.010   0.326   9.518
40595SOL     OW21810   8.751   0.838   9.352
40595SOL    HW121811   8.785   0.745   9.367
40595SOL    HW221812   8.769   0.865   9.257
40596SOL     OW21813   8.516   1.333  10.159
40596SOL    HW121814   8.523   1.249  10.104
40596SOL    HW221815   8.578   1.402  10.123
40597SOL     OW21816   7.767   0.810  10.259
40597SOL    HW121817   7.860   0.846  10.264
40597SOL    HW221818   7.761   0.725  10.311
40598SOL     OW21819   7.787   0.509  10.316
40598SOL    HW121820   7.735   0.426  10.299
40598SOL    HW221821   7.864   0.514  10.252
40599SOL     OW21822   8.586   0.380  10.988
40599SOL    HW121823   8.541   0.443  11.052
40599SOL    HW221824   8.679   0.411  10.971
40600SOL     OW21825   8.608   0.207  10.787
40600SOL    HW121826   8.608   0.271  10.864
40600SOL    HW221827   8.636   0.255  10.704
40601SOL     OW21828   7.456   1.326   9.510
40601SOL    HW121829   7.363   1.347   9.479
40601SOL    HW221830   7.466   1.227   9.523
40602SOL     OW21831   7.536   1.801  10.237
40602SOL    HW121832   7.494   1.715  10.210
40602SOL    HW221833   7.630   1.804  10.203
40603SOL     OW21834   7.952   1.568  10.220
40603SOL    HW121835   8.018   1.642  10.229
40603SOL    HW221836   7.996   1.489  10.178
40604SOL     OW21837   8.450   0.796  10.548
40604SOL    HW121838   8.491   0.764  10.634
40604SOL    HW221839   8.354   0.769  10.545
40605SOL     OW21840   7.488   0.544  10.424
40605SOL    HW121841   7.573   0.511  10.383
40605SOL    HW221842   7.501   0.559  10.522
40606SOL     OW21843   7.637   0.520  11.032
40606SOL    HW121844   7.696   0.480  10.962
40606SOL    HW221845   7.579   0.591  10.991
40607SOL     OW21846   8.817   0.950  10.970
40607SOL    HW121847   8.856   1.039  10.990
40607SOL    HW221848   8.827   0.930  10.873
40608SOL     OW21849   8.263   0.572   9.635
40608SOL    HW121850   8.270   0.483   9.589
40608SOL    HW221851   8.169   0.606   9.627
40609SOL     OW21852   7.700   1.564  11.054
40609SOL    HW121853   7.670   1.621  11.130
40609SOL    HW221854   7.693   1.467  11.080
40610SOL     OW21855   8.119   0.464  10.579
40610SOL    HW121856   8.085   0.375  10.549
40610SOL    HW221857   8.145   0.518  10.499
40611SOL     OW21858   8.378   1.678  10.775
40611SOL    HW121859   8.354   1.660  10.680
40611SOL    HW221860   8.408   1.772  10.785
40612SOL     OW21861   7.921   0.500   9.501
40612SOL    HW121862   7.982   0.580   9.505
40612SOL    HW221863   7.826   0.531   9.508
40613SOL     OW21864   7.607   1.137  10.776
40613SOL    HW121865   7.629   1.076  10.852
40613SOL    HW221866   7.617   1.088  10.690
40614SOL     OW21867   8.795   1.059  10.544
40614SOL    HW121868   8.819   0.996  10.470
40614SOL    HW221869   8.705   1.099  10.526
40615SOL     OW21870   8.750   0.855   9.619
40615SOL    HW121871   8.664   0.824   9.661
40615SOL    HW221872   8.746   0.841   9.520
40616SOL     OW21873   9.207   1.747  10.464
40616SOL    HW121874   9.268   1.777  10.391
40616SOL    HW221875   9.169   1.658  10.442
40617SOL     OW21876   8.700   1.731  10.438
40617SOL    HW121877   8.784   1.736  10.384
40617SOL    HW221878   8.677   1.635  10.456
40618SOL     OW21879   7.531   1.258  10.332
40618SOL    HW121880   7.526   1.257  10.432
40618SOL    HW221881   7.448   1.217  10.294
40619SOL     OW21882   8.136   1.662  11.026
40619SOL    HW121883   8.080   1.743  11.035
40619SOL    HW221884   8.188   1.666  10.940
40620SOL     OW21885   9.174   0.135   9.833
40620SOL    HW121886   9.247   0.118   9.766
40620SOL    HW221887   9.143   0.048   9.871
40621SOL     OW21888   8.836   1.573   9.787
40621SOL    HW121889   8.903   1.585   9.713
40621SOL    HW221890   8.796   1.662   9.810
40622SOL     OW21891   7.578   1.794  11.161
40622SOL    HW121892   7.537   1.720  11.214
40622SOL    HW221893   7.642   1.845  11.219
40623SOL     OW21894   8.728   0.927   9.982
40623SOL    HW121895   8.788   0.846   9.984
40623SOL    HW221896   8.768   0.996   9.922
40624SOL     OW21897   8.278   1.273  10.732
40624SOL    HW121898   8.273   1.306  10.827
40624SOL    HW221899   8.192   1.292  10.686
40625SOL     OW21900   8.120   1.616   9.464
40625SOL    HW121901   8.129   1.626   9.365
40625SOL    HW221902   8.080   1.527   9.485
40626SOL     OW21903   9.098   1.720  10.704
40626SOL    HW121904   9.151   1.730  10.620
40626SOL    HW221905   9.071   1.810  10.738
40627SOL     OW21906   9.289   0.175  10.273
40627SOL    HW121907   9.328   0.090  10.237
40627SOL    HW221908   9.191   0.177  10.254
40628SOL     OW21909   7.711   0.326  10.030
40628SOL    HW121910   7.632   0.377   9.996
40628SOL    HW221911   7.702   0.311  10.128
40629SOL     OW21912   8.642   1.612   9.341
40629SOL    HW121913   8.648   1.519   9.378
40629SOL    HW221914   8.583   1.612   9.261
40630SOL     OW21915   8.270   1.002  10.682
40630SOL    HW121916   8.310   1.001  10.590
40630SOL    HW221917   8.280   1.094  10.722
40631SOL     OW21918   8.364   0.910   9.601
40631SOL    HW121919   8.427   0.948   9.533
40631SOL    HW221920   8.404   0.827   9.640
40632SOL     OW21921   8.952   1.607   9.354
40632SOL    HW121922   8.860   1.644   9.361
40632SOL    HW221923   8.990   1.627   9.264
40633SOL     OW21924   7.820   1.288  10.800
40633SOL    HW121925   7.807   1.381  10.766
40633SOL    HW221926   7.736   1.236  10.787
40634SOL     OW21927   9.062   1.292  10.599
40634SOL    HW121928   9.122   1.295  10.679
40634SOL    HW221929   8.987   1.356  10.612
40635SOL     OW21930   8.487   1.098  10.006
40635SOL    HW121931   8.417   1.051  10.060
40635SOL    HW221932   8.546   1.030   9.963
40636SOL     OW21933   8.462   0.236  10.281
40636SOL    HW121934   8.454   0.200  10.188
40636SOL    HW221935   8.460   0.160  10.346
40637SOL     OW21936   8.038   1.487   9.801
40637SOL    HW121937   8.080   1.429   9.731
40637SOL    HW221938   7.994   1.566   9.757
40638SOL     OW21939   9.157   0.385  10.691
40638SOL    HW121940   9.230   0.454  10.695
40638SOL    HW221941   9.185   0.310  10.632
40639SOL     OW21942   7.703   1.348   9.600
40639SOL    HW121943   7.607   1.349   9.573
40639SOL    HW221944   7.715   1.401   9.684
40640SOL     OW21945   7.553   1.013  11.036
40640SOL    HW121946   7.476   0.980  11.090
40640SOL    HW221947   7.638   0.983  11.078
40641SOL     OW21948   8.120   0.203  10.799
40641SOL    HW121949   8.210   0.187  10.759
40641SOL    HW221950   8.128   0.208  10.898
40642SOL     OW21951   7.523   0.345   9.343
40642SOL    HW121952   7.431   0.317   9.314
40642SOL    HW221953   7.554   0.422   9.287
40643SOL     OW21954   8.888   0.856  10.708
40643SOL    HW121955   8.831   0.908  10.645
40643SOL    HW221956   8.984   0.868  10.684
40644SOL     OW21957   7.520   0.166   9.628
40644SOL    HW121958   7.503   0.249   9.574
40644SOL    HW221959   7.610   0.129   9.606
40645SOL     OW21960   8.631   1.335   9.429
40645SOL    HW121961   8.532   1.324   9.431
40645SOL    HW221962   8.665   1.350   9.522
40646SOL     OW21963   8.061   0.842  10.741
40646SOL    HW121964   8.117   0.923  10.724
40646SOL    HW221965   8.120   0.762  10.744
40647SOL     OW21966   8.941   1.767  10.269
40647SOL    HW121967   8.974   1.831  10.200
40647SOL    HW221968   9.007   1.761  10.344
40648SOL     OW21969   8.164   0.565  11.018
40648SOL    HW121970   8.183   0.630  11.092
40648SOL    HW221971   8.224   0.485  11.027
40649SOL     OW21972   8.898   1.220  10.943
40649SOL    HW121973   8.889   1.210  11.042
40649SOL    HW221974   8.994   1.213  10.917
40650SOL     OW21975   7.838   1.741  10.870
40650SOL    HW121976   7.747   1.782  10.868
40650SOL    HW221977   7.831   1.647  10.902
40651SOL     OW21978   9.122   0.883  10.564
40651SOL    HW121979   9.095   0.794  10.527
40651SOL    HW221980   9.123   0.951  10.491
40652SOL     OW21981   8.673   0.325   9.759
40652SOL    HW121982   8.738   0.251   9.748
40652SOL    HW221983   8.693   0.375   9.843
40653SOL     OW21984   8.042   0.745   9.962
40653SOL    HW121985   8.092   0.830   9.943
40653SOL    HW221986   7.954   0.747   9.914
40654SOL     OW21987   9.225   0.342  10.952
40654SOL    HW121988   9.208   0.373  10.858
40654SOL    HW221989   9.141   0.305  10.990
40655SOL     OW21990   9.178   0.934  10.827
40655SOL    HW121991   9.216   1.025  10.842
40655SOL    HW221992   9.170   0.917  10.728
40656SOL     OW21993   8.307   1.374   9.326
40656SOL    HW121994   8.261   1.389   9.414
40656SOL    HW221995   8.351   1.459   9.296
40657SOL     OW21996   8.109   1.790  10.263
40657SOL    HW121997   8.063   1.878  10.250
40657SOL    HW221998   8.208   1.802  10.256
40658SOL     OW21999   8.307   0.956  10.171
40658SOL    HW122000   8.361   0.887  10.219
40658SOL    HW222001   8.275   1.025  10.237
40659SOL     OW22002   8.531   0.984   9.397
40659SOL    HW122003   8.508   1.037   9.315
40659SOL    HW222004   8.612   0.928   9.378
40660SOL     OW22005   9.309   1.569  10.161
40660SOL    HW122006   9.238   1.557  10.091
40660SOL    HW222007   9.310   1.490  10.221
40661SOL     OW22008   7.669   1.314  11.154
40661SOL    HW122009   7.604   1.241  11.133
40661SOL    HW222010   7.673   1.328  11.252
40662SOL     OW22011   7.527   1.240   9.963
40662SOL    HW122012   7.526   1.193  10.051
40662SOL    HW222013   7.609   1.212   9.912
40663SOL     OW22014   8.120   1.391  10.934
40663SOL    HW122015   8.042   1.341  10.972
40663SOL    HW222016   8.117   1.486  10.965
40664SOL     OW22017   9.272   0.192  10.537
40664SOL    HW122018   9.268   0.102  10.581
40664SOL    HW222019   9.275   0.181  10.438
40665SOL     OW22020   7.876   0.424   9.830
40665SOL    HW122021   7.906   0.352   9.768
40665SOL    HW222022   7.837   0.384   9.913
40666SOL     OW22023   9.153   1.487  10.414
40666SOL    HW122024   9.060   1.462  10.387
40666SOL    HW222025   9.179   1.437  10.496
40667SOL     OW22026   7.765   0.547  10.590
40667SOL    HW122027   7.803   0.488  10.662
40667SOL    HW222028   7.805   0.521  10.502
40668SOL     OW22029   8.260   1.586   9.997
40668SOL    HW122030   8.292   1.596   9.903
40668SOL    HW222031   8.181   1.524   9.999
40669SOL     OW22032   8.872   0.214  10.422
40669SOL    HW122033   8.924   0.149  10.477
40669SOL    HW222034   8.823   0.277  10.483
40670SOL     OW22035   8.449   0.034  10.464
40670SOL    HW122036   8.386  -0.038  10.433
40670SOL    HW222037   8.542  -0.002  10.464
40671SOL     OW22038   8.218   1.330   9.611
40671SOL    HW122039   8.172   1.243   9.628
40671SOL    HW222040   8.309   1.327   9.652
40672SOL     OW22041   8.066   1.567  10.594
40672SOL    HW122042   8.061   1.649  10.651
40672SOL    HW222043   8.155   1.564  10.549
40673SOL     OW22044   8.800   0.052   9.478
40673SOL    HW122045   8.835   0.011   9.394
40673SOL    HW222046   8.710   0.014   9.498
40674SOL     OW22047   8.748   0.453  10.001
40674SOL    HW122048   8.689   0.533  10.005
40674SOL    HW222049   8.763   0.418  10.094
40675SOL     OW22050   9.041   0.221  10.192
40675SOL    HW122051   8.957   0.220  10.246
40675SOL    HW222052   9.043   0.304  10.136
40676SOL     OW22053   7.487   1.077   9.610
40676SOL    HW122054   7.586   1.066   9.601
40676SOL    HW222055   7.447   0.991   9.642
40677SOL     OW22056   8.323   1.646   9.647
40677SOL    HW122057   8.246   1.611   9.593
40677SOL    HW222058   8.291   1.717   9.709
40678SOL     OW22059   7.678   0.628  11.285
40678SOL    HW122060   7.585   0.626  11.322
40678SOL    HW222061   7.679   0.589  11.193
40679SOL     OW22062   7.673   0.275  12.168
40679SOL    HW122063   7.708   0.258  12.260
40679SOL    HW222064   7.585   0.230  12.156
40680SOL     OW22065   7.467   0.368  11.819
40680SOL    HW122066   7.385   0.411  11.858
40680SOL    HW222067   7.439   0.295  11.756
40681SOL     OW22068   8.017   1.275  12.337
40681SOL    HW122069   7.924   1.268  12.300
40681SOL    HW222070   8.028   1.364  12.381
40682SOL     OW22071   9.003   1.511  11.875
40682SOL    HW122072   8.946   1.495  11.956
40682SOL    HW222073   8.944   1.521  11.795
40683SOL     OW22074   8.583   0.703  11.889
40683SOL    HW122075   8.640   0.781  11.864
40683SOL    HW222076   8.523   0.729  11.965
40684SOL     OW22077   9.203   0.607  11.403
40684SOL    HW122078   9.191   0.594  11.304
40684SOL    HW222079   9.173   0.526  11.452
40685SOL     OW22080   8.216   1.144  12.195
40685SOL    HW122081   8.138   1.161  12.255
40685SOL    HW222082   8.250   1.231  12.159
40686SOL     OW22083   8.133   1.012  11.837
40686SOL    HW122084   8.202   0.996  11.907
40686SOL    HW222085   8.060   1.069  11.875
40687SOL     OW22086   7.783   1.435  12.233
40687SOL    HW122087   7.705   1.404  12.180
40687SOL    HW222088   7.841   1.493  12.176
40688SOL     OW22089   8.908   1.505  12.511
40688SOL    HW122090   8.932   1.599  12.537
40688SOL    HW222091   8.892   1.451  12.593
40689SOL     OW22092   7.886   0.392  12.671
40689SOL    HW122093   7.968   0.336  12.680
40689SOL    HW222094   7.805   0.334  12.675
40690SOL     OW22095   9.051   0.447  11.909
40690SOL    HW122096   8.977   0.493  11.859
40690SOL    HW222097   9.102   0.515  11.962
40691SOL     OW22098   7.679   1.713  11.655
40691SOL    HW122099   7.713   1.790  11.709
40691SOL    HW222100   7.723   1.713  11.565
40692SOL     OW22101   7.678   1.434  11.710
40692SOL    HW122102   7.652   1.530  11.710
40692SOL    HW222103   7.607   1.380  11.755
40693SOL     OW22104   7.688   1.091  12.058
40693SOL    HW122105   7.702   1.007  12.110
40693SOL    HW222106   7.633   1.155  12.113
40694SOL     OW22107   8.068   1.786  12.611
40694SOL    HW122108   7.976   1.769  12.646
40694SOL    HW222109   8.096   1.878  12.637
40695SOL     OW22110   8.054   0.964  11.295
40695SOL    HW122111   8.061   1.048  11.241
40695SOL    HW222112   8.100   0.977  11.383
40696SOL     OW22113   9.042   0.114  12.652
40696SOL    HW122114   9.024   0.181  12.580
40696SOL    HW222115   9.039   0.160  12.741
40697SOL     OW22116   7.570   0.643  11.735
40697SOL    HW122117   7.525   0.555  11.752
40697SOL    HW222118   7.569   0.697  11.819
40698SOL     OW22119   9.290   1.767  11.531
40698SOL    HW122120   9.344   1.738  11.611
40698SOL    HW222121   9.320   1.857  11.502
40699SOL     OW22122   7.475   1.596  11.289
40699SOL    HW122123   7.456   1.500  11.310
40699SOL    HW222124   7.442   1.654  11.364
40700SOL     OW22125   9.137   0.922  11.784
40700SOL    HW122126   9.232   0.893  11.792
40700SOL    HW222127   9.129   0.987  11.709
40701SOL     OW22128   9.089   1.108  11.604
40701SOL    HW122129   9.175   1.110  11.552
40701SOL    HW222130   9.103   1.155  11.692
40702SOL     OW22131   8.061   1.365  11.898
40702SOL    HW122132   8.012   1.278  11.907
40702SOL    HW222133   8.038   1.408  11.811
40703SOL     OW22134   8.257   0.004  11.674
40703SOL    HW122135   8.297   0.095  11.665
40703SOL    HW222136   8.157   0.012  11.680
40704SOL     OW22137   7.645   0.976  12.436
40704SOL    HW122138   7.734   0.931  12.422
40704SOL    HW222139   7.572   0.911  12.417
40705SOL     OW22140   8.973   0.999  11.362
40705SOL    HW122141   8.910   0.923  11.375
40705SOL    HW222142   9.021   1.017  11.448
40706SOL     OW22143   7.765   0.251  12.973
40706SOL    HW122144   7.836   0.322  12.979
40706SOL    HW222145   7.677   0.290  13.001
40707SOL     OW22146   8.914   1.417  12.125
40707SOL    HW122147   8.855   1.423  12.205
40707SOL    HW222148   8.899   1.329  12.079
40708SOL     OW22149   9.115   1.714  11.744
40708SOL    HW122150   9.074   1.691  11.656
40708SOL    HW222151   9.097   1.640  11.809
40709SOL     OW22152   8.046   0.729  11.442
40709SOL    HW122153   8.070   0.798  11.374
40709SOL    HW222154   7.968   0.762  11.496
40710SOL     OW22155   8.729   0.345  12.116
40710SOL    HW122156   8.643   0.295  12.103
40710SOL    HW222157   8.791   0.291  12.172
40711SOL     OW22158   9.024   1.662  11.479
40711SOL    HW122159   9.113   1.708  11.482
40711SOL    HW222160   9.003   1.638  11.384
40712SOL     OW22161   8.255   0.605  12.637
40712SOL    HW122162   8.208   0.602  12.726
40712SOL    HW222163   8.204   0.550  12.571
40713SOL     OW22164   8.439   0.410  12.414
40713SOL    HW122165   8.362   0.444  12.468
40713SOL    HW222166   8.405   0.359  12.335
40714SOL     OW22167   8.489   0.701  11.601
40714SOL    HW122168   8.515   0.697  11.697
40714SOL    HW222169   8.404   0.650  11.587
40715SOL     OW22170   7.524   0.811  11.961
40715SOL    HW122171   7.623   0.799  11.970
40715SOL    HW222172   7.500   0.906  11.982
40716SOL     OW22173   7.578   1.821  12.743
40716SOL    HW122174   7.568   1.806  12.842
40716SOL    HW222175   7.492   1.857  12.707
40717SOL     OW22176   8.313   0.348  11.367
40717SOL    HW122177   8.372   0.411  11.318
40717SOL    HW222178   8.332   0.254  11.338
40718SOL     OW22179   8.810   1.144  11.717
40718SOL    HW122180   8.893   1.115  11.669
40718SOL    HW222181   8.761   1.211  11.661
40719SOL     OW22182   7.998   0.196  12.057
40719SOL    HW122183   7.993   0.191  12.157
40719SOL    HW222184   8.000   0.292  12.028
40720SOL     OW22185   8.456   1.456  11.649
40720SOL    HW122186   8.410   1.528  11.597
40720SOL    HW222187   8.452   1.476  11.747
40721SOL     OW22188   7.799   1.801  12.025
40721SOL    HW122189   7.849   1.715  12.031
40721SOL    HW222190   7.864   1.878  12.022
40722SOL     OW22191   9.243   1.066  12.045
40722SOL    HW122192   9.181   1.051  11.969
40722SOL    HW222193   9.191   1.077  12.130
40723SOL     OW22194   7.769   0.943  11.414
40723SOL    HW122195   7.851   0.982  11.372
40723SOL    HW222196   7.742   0.861  11.365
40724SOL     OW22197   8.906   0.735  11.900
40724SOL    HW122198   8.901   0.670  11.975
40724SOL    HW222199   8.986   0.794  11.913
40725SOL     OW22200   8.559   1.776  11.409
40725SOL    HW122201   8.499   1.714  11.459
40725SOL    HW222202   8.590   1.732  11.324
40726SOL     OW22203   7.650   0.285  12.670
40726SOL    HW122204   7.570   0.345  12.657
40726SOL    HW222205   7.640   0.236  12.756
40727SOL     OW22206   9.080   1.377  11.253
40727SOL    HW122207   9.048   1.471  11.243
40727SOL    HW222208   9.004   1.314  11.241
40728SOL     OW22209   7.912   1.743  11.495
40728SOL    HW122210   7.945   1.782  11.581
40728SOL    HW222211   7.988   1.736  11.430
40729SOL     OW22212   8.848   0.107  11.598
40729SOL    HW122213   8.824   0.070  11.508
40729SOL    HW222214   8.947   0.123  11.602
40730SOL     OW22215   7.697   1.785  12.413
40730SOL    HW122216   7.754   1.720  12.463
40730SOL    HW222217   7.681   1.752  12.320
40731SOL     OW22218   8.388   1.698  12.076
40731SOL    HW122219   8.468   1.641  12.097
40731SOL    HW222220   8.339   1.658  11.999
40732SOL     OW22221   7.830   0.700  11.652
40732SOL    HW122222   7.875   0.610  11.649
40732SOL    HW222223   7.736   0.689  11.685
40733SOL     OW22224   8.062   0.122  11.289
40733SOL    HW122225   8.160   0.100  11.296
40733SOL    HW222226   8.031   0.105  11.196
40734SOL     OW22227   8.251   1.402  12.096
40734SOL    HW122228   8.341   1.416  12.054
40734SOL    HW222229   8.180   1.404  12.025
40735SOL     OW22230   8.370   0.503  12.071
40735SOL    HW122231   8.345   0.494  11.975
40735SOL    HW222232   8.418   0.421  12.102
40736SOL     OW22233   7.987   0.064  11.684
40736SOL    HW122234   7.906   0.065  11.742
40736SOL    HW222235   7.990   0.147  11.629
40737SOL     OW22236   8.882   1.188  11.213
40737SOL    HW122237   8.914   1.112  11.270
40737SOL    HW222238   8.790   1.215  11.243
40738SOL     OW22239   8.383   0.236  11.652
40738SOL    HW122240   8.335   0.277  11.574
40738SOL    HW222241   8.482   0.234  11.633
40739SOL     OW22242   8.675   1.570  11.965
40739SOL    HW122243   8.696   1.644  11.900
40739SOL    HW222244   8.743   1.570  12.038
40740SOL     OW22245   7.907   1.152  11.913
40740SOL    HW122246   7.836   1.125  11.978
40740SOL    HW222247   7.881   1.124  11.820
40741SOL     OW22248   8.719   1.797  11.763
40741SOL    HW122249   8.763   1.861  11.699
40741SOL    HW222250   8.669   1.849  11.833
40742SOL     OW22251   8.480   0.549  11.188
40742SOL    HW122252   8.439   0.631  11.149
40742SOL    HW222253   8.544   0.575  11.261
40743SOL     OW22254   7.526   0.556  12.558
40743SOL    HW122255   7.618   0.555  12.517
40743SOL    HW222256   7.520   0.630  12.625
40744SOL     OW22257   8.009   0.222  12.319
40744SOL    HW122258   8.047   0.138  12.356
40744SOL    HW222259   7.921   0.241  12.363
40745SOL     OW22260   8.314   0.454  11.814
40745SOL    HW122261   8.282   0.526  11.752
40745SOL    HW222262   8.338   0.373  11.761
40746SOL     OW22263   8.465   0.039  11.925
40746SOL    HW122264   8.393   0.044  11.856
40746SOL    HW222265   8.441  -0.030  11.994
40747SOL     OW22266   8.877   1.173  12.039
40747SOL    HW122267   8.822   1.089  12.032
40747SOL    HW222268   8.903   1.202  11.947
40748SOL     OW22269   8.914   0.590  12.164
40748SOL    HW122270   8.884   0.495  12.171
40748SOL    HW222271   8.987   0.606  12.230
40749SOL     OW22272   9.305   0.833  11.549
40749SOL    HW122273   9.347   0.769  11.613
40749SOL    HW222274   9.267   0.782  11.471
40750SOL     OW22275   7.936   1.385  11.346
40750SOL    HW122276   7.849   1.370  11.393
40750SOL    HW222277   7.919   1.411  11.251
40751SOL     OW22278   9.112   1.280  11.829
40751SOL    HW122279   9.211   1.288  11.843
40751SOL    HW222280   9.067   1.364  11.860
40752SOL     OW22281   8.838   0.575  11.250
40752SOL    HW122282   8.784   0.554  11.331
40752SOL    HW222283   8.929   0.534  11.259
40753SOL     OW22284   7.975   0.256  11.500
40753SOL    HW122285   8.002   0.197  11.425
40753SOL    HW222286   7.975   0.351  11.469
40754SOL     OW22287   8.512   1.347  12.512
40754SOL    HW122288   8.432   1.324  12.567
40754SOL    HW222289   8.595   1.321  12.561
40755SOL     OW22290   8.559   1.195  12.272
40755SOL    HW122291   8.519   1.239  12.353
40755SOL    HW222292   8.518   1.232  12.189
40756SOL     OW22293   9.086   1.099  12.251
40756SOL    HW122294   9.091   1.180  12.310
40756SOL    HW222295   9.000   1.101  12.200
40757SOL     OW22296   8.363   0.089  12.574
40757SOL    HW122297   8.388   0.069  12.479
40757SOL    HW222298   8.435   0.145  12.616
40758SOL     OW22299   8.153   1.050  11.540
40758SOL    HW122300   8.139   1.057  11.639
40758SOL    HW222301   8.237   0.999  11.522
40759SOL     OW22302   7.858   0.813  12.423
40759SOL    HW122303   7.944   0.825  12.473
40759SOL    HW222304   7.816   0.726  12.450
40760SOL     OW22305   8.722   0.386  12.434
40760SOL    HW122306   8.743   0.460  12.498
40760SOL    HW222307   8.633   0.403  12.391
40761SOL     OW22308   7.512   1.564  12.503
40761SOL    HW122309   7.466   1.646  12.469
40761SOL    HW222310   7.610   1.583  12.512
40762SOL     OW22311   7.815   1.100  11.673
40762SOL    HW122312   7.808   1.183  11.617
40762SOL    HW222313   7.819   1.020  11.613
40763SOL     OW22314   8.014   0.537  12.037
40763SOL    HW122315   8.026   0.603  11.963
40763SOL    HW222316   8.060   0.571  12.120
40764SOL     OW22317   8.700   1.348  11.560
40764SOL    HW122318   8.750   1.425  11.600
40764SOL    HW222319   8.605   1.350  11.592
40765SOL     OW22320   8.720   1.445  12.314
40765SOL    HW122321   8.767   1.458  12.401
40765SOL    HW222322   8.654   1.371  12.323
40766SOL     OW22323   9.030   0.639  11.644
40766SOL    HW122324   8.999   0.700  11.717
40766SOL    HW222325   9.080   0.691  11.575
40767SOL     OW22326   7.802   1.510  12.501
40767SOL    HW122327   7.781   1.466  12.414
40767SOL    HW222328   7.899   1.536  12.504
40768SOL     OW22329   7.850   0.751  12.770
40768SOL    HW122330   7.918   0.806  12.723
40768SOL    HW222331   7.890   0.663  12.797
40769SOL     OW22332   9.035   0.779  12.842
40769SOL    HW122333   8.943   0.817  12.837
40769SOL    HW222334   9.095   0.826  12.777
40770SOL     OW22335   8.808   0.862  12.217
40770SOL    HW122336   8.733   0.862  12.151
40770SOL    HW222337   8.845   0.770  12.226
40771SOL     OW22338   8.657   0.525  11.447
40771SOL    HW122339   8.670   0.441  11.501
40771SOL    HW222340   8.628   0.599  11.507
40772SOL     OW22341   7.755   0.213  12.403
40772SOL    HW122342   7.732   0.250  12.493
40772SOL    HW222343   7.725   0.118  12.397
40773SOL     OW22344   7.485   1.310  12.454
40773SOL    HW122345   7.538   1.261  12.522
40773SOL    HW222346   7.507   1.408  12.459
40774SOL     OW22347   8.180   0.634  12.236
40774SOL    HW122348   8.239   0.608  12.160
40774SOL    HW222349   8.152   0.730  12.225
40775SOL     OW22350   7.755   0.063  11.790
40775SOL    HW122351   7.744   0.157  11.823
40775SOL    HW222352   7.750   0.000  11.867
40776SOL     OW22353   9.070   0.367  11.546
40776SOL    HW122354   9.072   0.291  11.610
40776SOL    HW222355   9.022   0.444  11.586
40777SOL     OW22356   8.471   0.766  12.138
40777SOL    HW122357   8.486   0.787  12.234
40777SOL    HW222358   8.441   0.671  12.129
40778SOL     OW22359   8.428   1.573  12.872
40778SOL    HW122360   8.408   1.617  12.784
40778SOL    HW222361   8.467   1.482  12.856
40779SOL     OW22362   8.988   0.274  11.297
40779SOL    HW122363   8.927   0.199  11.320
40779SOL    HW222364   9.010   0.326  11.380
40780SOL     OW22365   8.751   0.838  11.214
40780SOL    HW122366   8.785   0.745  11.229
40780SOL    HW222367   8.769   0.865  11.119
40781SOL     OW22368   8.516   1.333  12.021
40781SOL    HW122369   8.523   1.249  11.966
40781SOL    HW222370   8.578   1.402  11.985
40782SOL     OW22371   7.767   0.810  12.121
40782SOL    HW122372   7.860   0.846  12.126
40782SOL    HW222373   7.761   0.725  12.173
40783SOL     OW22374   7.787   0.509  12.178
40783SOL    HW122375   7.735   0.426  12.161
40783SOL    HW222376   7.864   0.514  12.114
40784SOL     OW22377   8.586   0.380  12.850
40784SOL    HW122378   8.541   0.443  12.914
40784SOL    HW222379   8.679   0.411  12.833
40785SOL     OW22380   8.608   0.207  12.649
40785SOL    HW122381   8.608   0.271  12.726
40785SOL    HW222382   8.636   0.255  12.566
40786SOL     OW22383   7.456   1.326  11.372
40786SOL    HW122384   7.363   1.347  11.341
40786SOL    HW222385   7.466   1.227  11.385
40787SOL     OW22386   7.536   1.801  12.099
40787SOL    HW122387   7.494   1.715  12.072
40787SOL    HW222388   7.630   1.804  12.065
40788SOL     OW22389   7.952   1.568  12.082
40788SOL    HW122390   8.018   1.642  12.091
40788SOL    HW222391   7.996   1.489  12.040
40789SOL     OW22392   8.450   0.796  12.410
40789SOL    HW122393   8.491   0.764  12.496
40789SOL    HW222394   8.354   0.769  12.407
40790SOL     OW22395   7.488   0.544  12.286
40790SOL    HW122396   7.573   0.511  12.245
40790SOL    HW222397   7.501   0.559  12.384
40791SOL     OW22398   8.263   0.572  11.497
40791SOL    HW122399   8.270   0.483  11.451
40791SOL    HW222400   8.169   0.606  11.489
40792SOL     OW22401   9.105   0.604  12.378
40792SOL    HW122402   9.067   0.535  12.440
40792SOL    HW222403   9.187   0.568  12.334
40793SOL     OW22404   8.119   0.464  12.441
40793SOL    HW122405   8.085   0.375  12.411
40793SOL    HW222406   8.145   0.518  12.361
40794SOL     OW22407   8.378   1.678  12.637
40794SOL    HW122408   8.354   1.660  12.542
40794SOL    HW222409   8.408   1.772  12.647
40795SOL     OW22410   7.921   0.500  11.363
40795SOL    HW122411   7.982   0.580  11.367
40795SOL    HW222412   7.826   0.531  11.370
40796SOL     OW22413   7.607   1.137  12.638
40796SOL    HW122414   7.629   1.076  12.714
40796SOL    HW222415   7.617   1.088  12.552
40797SOL     OW22416   8.795   1.059  12.406
40797SOL    HW122417   8.819   0.996  12.332
40797SOL    HW222418   8.705   1.099  12.388
40798SOL     OW22419   8.750   0.855  11.481
40798SOL    HW122420   8.664   0.824  11.523
40798SOL    HW222421   8.746   0.841  11.382
40799SOL     OW22422   9.207   1.747  12.326
40799SOL    HW122423   9.268   1.777  12.253
40799SOL    HW222424   9.169   1.658  12.304
40800SOL     OW22425   8.700   1.731  12.300
40800SOL    HW122426   8.784   1.736  12.246
40800SOL    HW222427   8.677   1.635  12.318
40801SOL     OW22428   7.531   1.258  12.194
40801SOL    HW122429   7.526   1.257  12.294
40801SOL    HW222430   7.448   1.217  12.156
40802SOL     OW22431   9.174   0.135  11.695
40802SOL    HW122432   9.247   0.118  11.628
40802SOL    HW222433   9.143   0.048  11.733
40803SOL     OW22434   8.836   1.573  11.649
40803SOL    HW122435   8.903   1.585  11.575
40803SOL    HW222436   8.796   1.662  11.672
40804SOL     OW22437   8.728   0.927  11.844
40804SOL    HW122438   8.788   0.846  11.846
40804SOL    HW222439   8.768   0.996  11.784
40805SOL     OW22440   8.120   1.616  11.326
40805SOL    HW122441   8.129   1.626  11.227
40805SOL    HW222442   8.080   1.527  11.347
40806SOL     OW22443   9.098   1.720  12.566
40806SOL    HW122444   9.151   1.730  12.482
40806SOL    HW222445   9.071   1.810  12.600
40807SOL     OW22446   9.289   0.175  12.135
40807SOL    HW122447   9.328   0.090  12.099
40807SOL    HW222448   9.191   0.177  12.116
40808SOL     OW22449   7.711   0.326  11.892
40808SOL    HW122450   7.632   0.377  11.858
40808SOL    HW222451   7.702   0.311  11.990
40809SOL     OW22452   8.642   1.612  11.203
40809SOL    HW122453   8.648   1.519  11.240
40809SOL    HW222454   8.583   1.612  11.123
40810SOL     OW22455   8.270   1.002  12.544
40810SOL    HW122456   8.310   1.001  12.452
40810SOL    HW222457   8.280   1.094  12.584
40811SOL     OW22458   8.364   0.910  11.463
40811SOL    HW122459   8.427   0.948  11.395
40811SOL    HW222460   8.404   0.827  11.502
40812SOL     OW22461   8.952   1.607  11.216
40812SOL    HW122462   8.860   1.644  11.223
40812SOL    HW222463   8.990   1.627  11.126
40813SOL     OW22464   7.820   1.288  12.662
40813SOL    HW122465   7.807   1.381  12.628
40813SOL    HW222466   7.736   1.236  12.649
40814SOL     OW22467   9.062   1.292  12.461
40814SOL    HW122468   9.122   1.295  12.541
40814SOL    HW222469   8.987   1.356  12.474
40815SOL     OW22470   8.487   1.098  11.868
40815SOL    HW122471   8.417   1.051  11.922
40815SOL    HW222472   8.546   1.030  11.825
40816SOL     OW22473   8.462   0.236  12.143
40816SOL    HW122474   8.454   0.200  12.050
40816SOL    HW222475   8.460   0.160  12.208
40817SOL     OW22476   8.038   1.487  11.663
40817SOL    HW122477   8.080   1.429  11.593
40817SOL    HW222478   7.994   1.566  11.619
40818SOL     OW22479   9.157   0.385  12.553
40818SOL    HW122480   9.230   0.454  12.557
40818SOL    HW222481   9.185   0.310  12.494
40819SOL     OW22482   7.703   1.348  11.462
40819SOL    HW122483   7.607   1.349  11.435
40819SOL    HW222484   7.715   1.401  11.546
40820SOL     OW22485   7.523   0.345  11.205
40820SOL    HW122486   7.431   0.317  11.176
40820SOL    HW222487   7.554   0.422  11.149
40821SOL     OW22488   8.888   0.856  12.570
40821SOL    HW122489   8.831   0.908  12.507
40821SOL    HW222490   8.984   0.868  12.546
40822SOL     OW22491   7.520   0.166  11.490
40822SOL    HW122492   7.503   0.249  11.436
40822SOL    HW222493   7.610   0.129  11.468
40823SOL     OW22494   8.631   1.335  11.291
40823SOL    HW122495   8.532   1.324  11.293
40823SOL    HW222496   8.665   1.350  11.384
40824SOL     OW22497   8.061   0.842  12.603
40824SOL    HW122498   8.117   0.923  12.586
40824SOL    HW222499   8.120   0.762  12.606
40825SOL     OW22500   7.838   1.741  12.732
40825SOL    HW122501   7.747   1.782  12.730
40825SOL    HW222502   7.831   1.647  12.764
40826SOL     OW22503   9.122   0.883  12.426
40826SOL    HW122504   9.095   0.794  12.389
40826SOL    HW222505   9.123   0.951  12.353
40827SOL     OW22506   8.673   0.325  11.621
40827SOL    HW122507   8.738   0.251  11.610
40827SOL    HW222508   8.693   0.375  11.705
40828SOL     OW22509   8.042   0.745  11.824
40828SOL    HW122510   8.092   0.830  11.805
40828SOL    HW222511   7.954   0.747  11.776
40829SOL     OW22512   9.225   0.342  12.814
40829SOL    HW122513   9.208   0.373  12.720
40829SOL    HW222514   9.141   0.305  12.852
40830SOL     OW22515   9.178   0.934  12.689
40830SOL    HW122516   9.216   1.025  12.704
40830SOL    HW222517   9.170   0.917  12.590
40831SOL     OW22518   8.307   1.374  11.188
40831SOL    HW122519   8.261   1.389  11.276
40831SOL    HW222520   8.351   1.459  11.158
40832SOL     OW22521   8.109   1.790  12.125
40832SOL    HW122522   8.063   1.878  12.112
40832SOL    HW222523   8.208   1.802  12.118
40833SOL     OW22524   8.307   0.956  12.033
40833SOL    HW122525   8.361   0.887  12.081
40833SOL    HW222526   8.275   1.025  12.099
40834SOL     OW22527   8.531   0.984  11.259
40834SOL    HW122528   8.508   1.037  11.177
40834SOL    HW222529   8.612   0.928  11.240
40835SOL     OW22530   9.309   1.569  12.023
40835SOL    HW122531   9.238   1.557  11.953
40835SOL    HW222532   9.310   1.490  12.083
40836SOL     OW22533   7.527   1.240  11.825
40836SOL    HW122534   7.526   1.193  11.913
40836SOL    HW222535   7.609   1.212  11.774
40837SOL     OW22536   9.272   0.192  12.399
40837SOL    HW122537   9.268   0.102  12.443
40837SOL    HW222538   9.275   0.181  12.300
40838SOL     OW22539   7.876   0.424  11.692
40838SOL    HW122540   7.906   0.352  11.630
40838SOL    HW222541   7.837   0.384  11.775
40839SOL     OW22542   9.153   1.487  12.276
40839SOL    HW122543   9.060   1.462  12.249
40839SOL    HW222544   9.179   1.437  12.358
40840SOL     OW22545   7.765   0.547  12.452
40840SOL    HW122546   7.803   0.488  12.524
40840SOL    HW222547   7.805   0.521  12.364
40841SOL     OW22548   8.260   1.586  11.859
40841SOL    HW122549   8.292   1.596  11.765
40841SOL    HW222550   8.181   1.524  11.861
40842SOL     OW22551   8.872   0.214  12.284
40842SOL    HW122552   8.924   0.149  12.339
40842SOL    HW222553   8.823   0.277  12.345
40843SOL     OW22554   8.449   0.034  12.326
40843SOL    HW122555   8.386  -0.038  12.295
40843SOL    HW222556   8.542  -0.002  12.326
40844SOL     OW22557   8.218   1.330  11.473
40844SOL    HW122558   8.172   1.243  11.490
40844SOL    HW222559   8.309   1.327  11.514
40845SOL     OW22560   8.066   1.567  12.456
40845SOL    HW122561   8.061   1.649  12.513
40845SOL    HW222562   8.155   1.564  12.411
40846SOL     OW22563   8.800   0.052  11.340
40846SOL    HW122564   8.835   0.011  11.256
40846SOL    HW222565   8.710   0.014  11.360
40847SOL     OW22566   8.748   0.453  11.863
40847SOL    HW122567   8.689   0.533  11.867
40847SOL    HW222568   8.763   0.418  11.956
40848SOL     OW22569   9.041   0.221  12.054
40848SOL    HW122570   8.957   0.220  12.108
40848SOL    HW222571   9.043   0.304  11.998
40849SOL     OW22572   7.487   1.077  11.472
40849SOL    HW122573   7.586   1.066  11.463
40849SOL    HW222574   7.447   0.991  11.504
40850SOL     OW22575   8.323   1.646  11.509
40850SOL    HW122576   8.246   1.611  11.455
40850SOL    HW222577   8.291   1.717  11.571
40851SOL     OW22578   7.678   2.490   0.113
40851SOL    HW122579   7.585   2.488   0.150
40851SOL    HW222580   7.679   2.451   0.021
40852SOL     OW22581   7.673   2.137   0.996
40852SOL    HW122582   7.708   2.120   1.088
40852SOL    HW222583   7.585   2.092   0.984
40853SOL     OW22584   7.467   2.230   0.647
40853SOL    HW122585   7.385   2.273   0.686
40853SOL    HW222586   7.439   2.157   0.584
40854SOL     OW22587   8.017   3.137   1.165
40854SOL    HW122588   7.924   3.130   1.128
40854SOL    HW222589   8.028   3.226   1.209
40855SOL     OW22590   9.003   3.373   0.703
40855SOL    HW122591   8.946   3.357   0.784
40855SOL    HW222592   8.944   3.383   0.623
40856SOL     OW22593   8.583   2.565   0.717
40856SOL    HW122594   8.640   2.643   0.692
40856SOL    HW222595   8.523   2.591   0.793
40857SOL     OW22596   9.203   2.469   0.231
40857SOL    HW122597   9.191   2.456   0.132
40857SOL    HW222598   9.173   2.388   0.280
40858SOL     OW22599   8.216   3.006   1.023
40858SOL    HW122600   8.138   3.023   1.083
40858SOL    HW222601   8.250   3.093   0.987
40859SOL     OW22602   8.298   2.660   1.823
40859SOL    HW122603   8.294   2.736   1.888
40859SOL    HW222604   8.320   2.696   1.732
40860SOL     OW22605   8.133   2.874   0.665
40860SOL    HW122606   8.202   2.858   0.735
40860SOL    HW222607   8.060   2.931   0.703
40861SOL     OW22608   8.134   3.023   1.803
40861SOL    HW122609   8.194   3.102   1.817
40861SOL    HW222610   8.048   3.054   1.762
40862SOL     OW22611   7.783   3.297   1.061
40862SOL    HW122612   7.705   3.266   1.008
40862SOL    HW222613   7.841   3.355   1.004
40863SOL     OW22614   8.908   3.367   1.339
40863SOL    HW122615   8.932   3.461   1.365
40863SOL    HW222616   8.892   3.313   1.421
40864SOL     OW22617   7.886   2.254   1.499
40864SOL    HW122618   7.968   2.198   1.508
40864SOL    HW222619   7.805   2.196   1.503
40865SOL     OW22620   9.051   2.309   0.737
40865SOL    HW122621   8.977   2.355   0.687
40865SOL    HW222622   9.102   2.377   0.790
40866SOL     OW22623   7.679   3.575   0.483
40866SOL    HW122624   7.713   3.652   0.537
40866SOL    HW222625   7.723   3.575   0.393
40867SOL     OW22626   8.575   3.203   1.690
40867SOL    HW122627   8.622   3.203   1.778
40867SOL    HW222628   8.527   3.116   1.679
40868SOL     OW22629   7.678   3.296   0.538
40868SOL    HW122630   7.652   3.392   0.538
40868SOL    HW222631   7.607   3.242   0.583
40869SOL     OW22632   7.688   2.953   0.886
40869SOL    HW122633   7.702   2.869   0.938
40869SOL    HW222634   7.633   3.017   0.941
40870SOL     OW22635   8.068   3.648   1.439
40870SOL    HW122636   7.976   3.631   1.474
40870SOL    HW222637   8.096   3.740   1.465
40871SOL     OW22638   8.054   2.826   0.123
40871SOL    HW122639   8.061   2.910   0.069
40871SOL    HW222640   8.100   2.839   0.211
40872SOL     OW22641   9.042   1.976   1.480
40872SOL    HW122642   9.024   2.043   1.408
40872SOL    HW222643   9.039   2.022   1.569
40873SOL     OW22644   7.570   2.505   0.563
40873SOL    HW122645   7.525   2.417   0.580
40873SOL    HW222646   7.569   2.559   0.647
40874SOL     OW22647   9.290   3.629   0.359
40874SOL    HW122648   9.344   3.600   0.439
40874SOL    HW222649   9.320   3.719   0.330
40875SOL     OW22650   7.475   3.458   0.117
40875SOL    HW122651   7.456   3.362   0.138
40875SOL    HW222652   7.442   3.516   0.192
40876SOL     OW22653   9.137   2.784   0.612
40876SOL    HW122654   9.232   2.755   0.620
40876SOL    HW222655   9.129   2.849   0.537
40877SOL     OW22656   9.089   2.970   0.432
40877SOL    HW122657   9.175   2.972   0.380
40877SOL    HW222658   9.103   3.017   0.520
40878SOL     OW22659   7.561   2.599   1.597
40878SOL    HW122660   7.649   2.586   1.642
40878SOL    HW222661   7.548   2.696   1.575
40879SOL     OW22662   8.061   3.227   0.726
40879SOL    HW122663   8.012   3.140   0.735
40879SOL    HW222664   8.038   3.270   0.639
40880SOL     OW22665   8.741   3.090   1.423
40880SOL    HW122666   8.778   3.017   1.365
40880SOL    HW222667   8.793   3.095   1.508
40881SOL     OW22668   8.257   1.866   0.502
40881SOL    HW122669   8.297   1.957   0.493
40881SOL    HW222670   8.157   1.874   0.508
40882SOL     OW22671   7.645   2.838   1.264
40882SOL    HW122672   7.734   2.793   1.250
40882SOL    HW222673   7.572   2.773   1.245
40883SOL     OW22674   8.973   2.861   0.190
40883SOL    HW122675   8.910   2.785   0.203
40883SOL    HW222676   9.021   2.879   0.276
40884SOL     OW22677   8.635   3.654   1.616
40884SOL    HW122678   8.659   3.714   1.540
40884SOL    HW222679   8.642   3.559   1.586
40885SOL     OW22680   7.765   2.113   1.801
40885SOL    HW122681   7.836   2.184   1.807
40885SOL    HW222682   7.677   2.152   1.829
40886SOL     OW22683   8.914   3.279   0.953
40886SOL    HW122684   8.855   3.285   1.033
40886SOL    HW222685   8.899   3.191   0.907
40887SOL     OW22686   9.115   3.576   0.572
40887SOL    HW122687   9.074   3.553   0.484
40887SOL    HW222688   9.097   3.502   0.637
40888SOL     OW22689   8.046   2.591   0.270
40888SOL    HW122690   8.070   2.660   0.202
40888SOL    HW222691   7.968   2.624   0.324
40889SOL     OW22692   8.729   2.207   0.944
40889SOL    HW122693   8.643   2.157   0.931
40889SOL    HW222694   8.791   2.153   1.000
40890SOL     OW22695   9.024   3.524   0.307
40890SOL    HW122696   9.113   3.570   0.310
40890SOL    HW222697   9.003   3.500   0.212
40891SOL     OW22698   8.255   2.467   1.465
40891SOL    HW122699   8.208   2.464   1.554
40891SOL    HW222700   8.204   2.412   1.399
40892SOL     OW22701   8.842   2.331   1.674
40892SOL    HW122702   8.822   2.374   1.762
40892SOL    HW222703   8.920   2.269   1.683
40893SOL     OW22704   8.421   2.752   1.572
40893SOL    HW122705   8.467   2.668   1.543
40893SOL    HW222706   8.365   2.786   1.497
40894SOL     OW22707   8.439   2.272   1.242
40894SOL    HW122708   8.362   2.306   1.296
40894SOL    HW222709   8.405   2.221   1.163
40895SOL     OW22710   8.489   2.563   0.429
40895SOL    HW122711   8.515   2.559   0.525
40895SOL    HW222712   8.404   2.512   0.415
40896SOL     OW22713   7.524   2.673   0.789
40896SOL    HW122714   7.623   2.661   0.798
40896SOL    HW222715   7.500   2.768   0.810
40897SOL     OW22716   7.578   3.683   1.571
40897SOL    HW122717   7.568   3.668   1.670
40897SOL    HW222718   7.492   3.719   1.535
40898SOL     OW22719   8.313   2.210   0.195
40898SOL    HW122720   8.372   2.273   0.146
40898SOL    HW222721   8.332   2.116   0.166
40899SOL     OW22722   9.167   2.447   1.831
40899SOL    HW122723   9.141   2.536   1.795
40899SOL    HW222724   9.165   2.379   1.758
40900SOL     OW22725   8.810   3.006   0.545
40900SOL    HW122726   8.893   2.977   0.497
40900SOL    HW222727   8.761   3.073   0.489
40901SOL     OW22728   7.998   2.058   0.885
40901SOL    HW122729   7.993   2.053   0.985
40901SOL    HW222730   8.000   2.154   0.856
40902SOL     OW22731   8.456   3.318   0.477
40902SOL    HW122732   8.410   3.390   0.425
40902SOL    HW222733   8.452   3.338   0.575
40903SOL     OW22734   7.799   3.663   0.853
40903SOL    HW122735   7.849   3.577   0.859
40903SOL    HW222736   7.864   3.740   0.850
40904SOL     OW22737   9.243   2.928   0.873
40904SOL    HW122738   9.181   2.913   0.797
40904SOL    HW222739   9.191   2.939   0.958
40905SOL     OW22740   8.675   3.412   1.506
40905SOL    HW122741   8.681   3.335   1.570
40905SOL    HW222742   8.623   3.386   1.426
40906SOL     OW22743   7.769   2.805   0.242
40906SOL    HW122744   7.851   2.844   0.200
40906SOL    HW222745   7.742   2.723   0.193
40907SOL     OW22746   8.906   2.597   0.728
40907SOL    HW122747   8.901   2.532   0.803
40907SOL    HW222748   8.986   2.656   0.741
40908SOL     OW22749   7.909   3.128   1.727
40908SOL    HW122750   7.859   3.129   1.641
40908SOL    HW222751   7.846   3.110   1.803
40909SOL     OW22752   8.559   3.638   0.237
40909SOL    HW122753   8.499   3.576   0.287
40909SOL    HW222754   8.590   3.594   0.152
40910SOL     OW22755   7.650   2.147   1.498
40910SOL    HW122756   7.570   2.207   1.485
40910SOL    HW222757   7.640   2.098   1.584
40911SOL     OW22758   9.080   3.239   0.081
40911SOL    HW122759   9.048   3.333   0.071
40911SOL    HW222760   9.004   3.176   0.069
40912SOL     OW22761   7.912   3.605   0.323
40912SOL    HW122762   7.945   3.644   0.409
40912SOL    HW222763   7.988   3.598   0.258
40913SOL     OW22764   8.848   1.969   0.426
40913SOL    HW122765   8.824   1.932   0.336
40913SOL    HW222766   8.947   1.985   0.430
40914SOL     OW22767   7.697   3.647   1.241
40914SOL    HW122768   7.754   3.582   1.291
40914SOL    HW222769   7.681   3.614   1.148
40915SOL     OW22770   8.388   3.560   0.904
40915SOL    HW122771   8.468   3.503   0.925
40915SOL    HW222772   8.339   3.520   0.827
40916SOL     OW22773   7.830   2.562   0.480
40916SOL    HW122774   7.875   2.472   0.477
40916SOL    HW222775   7.736   2.551   0.513
40917SOL     OW22776   8.995   2.084   1.729
40917SOL    HW122777   8.990   2.121   1.821
40917SOL    HW222778   8.923   2.015   1.717
40918SOL     OW22779   8.062   1.984   0.117
40918SOL    HW122780   8.160   1.962   0.124
40918SOL    HW222781   8.031   1.967   0.024
40919SOL     OW22782   8.229   2.126   1.749
40919SOL    HW122783   8.296   2.065   1.792
40919SOL    HW222784   8.156   2.145   1.814
40920SOL     OW22785   8.336   3.376   1.195
40920SOL    HW122786   8.313   3.351   1.101
40920SOL    HW222787   8.397   3.307   1.234
40921SOL     OW22788   8.799   2.452   1.433
40921SOL    HW122789   8.827   2.409   1.518
40921SOL    HW222790   8.824   2.548   1.434
40922SOL     OW22791   8.251   3.264   0.924
40922SOL    HW122792   8.341   3.278   0.882
40922SOL    HW222793   8.180   3.266   0.853
40923SOL     OW22794   8.370   2.365   0.899
40923SOL    HW122795   8.345   2.356   0.803
40923SOL    HW222796   8.418   2.283   0.930
40924SOL     OW22797   7.987   1.926   0.512
40924SOL    HW122798   7.906   1.927   0.570
40924SOL    HW222799   7.990   2.009   0.457
40925SOL     OW22800   8.882   3.050   0.041
40925SOL    HW122801   8.914   2.974   0.098
40925SOL    HW222802   8.790   3.077   0.071
40926SOL     OW22803   7.745   1.897   0.171
40926SOL    HW122804   7.794   1.981   0.150
40926SOL    HW222805   7.807   1.832   0.216
40927SOL     OW22806   8.383   2.098   0.480
40927SOL    HW122807   8.335   2.139   0.402
40927SOL    HW222808   8.482   2.096   0.461
40928SOL     OW22809   8.524   2.545   1.464
40928SOL    HW122810   8.444   2.484   1.467
40928SOL    HW222811   8.605   2.492   1.440
40929SOL     OW22812   8.675   3.432   0.793
40929SOL    HW122813   8.696   3.506   0.728
40929SOL    HW222814   8.743   3.432   0.866
40930SOL     OW22815   7.907   3.014   0.741
40930SOL    HW122816   7.836   2.987   0.806
40930SOL    HW222817   7.881   2.986   0.648
40931SOL     OW22818   8.480   2.411   0.016
40931SOL    HW122819   8.439   2.493  -0.023
40931SOL    HW222820   8.544   2.437   0.089
40932SOL     OW22821   7.526   2.418   1.386
40932SOL    HW122822   7.618   2.417   1.345
40932SOL    HW222823   7.520   2.492   1.453
40933SOL     OW22824   8.009   2.084   1.147
40933SOL    HW122825   8.047   2.000   1.184
40933SOL    HW222826   7.921   2.103   1.191
40934SOL     OW22827   8.314   2.316   0.642
40934SOL    HW122828   8.282   2.388   0.580
40934SOL    HW222829   8.338   2.235   0.589
40935SOL     OW22830   8.465   1.901   0.753
40935SOL    HW122831   8.393   1.906   0.684
40935SOL    HW222832   8.441   1.832   0.822
40936SOL     OW22833   8.877   3.035   0.867
40936SOL    HW122834   8.822   2.951   0.860
40936SOL    HW222835   8.903   3.064   0.775
40937SOL     OW22836   8.914   2.452   0.992
40937SOL    HW122837   8.884   2.357   0.999
40937SOL    HW222838   8.987   2.468   1.058
40938SOL     OW22839   9.305   2.695   0.377
40938SOL    HW122840   9.347   2.631   0.441
40938SOL    HW222841   9.267   2.644   0.299
40939SOL     OW22842   7.936   3.247   0.174
40939SOL    HW122843   7.849   3.232   0.221
40939SOL    HW222844   7.919   3.273   0.079
40940SOL     OW22845   9.112   3.142   0.657
40940SOL    HW122846   9.211   3.150   0.671
40940SOL    HW222847   9.067   3.226   0.688
40941SOL     OW22848   8.838   2.437   0.078
40941SOL    HW122849   8.784   2.416   0.159
40941SOL    HW222850   8.929   2.396   0.087
40942SOL     OW22851   7.975   2.118   0.328
40942SOL    HW122852   8.002   2.059   0.253
40942SOL    HW222853   7.975   2.213   0.297
40943SOL     OW22854   9.202   3.085   1.588
40943SOL    HW122855   9.293   3.046   1.575
40943SOL    HW222856   9.210   3.181   1.612
40944SOL     OW22857   8.512   3.209   1.340
40944SOL    HW122858   8.432   3.186   1.395
40944SOL    HW222859   8.595   3.183   1.389
40945SOL     OW22860   9.040   3.491   1.625
40945SOL    HW122861   9.067   3.525   1.535
40945SOL    HW222862   9.119   3.453   1.671
40946SOL     OW22863   8.559   3.057   1.100
40946SOL    HW122864   8.519   3.101   1.181
40946SOL    HW222865   8.518   3.094   1.017
40947SOL     OW22866   9.086   2.961   1.079
40947SOL    HW122867   9.091   3.042   1.138
40947SOL    HW222868   9.000   2.963   1.028
40948SOL     OW22869   8.363   1.951   1.402
40948SOL    HW122870   8.388   1.931   1.307
40948SOL    HW222871   8.435   2.007   1.444
40949SOL     OW22872   8.428   2.978   1.719
40949SOL    HW122873   8.329   2.984   1.729
40949SOL    HW222874   8.451   2.898   1.663
40950SOL     OW22875   8.153   2.912   0.368
40950SOL    HW122876   8.139   2.919   0.467
40950SOL    HW222877   8.237   2.861   0.350
40951SOL     OW22878   7.858   2.675   1.251
40951SOL    HW122879   7.944   2.687   1.301
40951SOL    HW222880   7.816   2.588   1.278
40952SOL     OW22881   8.722   2.248   1.262
40952SOL    HW122882   8.743   2.322   1.326
40952SOL    HW222883   8.633   2.265   1.219
40953SOL     OW22884   7.512   3.426   1.331
40953SOL    HW122885   7.466   3.508   1.297
40953SOL    HW222886   7.610   3.445   1.340
40954SOL     OW22887   7.815   2.962   0.501
40954SOL    HW122888   7.808   3.045   0.445
40954SOL    HW222889   7.819   2.882   0.441
40955SOL     OW22890   8.014   2.399   0.865
40955SOL    HW122891   8.026   2.465   0.791
40955SOL    HW222892   8.060   2.433   0.948
40956SOL     OW22893   8.700   3.210   0.388
40956SOL    HW122894   8.750   3.287   0.428
40956SOL    HW222895   8.605   3.212   0.420
40957SOL     OW22896   8.720   3.307   1.142
40957SOL    HW122897   8.767   3.320   1.229
40957SOL    HW222898   8.654   3.233   1.151
40958SOL     OW22899   9.030   2.501   0.472
40958SOL    HW122900   8.999   2.562   0.545
40958SOL    HW222901   9.080   2.553   0.403
40959SOL     OW22902   7.802   3.372   1.329
40959SOL    HW122903   7.781   3.328   1.242
40959SOL    HW222904   7.899   3.398   1.332
40960SOL     OW22905   7.850   2.613   1.598
40960SOL    HW122906   7.918   2.668   1.551
40960SOL    HW222907   7.890   2.525   1.625
40961SOL     OW22908   9.035   2.641   1.670
40961SOL    HW122909   8.943   2.679   1.665
40961SOL    HW222910   9.095   2.688   1.605
40962SOL     OW22911   8.461   1.967   1.770
40962SOL    HW122912   8.467   2.052   1.718
40962SOL    HW222913   8.493   1.891   1.713
40963SOL     OW22914   7.952   1.912   1.740
40963SOL    HW122915   7.910   1.855   1.670
40963SOL    HW222916   7.886   1.981   1.772
40964SOL     OW22917   8.021   2.732   1.029
40964SOL    HW122918   8.065   2.821   1.020
40964SOL    HW222919   7.958   2.732   1.106
40965SOL     OW22920   8.808   2.724   1.045
40965SOL    HW122921   8.733   2.724   0.979
40965SOL    HW222922   8.845   2.632   1.054
40966SOL     OW22923   8.657   2.387   0.275
40966SOL    HW122924   8.670   2.303   0.329
40966SOL    HW222925   8.628   2.461   0.335
40967SOL     OW22926   7.755   2.075   1.231
40967SOL    HW122927   7.732   2.112   1.321
40967SOL    HW222928   7.725   1.980   1.225
40968SOL     OW22929   7.485   3.172   1.282
40968SOL    HW122930   7.538   3.123   1.350
40968SOL    HW222931   7.507   3.270   1.287
40969SOL     OW22932   8.180   2.496   1.064
40969SOL    HW122933   8.239   2.470   0.988
40969SOL    HW222934   8.152   2.592   1.053
40970SOL     OW22935   9.176   2.797   1.854
40970SOL    HW122936   9.130   2.790   1.765
40970SOL    HW222937   9.114   2.841   1.920
40971SOL     OW22938   7.755   1.925   0.618
40971SOL    HW122939   7.744   2.019   0.651
40971SOL    HW222940   7.750   1.862   0.695
40972SOL     OW22941   9.070   2.229   0.374
40972SOL    HW122942   9.072   2.153   0.438
40972SOL    HW222943   9.022   2.306   0.414
40973SOL     OW22944   8.471   2.628   0.966
40973SOL    HW122945   8.486   2.649   1.062
40973SOL    HW222946   8.441   2.533   0.957
40974SOL     OW22947   8.428   3.435   1.700
40974SOL    HW122948   8.408   3.479   1.612
40974SOL    HW222949   8.467   3.344   1.684
40975SOL     OW22950   9.307   3.380   1.605
40975SOL    HW122951   9.321   3.407   1.510
40975SOL    HW222952   9.390   3.402   1.658
40976SOL     OW22953   7.798   2.760   1.804
40976SOL    HW122954   7.874   2.804   1.852
40976SOL    HW222955   7.833   2.713   1.722
40977SOL     OW22956   8.751   2.700   0.042
40977SOL    HW122957   8.785   2.607   0.057
40977SOL    HW222958   8.769   2.727  -0.053
40978SOL     OW22959   8.516   3.195   0.849
40978SOL    HW122960   8.523   3.111   0.794
40978SOL    HW222961   8.578   3.264   0.813
40979SOL     OW22962   7.767   2.672   0.949
40979SOL    HW122963   7.860   2.708   0.954
40979SOL    HW222964   7.761   2.587   1.001
40980SOL     OW22965   7.787   2.371   1.006
40980SOL    HW122966   7.735   2.288   0.989
40980SOL    HW222967   7.864   2.376   0.942
40981SOL     OW22968   8.586   2.242   1.678
40981SOL    HW122969   8.541   2.305   1.742
40981SOL    HW222970   8.679   2.273   1.661
40982SOL     OW22971   8.608   2.069   1.477
40982SOL    HW122972   8.608   2.133   1.554
40982SOL    HW222973   8.636   2.117   1.394
40983SOL     OW22974   7.456   3.188   0.200
40983SOL    HW122975   7.363   3.209   0.169
40983SOL    HW222976   7.466   3.089   0.213
40984SOL     OW22977   7.536   3.663   0.927
40984SOL    HW122978   7.494   3.577   0.900
40984SOL    HW222979   7.630   3.666   0.893
40985SOL     OW22980   7.952   3.430   0.910
40985SOL    HW122981   8.018   3.504   0.919
40985SOL    HW222982   7.996   3.351   0.868
40986SOL     OW22983   8.450   2.658   1.238
40986SOL    HW122984   8.491   2.626   1.324
40986SOL    HW222985   8.354   2.631   1.235
40987SOL     OW22986   7.488   2.406   1.114
40987SOL    HW122987   7.573   2.373   1.073
40987SOL    HW222988   7.501   2.421   1.212
40988SOL     OW22989   7.637   2.382   1.722
40988SOL    HW122990   7.696   2.342   1.652
40988SOL    HW222991   7.579   2.453   1.681
40989SOL     OW22992   8.817   2.812   1.660
40989SOL    HW122993   8.856   2.901   1.680
40989SOL    HW222994   8.827   2.792   1.563
40990SOL     OW22995   8.263   2.434   0.325
40990SOL    HW122996   8.270   2.345   0.279
40990SOL    HW222997   8.169   2.468   0.317
40991SOL     OW22998   9.105   2.466   1.206
40991SOL    HW122999   9.067   2.397   1.268
40991SOL    HW223000   9.187   2.430   1.162
40992SOL     OW23001   7.700   3.426   1.744
40992SOL    HW123002   7.670   3.483   1.820
40992SOL    HW223003   7.693   3.329   1.770
40993SOL     OW23004   8.119   2.326   1.269
40993SOL    HW123005   8.085   2.237   1.239
40993SOL    HW223006   8.145   2.380   1.189
40994SOL     OW23007   8.378   3.540   1.465
40994SOL    HW123008   8.354   3.522   1.370
40994SOL    HW223009   8.408   3.634   1.475
40995SOL     OW23010   7.921   2.362   0.191
40995SOL    HW123011   7.982   2.442   0.195
40995SOL    HW223012   7.826   2.393   0.198
40996SOL     OW23013   7.607   2.999   1.466
40996SOL    HW123014   7.629   2.938   1.542
40996SOL    HW223015   7.617   2.950   1.380
40997SOL     OW23016   8.795   2.921   1.234
40997SOL    HW123017   8.819   2.858   1.160
40997SOL    HW223018   8.705   2.961   1.216
40998SOL     OW23019   8.750   2.717   0.309
40998SOL    HW123020   8.664   2.686   0.351
40998SOL    HW223021   8.746   2.703   0.210
40999SOL     OW23022   9.207   3.609   1.154
40999SOL    HW123023   9.268   3.639   1.081
40999SOL    HW223024   9.169   3.520   1.132
41000SOL     OW23025   8.700   3.593   1.128
41000SOL    HW123026   8.784   3.598   1.074
41000SOL    HW223027   8.677   3.497   1.146
41001SOL     OW23028   7.531   3.120   1.022
41001SOL    HW123029   7.526   3.119   1.122
41001SOL    HW223030   7.448   3.079   0.984
41002SOL     OW23031   8.136   3.524   1.716
41002SOL    HW123032   8.080   3.605   1.725
41002SOL    HW223033   8.188   3.528   1.630
41003SOL     OW23034   8.351   1.948   0.133
41003SOL    HW123035   8.402   1.949   0.047
41003SOL    HW223036   8.407   1.906   0.204
41004SOL     OW23037   9.174   1.997   0.523
41004SOL    HW123038   9.247   1.980   0.456
41004SOL    HW223039   9.143   1.910   0.561
41005SOL     OW23040   8.836   3.435   0.477
41005SOL    HW123041   8.903   3.447   0.403
41005SOL    HW223042   8.796   3.524   0.500
41006SOL     OW23043   7.578   3.656   1.851
41006SOL    HW123044   7.537   3.582   1.904
41006SOL    HW223045   7.642   3.707   1.909
41007SOL     OW23046   8.728   2.789   0.672
41007SOL    HW123047   8.788   2.708   0.674
41007SOL    HW223048   8.768   2.858   0.612
41008SOL     OW23049   8.278   3.135   1.422
41008SOL    HW123050   8.273   3.168   1.517
41008SOL    HW223051   8.192   3.154   1.376
41009SOL     OW23052   8.120   3.478   0.154
41009SOL    HW123053   8.129   3.488   0.055
41009SOL    HW223054   8.080   3.389   0.175
41010SOL     OW23055   9.098   3.582   1.394
41010SOL    HW123056   9.151   3.592   1.310
41010SOL    HW223057   9.071   3.672   1.428
41011SOL     OW23058   9.289   2.037   0.963
41011SOL    HW123059   9.328   1.952   0.927
41011SOL    HW223060   9.191   2.039   0.944
41012SOL     OW23061   7.711   2.188   0.720
41012SOL    HW123062   7.632   2.239   0.686
41012SOL    HW223063   7.702   2.173   0.818
41013SOL     OW23064   8.642   3.474   0.031
41013SOL    HW123065   8.648   3.381   0.068
41013SOL    HW223066   8.583   3.474  -0.049
41014SOL     OW23067   8.270   2.864   1.372
41014SOL    HW123068   8.310   2.863   1.280
41014SOL    HW223069   8.280   2.956   1.412
41015SOL     OW23070   8.364   2.772   0.291
41015SOL    HW123071   8.427   2.810   0.223
41015SOL    HW223072   8.404   2.689   0.330
41016SOL     OW23073   8.952   3.469   0.044
41016SOL    HW123074   8.860   3.506   0.051
41016SOL    HW223075   8.990   3.489  -0.046
41017SOL     OW23076   7.820   3.150   1.490
41017SOL    HW123077   7.807   3.243   1.456
41017SOL    HW223078   7.736   3.098   1.477
41018SOL     OW23079   9.062   3.154   1.289
41018SOL    HW123080   9.122   3.157   1.369
41018SOL    HW223081   8.987   3.218   1.302
41019SOL     OW23082   8.487   2.960   0.696
41019SOL    HW123083   8.417   2.913   0.750
41019SOL    HW223084   8.546   2.892   0.653
41020SOL     OW23085   8.462   2.098   0.971
41020SOL    HW123086   8.454   2.062   0.878
41020SOL    HW223087   8.460   2.022   1.036
41021SOL     OW23088   8.038   3.349   0.491
41021SOL    HW123089   8.080   3.291   0.421
41021SOL    HW223090   7.994   3.428   0.447
41022SOL     OW23091   9.157   2.247   1.381
41022SOL    HW123092   9.230   2.316   1.385
41022SOL    HW223093   9.185   2.172   1.322
41023SOL     OW23094   7.703   3.210   0.290
41023SOL    HW123095   7.607   3.211   0.263
41023SOL    HW223096   7.715   3.263   0.374
41024SOL     OW23097   7.553   2.875   1.726
41024SOL    HW123098   7.476   2.842   1.780
41024SOL    HW223099   7.638   2.845   1.768
41025SOL     OW23100   8.120   2.065   1.489
41025SOL    HW123101   8.210   2.049   1.449
41025SOL    HW223102   8.128   2.070   1.588
41026SOL     OW23103   8.888   2.718   1.398
41026SOL    HW123104   8.831   2.770   1.335
41026SOL    HW223105   8.984   2.730   1.374
41027SOL     OW23106   7.520   2.028   0.318
41027SOL    HW123107   7.503   2.111   0.264
41027SOL    HW223108   7.610   1.991   0.296
41028SOL     OW23109   8.631   3.197   0.119
41028SOL    HW123110   8.532   3.186   0.121
41028SOL    HW223111   8.665   3.212   0.212
41029SOL     OW23112   8.061   2.704   1.431
41029SOL    HW123113   8.117   2.785   1.414
41029SOL    HW223114   8.120   2.624   1.434
41030SOL     OW23115   8.941   3.629   0.959
41030SOL    HW123116   8.974   3.693   0.890
41030SOL    HW223117   9.007   3.623   1.034
41031SOL     OW23118   8.164   2.427   1.708
41031SOL    HW123119   8.183   2.492   1.782
41031SOL    HW223120   8.224   2.347   1.717
41032SOL     OW23121   8.898   3.082   1.633
41032SOL    HW123122   8.889   3.072   1.732
41032SOL    HW223123   8.994   3.075   1.607
41033SOL     OW23124   7.838   3.603   1.560
41033SOL    HW123125   7.747   3.644   1.558
41033SOL    HW223126   7.831   3.509   1.592
41034SOL     OW23127   9.122   2.745   1.254
41034SOL    HW123128   9.095   2.656   1.217
41034SOL    HW223129   9.123   2.813   1.181
41035SOL     OW23130   8.673   2.187   0.449
41035SOL    HW123131   8.738   2.113   0.438
41035SOL    HW223132   8.693   2.237   0.533
41036SOL     OW23133   8.042   2.607   0.652
41036SOL    HW123134   8.092   2.692   0.633
41036SOL    HW223135   7.954   2.609   0.604
41037SOL     OW23136   9.225   2.204   1.642
41037SOL    HW123137   9.208   2.235   1.548
41037SOL    HW223138   9.141   2.167   1.680
41038SOL     OW23139   9.178   2.796   1.517
41038SOL    HW123140   9.216   2.887   1.532
41038SOL    HW223141   9.170   2.779   1.418
41039SOL     OW23142   8.307   3.236   0.016
41039SOL    HW123143   8.261   3.251   0.104
41039SOL    HW223144   8.351   3.321  -0.014
41040SOL     OW23145   8.109   3.652   0.953
41040SOL    HW123146   8.063   3.740   0.940
41040SOL    HW223147   8.208   3.664   0.946
41041SOL     OW23148   8.307   2.818   0.861
41041SOL    HW123149   8.361   2.749   0.909
41041SOL    HW223150   8.275   2.887   0.927
41042SOL     OW23151   8.531   2.846   0.087
41042SOL    HW123152   8.508   2.899   0.005
41042SOL    HW223153   8.612   2.790   0.068
41043SOL     OW23154   9.309   3.431   0.851
41043SOL    HW123155   9.238   3.419   0.781
41043SOL    HW223156   9.310   3.352   0.911
41044SOL     OW23157   7.669   3.176   1.844
41044SOL    HW123158   7.604   3.103   1.823
41044SOL    HW223159   7.673   3.190   1.942
41045SOL     OW23160   7.527   3.102   0.653
41045SOL    HW123161   7.526   3.055   0.741
41045SOL    HW223162   7.609   3.074   0.602
41046SOL     OW23163   8.120   3.253   1.624
41046SOL    HW123164   8.042   3.203   1.662
41046SOL    HW223165   8.117   3.348   1.655
41047SOL     OW23166   9.272   2.054   1.227
41047SOL    HW123167   9.268   1.964   1.271
41047SOL    HW223168   9.275   2.043   1.128
41048SOL     OW23169   7.876   2.286   0.520
41048SOL    HW123170   7.906   2.214   0.458
41048SOL    HW223171   7.837   2.246   0.603
41049SOL     OW23172   9.153   3.349   1.104
41049SOL    HW123173   9.060   3.324   1.077
41049SOL    HW223174   9.179   3.299   1.186
41050SOL     OW23175   7.765   2.409   1.280
41050SOL    HW123176   7.803   2.350   1.352
41050SOL    HW223177   7.805   2.383   1.192
41051SOL     OW23178   8.260   3.448   0.687
41051SOL    HW123179   8.292   3.458   0.593
41051SOL    HW223180   8.181   3.386   0.689
41052SOL     OW23181   8.872   2.076   1.112
41052SOL    HW123182   8.924   2.011   1.167
41052SOL    HW223183   8.823   2.139   1.173
41053SOL     OW23184   8.449   1.896   1.154
41053SOL    HW123185   8.386   1.824   1.123
41053SOL    HW223186   8.542   1.860   1.154
41054SOL     OW23187   8.218   3.192   0.301
41054SOL    HW123188   8.172   3.105   0.318
41054SOL    HW223189   8.309   3.189   0.342
41055SOL     OW23190   8.066   3.429   1.284
41055SOL    HW123191   8.061   3.511   1.341
41055SOL    HW223192   8.155   3.426   1.239
41056SOL     OW23193   8.800   1.914   0.168
41056SOL    HW123194   8.835   1.873   0.084
41056SOL    HW223195   8.710   1.876   0.188
41057SOL     OW23196   8.748   2.315   0.691
41057SOL    HW123197   8.689   2.395   0.695
41057SOL    HW223198   8.763   2.280   0.784
41058SOL     OW23199   9.041   2.083   0.882
41058SOL    HW123200   8.957   2.082   0.936
41058SOL    HW223201   9.043   2.166   0.826
41059SOL     OW23202   7.487   2.939   0.300
41059SOL    HW123203   7.586   2.928   0.291
41059SOL    HW223204   7.447   2.853   0.332
41060SOL     OW23205   8.323   3.508   0.337
41060SOL    HW123206   8.246   3.473   0.283
41060SOL    HW223207   8.291   3.579   0.399
41061SOL     OW23208   7.678   2.490   1.975
41061SOL    HW123209   7.585   2.488   2.012
41061SOL    HW223210   7.679   2.451   1.883
41062SOL     OW23211   7.673   2.137   2.858
41062SOL    HW123212   7.708   2.120   2.950
41062SOL    HW223213   7.585   2.092   2.846
41063SOL     OW23214   7.467   2.230   2.509
41063SOL    HW123215   7.385   2.273   2.548
41063SOL    HW223216   7.439   2.157   2.446
41064SOL     OW23217   8.017   3.137   3.027
41064SOL    HW123218   7.924   3.130   2.990
41064SOL    HW223219   8.028   3.226   3.071
41065SOL     OW23220   9.003   3.373   2.565
41065SOL    HW123221   8.946   3.357   2.646
41065SOL    HW223222   8.944   3.383   2.485
41066SOL     OW23223   8.583   2.565   2.579
41066SOL    HW123224   8.640   2.643   2.554
41066SOL    HW223225   8.523   2.591   2.655
41067SOL     OW23226   9.203   2.469   2.093
41067SOL    HW123227   9.191   2.456   1.994
41067SOL    HW223228   9.173   2.388   2.142
41068SOL     OW23229   8.216   3.006   2.885
41068SOL    HW123230   8.138   3.023   2.945
41068SOL    HW223231   8.250   3.093   2.849
41069SOL     OW23232   8.298   2.660   3.685
41069SOL    HW123233   8.294   2.736   3.750
41069SOL    HW223234   8.320   2.696   3.594
41070SOL     OW23235   8.133   2.874   2.527
41070SOL    HW123236   8.202   2.858   2.597
41070SOL    HW223237   8.060   2.931   2.565
41071SOL     OW23238   8.134   3.023   3.665
41071SOL    HW123239   8.194   3.102   3.679
41071SOL    HW223240   8.048   3.054   3.624
41072SOL     OW23241   7.783   3.297   2.923
41072SOL    HW123242   7.705   3.266   2.870
41072SOL    HW223243   7.841   3.355   2.866
41073SOL     OW23244   8.908   3.367   3.201
41073SOL    HW123245   8.932   3.461   3.227
41073SOL    HW223246   8.892   3.313   3.283
41074SOL     OW23247   7.886   2.254   3.361
41074SOL    HW123248   7.968   2.198   3.370
41074SOL    HW223249   7.805   2.196   3.365
41075SOL     OW23250   9.051   2.309   2.599
41075SOL    HW123251   8.977   2.355   2.549
41075SOL    HW223252   9.102   2.377   2.652
41076SOL     OW23253   7.679   3.575   2.345
41076SOL    HW123254   7.713   3.652   2.399
41076SOL    HW223255   7.723   3.575   2.255
41077SOL     OW23256   8.575   3.203   3.552
41077SOL    HW123257   8.622   3.203   3.640
41077SOL    HW223258   8.527   3.116   3.541
41078SOL     OW23259   7.678   3.296   2.400
41078SOL    HW123260   7.652   3.392   2.400
41078SOL    HW223261   7.607   3.242   2.445
41079SOL     OW23262   7.688   2.953   2.748
41079SOL    HW123263   7.702   2.869   2.800
41079SOL    HW223264   7.633   3.017   2.803
41080SOL     OW23265   8.068   3.648   3.301
41080SOL    HW123266   7.976   3.631   3.336
41080SOL    HW223267   8.096   3.740   3.327
41081SOL     OW23268   8.054   2.826   1.985
41081SOL    HW123269   8.061   2.910   1.931
41081SOL    HW223270   8.100   2.839   2.073
41082SOL     OW23271   9.042   1.976   3.342
41082SOL    HW123272   9.024   2.043   3.270
41082SOL    HW223273   9.039   2.022   3.431
41083SOL     OW23274   7.570   2.505   2.425
41083SOL    HW123275   7.525   2.417   2.442
41083SOL    HW223276   7.569   2.559   2.509
41084SOL     OW23277   9.290   3.629   2.221
41084SOL    HW123278   9.344   3.600   2.301
41084SOL    HW223279   9.320   3.719   2.192
41085SOL     OW23280   7.475   3.458   1.979
41085SOL    HW123281   7.456   3.362   2.000
41085SOL    HW223282   7.442   3.516   2.054
41086SOL     OW23283   9.137   2.784   2.474
41086SOL    HW123284   9.232   2.755   2.482
41086SOL    HW223285   9.129   2.849   2.399
41087SOL     OW23286   9.089   2.970   2.294
41087SOL    HW123287   9.175   2.972   2.242
41087SOL    HW223288   9.103   3.017   2.382
41088SOL     OW23289   7.561   2.599   3.459
41088SOL    HW123290   7.649   2.586   3.504
41088SOL    HW223291   7.548   2.696   3.437
41089SOL     OW23292   8.061   3.227   2.588
41089SOL    HW123293   8.012   3.140   2.597
41089SOL    HW223294   8.038   3.270   2.501
41090SOL     OW23295   8.741   3.090   3.285
41090SOL    HW123296   8.778   3.017   3.227
41090SOL    HW223297   8.793   3.095   3.370
41091SOL     OW23298   8.257   1.866   2.364
41091SOL    HW123299   8.297   1.957   2.355
41091SOL    HW223300   8.157   1.874   2.370
41092SOL     OW23301   7.645   2.838   3.126
41092SOL    HW123302   7.734   2.793   3.112
41092SOL    HW223303   7.572   2.773   3.107
41093SOL     OW23304   8.973   2.861   2.052
41093SOL    HW123305   8.910   2.785   2.065
41093SOL    HW223306   9.021   2.879   2.138
41094SOL     OW23307   8.635   3.654   3.478
41094SOL    HW123308   8.659   3.714   3.402
41094SOL    HW223309   8.642   3.559   3.448
41095SOL     OW23310   7.765   2.113   3.663
41095SOL    HW123311   7.836   2.184   3.669
41095SOL    HW223312   7.677   2.152   3.691
41096SOL     OW23313   8.914   3.279   2.815
41096SOL    HW123314   8.855   3.285   2.895
41096SOL    HW223315   8.899   3.191   2.769
41097SOL     OW23316   9.115   3.576   2.434
41097SOL    HW123317   9.074   3.553   2.346
41097SOL    HW223318   9.097   3.502   2.499
41098SOL     OW23319   8.046   2.591   2.132
41098SOL    HW123320   8.070   2.660   2.064
41098SOL    HW223321   7.968   2.624   2.186
41099SOL     OW23322   8.729   2.207   2.806
41099SOL    HW123323   8.643   2.157   2.793
41099SOL    HW223324   8.791   2.153   2.862
41100SOL     OW23325   9.024   3.524   2.169
41100SOL    HW123326   9.113   3.570   2.172
41100SOL    HW223327   9.003   3.500   2.074
41101SOL     OW23328   8.255   2.467   3.327
41101SOL    HW123329   8.208   2.464   3.416
41101SOL    HW223330   8.204   2.412   3.261
41102SOL     OW23331   8.842   2.331   3.536
41102SOL    HW123332   8.822   2.374   3.624
41102SOL    HW223333   8.920   2.269   3.545
41103SOL     OW23334   8.421   2.752   3.434
41103SOL    HW123335   8.467   2.668   3.405
41103SOL    HW223336   8.365   2.786   3.359
41104SOL     OW23337   8.439   2.272   3.104
41104SOL    HW123338   8.362   2.306   3.158
41104SOL    HW223339   8.405   2.221   3.025
41105SOL     OW23340   8.489   2.563   2.291
41105SOL    HW123341   8.515   2.559   2.387
41105SOL    HW223342   8.404   2.512   2.277
41106SOL     OW23343   7.524   2.673   2.651
41106SOL    HW123344   7.623   2.661   2.660
41106SOL    HW223345   7.500   2.768   2.672
41107SOL     OW23346   7.578   3.683   3.433
41107SOL    HW123347   7.568   3.668   3.532
41107SOL    HW223348   7.492   3.719   3.397
41108SOL     OW23349   8.313   2.210   2.057
41108SOL    HW123350   8.372   2.273   2.008
41108SOL    HW223351   8.332   2.116   2.028
41109SOL     OW23352   9.167   2.447   3.693
41109SOL    HW123353   9.141   2.536   3.657
41109SOL    HW223354   9.165   2.379   3.620
41110SOL     OW23355   8.810   3.006   2.407
41110SOL    HW123356   8.893   2.977   2.359
41110SOL    HW223357   8.761   3.073   2.351
41111SOL     OW23358   7.998   2.058   2.747
41111SOL    HW123359   7.993   2.053   2.847
41111SOL    HW223360   8.000   2.154   2.718
41112SOL     OW23361   8.456   3.318   2.339
41112SOL    HW123362   8.410   3.390   2.287
41112SOL    HW223363   8.452   3.338   2.437
41113SOL     OW23364   7.799   3.663   2.715
41113SOL    HW123365   7.849   3.577   2.721
41113SOL    HW223366   7.864   3.740   2.712
41114SOL     OW23367   9.243   2.928   2.735
41114SOL    HW123368   9.181   2.913   2.659
41114SOL    HW223369   9.191   2.939   2.820
41115SOL     OW23370   8.675   3.412   3.368
41115SOL    HW123371   8.681   3.335   3.432
41115SOL    HW223372   8.623   3.386   3.288
41116SOL     OW23373   7.769   2.805   2.104
41116SOL    HW123374   7.851   2.844   2.062
41116SOL    HW223375   7.742   2.723   2.055
41117SOL     OW23376   8.906   2.597   2.590
41117SOL    HW123377   8.901   2.532   2.665
41117SOL    HW223378   8.986   2.656   2.603
41118SOL     OW23379   7.909   3.128   3.589
41118SOL    HW123380   7.859   3.129   3.503
41118SOL    HW223381   7.846   3.110   3.665
41119SOL     OW23382   8.559   3.638   2.099
41119SOL    HW123383   8.499   3.576   2.149
41119SOL    HW223384   8.590   3.594   2.014
41120SOL     OW23385   7.650   2.147   3.360
41120SOL    HW123386   7.570   2.207   3.347
41120SOL    HW223387   7.640   2.098   3.446
41121SOL     OW23388   9.080   3.239   1.943
41121SOL    HW123389   9.048   3.333   1.933
41121SOL    HW223390   9.004   3.176   1.931
41122SOL     OW23391   7.912   3.605   2.185
41122SOL    HW123392   7.945   3.644   2.271
41122SOL    HW223393   7.988   3.598   2.120
41123SOL     OW23394   8.848   1.969   2.288
41123SOL    HW123395   8.824   1.932   2.198
41123SOL    HW223396   8.947   1.985   2.292
41124SOL     OW23397   7.697   3.647   3.103
41124SOL    HW123398   7.754   3.582   3.153
41124SOL    HW223399   7.681   3.614   3.010
41125SOL     OW23400   8.388   3.560   2.766
41125SOL    HW123401   8.468   3.503   2.787
41125SOL    HW223402   8.339   3.520   2.689
41126SOL     OW23403   7.830   2.562   2.342
41126SOL    HW123404   7.875   2.472   2.339
41126SOL    HW223405   7.736   2.551   2.375
41127SOL     OW23406   8.995   2.084   3.591
41127SOL    HW123407   8.990   2.121   3.683
41127SOL    HW223408   8.923   2.015   3.579
41128SOL     OW23409   8.062   1.984   1.979
41128SOL    HW123410   8.160   1.962   1.986
41128SOL    HW223411   8.031   1.967   1.886
41129SOL     OW23412   8.229   2.126   3.611
41129SOL    HW123413   8.296   2.065   3.654
41129SOL    HW223414   8.156   2.145   3.676
41130SOL     OW23415   8.336   3.376   3.057
41130SOL    HW123416   8.313   3.351   2.963
41130SOL    HW223417   8.397   3.307   3.096
41131SOL     OW23418   8.799   2.452   3.295
41131SOL    HW123419   8.827   2.409   3.380
41131SOL    HW223420   8.824   2.548   3.296
41132SOL     OW23421   8.251   3.264   2.786
41132SOL    HW123422   8.341   3.278   2.744
41132SOL    HW223423   8.180   3.266   2.715
41133SOL     OW23424   8.370   2.365   2.761
41133SOL    HW123425   8.345   2.356   2.665
41133SOL    HW223426   8.418   2.283   2.792
41134SOL     OW23427   7.987   1.926   2.374
41134SOL    HW123428   7.906   1.927   2.432
41134SOL    HW223429   7.990   2.009   2.319
41135SOL     OW23430   8.882   3.050   1.903
41135SOL    HW123431   8.914   2.974   1.960
41135SOL    HW223432   8.790   3.077   1.933
41136SOL     OW23433   7.745   1.897   2.033
41136SOL    HW123434   7.794   1.981   2.012
41136SOL    HW223435   7.807   1.832   2.078
41137SOL     OW23436   8.383   2.098   2.342
41137SOL    HW123437   8.335   2.139   2.264
41137SOL    HW223438   8.482   2.096   2.323
41138SOL     OW23439   8.524   2.545   3.326
41138SOL    HW123440   8.444   2.484   3.329
41138SOL    HW223441   8.605   2.492   3.302
41139SOL     OW23442   8.675   3.432   2.655
41139SOL    HW123443   8.696   3.506   2.590
41139SOL    HW223444   8.743   3.432   2.728
41140SOL     OW23445   7.907   3.014   2.603
41140SOL    HW123446   7.836   2.987   2.668
41140SOL    HW223447   7.881   2.986   2.510
41141SOL     OW23448   8.719   3.659   2.453
41141SOL    HW123449   8.763   3.723   2.389
41141SOL    HW223450   8.669   3.711   2.523
41142SOL     OW23451   8.480   2.411   1.878
41142SOL    HW123452   8.439   2.493   1.839
41142SOL    HW223453   8.544   2.437   1.951
41143SOL     OW23454   7.526   2.418   3.248
41143SOL    HW123455   7.618   2.417   3.207
41143SOL    HW223456   7.520   2.492   3.315
41144SOL     OW23457   8.009   2.084   3.009
41144SOL    HW123458   8.047   2.000   3.046
41144SOL    HW223459   7.921   2.103   3.053
41145SOL     OW23460   8.314   2.316   2.504
41145SOL    HW123461   8.282   2.388   2.442
41145SOL    HW223462   8.338   2.235   2.451
41146SOL     OW23463   8.465   1.901   2.615
41146SOL    HW123464   8.393   1.906   2.546
41146SOL    HW223465   8.441   1.832   2.684
41147SOL     OW23466   8.877   3.035   2.729
41147SOL    HW123467   8.822   2.951   2.722
41147SOL    HW223468   8.903   3.064   2.637
41148SOL     OW23469   8.914   2.452   2.854
41148SOL    HW123470   8.884   2.357   2.861
41148SOL    HW223471   8.987   2.468   2.920
41149SOL     OW23472   9.305   2.695   2.239
41149SOL    HW123473   9.347   2.631   2.303
41149SOL    HW223474   9.267   2.644   2.161
41150SOL     OW23475   7.936   3.247   2.036
41150SOL    HW123476   7.849   3.232   2.083
41150SOL    HW223477   7.919   3.273   1.941
41151SOL     OW23478   9.112   3.142   2.519
41151SOL    HW123479   9.211   3.150   2.533
41151SOL    HW223480   9.067   3.226   2.550
41152SOL     OW23481   8.838   2.437   1.940
41152SOL    HW123482   8.784   2.416   2.021
41152SOL    HW223483   8.929   2.396   1.949
41153SOL     OW23484   7.975   2.118   2.190
41153SOL    HW123485   8.002   2.059   2.115
41153SOL    HW223486   7.975   2.213   2.159
41154SOL     OW23487   9.202   3.085   3.450
41154SOL    HW123488   9.293   3.046   3.437
41154SOL    HW223489   9.210   3.181   3.474
41155SOL     OW23490   8.512   3.209   3.202
41155SOL    HW123491   8.432   3.186   3.257
41155SOL    HW223492   8.595   3.183   3.251
41156SOL     OW23493   9.040   3.491   3.487
41156SOL    HW123494   9.067   3.525   3.397
41156SOL    HW223495   9.119   3.453   3.533
41157SOL     OW23496   8.559   3.057   2.962
41157SOL    HW123497   8.519   3.101   3.043
41157SOL    HW223498   8.518   3.094   2.879
41158SOL     OW23499   9.086   2.961   2.941
41158SOL    HW123500   9.091   3.042   3.000
41158SOL    HW223501   9.000   2.963   2.890
41159SOL     OW23502   8.363   1.951   3.264
41159SOL    HW123503   8.388   1.931   3.169
41159SOL    HW223504   8.435   2.007   3.306
41160SOL     OW23505   8.428   2.978   3.581
41160SOL    HW123506   8.329   2.984   3.591
41160SOL    HW223507   8.451   2.898   3.525
41161SOL     OW23508   8.153   2.912   2.230
41161SOL    HW123509   8.139   2.919   2.329
41161SOL    HW223510   8.237   2.861   2.212
41162SOL     OW23511   7.858   2.675   3.113
41162SOL    HW123512   7.944   2.687   3.163
41162SOL    HW223513   7.816   2.588   3.140
41163SOL     OW23514   8.722   2.248   3.124
41163SOL    HW123515   8.743   2.322   3.188
41163SOL    HW223516   8.633   2.265   3.081
41164SOL     OW23517   7.512   3.426   3.193
41164SOL    HW123518   7.466   3.508   3.159
41164SOL    HW223519   7.610   3.445   3.202
41165SOL     OW23520   7.815   2.962   2.363
41165SOL    HW123521   7.808   3.045   2.307
41165SOL    HW223522   7.819   2.882   2.303
41166SOL     OW23523   8.014   2.399   2.727
41166SOL    HW123524   8.026   2.465   2.653
41166SOL    HW223525   8.060   2.433   2.810
41167SOL     OW23526   8.700   3.210   2.250
41167SOL    HW123527   8.750   3.287   2.290
41167SOL    HW223528   8.605   3.212   2.282
41168SOL     OW23529   8.720   3.307   3.004
41168SOL    HW123530   8.767   3.320   3.091
41168SOL    HW223531   8.654   3.233   3.013
41169SOL     OW23532   9.030   2.501   2.334
41169SOL    HW123533   8.999   2.562   2.407
41169SOL    HW223534   9.080   2.553   2.265
41170SOL     OW23535   7.850   2.613   3.460
41170SOL    HW123536   7.918   2.668   3.413
41170SOL    HW223537   7.890   2.525   3.487
41171SOL     OW23538   9.035   2.641   3.532
41171SOL    HW123539   8.943   2.679   3.527
41171SOL    HW223540   9.095   2.688   3.467
41172SOL     OW23541   8.461   1.967   3.632
41172SOL    HW123542   8.467   2.052   3.580
41172SOL    HW223543   8.493   1.891   3.575
41173SOL     OW23544   7.952   1.912   3.602
41173SOL    HW123545   7.910   1.855   3.532
41173SOL    HW223546   7.886   1.981   3.634
41174SOL     OW23547   8.021   2.732   2.891
41174SOL    HW123548   8.065   2.821   2.882
41174SOL    HW223549   7.958   2.732   2.968
41175SOL     OW23550   8.808   2.724   2.907
41175SOL    HW123551   8.733   2.724   2.841
41175SOL    HW223552   8.845   2.632   2.916
41176SOL     OW23553   8.657   2.387   2.137
41176SOL    HW123554   8.670   2.303   2.191
41176SOL    HW223555   8.628   2.461   2.197
41177SOL     OW23556   7.755   2.075   3.093
41177SOL    HW123557   7.732   2.112   3.183
41177SOL    HW223558   7.725   1.980   3.087
41178SOL     OW23559   7.485   3.172   3.144
41178SOL    HW123560   7.538   3.123   3.212
41178SOL    HW223561   7.507   3.270   3.149
41179SOL     OW23562   8.180   2.496   2.926
41179SOL    HW123563   8.239   2.470   2.850
41179SOL    HW223564   8.152   2.592   2.915
41180SOL     OW23565   9.176   2.797   3.716
41180SOL    HW123566   9.130   2.790   3.627
41180SOL    HW223567   9.114   2.841   3.782
41181SOL     OW23568   7.755   1.925   2.480
41181SOL    HW123569   7.744   2.019   2.513
41181SOL    HW223570   7.750   1.862   2.557
41182SOL     OW23571   9.070   2.229   2.236
41182SOL    HW123572   9.072   2.153   2.300
41182SOL    HW223573   9.022   2.306   2.276
41183SOL     OW23574   8.471   2.628   2.828
41183SOL    HW123575   8.486   2.649   2.924
41183SOL    HW223576   8.441   2.533   2.819
41184SOL     OW23577   8.428   3.435   3.562
41184SOL    HW123578   8.408   3.479   3.474
41184SOL    HW223579   8.467   3.344   3.546
41185SOL     OW23580   9.307   3.380   3.467
41185SOL    HW123581   9.321   3.407   3.372
41185SOL    HW223582   9.390   3.402   3.520
41186SOL     OW23583   7.798   2.760   3.666
41186SOL    HW123584   7.874   2.804   3.714
41186SOL    HW223585   7.833   2.713   3.584
41187SOL     OW23586   8.988   2.136   1.987
41187SOL    HW123587   8.927   2.061   2.010
41187SOL    HW223588   9.010   2.188   2.070
41188SOL     OW23589   8.751   2.700   1.904
41188SOL    HW123590   8.785   2.607   1.919
41188SOL    HW223591   8.769   2.727   1.809
41189SOL     OW23592   8.516   3.195   2.711
41189SOL    HW123593   8.523   3.111   2.656
41189SOL    HW223594   8.578   3.264   2.675
41190SOL     OW23595   7.767   2.672   2.811
41190SOL    HW123596   7.860   2.708   2.816
41190SOL    HW223597   7.761   2.587   2.863
41191SOL     OW23598   7.787   2.371   2.868
41191SOL    HW123599   7.735   2.288   2.851
41191SOL    HW223600   7.864   2.376   2.804
41192SOL     OW23601   8.586   2.242   3.540
41192SOL    HW123602   8.541   2.305   3.604
41192SOL    HW223603   8.679   2.273   3.523
41193SOL     OW23604   8.608   2.069   3.339
41193SOL    HW123605   8.608   2.133   3.416
41193SOL    HW223606   8.636   2.117   3.256
41194SOL     OW23607   7.456   3.188   2.062
41194SOL    HW123608   7.363   3.209   2.031
41194SOL    HW223609   7.466   3.089   2.075
41195SOL     OW23610   7.536   3.663   2.789
41195SOL    HW123611   7.494   3.577   2.762
41195SOL    HW223612   7.630   3.666   2.755
41196SOL     OW23613   7.952   3.430   2.772
41196SOL    HW123614   8.018   3.504   2.781
41196SOL    HW223615   7.996   3.351   2.730
41197SOL     OW23616   8.450   2.658   3.100
41197SOL    HW123617   8.491   2.626   3.186
41197SOL    HW223618   8.354   2.631   3.097
41198SOL     OW23619   7.488   2.406   2.976
41198SOL    HW123620   7.573   2.373   2.935
41198SOL    HW223621   7.501   2.421   3.074
41199SOL     OW23622   7.637   2.382   3.584
41199SOL    HW123623   7.696   2.342   3.514
41199SOL    HW223624   7.579   2.453   3.543
41200SOL     OW23625   8.817   2.812   3.522
41200SOL    HW123626   8.856   2.901   3.542
41200SOL    HW223627   8.827   2.792   3.425
41201SOL     OW23628   8.263   2.434   2.187
41201SOL    HW123629   8.270   2.345   2.141
41201SOL    HW223630   8.169   2.468   2.179
41202SOL     OW23631   9.105   2.466   3.068
41202SOL    HW123632   9.067   2.397   3.130
41202SOL    HW223633   9.187   2.430   3.024
41203SOL     OW23634   7.700   3.426   3.606
41203SOL    HW123635   7.670   3.483   3.682
41203SOL    HW223636   7.693   3.329   3.632
41204SOL     OW23637   8.119   2.326   3.131
41204SOL    HW123638   8.085   2.237   3.101
41204SOL    HW223639   8.145   2.380   3.051
41205SOL     OW23640   8.378   3.540   3.327
41205SOL    HW123641   8.354   3.522   3.232
41205SOL    HW223642   8.408   3.634   3.337
41206SOL     OW23643   7.921   2.362   2.053
41206SOL    HW123644   7.982   2.442   2.057
41206SOL    HW223645   7.826   2.393   2.060
41207SOL     OW23646   7.607   2.999   3.328
41207SOL    HW123647   7.629   2.938   3.404
41207SOL    HW223648   7.617   2.950   3.242
41208SOL     OW23649   8.795   2.921   3.096
41208SOL    HW123650   8.819   2.858   3.022
41208SOL    HW223651   8.705   2.961   3.078
41209SOL     OW23652   8.750   2.717   2.171
41209SOL    HW123653   8.664   2.686   2.213
41209SOL    HW223654   8.746   2.703   2.072
41210SOL     OW23655   9.207   3.609   3.016
41210SOL    HW123656   9.268   3.639   2.943
41210SOL    HW223657   9.169   3.520   2.994
41211SOL     OW23658   8.700   3.593   2.990
41211SOL    HW123659   8.784   3.598   2.936
41211SOL    HW223660   8.677   3.497   3.008
41212SOL     OW23661   7.531   3.120   2.884
41212SOL    HW123662   7.526   3.119   2.984
41212SOL    HW223663   7.448   3.079   2.846
41213SOL     OW23664   8.136   3.524   3.578
41213SOL    HW123665   8.080   3.605   3.587
41213SOL    HW223666   8.188   3.528   3.492
41214SOL     OW23667   9.174   1.997   2.385
41214SOL    HW123668   9.247   1.980   2.318
41214SOL    HW223669   9.143   1.910   2.423
41215SOL     OW23670   8.836   3.435   2.339
41215SOL    HW123671   8.903   3.447   2.265
41215SOL    HW223672   8.796   3.524   2.362
41216SOL     OW23673   7.578   3.656   3.713
41216SOL    HW123674   7.537   3.582   3.766
41216SOL    HW223675   7.642   3.707   3.771
41217SOL     OW23676   8.728   2.789   2.534
41217SOL    HW123677   8.788   2.708   2.536
41217SOL    HW223678   8.768   2.858   2.474
41218SOL     OW23679   8.278   3.135   3.284
41218SOL    HW123680   8.273   3.168   3.379
41218SOL    HW223681   8.192   3.154   3.238
41219SOL     OW23682   8.120   3.478   2.016
41219SOL    HW123683   8.129   3.488   1.917
41219SOL    HW223684   8.080   3.389   2.037
41220SOL     OW23685   9.098   3.582   3.256
41220SOL    HW123686   9.151   3.592   3.172
41220SOL    HW223687   9.071   3.672   3.290
41221SOL     OW23688   9.289   2.037   2.825
41221SOL    HW123689   9.328   1.952   2.789
41221SOL    HW223690   9.191   2.039   2.806
41222SOL     OW23691   7.711   2.188   2.582
41222SOL    HW123692   7.632   2.239   2.548
41222SOL    HW223693   7.702   2.173   2.680
41223SOL     OW23694   8.642   3.474   1.893
41223SOL    HW123695   8.648   3.381   1.930
41223SOL    HW223696   8.583   3.474   1.813
41224SOL     OW23697   8.270   2.864   3.234
41224SOL    HW123698   8.310   2.863   3.142
41224SOL    HW223699   8.280   2.956   3.274
41225SOL     OW23700   8.364   2.772   2.153
41225SOL    HW123701   8.427   2.810   2.085
41225SOL    HW223702   8.404   2.689   2.192
41226SOL     OW23703   8.952   3.469   1.906
41226SOL    HW123704   8.860   3.506   1.913
41226SOL    HW223705   8.990   3.489   1.816
41227SOL     OW23706   7.820   3.150   3.352
41227SOL    HW123707   7.807   3.243   3.318
41227SOL    HW223708   7.736   3.098   3.339
41228SOL     OW23709   9.062   3.154   3.151
41228SOL    HW123710   9.122   3.157   3.231
41228SOL    HW223711   8.987   3.218   3.164
41229SOL     OW23712   8.487   2.960   2.558
41229SOL    HW123713   8.417   2.913   2.612
41229SOL    HW223714   8.546   2.892   2.515
41230SOL     OW23715   8.462   2.098   2.833
41230SOL    HW123716   8.454   2.062   2.740
41230SOL    HW223717   8.460   2.022   2.898
41231SOL     OW23718   8.038   3.349   2.353
41231SOL    HW123719   8.080   3.291   2.283
41231SOL    HW223720   7.994   3.428   2.309
41232SOL     OW23721   9.157   2.247   3.243
41232SOL    HW123722   9.230   2.316   3.247
41232SOL    HW223723   9.185   2.172   3.184
41233SOL     OW23724   7.703   3.210   2.152
41233SOL    HW123725   7.607   3.211   2.125
41233SOL    HW223726   7.715   3.263   2.236
41234SOL     OW23727   7.553   2.875   3.588
41234SOL    HW123728   7.476   2.842   3.642
41234SOL    HW223729   7.638   2.845   3.630
41235SOL     OW23730   8.120   2.065   3.351
41235SOL    HW123731   8.210   2.049   3.311
41235SOL    HW223732   8.128   2.070   3.450
41236SOL     OW23733   7.523   2.207   1.895
41236SOL    HW123734   7.431   2.179   1.866
41236SOL    HW223735   7.554   2.284   1.839
41237SOL     OW23736   8.888   2.718   3.260
41237SOL    HW123737   8.831   2.770   3.197
41237SOL    HW223738   8.984   2.730   3.236
41238SOL     OW23739   7.520   2.028   2.180
41238SOL    HW123740   7.503   2.111   2.126
41238SOL    HW223741   7.610   1.991   2.158
41239SOL     OW23742   8.631   3.197   1.981
41239SOL    HW123743   8.532   3.186   1.983
41239SOL    HW223744   8.665   3.212   2.074
41240SOL     OW23745   8.061   2.704   3.293
41240SOL    HW123746   8.117   2.785   3.276
41240SOL    HW223747   8.120   2.624   3.296
41241SOL     OW23748   8.941   3.629   2.821
41241SOL    HW123749   8.974   3.693   2.752
41241SOL    HW223750   9.007   3.623   2.896
41242SOL     OW23751   8.164   2.427   3.570
41242SOL    HW123752   8.183   2.492   3.644
41242SOL    HW223753   8.224   2.347   3.579
41243SOL     OW23754   8.898   3.082   3.495
41243SOL    HW123755   8.889   3.072   3.594
41243SOL    HW223756   8.994   3.075   3.469
41244SOL     OW23757   7.838   3.603   3.422
41244SOL    HW123758   7.747   3.644   3.420
41244SOL    HW223759   7.831   3.509   3.454
41245SOL     OW23760   9.122   2.745   3.116
41245SOL    HW123761   9.095   2.656   3.079
41245SOL    HW223762   9.123   2.813   3.043
41246SOL     OW23763   8.673   2.187   2.311
41246SOL    HW123764   8.738   2.113   2.300
41246SOL    HW223765   8.693   2.237   2.395
41247SOL     OW23766   8.042   2.607   2.514
41247SOL    HW123767   8.092   2.692   2.495
41247SOL    HW223768   7.954   2.609   2.466
41248SOL     OW23769   9.225   2.204   3.504
41248SOL    HW123770   9.208   2.235   3.410
41248SOL    HW223771   9.141   2.167   3.542
41249SOL     OW23772   9.178   2.796   3.379
41249SOL    HW123773   9.216   2.887   3.394
41249SOL    HW223774   9.170   2.779   3.280
41250SOL     OW23775   8.307   3.236   1.878
41250SOL    HW123776   8.261   3.251   1.966
41250SOL    HW223777   8.351   3.321   1.848
41251SOL     OW23778   8.109   3.652   2.815
41251SOL    HW123779   8.063   3.740   2.802
41251SOL    HW223780   8.208   3.664   2.808
41252SOL     OW23781   8.307   2.818   2.723
41252SOL    HW123782   8.361   2.749   2.771
41252SOL    HW223783   8.275   2.887   2.789
41253SOL     OW23784   8.531   2.846   1.949
41253SOL    HW123785   8.508   2.899   1.867
41253SOL    HW223786   8.612   2.790   1.930
41254SOL     OW23787   9.309   3.431   2.713
41254SOL    HW123788   9.238   3.419   2.643
41254SOL    HW223789   9.310   3.352   2.773
41255SOL     OW23790   7.669   3.176   3.706
41255SOL    HW123791   7.604   3.103   3.685
41255SOL    HW223792   7.673   3.190   3.804
41256SOL     OW23793   7.527   3.102   2.515
41256SOL    HW123794   7.526   3.055   2.603
41256SOL    HW223795   7.609   3.074   2.464
41257SOL     OW23796   8.120   3.253   3.486
41257SOL    HW123797   8.042   3.203   3.524
41257SOL    HW223798   8.117   3.348   3.517
41258SOL     OW23799   9.272   2.054   3.089
41258SOL    HW123800   9.268   1.964   3.133
41258SOL    HW223801   9.275   2.043   2.990
41259SOL     OW23802   7.876   2.286   2.382
41259SOL    HW123803   7.906   2.214   2.320
41259SOL    HW223804   7.837   2.246   2.465
41260SOL     OW23805   9.153   3.349   2.966
41260SOL    HW123806   9.060   3.324   2.939
41260SOL    HW223807   9.179   3.299   3.048
41261SOL     OW23808   7.765   2.409   3.142
41261SOL    HW123809   7.803   2.350   3.214
41261SOL    HW223810   7.805   2.383   3.054
41262SOL     OW23811   8.260   3.448   2.549
41262SOL    HW123812   8.292   3.458   2.455
41262SOL    HW223813   8.181   3.386   2.551
41263SOL     OW23814   8.872   2.076   2.974
41263SOL    HW123815   8.924   2.011   3.029
41263SOL    HW223816   8.823   2.139   3.035
41264SOL     OW23817   8.449   1.896   3.016
41264SOL    HW123818   8.386   1.824   2.985
41264SOL    HW223819   8.542   1.860   3.016
41265SOL     OW23820   8.218   3.192   2.163
41265SOL    HW123821   8.172   3.105   2.180
41265SOL    HW223822   8.309   3.189   2.204
41266SOL     OW23823   8.066   3.429   3.146
41266SOL    HW123824   8.061   3.511   3.203
41266SOL    HW223825   8.155   3.426   3.101
41267SOL     OW23826   8.800   1.914   2.030
41267SOL    HW123827   8.835   1.873   1.946
41267SOL    HW223828   8.710   1.876   2.050
41268SOL     OW23829   8.748   2.315   2.553
41268SOL    HW123830   8.689   2.395   2.557
41268SOL    HW223831   8.763   2.280   2.646
41269SOL     OW23832   9.041   2.083   2.744
41269SOL    HW123833   8.957   2.082   2.798
41269SOL    HW223834   9.043   2.166   2.688
41270SOL     OW23835   7.487   2.939   2.162
41270SOL    HW123836   7.586   2.928   2.153
41270SOL    HW223837   7.447   2.853   2.194
41271SOL     OW23838   8.323   3.508   2.199
41271SOL    HW123839   8.246   3.473   2.145
41271SOL    HW223840   8.291   3.579   2.261
41272SOL     OW23841   7.678   2.490   3.837
41272SOL    HW123842   7.585   2.488   3.874
41272SOL    HW223843   7.679   2.451   3.745
41273SOL     OW23844   7.673   2.137   4.720
41273SOL    HW123845   7.708   2.120   4.812
41273SOL    HW223846   7.585   2.092   4.708
41274SOL     OW23847   7.467   2.230   4.371
41274SOL    HW123848   7.385   2.273   4.410
41274SOL    HW223849   7.439   2.157   4.308
41275SOL     OW23850   8.017   3.137   4.889
41275SOL    HW123851   7.924   3.130   4.852
41275SOL    HW223852   8.028   3.226   4.933
41276SOL     OW23853   9.003   3.373   4.427
41276SOL    HW123854   8.946   3.357   4.508
41276SOL    HW223855   8.944   3.383   4.347
41277SOL     OW23856   8.583   2.565   4.441
41277SOL    HW123857   8.640   2.643   4.416
41277SOL    HW223858   8.523   2.591   4.517
41278SOL     OW23859   9.203   2.469   3.955
41278SOL    HW123860   9.191   2.456   3.856
41278SOL    HW223861   9.173   2.388   4.004
41279SOL     OW23862   8.216   3.006   4.747
41279SOL    HW123863   8.138   3.023   4.807
41279SOL    HW223864   8.250   3.093   4.711
41280SOL     OW23865   8.298   2.660   5.547
41280SOL    HW123866   8.294   2.736   5.612
41280SOL    HW223867   8.320   2.696   5.456
41281SOL     OW23868   8.133   2.874   4.389
41281SOL    HW123869   8.202   2.858   4.459
41281SOL    HW223870   8.060   2.931   4.427
41282SOL     OW23871   8.134   3.023   5.527
41282SOL    HW123872   8.194   3.102   5.541
41282SOL    HW223873   8.048   3.054   5.486
41283SOL     OW23874   7.783   3.297   4.785
41283SOL    HW123875   7.705   3.266   4.732
41283SOL    HW223876   7.841   3.355   4.728
41284SOL     OW23877   8.908   3.367   5.063
41284SOL    HW123878   8.932   3.461   5.089
41284SOL    HW223879   8.892   3.313   5.145
41285SOL     OW23880   7.886   2.254   5.223
41285SOL    HW123881   7.968   2.198   5.232
41285SOL    HW223882   7.805   2.196   5.227
41286SOL     OW23883   9.051   2.309   4.461
41286SOL    HW123884   8.977   2.355   4.411
41286SOL    HW223885   9.102   2.377   4.514
41287SOL     OW23886   7.679   3.575   4.207
41287SOL    HW123887   7.713   3.652   4.261
41287SOL    HW223888   7.723   3.575   4.117
41288SOL     OW23889   8.575   3.203   5.414
41288SOL    HW123890   8.622   3.203   5.502
41288SOL    HW223891   8.527   3.116   5.403
41289SOL     OW23892   7.678   3.296   4.262
41289SOL    HW123893   7.652   3.392   4.262
41289SOL    HW223894   7.607   3.242   4.307
41290SOL     OW23895   7.688   2.953   4.610
41290SOL    HW123896   7.702   2.869   4.662
41290SOL    HW223897   7.633   3.017   4.665
41291SOL     OW23898   8.068   3.648   5.163
41291SOL    HW123899   7.976   3.631   5.198
41291SOL    HW223900   8.096   3.740   5.189
41292SOL     OW23901   8.054   2.826   3.847
41292SOL    HW123902   8.061   2.910   3.793
41292SOL    HW223903   8.100   2.839   3.935
41293SOL     OW23904   9.042   1.976   5.204
41293SOL    HW123905   9.024   2.043   5.132
41293SOL    HW223906   9.039   2.022   5.293
41294SOL     OW23907   7.570   2.505   4.287
41294SOL    HW123908   7.525   2.417   4.304
41294SOL    HW223909   7.569   2.559   4.371
41295SOL     OW23910   9.290   3.629   4.083
41295SOL    HW123911   9.344   3.600   4.163
41295SOL    HW223912   9.320   3.719   4.054
41296SOL     OW23913   7.475   3.458   3.841
41296SOL    HW123914   7.456   3.362   3.862
41296SOL    HW223915   7.442   3.516   3.916
41297SOL     OW23916   9.137   2.784   4.336
41297SOL    HW123917   9.232   2.755   4.344
41297SOL    HW223918   9.129   2.849   4.261
41298SOL     OW23919   9.089   2.970   4.156
41298SOL    HW123920   9.175   2.972   4.104
41298SOL    HW223921   9.103   3.017   4.244
41299SOL     OW23922   7.561   2.599   5.321
41299SOL    HW123923   7.649   2.586   5.366
41299SOL    HW223924   7.548   2.696   5.299
41300SOL     OW23925   8.061   3.227   4.450
41300SOL    HW123926   8.012   3.140   4.459
41300SOL    HW223927   8.038   3.270   4.363
41301SOL     OW23928   8.741   3.090   5.147
41301SOL    HW123929   8.778   3.017   5.089
41301SOL    HW223930   8.793   3.095   5.232
41302SOL     OW23931   8.257   1.866   4.226
41302SOL    HW123932   8.297   1.957   4.217
41302SOL    HW223933   8.157   1.874   4.232
41303SOL     OW23934   7.645   2.838   4.988
41303SOL    HW123935   7.734   2.793   4.974
41303SOL    HW223936   7.572   2.773   4.969
41304SOL     OW23937   8.973   2.861   3.914
41304SOL    HW123938   8.910   2.785   3.927
41304SOL    HW223939   9.021   2.879   4.000
41305SOL     OW23940   8.635   3.654   5.340
41305SOL    HW123941   8.659   3.714   5.264
41305SOL    HW223942   8.642   3.559   5.310
41306SOL     OW23943   7.765   2.113   5.525
41306SOL    HW123944   7.836   2.184   5.531
41306SOL    HW223945   7.677   2.152   5.553
41307SOL     OW23946   8.914   3.279   4.677
41307SOL    HW123947   8.855   3.285   4.757
41307SOL    HW223948   8.899   3.191   4.631
41308SOL     OW23949   9.115   3.576   4.296
41308SOL    HW123950   9.074   3.553   4.208
41308SOL    HW223951   9.097   3.502   4.361
41309SOL     OW23952   8.046   2.591   3.994
41309SOL    HW123953   8.070   2.660   3.926
41309SOL    HW223954   7.968   2.624   4.048
41310SOL     OW23955   8.729   2.207   4.668
41310SOL    HW123956   8.643   2.157   4.655
41310SOL    HW223957   8.791   2.153   4.724
41311SOL     OW23958   9.024   3.524   4.031
41311SOL    HW123959   9.113   3.570   4.034
41311SOL    HW223960   9.003   3.500   3.936
41312SOL     OW23961   8.255   2.467   5.189
41312SOL    HW123962   8.208   2.464   5.278
41312SOL    HW223963   8.204   2.412   5.123
41313SOL     OW23964   8.842   2.331   5.398
41313SOL    HW123965   8.822   2.374   5.486
41313SOL    HW223966   8.920   2.269   5.407
41314SOL     OW23967   8.421   2.752   5.296
41314SOL    HW123968   8.467   2.668   5.267
41314SOL    HW223969   8.365   2.786   5.221
41315SOL     OW23970   8.439   2.272   4.966
41315SOL    HW123971   8.362   2.306   5.020
41315SOL    HW223972   8.405   2.221   4.887
41316SOL     OW23973   8.489   2.563   4.153
41316SOL    HW123974   8.515   2.559   4.249
41316SOL    HW223975   8.404   2.512   4.139
41317SOL     OW23976   7.524   2.673   4.513
41317SOL    HW123977   7.623   2.661   4.522
41317SOL    HW223978   7.500   2.768   4.534
41318SOL     OW23979   7.578   3.683   5.295
41318SOL    HW123980   7.568   3.668   5.394
41318SOL    HW223981   7.492   3.719   5.259
41319SOL     OW23982   8.313   2.210   3.919
41319SOL    HW123983   8.372   2.273   3.870
41319SOL    HW223984   8.332   2.116   3.890
41320SOL     OW23985   9.167   2.447   5.555
41320SOL    HW123986   9.141   2.536   5.519
41320SOL    HW223987   9.165   2.379   5.482
41321SOL     OW23988   8.810   3.006   4.269
41321SOL    HW123989   8.893   2.977   4.221
41321SOL    HW223990   8.761   3.073   4.213
41322SOL     OW23991   7.998   2.058   4.609
41322SOL    HW123992   7.993   2.053   4.709
41322SOL    HW223993   8.000   2.154   4.580
41323SOL     OW23994   8.456   3.318   4.201
41323SOL    HW123995   8.410   3.390   4.149
41323SOL    HW223996   8.452   3.338   4.299
41324SOL     OW23997   7.799   3.663   4.577
41324SOL    HW123998   7.849   3.577   4.583
41324SOL    HW223999   7.864   3.740   4.574
41325SOL     OW24000   9.243   2.928   4.597
41325SOL    HW124001   9.181   2.913   4.521
41325SOL    HW224002   9.191   2.939   4.682
41326SOL     OW24003   8.675   3.412   5.230
41326SOL    HW124004   8.681   3.335   5.294
41326SOL    HW224005   8.623   3.386   5.150
41327SOL     OW24006   7.769   2.805   3.966
41327SOL    HW124007   7.851   2.844   3.924
41327SOL    HW224008   7.742   2.723   3.917
41328SOL     OW24009   8.906   2.597   4.452
41328SOL    HW124010   8.901   2.532   4.527
41328SOL    HW224011   8.986   2.656   4.465
41329SOL     OW24012   7.909   3.128   5.451
41329SOL    HW124013   7.859   3.129   5.365
41329SOL    HW224014   7.846   3.110   5.527
41330SOL     OW24015   8.559   3.638   3.961
41330SOL    HW124016   8.499   3.576   4.011
41330SOL    HW224017   8.590   3.594   3.876
41331SOL     OW24018   7.650   2.147   5.222
41331SOL    HW124019   7.570   2.207   5.209
41331SOL    HW224020   7.640   2.098   5.308
41332SOL     OW24021   9.080   3.239   3.805
41332SOL    HW124022   9.048   3.333   3.795
41332SOL    HW224023   9.004   3.176   3.793
41333SOL     OW24024   7.912   3.605   4.047
41333SOL    HW124025   7.945   3.644   4.133
41333SOL    HW224026   7.988   3.598   3.982
41334SOL     OW24027   8.848   1.969   4.150
41334SOL    HW124028   8.824   1.932   4.060
41334SOL    HW224029   8.947   1.985   4.154
41335SOL     OW24030   7.697   3.647   4.965
41335SOL    HW124031   7.754   3.582   5.015
41335SOL    HW224032   7.681   3.614   4.872
41336SOL     OW24033   8.388   3.560   4.628
41336SOL    HW124034   8.468   3.503   4.649
41336SOL    HW224035   8.339   3.520   4.551
41337SOL     OW24036   7.830   2.562   4.204
41337SOL    HW124037   7.875   2.472   4.201
41337SOL    HW224038   7.736   2.551   4.237
41338SOL     OW24039   8.995   2.084   5.453
41338SOL    HW124040   8.990   2.121   5.545
41338SOL    HW224041   8.923   2.015   5.441
41339SOL     OW24042   8.062   1.984   3.841
41339SOL    HW124043   8.160   1.962   3.848
41339SOL    HW224044   8.031   1.967   3.748
41340SOL     OW24045   8.229   2.126   5.473
41340SOL    HW124046   8.296   2.065   5.516
41340SOL    HW224047   8.156   2.145   5.538
41341SOL     OW24048   8.336   3.376   4.919
41341SOL    HW124049   8.313   3.351   4.825
41341SOL    HW224050   8.397   3.307   4.958
41342SOL     OW24051   8.799   2.452   5.157
41342SOL    HW124052   8.827   2.409   5.242
41342SOL    HW224053   8.824   2.548   5.158
41343SOL     OW24054   8.251   3.264   4.648
41343SOL    HW124055   8.341   3.278   4.606
41343SOL    HW224056   8.180   3.266   4.577
41344SOL     OW24057   8.370   2.365   4.623
41344SOL    HW124058   8.345   2.356   4.527
41344SOL    HW224059   8.418   2.283   4.654
41345SOL     OW24060   7.987   1.926   4.236
41345SOL    HW124061   7.906   1.927   4.294
41345SOL    HW224062   7.990   2.009   4.181
41346SOL     OW24063   8.882   3.050   3.765
41346SOL    HW124064   8.914   2.974   3.822
41346SOL    HW224065   8.790   3.077   3.795
41347SOL     OW24066   7.745   1.897   3.895
41347SOL    HW124067   7.794   1.981   3.874
41347SOL    HW224068   7.807   1.832   3.940
41348SOL     OW24069   8.383   2.098   4.204
41348SOL    HW124070   8.335   2.139   4.126
41348SOL    HW224071   8.482   2.096   4.185
41349SOL     OW24072   8.524   2.545   5.188
41349SOL    HW124073   8.444   2.484   5.191
41349SOL    HW224074   8.605   2.492   5.164
41350SOL     OW24075   8.675   3.432   4.517
41350SOL    HW124076   8.696   3.506   4.452
41350SOL    HW224077   8.743   3.432   4.590
41351SOL     OW24078   7.907   3.014   4.465
41351SOL    HW124079   7.836   2.987   4.530
41351SOL    HW224080   7.881   2.986   4.372
41352SOL     OW24081   8.719   3.659   4.315
41352SOL    HW124082   8.763   3.723   4.251
41352SOL    HW224083   8.669   3.711   4.385
41353SOL     OW24084   8.480   2.411   3.740
41353SOL    HW124085   8.439   2.493   3.701
41353SOL    HW224086   8.544   2.437   3.813
41354SOL     OW24087   7.526   2.418   5.110
41354SOL    HW124088   7.618   2.417   5.069
41354SOL    HW224089   7.520   2.492   5.177
41355SOL     OW24090   8.009   2.084   4.871
41355SOL    HW124091   8.047   2.000   4.908
41355SOL    HW224092   7.921   2.103   4.915
41356SOL     OW24093   8.314   2.316   4.366
41356SOL    HW124094   8.282   2.388   4.304
41356SOL    HW224095   8.338   2.235   4.313
41357SOL     OW24096   8.465   1.901   4.477
41357SOL    HW124097   8.393   1.906   4.408
41357SOL    HW224098   8.441   1.832   4.546
41358SOL     OW24099   8.877   3.035   4.591
41358SOL    HW124100   8.822   2.951   4.584
41358SOL    HW224101   8.903   3.064   4.499
41359SOL     OW24102   8.914   2.452   4.716
41359SOL    HW124103   8.884   2.357   4.723
41359SOL    HW224104   8.987   2.468   4.782
41360SOL     OW24105   9.305   2.695   4.101
41360SOL    HW124106   9.347   2.631   4.165
41360SOL    HW224107   9.267   2.644   4.023
41361SOL     OW24108   7.936   3.247   3.898
41361SOL    HW124109   7.849   3.232   3.945
41361SOL    HW224110   7.919   3.273   3.803
41362SOL     OW24111   9.112   3.142   4.381
41362SOL    HW124112   9.211   3.150   4.395
41362SOL    HW224113   9.067   3.226   4.412
41363SOL     OW24114   8.838   2.437   3.802
41363SOL    HW124115   8.784   2.416   3.883
41363SOL    HW224116   8.929   2.396   3.811
41364SOL     OW24117   7.975   2.118   4.052
41364SOL    HW124118   8.002   2.059   3.977
41364SOL    HW224119   7.975   2.213   4.021
41365SOL     OW24120   9.202   3.085   5.312
41365SOL    HW124121   9.293   3.046   5.299
41365SOL    HW224122   9.210   3.181   5.336
41366SOL     OW24123   8.512   3.209   5.064
41366SOL    HW124124   8.432   3.186   5.119
41366SOL    HW224125   8.595   3.183   5.113
41367SOL     OW24126   9.040   3.491   5.349
41367SOL    HW124127   9.067   3.525   5.259
41367SOL    HW224128   9.119   3.453   5.395
41368SOL     OW24129   8.559   3.057   4.824
41368SOL    HW124130   8.519   3.101   4.905
41368SOL    HW224131   8.518   3.094   4.741
41369SOL     OW24132   9.086   2.961   4.803
41369SOL    HW124133   9.091   3.042   4.862
41369SOL    HW224134   9.000   2.963   4.752
41370SOL     OW24135   8.363   1.951   5.126
41370SOL    HW124136   8.388   1.931   5.031
41370SOL    HW224137   8.435   2.007   5.168
41371SOL     OW24138   8.428   2.978   5.443
41371SOL    HW124139   8.329   2.984   5.453
41371SOL    HW224140   8.451   2.898   5.387
41372SOL     OW24141   8.153   2.912   4.092
41372SOL    HW124142   8.139   2.919   4.191
41372SOL    HW224143   8.237   2.861   4.074
41373SOL     OW24144   7.858   2.675   4.975
41373SOL    HW124145   7.944   2.687   5.025
41373SOL    HW224146   7.816   2.588   5.002
41374SOL     OW24147   8.722   2.248   4.986
41374SOL    HW124148   8.743   2.322   5.050
41374SOL    HW224149   8.633   2.265   4.943
41375SOL     OW24150   7.512   3.426   5.055
41375SOL    HW124151   7.466   3.508   5.021
41375SOL    HW224152   7.610   3.445   5.064
41376SOL     OW24153   7.815   2.962   4.225
41376SOL    HW124154   7.808   3.045   4.169
41376SOL    HW224155   7.819   2.882   4.165
41377SOL     OW24156   8.014   2.399   4.589
41377SOL    HW124157   8.026   2.465   4.515
41377SOL    HW224158   8.060   2.433   4.672
41378SOL     OW24159   8.700   3.210   4.112
41378SOL    HW124160   8.750   3.287   4.152
41378SOL    HW224161   8.605   3.212   4.144
41379SOL     OW24162   8.720   3.307   4.866
41379SOL    HW124163   8.767   3.320   4.953
41379SOL    HW224164   8.654   3.233   4.875
41380SOL     OW24165   9.030   2.501   4.196
41380SOL    HW124166   8.999   2.562   4.269
41380SOL    HW224167   9.080   2.553   4.127
41381SOL     OW24168   7.802   3.372   5.053
41381SOL    HW124169   7.781   3.328   4.966
41381SOL    HW224170   7.899   3.398   5.056
41382SOL     OW24171   7.850   2.613   5.322
41382SOL    HW124172   7.918   2.668   5.275
41382SOL    HW224173   7.890   2.525   5.349
41383SOL     OW24174   9.035   2.641   5.394
41383SOL    HW124175   8.943   2.679   5.389
41383SOL    HW224176   9.095   2.688   5.329
41384SOL     OW24177   8.461   1.967   5.494
41384SOL    HW124178   8.467   2.052   5.442
41384SOL    HW224179   8.493   1.891   5.437
41385SOL     OW24180   7.952   1.912   5.464
41385SOL    HW124181   7.910   1.855   5.394
41385SOL    HW224182   7.886   1.981   5.496
41386SOL     OW24183   8.021   2.732   4.753
41386SOL    HW124184   8.065   2.821   4.744
41386SOL    HW224185   7.958   2.732   4.830
41387SOL     OW24186   8.808   2.724   4.769
41387SOL    HW124187   8.733   2.724   4.703
41387SOL    HW224188   8.845   2.632   4.778
41388SOL     OW24189   8.657   2.387   3.999
41388SOL    HW124190   8.670   2.303   4.053
41388SOL    HW224191   8.628   2.461   4.059
41389SOL     OW24192   7.755   2.075   4.955
41389SOL    HW124193   7.732   2.112   5.045
41389SOL    HW224194   7.725   1.980   4.949
41390SOL     OW24195   7.485   3.172   5.006
41390SOL    HW124196   7.538   3.123   5.074
41390SOL    HW224197   7.507   3.270   5.011
41391SOL     OW24198   8.180   2.496   4.788
41391SOL    HW124199   8.239   2.470   4.712
41391SOL    HW224200   8.152   2.592   4.777
41392SOL     OW24201   9.176   2.797   5.578
41392SOL    HW124202   9.130   2.790   5.489
41392SOL    HW224203   9.114   2.841   5.644
41393SOL     OW24204   7.755   1.925   4.342
41393SOL    HW124205   7.744   2.019   4.375
41393SOL    HW224206   7.750   1.862   4.419
41394SOL     OW24207   9.070   2.229   4.098
41394SOL    HW124208   9.072   2.153   4.162
41394SOL    HW224209   9.022   2.306   4.138
41395SOL     OW24210   8.471   2.628   4.690
41395SOL    HW124211   8.486   2.649   4.786
41395SOL    HW224212   8.441   2.533   4.681
41396SOL     OW24213   8.428   3.435   5.424
41396SOL    HW124214   8.408   3.479   5.336
41396SOL    HW224215   8.467   3.344   5.408
41397SOL     OW24216   9.307   3.380   5.329
41397SOL    HW124217   9.321   3.407   5.234
41397SOL    HW224218   9.390   3.402   5.382
41398SOL     OW24219   7.798   2.760   5.528
41398SOL    HW124220   7.874   2.804   5.576
41398SOL    HW224221   7.833   2.713   5.446
41399SOL     OW24222   8.988   2.136   3.849
41399SOL    HW124223   8.927   2.061   3.872
41399SOL    HW224224   9.010   2.188   3.932
41400SOL     OW24225   8.751   2.700   3.766
41400SOL    HW124226   8.785   2.607   3.781
41400SOL    HW224227   8.769   2.727   3.671
41401SOL     OW24228   8.516   3.195   4.573
41401SOL    HW124229   8.523   3.111   4.518
41401SOL    HW224230   8.578   3.264   4.537
41402SOL     OW24231   7.767   2.672   4.673
41402SOL    HW124232   7.860   2.708   4.678
41402SOL    HW224233   7.761   2.587   4.725
41403SOL     OW24234   7.787   2.371   4.730
41403SOL    HW124235   7.735   2.288   4.713
41403SOL    HW224236   7.864   2.376   4.666
41404SOL     OW24237   8.586   2.242   5.402
41404SOL    HW124238   8.541   2.305   5.466
41404SOL    HW224239   8.679   2.273   5.385
41405SOL     OW24240   8.608   2.069   5.201
41405SOL    HW124241   8.608   2.133   5.278
41405SOL    HW224242   8.636   2.117   5.118
41406SOL     OW24243   7.456   3.188   3.924
41406SOL    HW124244   7.363   3.209   3.893
41406SOL    HW224245   7.466   3.089   3.937
41407SOL     OW24246   7.536   3.663   4.651
41407SOL    HW124247   7.494   3.577   4.624
41407SOL    HW224248   7.630   3.666   4.617
41408SOL     OW24249   7.952   3.430   4.634
41408SOL    HW124250   8.018   3.504   4.643
41408SOL    HW224251   7.996   3.351   4.592
41409SOL     OW24252   8.450   2.658   4.962
41409SOL    HW124253   8.491   2.626   5.048
41409SOL    HW224254   8.354   2.631   4.959
41410SOL     OW24255   7.488   2.406   4.838
41410SOL    HW124256   7.573   2.373   4.797
41410SOL    HW224257   7.501   2.421   4.936
41411SOL     OW24258   7.637   2.382   5.446
41411SOL    HW124259   7.696   2.342   5.376
41411SOL    HW224260   7.579   2.453   5.405
41412SOL     OW24261   8.817   2.812   5.384
41412SOL    HW124262   8.856   2.901   5.404
41412SOL    HW224263   8.827   2.792   5.287
41413SOL     OW24264   8.263   2.434   4.049
41413SOL    HW124265   8.270   2.345   4.003
41413SOL    HW224266   8.169   2.468   4.041
41414SOL     OW24267   9.105   2.466   4.930
41414SOL    HW124268   9.067   2.397   4.992
41414SOL    HW224269   9.187   2.430   4.886
41415SOL     OW24270   7.700   3.426   5.468
41415SOL    HW124271   7.670   3.483   5.544
41415SOL    HW224272   7.693   3.329   5.494
41416SOL     OW24273   8.119   2.326   4.993
41416SOL    HW124274   8.085   2.237   4.963
41416SOL    HW224275   8.145   2.380   4.913
41417SOL     OW24276   8.378   3.540   5.189
41417SOL    HW124277   8.354   3.522   5.094
41417SOL    HW224278   8.408   3.634   5.199
41418SOL     OW24279   7.921   2.362   3.915
41418SOL    HW124280   7.982   2.442   3.919
41418SOL    HW224281   7.826   2.393   3.922
41419SOL     OW24282   7.607   2.999   5.190
41419SOL    HW124283   7.629   2.938   5.266
41419SOL    HW224284   7.617   2.950   5.104
41420SOL     OW24285   8.795   2.921   4.958
41420SOL    HW124286   8.819   2.858   4.884
41420SOL    HW224287   8.705   2.961   4.940
41421SOL     OW24288   8.750   2.717   4.033
41421SOL    HW124289   8.664   2.686   4.075
41421SOL    HW224290   8.746   2.703   3.934
41422SOL     OW24291   9.207   3.609   4.878
41422SOL    HW124292   9.268   3.639   4.805
41422SOL    HW224293   9.169   3.520   4.856
41423SOL     OW24294   8.700   3.593   4.852
41423SOL    HW124295   8.784   3.598   4.798
41423SOL    HW224296   8.677   3.497   4.870
41424SOL     OW24297   7.531   3.120   4.746
41424SOL    HW124298   7.526   3.119   4.846
41424SOL    HW224299   7.448   3.079   4.708
41425SOL     OW24300   8.136   3.524   5.440
41425SOL    HW124301   8.080   3.605   5.449
41425SOL    HW224302   8.188   3.528   5.354
41426SOL     OW24303   9.174   1.997   4.247
41426SOL    HW124304   9.247   1.980   4.180
41426SOL    HW224305   9.143   1.910   4.285
41427SOL     OW24306   8.836   3.435   4.201
41427SOL    HW124307   8.903   3.447   4.127
41427SOL    HW224308   8.796   3.524   4.224
41428SOL     OW24309   7.578   3.656   5.575
41428SOL    HW124310   7.537   3.582   5.628
41428SOL    HW224311   7.642   3.707   5.633
41429SOL     OW24312   8.728   2.789   4.396
41429SOL    HW124313   8.788   2.708   4.398
41429SOL    HW224314   8.768   2.858   4.336
41430SOL     OW24315   8.278   3.135   5.146
41430SOL    HW124316   8.273   3.168   5.241
41430SOL    HW224317   8.192   3.154   5.100
41431SOL     OW24318   8.120   3.478   3.878
41431SOL    HW124319   8.129   3.488   3.779
41431SOL    HW224320   8.080   3.389   3.899
41432SOL     OW24321   9.098   3.582   5.118
41432SOL    HW124322   9.151   3.592   5.034
41432SOL    HW224323   9.071   3.672   5.152
41433SOL     OW24324   9.289   2.037   4.687
41433SOL    HW124325   9.328   1.952   4.651
41433SOL    HW224326   9.191   2.039   4.668
41434SOL     OW24327   7.711   2.188   4.444
41434SOL    HW124328   7.632   2.239   4.410
41434SOL    HW224329   7.702   2.173   4.542
41435SOL     OW24330   8.642   3.474   3.755
41435SOL    HW124331   8.648   3.381   3.792
41435SOL    HW224332   8.583   3.474   3.675
41436SOL     OW24333   8.270   2.864   5.096
41436SOL    HW124334   8.310   2.863   5.004
41436SOL    HW224335   8.280   2.956   5.136
41437SOL     OW24336   8.364   2.772   4.015
41437SOL    HW124337   8.427   2.810   3.947
41437SOL    HW224338   8.404   2.689   4.054
41438SOL     OW24339   8.952   3.469   3.768
41438SOL    HW124340   8.860   3.506   3.775
41438SOL    HW224341   8.990   3.489   3.678
41439SOL     OW24342   9.062   3.154   5.013
41439SOL    HW124343   9.122   3.157   5.093
41439SOL    HW224344   8.987   3.218   5.026
41440SOL     OW24345   8.487   2.960   4.420
41440SOL    HW124346   8.417   2.913   4.474
41440SOL    HW224347   8.546   2.892   4.377
41441SOL     OW24348   8.462   2.098   4.695
41441SOL    HW124349   8.454   2.062   4.602
41441SOL    HW224350   8.460   2.022   4.760
41442SOL     OW24351   8.038   3.349   4.215
41442SOL    HW124352   8.080   3.291   4.145
41442SOL    HW224353   7.994   3.428   4.171
41443SOL     OW24354   9.157   2.247   5.105
41443SOL    HW124355   9.230   2.316   5.109
41443SOL    HW224356   9.185   2.172   5.046
41444SOL     OW24357   7.703   3.210   4.014
41444SOL    HW124358   7.607   3.211   3.987
41444SOL    HW224359   7.715   3.263   4.098
41445SOL     OW24360   7.553   2.875   5.450
41445SOL    HW124361   7.476   2.842   5.504
41445SOL    HW224362   7.638   2.845   5.492
41446SOL     OW24363   8.120   2.065   5.213
41446SOL    HW124364   8.210   2.049   5.173
41446SOL    HW224365   8.128   2.070   5.312
41447SOL     OW24366   7.523   2.207   3.757
41447SOL    HW124367   7.431   2.179   3.728
41447SOL    HW224368   7.554   2.284   3.701
41448SOL     OW24369   8.888   2.718   5.122
41448SOL    HW124370   8.831   2.770   5.059
41448SOL    HW224371   8.984   2.730   5.098
41449SOL     OW24372   7.520   2.028   4.042
41449SOL    HW124373   7.503   2.111   3.988
41449SOL    HW224374   7.610   1.991   4.020
41450SOL     OW24375   8.631   3.197   3.843
41450SOL    HW124376   8.532   3.186   3.845
41450SOL    HW224377   8.665   3.212   3.936
41451SOL     OW24378   8.061   2.704   5.155
41451SOL    HW124379   8.117   2.785   5.138
41451SOL    HW224380   8.120   2.624   5.158
41452SOL     OW24381   8.941   3.629   4.683
41452SOL    HW124382   8.974   3.693   4.614
41452SOL    HW224383   9.007   3.623   4.758
41453SOL     OW24384   8.164   2.427   5.432
41453SOL    HW124385   8.183   2.492   5.506
41453SOL    HW224386   8.224   2.347   5.441
41454SOL     OW24387   8.898   3.082   5.357
41454SOL    HW124388   8.889   3.072   5.456
41454SOL    HW224389   8.994   3.075   5.331
41455SOL     OW24390   7.838   3.603   5.284
41455SOL    HW124391   7.747   3.644   5.282
41455SOL    HW224392   7.831   3.509   5.316
41456SOL     OW24393   9.122   2.745   4.978
41456SOL    HW124394   9.095   2.656   4.941
41456SOL    HW224395   9.123   2.813   4.905
41457SOL     OW24396   8.673   2.187   4.173
41457SOL    HW124397   8.738   2.113   4.162
41457SOL    HW224398   8.693   2.237   4.257
41458SOL     OW24399   8.042   2.607   4.376
41458SOL    HW124400   8.092   2.692   4.357
41458SOL    HW224401   7.954   2.609   4.328
41459SOL     OW24402   9.225   2.204   5.366
41459SOL    HW124403   9.208   2.235   5.272
41459SOL    HW224404   9.141   2.167   5.404
41460SOL     OW24405   9.178   2.796   5.241
41460SOL    HW124406   9.216   2.887   5.256
41460SOL    HW224407   9.170   2.779   5.142
41461SOL     OW24408   8.307   3.236   3.740
41461SOL    HW124409   8.261   3.251   3.828
41461SOL    HW224410   8.351   3.321   3.710
41462SOL     OW24411   8.109   3.652   4.677
41462SOL    HW124412   8.063   3.740   4.664
41462SOL    HW224413   8.208   3.664   4.670
41463SOL     OW24414   8.307   2.818   4.585
41463SOL    HW124415   8.361   2.749   4.633
41463SOL    HW224416   8.275   2.887   4.651
41464SOL     OW24417   8.531   2.846   3.811
41464SOL    HW124418   8.508   2.899   3.729
41464SOL    HW224419   8.612   2.790   3.792
41465SOL     OW24420   9.309   3.431   4.575
41465SOL    HW124421   9.238   3.419   4.505
41465SOL    HW224422   9.310   3.352   4.635
41466SOL     OW24423   7.669   3.176   5.568
41466SOL    HW124424   7.604   3.103   5.547
41466SOL    HW224425   7.673   3.190   5.666
41467SOL     OW24426   7.527   3.102   4.377
41467SOL    HW124427   7.526   3.055   4.465
41467SOL    HW224428   7.609   3.074   4.326
41468SOL     OW24429   8.120   3.253   5.348
41468SOL    HW124430   8.042   3.203   5.386
41468SOL    HW224431   8.117   3.348   5.379
41469SOL     OW24432   9.272   2.054   4.951
41469SOL    HW124433   9.268   1.964   4.995
41469SOL    HW224434   9.275   2.043   4.852
41470SOL     OW24435   7.876   2.286   4.244
41470SOL    HW124436   7.906   2.214   4.182
41470SOL    HW224437   7.837   2.246   4.327
41471SOL     OW24438   9.153   3.349   4.828
41471SOL    HW124439   9.060   3.324   4.801
41471SOL    HW224440   9.179   3.299   4.910
41472SOL     OW24441   7.765   2.409   5.004
41472SOL    HW124442   7.803   2.350   5.076
41472SOL    HW224443   7.805   2.383   4.916
41473SOL     OW24444   8.260   3.448   4.411
41473SOL    HW124445   8.292   3.458   4.317
41473SOL    HW224446   8.181   3.386   4.413
41474SOL     OW24447   8.872   2.076   4.836
41474SOL    HW124448   8.924   2.011   4.891
41474SOL    HW224449   8.823   2.139   4.897
41475SOL     OW24450   8.449   1.896   4.878
41475SOL    HW124451   8.386   1.824   4.847
41475SOL    HW224452   8.542   1.860   4.878
41476SOL     OW24453   8.218   3.192   4.025
41476SOL    HW124454   8.172   3.105   4.042
41476SOL    HW224455   8.309   3.189   4.066
41477SOL     OW24456   8.066   3.429   5.008
41477SOL    HW124457   8.061   3.511   5.065
41477SOL    HW224458   8.155   3.426   4.963
41478SOL     OW24459   8.800   1.914   3.892
41478SOL    HW124460   8.835   1.873   3.808
41478SOL    HW224461   8.710   1.876   3.912
41479SOL     OW24462   8.748   2.315   4.415
41479SOL    HW124463   8.689   2.395   4.419
41479SOL    HW224464   8.763   2.280   4.508
41480SOL     OW24465   9.041   2.083   4.606
41480SOL    HW124466   8.957   2.082   4.660
41480SOL    HW224467   9.043   2.166   4.550
41481SOL     OW24468   7.487   2.939   4.024
41481SOL    HW124469   7.586   2.928   4.015
41481SOL    HW224470   7.447   2.853   4.056
41482SOL     OW24471   8.323   3.508   4.061
41482SOL    HW124472   8.246   3.473   4.007
41482SOL    HW224473   8.291   3.579   4.123
41483SOL     OW24474   7.678   2.490   5.699
41483SOL    HW124475   7.585   2.488   5.736
41483SOL    HW224476   7.679   2.451   5.607
41484SOL     OW24477   7.673   2.137   6.582
41484SOL    HW124478   7.708   2.120   6.674
41484SOL    HW224479   7.585   2.092   6.570
41485SOL     OW24480   7.467   2.230   6.233
41485SOL    HW124481   7.385   2.273   6.272
41485SOL    HW224482   7.439   2.157   6.170
41486SOL     OW24483   8.017   3.137   6.751
41486SOL    HW124484   7.924   3.130   6.714
41486SOL    HW224485   8.028   3.226   6.795
41487SOL     OW24486   9.003   3.373   6.289
41487SOL    HW124487   8.946   3.357   6.370
41487SOL    HW224488   8.944   3.383   6.209
41488SOL     OW24489   8.583   2.565   6.303
41488SOL    HW124490   8.640   2.643   6.278
41488SOL    HW224491   8.523   2.591   6.379
41489SOL     OW24492   9.203   2.469   5.817
41489SOL    HW124493   9.191   2.456   5.718
41489SOL    HW224494   9.173   2.388   5.866
41490SOL     OW24495   8.216   3.006   6.609
41490SOL    HW124496   8.138   3.023   6.669
41490SOL    HW224497   8.250   3.093   6.573
41491SOL     OW24498   8.298   2.660   7.409
41491SOL    HW124499   8.294   2.736   7.474
41491SOL    HW224500   8.320   2.696   7.318
41492SOL     OW24501   8.133   2.874   6.251
41492SOL    HW124502   8.202   2.858   6.321
41492SOL    HW224503   8.060   2.931   6.289
41493SOL     OW24504   8.134   3.023   7.389
41493SOL    HW124505   8.194   3.102   7.403
41493SOL    HW224506   8.048   3.054   7.348
41494SOL     OW24507   7.783   3.297   6.647
41494SOL    HW124508   7.705   3.266   6.594
41494SOL    HW224509   7.841   3.355   6.590
41495SOL     OW24510   8.908   3.367   6.925
41495SOL    HW124511   8.932   3.461   6.951
41495SOL    HW224512   8.892   3.313   7.007
41496SOL     OW24513   7.886   2.254   7.085
41496SOL    HW124514   7.968   2.198   7.094
41496SOL    HW224515   7.805   2.196   7.089
41497SOL     OW24516   9.051   2.309   6.323
41497SOL    HW124517   8.977   2.355   6.273
41497SOL    HW224518   9.102   2.377   6.376
41498SOL     OW24519   7.679   3.575   6.069
41498SOL    HW124520   7.713   3.652   6.123
41498SOL    HW224521   7.723   3.575   5.979
41499SOL     OW24522   8.575   3.203   7.276
41499SOL    HW124523   8.622   3.203   7.364
41499SOL    HW224524   8.527   3.116   7.265
41500SOL     OW24525   7.678   3.296   6.124
41500SOL    HW124526   7.652   3.392   6.124
41500SOL    HW224527   7.607   3.242   6.169
41501SOL     OW24528   7.688   2.953   6.472
41501SOL    HW124529   7.702   2.869   6.524
41501SOL    HW224530   7.633   3.017   6.527
41502SOL     OW24531   8.068   3.648   7.025
41502SOL    HW124532   7.976   3.631   7.060
41502SOL    HW224533   8.096   3.740   7.051
41503SOL     OW24534   8.054   2.826   5.709
41503SOL    HW124535   8.061   2.910   5.655
41503SOL    HW224536   8.100   2.839   5.797
41504SOL     OW24537   9.042   1.976   7.066
41504SOL    HW124538   9.024   2.043   6.994
41504SOL    HW224539   9.039   2.022   7.155
41505SOL     OW24540   7.570   2.505   6.149
41505SOL    HW124541   7.525   2.417   6.166
41505SOL    HW224542   7.569   2.559   6.233
41506SOL     OW24543   9.290   3.629   5.945
41506SOL    HW124544   9.344   3.600   6.025
41506SOL    HW224545   9.320   3.719   5.916
41507SOL     OW24546   7.475   3.458   5.703
41507SOL    HW124547   7.456   3.362   5.724
41507SOL    HW224548   7.442   3.516   5.778
41508SOL     OW24549   9.137   2.784   6.198
41508SOL    HW124550   9.232   2.755   6.206
41508SOL    HW224551   9.129   2.849   6.123
41509SOL     OW24552   9.089   2.970   6.018
41509SOL    HW124553   9.175   2.972   5.966
41509SOL    HW224554   9.103   3.017   6.106
41510SOL     OW24555   7.561   2.599   7.183
41510SOL    HW124556   7.649   2.586   7.228
41510SOL    HW224557   7.548   2.696   7.161
41511SOL     OW24558   8.061   3.227   6.312
41511SOL    HW124559   8.012   3.140   6.321
41511SOL    HW224560   8.038   3.270   6.225
41512SOL     OW24561   8.741   3.090   7.009
41512SOL    HW124562   8.778   3.017   6.951
41512SOL    HW224563   8.793   3.095   7.094
41513SOL     OW24564   8.257   1.866   6.088
41513SOL    HW124565   8.297   1.957   6.079
41513SOL    HW224566   8.157   1.874   6.094
41514SOL     OW24567   7.645   2.838   6.850
41514SOL    HW124568   7.734   2.793   6.836
41514SOL    HW224569   7.572   2.773   6.831
41515SOL     OW24570   8.973   2.861   5.776
41515SOL    HW124571   8.910   2.785   5.789
41515SOL    HW224572   9.021   2.879   5.862
41516SOL     OW24573   8.635   3.654   7.202
41516SOL    HW124574   8.659   3.714   7.126
41516SOL    HW224575   8.642   3.559   7.172
41517SOL     OW24576   7.765   2.113   7.387
41517SOL    HW124577   7.836   2.184   7.393
41517SOL    HW224578   7.677   2.152   7.415
41518SOL     OW24579   8.914   3.279   6.539
41518SOL    HW124580   8.855   3.285   6.619
41518SOL    HW224581   8.899   3.191   6.493
41519SOL     OW24582   9.115   3.576   6.158
41519SOL    HW124583   9.074   3.553   6.070
41519SOL    HW224584   9.097   3.502   6.223
41520SOL     OW24585   8.046   2.591   5.856
41520SOL    HW124586   8.070   2.660   5.788
41520SOL    HW224587   7.968   2.624   5.910
41521SOL     OW24588   8.729   2.207   6.530
41521SOL    HW124589   8.643   2.157   6.517
41521SOL    HW224590   8.791   2.153   6.586
41522SOL     OW24591   9.024   3.524   5.893
41522SOL    HW124592   9.113   3.570   5.896
41522SOL    HW224593   9.003   3.500   5.798
41523SOL     OW24594   8.255   2.467   7.051
41523SOL    HW124595   8.208   2.464   7.140
41523SOL    HW224596   8.204   2.412   6.985
41524SOL     OW24597   8.842   2.331   7.260
41524SOL    HW124598   8.822   2.374   7.348
41524SOL    HW224599   8.920   2.269   7.269
41525SOL     OW24600   8.421   2.752   7.158
41525SOL    HW124601   8.467   2.668   7.129
41525SOL    HW224602   8.365   2.786   7.083
41526SOL     OW24603   8.439   2.272   6.828
41526SOL    HW124604   8.362   2.306   6.882
41526SOL    HW224605   8.405   2.221   6.749
41527SOL     OW24606   8.489   2.563   6.015
41527SOL    HW124607   8.515   2.559   6.111
41527SOL    HW224608   8.404   2.512   6.001
41528SOL     OW24609   7.524   2.673   6.375
41528SOL    HW124610   7.623   2.661   6.384
41528SOL    HW224611   7.500   2.768   6.396
41529SOL     OW24612   7.578   3.683   7.157
41529SOL    HW124613   7.568   3.668   7.256
41529SOL    HW224614   7.492   3.719   7.121
41530SOL     OW24615   8.313   2.210   5.781
41530SOL    HW124616   8.372   2.273   5.732
41530SOL    HW224617   8.332   2.116   5.752
41531SOL     OW24618   9.167   2.447   7.417
41531SOL    HW124619   9.141   2.536   7.381
41531SOL    HW224620   9.165   2.379   7.344
41532SOL     OW24621   8.810   3.006   6.131
41532SOL    HW124622   8.893   2.977   6.083
41532SOL    HW224623   8.761   3.073   6.075
41533SOL     OW24624   7.998   2.058   6.471
41533SOL    HW124625   7.993   2.053   6.571
41533SOL    HW224626   8.000   2.154   6.442
41534SOL     OW24627   8.456   3.318   6.063
41534SOL    HW124628   8.410   3.390   6.011
41534SOL    HW224629   8.452   3.338   6.161
41535SOL     OW24630   7.799   3.663   6.439
41535SOL    HW124631   7.849   3.577   6.445
41535SOL    HW224632   7.864   3.740   6.436
41536SOL     OW24633   9.243   2.928   6.459
41536SOL    HW124634   9.181   2.913   6.383
41536SOL    HW224635   9.191   2.939   6.544
41537SOL     OW24636   8.675   3.412   7.092
41537SOL    HW124637   8.681   3.335   7.156
41537SOL    HW224638   8.623   3.386   7.012
41538SOL     OW24639   7.769   2.805   5.828
41538SOL    HW124640   7.851   2.844   5.786
41538SOL    HW224641   7.742   2.723   5.779
41539SOL     OW24642   8.906   2.597   6.314
41539SOL    HW124643   8.901   2.532   6.389
41539SOL    HW224644   8.986   2.656   6.327
41540SOL     OW24645   7.909   3.128   7.313
41540SOL    HW124646   7.859   3.129   7.227
41540SOL    HW224647   7.846   3.110   7.389
41541SOL     OW24648   8.559   3.638   5.823
41541SOL    HW124649   8.499   3.576   5.873
41541SOL    HW224650   8.590   3.594   5.738
41542SOL     OW24651   7.650   2.147   7.084
41542SOL    HW124652   7.570   2.207   7.071
41542SOL    HW224653   7.640   2.098   7.170
41543SOL     OW24654   9.080   3.239   5.667
41543SOL    HW124655   9.048   3.333   5.657
41543SOL    HW224656   9.004   3.176   5.655
41544SOL     OW24657   7.912   3.605   5.909
41544SOL    HW124658   7.945   3.644   5.995
41544SOL    HW224659   7.988   3.598   5.844
41545SOL     OW24660   8.848   1.969   6.012
41545SOL    HW124661   8.824   1.932   5.922
41545SOL    HW224662   8.947   1.985   6.016
41546SOL     OW24663   7.697   3.647   6.827
41546SOL    HW124664   7.754   3.582   6.877
41546SOL    HW224665   7.681   3.614   6.734
41547SOL     OW24666   8.388   3.560   6.490
41547SOL    HW124667   8.468   3.503   6.511
41547SOL    HW224668   8.339   3.520   6.413
41548SOL     OW24669   7.830   2.562   6.066
41548SOL    HW124670   7.875   2.472   6.063
41548SOL    HW224671   7.736   2.551   6.099
41549SOL     OW24672   8.995   2.084   7.315
41549SOL    HW124673   8.990   2.121   7.407
41549SOL    HW224674   8.923   2.015   7.303
41550SOL     OW24675   8.062   1.984   5.703
41550SOL    HW124676   8.160   1.962   5.710
41550SOL    HW224677   8.031   1.967   5.610
41551SOL     OW24678   8.229   2.126   7.335
41551SOL    HW124679   8.296   2.065   7.378
41551SOL    HW224680   8.156   2.145   7.400
41552SOL     OW24681   8.336   3.376   6.781
41552SOL    HW124682   8.313   3.351   6.687
41552SOL    HW224683   8.397   3.307   6.820
41553SOL     OW24684   8.799   2.452   7.019
41553SOL    HW124685   8.827   2.409   7.104
41553SOL    HW224686   8.824   2.548   7.020
41554SOL     OW24687   8.251   3.264   6.510
41554SOL    HW124688   8.341   3.278   6.468
41554SOL    HW224689   8.180   3.266   6.439
41555SOL     OW24690   8.370   2.365   6.485
41555SOL    HW124691   8.345   2.356   6.389
41555SOL    HW224692   8.418   2.283   6.516
41556SOL     OW24693   7.987   1.926   6.098
41556SOL    HW124694   7.906   1.927   6.156
41556SOL    HW224695   7.990   2.009   6.043
41557SOL     OW24696   8.882   3.050   5.627
41557SOL    HW124697   8.914   2.974   5.684
41557SOL    HW224698   8.790   3.077   5.657
41558SOL     OW24699   7.745   1.897   5.757
41558SOL    HW124700   7.794   1.981   5.736
41558SOL    HW224701   7.807   1.832   5.802
41559SOL     OW24702   8.383   2.098   6.066
41559SOL    HW124703   8.335   2.139   5.988
41559SOL    HW224704   8.482   2.096   6.047
41560SOL     OW24705   8.524   2.545   7.050
41560SOL    HW124706   8.444   2.484   7.053
41560SOL    HW224707   8.605   2.492   7.026
41561SOL     OW24708   8.675   3.432   6.379
41561SOL    HW124709   8.696   3.506   6.314
41561SOL    HW224710   8.743   3.432   6.452
41562SOL     OW24711   7.907   3.014   6.327
41562SOL    HW124712   7.836   2.987   6.392
41562SOL    HW224713   7.881   2.986   6.234
41563SOL     OW24714   8.719   3.659   6.177
41563SOL    HW124715   8.763   3.723   6.113
41563SOL    HW224716   8.669   3.711   6.247
41564SOL     OW24717   8.480   2.411   5.602
41564SOL    HW124718   8.439   2.493   5.563
41564SOL    HW224719   8.544   2.437   5.675
41565SOL     OW24720   7.526   2.418   6.972
41565SOL    HW124721   7.618   2.417   6.931
41565SOL    HW224722   7.520   2.492   7.039
41566SOL     OW24723   8.009   2.084   6.733
41566SOL    HW124724   8.047   2.000   6.770
41566SOL    HW224725   7.921   2.103   6.777
41567SOL     OW24726   8.314   2.316   6.228
41567SOL    HW124727   8.282   2.388   6.166
41567SOL    HW224728   8.338   2.235   6.175
41568SOL     OW24729   8.465   1.901   6.339
41568SOL    HW124730   8.393   1.906   6.270
41568SOL    HW224731   8.441   1.832   6.408
41569SOL     OW24732   8.877   3.035   6.453
41569SOL    HW124733   8.822   2.951   6.446
41569SOL    HW224734   8.903   3.064   6.361
41570SOL     OW24735   8.914   2.452   6.578
41570SOL    HW124736   8.884   2.357   6.585
41570SOL    HW224737   8.987   2.468   6.644
41571SOL     OW24738   9.305   2.695   5.963
41571SOL    HW124739   9.347   2.631   6.027
41571SOL    HW224740   9.267   2.644   5.885
41572SOL     OW24741   7.936   3.247   5.760
41572SOL    HW124742   7.849   3.232   5.807
41572SOL    HW224743   7.919   3.273   5.665
41573SOL     OW24744   9.112   3.142   6.243
41573SOL    HW124745   9.211   3.150   6.257
41573SOL    HW224746   9.067   3.226   6.274
41574SOL     OW24747   8.838   2.437   5.664
41574SOL    HW124748   8.784   2.416   5.745
41574SOL    HW224749   8.929   2.396   5.673
41575SOL     OW24750   7.975   2.118   5.914
41575SOL    HW124751   8.002   2.059   5.839
41575SOL    HW224752   7.975   2.213   5.883
41576SOL     OW24753   9.202   3.085   7.174
41576SOL    HW124754   9.293   3.046   7.161
41576SOL    HW224755   9.210   3.181   7.198
41577SOL     OW24756   8.512   3.209   6.926
41577SOL    HW124757   8.432   3.186   6.981
41577SOL    HW224758   8.595   3.183   6.975
41578SOL     OW24759   9.040   3.491   7.211
41578SOL    HW124760   9.067   3.525   7.121
41578SOL    HW224761   9.119   3.453   7.257
41579SOL     OW24762   8.559   3.057   6.686
41579SOL    HW124763   8.519   3.101   6.767
41579SOL    HW224764   8.518   3.094   6.603
41580SOL     OW24765   9.086   2.961   6.665
41580SOL    HW124766   9.091   3.042   6.724
41580SOL    HW224767   9.000   2.963   6.614
41581SOL     OW24768   8.363   1.951   6.988
41581SOL    HW124769   8.388   1.931   6.893
41581SOL    HW224770   8.435   2.007   7.030
41582SOL     OW24771   8.428   2.978   7.305
41582SOL    HW124772   8.329   2.984   7.315
41582SOL    HW224773   8.451   2.898   7.249
41583SOL     OW24774   8.153   2.912   5.954
41583SOL    HW124775   8.139   2.919   6.053
41583SOL    HW224776   8.237   2.861   5.936
41584SOL     OW24777   7.858   2.675   6.837
41584SOL    HW124778   7.944   2.687   6.887
41584SOL    HW224779   7.816   2.588   6.864
41585SOL     OW24780   8.722   2.248   6.848
41585SOL    HW124781   8.743   2.322   6.912
41585SOL    HW224782   8.633   2.265   6.805
41586SOL     OW24783   7.512   3.426   6.917
41586SOL    HW124784   7.466   3.508   6.883
41586SOL    HW224785   7.610   3.445   6.926
41587SOL     OW24786   7.815   2.962   6.087
41587SOL    HW124787   7.808   3.045   6.031
41587SOL    HW224788   7.819   2.882   6.027
41588SOL     OW24789   8.014   2.399   6.451
41588SOL    HW124790   8.026   2.465   6.377
41588SOL    HW224791   8.060   2.433   6.534
41589SOL     OW24792   8.700   3.210   5.974
41589SOL    HW124793   8.750   3.287   6.014
41589SOL    HW224794   8.605   3.212   6.006
41590SOL     OW24795   8.720   3.307   6.728
41590SOL    HW124796   8.767   3.320   6.815
41590SOL    HW224797   8.654   3.233   6.737
41591SOL     OW24798   9.030   2.501   6.058
41591SOL    HW124799   8.999   2.562   6.131
41591SOL    HW224800   9.080   2.553   5.989
41592SOL     OW24801   7.802   3.372   6.915
41592SOL    HW124802   7.781   3.328   6.828
41592SOL    HW224803   7.899   3.398   6.918
41593SOL     OW24804   7.850   2.613   7.184
41593SOL    HW124805   7.918   2.668   7.137
41593SOL    HW224806   7.890   2.525   7.211
41594SOL     OW24807   9.035   2.641   7.256
41594SOL    HW124808   8.943   2.679   7.251
41594SOL    HW224809   9.095   2.688   7.191
41595SOL     OW24810   8.461   1.967   7.356
41595SOL    HW124811   8.467   2.052   7.304
41595SOL    HW224812   8.493   1.891   7.299
41596SOL     OW24813   7.952   1.912   7.326
41596SOL    HW124814   7.910   1.855   7.256
41596SOL    HW224815   7.886   1.981   7.358
41597SOL     OW24816   8.021   2.732   6.615
41597SOL    HW124817   8.065   2.821   6.606
41597SOL    HW224818   7.958   2.732   6.692
41598SOL     OW24819   8.808   2.724   6.631
41598SOL    HW124820   8.733   2.724   6.565
41598SOL    HW224821   8.845   2.632   6.640
41599SOL     OW24822   8.657   2.387   5.861
41599SOL    HW124823   8.670   2.303   5.915
41599SOL    HW224824   8.628   2.461   5.921
41600SOL     OW24825   7.755   2.075   6.817
41600SOL    HW124826   7.732   2.112   6.907
41600SOL    HW224827   7.725   1.980   6.811
41601SOL     OW24828   7.485   3.172   6.868
41601SOL    HW124829   7.538   3.123   6.936
41601SOL    HW224830   7.507   3.270   6.873
41602SOL     OW24831   8.180   2.496   6.650
41602SOL    HW124832   8.239   2.470   6.574
41602SOL    HW224833   8.152   2.592   6.639
41603SOL     OW24834   9.176   2.797   7.440
41603SOL    HW124835   9.130   2.790   7.351
41603SOL    HW224836   9.114   2.841   7.506
41604SOL     OW24837   7.755   1.925   6.204
41604SOL    HW124838   7.744   2.019   6.237
41604SOL    HW224839   7.750   1.862   6.281
41605SOL     OW24840   9.070   2.229   5.960
41605SOL    HW124841   9.072   2.153   6.024
41605SOL    HW224842   9.022   2.306   6.000
41606SOL     OW24843   8.471   2.628   6.552
41606SOL    HW124844   8.486   2.649   6.648
41606SOL    HW224845   8.441   2.533   6.543
41607SOL     OW24846   8.428   3.435   7.286
41607SOL    HW124847   8.408   3.479   7.198
41607SOL    HW224848   8.467   3.344   7.270
41608SOL     OW24849   9.307   3.380   7.191
41608SOL    HW124850   9.321   3.407   7.096
41608SOL    HW224851   9.390   3.402   7.244
41609SOL     OW24852   7.798   2.760   7.390
41609SOL    HW124853   7.874   2.804   7.438
41609SOL    HW224854   7.833   2.713   7.308
41610SOL     OW24855   8.988   2.136   5.711
41610SOL    HW124856   8.927   2.061   5.734
41610SOL    HW224857   9.010   2.188   5.794
41611SOL     OW24858   8.751   2.700   5.628
41611SOL    HW124859   8.785   2.607   5.643
41611SOL    HW224860   8.769   2.727   5.533
41612SOL     OW24861   8.516   3.195   6.435
41612SOL    HW124862   8.523   3.111   6.380
41612SOL    HW224863   8.578   3.264   6.399
41613SOL     OW24864   7.767   2.672   6.535
41613SOL    HW124865   7.860   2.708   6.540
41613SOL    HW224866   7.761   2.587   6.587
41614SOL     OW24867   7.787   2.371   6.592
41614SOL    HW124868   7.735   2.288   6.575
41614SOL    HW224869   7.864   2.376   6.528
41615SOL     OW24870   8.586   2.242   7.264
41615SOL    HW124871   8.541   2.305   7.328
41615SOL    HW224872   8.679   2.273   7.247
41616SOL     OW24873   8.608   2.069   7.063
41616SOL    HW124874   8.608   2.133   7.140
41616SOL    HW224875   8.636   2.117   6.980
41617SOL     OW24876   7.456   3.188   5.786
41617SOL    HW124877   7.363   3.209   5.755
41617SOL    HW224878   7.466   3.089   5.799
41618SOL     OW24879   7.536   3.663   6.513
41618SOL    HW124880   7.494   3.577   6.486
41618SOL    HW224881   7.630   3.666   6.479
41619SOL     OW24882   7.952   3.430   6.496
41619SOL    HW124883   8.018   3.504   6.505
41619SOL    HW224884   7.996   3.351   6.454
41620SOL     OW24885   8.450   2.658   6.824
41620SOL    HW124886   8.491   2.626   6.910
41620SOL    HW224887   8.354   2.631   6.821
41621SOL     OW24888   7.488   2.406   6.700
41621SOL    HW124889   7.573   2.373   6.659
41621SOL    HW224890   7.501   2.421   6.798
41622SOL     OW24891   7.637   2.382   7.308
41622SOL    HW124892   7.696   2.342   7.238
41622SOL    HW224893   7.579   2.453   7.267
41623SOL     OW24894   8.817   2.812   7.246
41623SOL    HW124895   8.856   2.901   7.266
41623SOL    HW224896   8.827   2.792   7.149
41624SOL     OW24897   8.263   2.434   5.911
41624SOL    HW124898   8.270   2.345   5.865
41624SOL    HW224899   8.169   2.468   5.903
41625SOL     OW24900   9.105   2.466   6.792
41625SOL    HW124901   9.067   2.397   6.854
41625SOL    HW224902   9.187   2.430   6.748
41626SOL     OW24903   7.700   3.426   7.330
41626SOL    HW124904   7.670   3.483   7.406
41626SOL    HW224905   7.693   3.329   7.356
41627SOL     OW24906   8.119   2.326   6.855
41627SOL    HW124907   8.085   2.237   6.825
41627SOL    HW224908   8.145   2.380   6.775
41628SOL     OW24909   8.378   3.540   7.051
41628SOL    HW124910   8.354   3.522   6.956
41628SOL    HW224911   8.408   3.634   7.061
41629SOL     OW24912   7.921   2.362   5.777
41629SOL    HW124913   7.982   2.442   5.781
41629SOL    HW224914   7.826   2.393   5.784
41630SOL     OW24915   7.607   2.999   7.052
41630SOL    HW124916   7.629   2.938   7.128
41630SOL    HW224917   7.617   2.950   6.966
41631SOL     OW24918   8.795   2.921   6.820
41631SOL    HW124919   8.819   2.858   6.746
41631SOL    HW224920   8.705   2.961   6.802
41632SOL     OW24921   8.750   2.717   5.895
41632SOL    HW124922   8.664   2.686   5.937
41632SOL    HW224923   8.746   2.703   5.796
41633SOL     OW24924   9.207   3.609   6.740
41633SOL    HW124925   9.268   3.639   6.667
41633SOL    HW224926   9.169   3.520   6.718
41634SOL     OW24927   8.700   3.593   6.714
41634SOL    HW124928   8.784   3.598   6.660
41634SOL    HW224929   8.677   3.497   6.732
41635SOL     OW24930   7.531   3.120   6.608
41635SOL    HW124931   7.526   3.119   6.708
41635SOL    HW224932   7.448   3.079   6.570
41636SOL     OW24933   8.136   3.524   7.302
41636SOL    HW124934   8.080   3.605   7.311
41636SOL    HW224935   8.188   3.528   7.216
41637SOL     OW24936   9.174   1.997   6.109
41637SOL    HW124937   9.247   1.980   6.042
41637SOL    HW224938   9.143   1.910   6.147
41638SOL     OW24939   8.836   3.435   6.063
41638SOL    HW124940   8.903   3.447   5.989
41638SOL    HW224941   8.796   3.524   6.086
41639SOL     OW24942   7.578   3.656   7.437
41639SOL    HW124943   7.537   3.582   7.490
41639SOL    HW224944   7.642   3.707   7.495
41640SOL     OW24945   8.728   2.789   6.258
41640SOL    HW124946   8.788   2.708   6.260
41640SOL    HW224947   8.768   2.858   6.198
41641SOL     OW24948   8.278   3.135   7.008
41641SOL    HW124949   8.273   3.168   7.103
41641SOL    HW224950   8.192   3.154   6.962
41642SOL     OW24951   8.120   3.478   5.740
41642SOL    HW124952   8.129   3.488   5.641
41642SOL    HW224953   8.080   3.389   5.761
41643SOL     OW24954   9.098   3.582   6.980
41643SOL    HW124955   9.151   3.592   6.896
41643SOL    HW224956   9.071   3.672   7.014
41644SOL     OW24957   9.289   2.037   6.549
41644SOL    HW124958   9.328   1.952   6.513
41644SOL    HW224959   9.191   2.039   6.530
41645SOL     OW24960   7.711   2.188   6.306
41645SOL    HW124961   7.632   2.239   6.272
41645SOL    HW224962   7.702   2.173   6.404
41646SOL     OW24963   8.642   3.474   5.617
41646SOL    HW124964   8.648   3.381   5.654
41646SOL    HW224965   8.583   3.474   5.537
41647SOL     OW24966   8.270   2.864   6.958
41647SOL    HW124967   8.310   2.863   6.866
41647SOL    HW224968   8.280   2.956   6.998
41648SOL     OW24969   8.364   2.772   5.877
41648SOL    HW124970   8.427   2.810   5.809
41648SOL    HW224971   8.404   2.689   5.916
41649SOL     OW24972   8.952   3.469   5.630
41649SOL    HW124973   8.860   3.506   5.637
41649SOL    HW224974   8.990   3.489   5.540
41650SOL     OW24975   7.820   3.150   7.076
41650SOL    HW124976   7.807   3.243   7.042
41650SOL    HW224977   7.736   3.098   7.063
41651SOL     OW24978   9.062   3.154   6.875
41651SOL    HW124979   9.122   3.157   6.955
41651SOL    HW224980   8.987   3.218   6.888
41652SOL     OW24981   8.487   2.960   6.282
41652SOL    HW124982   8.417   2.913   6.336
41652SOL    HW224983   8.546   2.892   6.239
41653SOL     OW24984   8.462   2.098   6.557
41653SOL    HW124985   8.454   2.062   6.464
41653SOL    HW224986   8.460   2.022   6.622
41654SOL     OW24987   8.038   3.349   6.077
41654SOL    HW124988   8.080   3.291   6.007
41654SOL    HW224989   7.994   3.428   6.033
41655SOL     OW24990   9.157   2.247   6.967
41655SOL    HW124991   9.230   2.316   6.971
41655SOL    HW224992   9.185   2.172   6.908
41656SOL     OW24993   7.703   3.210   5.876
41656SOL    HW124994   7.607   3.211   5.849
41656SOL    HW224995   7.715   3.263   5.960
41657SOL     OW24996   7.553   2.875   7.312
41657SOL    HW124997   7.476   2.842   7.366
41657SOL    HW224998   7.638   2.845   7.354
41658SOL     OW24999   8.120   2.065   7.075
41658SOL    HW125000   8.210   2.049   7.035
41658SOL    HW225001   8.128   2.070   7.174
41659SOL     OW25002   7.523   2.207   5.619
41659SOL    HW125003   7.431   2.179   5.590
41659SOL    HW225004   7.554   2.284   5.563
41660SOL     OW25005   8.888   2.718   6.984
41660SOL    HW125006   8.831   2.770   6.921
41660SOL    HW225007   8.984   2.730   6.960
41661SOL     OW25008   7.520   2.028   5.904
41661SOL    HW125009   7.503   2.111   5.850
41661SOL    HW225010   7.610   1.991   5.882
41662SOL     OW25011   8.631   3.197   5.705
41662SOL    HW125012   8.532   3.186   5.707
41662SOL    HW225013   8.665   3.212   5.798
41663SOL     OW25014   8.061   2.704   7.017
41663SOL    HW125015   8.117   2.785   7.000
41663SOL    HW225016   8.120   2.624   7.020
41664SOL     OW25017   8.941   3.629   6.545
41664SOL    HW125018   8.974   3.693   6.476
41664SOL    HW225019   9.007   3.623   6.620
41665SOL     OW25020   8.164   2.427   7.294
41665SOL    HW125021   8.183   2.492   7.368
41665SOL    HW225022   8.224   2.347   7.303
41666SOL     OW25023   8.898   3.082   7.219
41666SOL    HW125024   8.889   3.072   7.318
41666SOL    HW225025   8.994   3.075   7.193
41667SOL     OW25026   7.838   3.603   7.146
41667SOL    HW125027   7.747   3.644   7.144
41667SOL    HW225028   7.831   3.509   7.178
41668SOL     OW25029   9.122   2.745   6.840
41668SOL    HW125030   9.095   2.656   6.803
41668SOL    HW225031   9.123   2.813   6.767
41669SOL     OW25032   8.673   2.187   6.035
41669SOL    HW125033   8.738   2.113   6.024
41669SOL    HW225034   8.693   2.237   6.119
41670SOL     OW25035   8.042   2.607   6.238
41670SOL    HW125036   8.092   2.692   6.219
41670SOL    HW225037   7.954   2.609   6.190
41671SOL     OW25038   9.225   2.204   7.228
41671SOL    HW125039   9.208   2.235   7.134
41671SOL    HW225040   9.141   2.167   7.266
41672SOL     OW25041   9.178   2.796   7.103
41672SOL    HW125042   9.216   2.887   7.118
41672SOL    HW225043   9.170   2.779   7.004
41673SOL     OW25044   8.307   3.236   5.602
41673SOL    HW125045   8.261   3.251   5.690
41673SOL    HW225046   8.351   3.321   5.572
41674SOL     OW25047   8.109   3.652   6.539
41674SOL    HW125048   8.063   3.740   6.526
41674SOL    HW225049   8.208   3.664   6.532
41675SOL     OW25050   8.307   2.818   6.447
41675SOL    HW125051   8.361   2.749   6.495
41675SOL    HW225052   8.275   2.887   6.513
41676SOL     OW25053   8.531   2.846   5.673
41676SOL    HW125054   8.508   2.899   5.591
41676SOL    HW225055   8.612   2.790   5.654
41677SOL     OW25056   9.309   3.431   6.437
41677SOL    HW125057   9.238   3.419   6.367
41677SOL    HW225058   9.310   3.352   6.497
41678SOL     OW25059   7.669   3.176   7.430
41678SOL    HW125060   7.604   3.103   7.409
41678SOL    HW225061   7.673   3.190   7.528
41679SOL     OW25062   7.527   3.102   6.239
41679SOL    HW125063   7.526   3.055   6.327
41679SOL    HW225064   7.609   3.074   6.188
41680SOL     OW25065   8.120   3.253   7.210
41680SOL    HW125066   8.042   3.203   7.248
41680SOL    HW225067   8.117   3.348   7.241
41681SOL     OW25068   9.272   2.054   6.813
41681SOL    HW125069   9.268   1.964   6.857
41681SOL    HW225070   9.275   2.043   6.714
41682SOL     OW25071   7.876   2.286   6.106
41682SOL    HW125072   7.906   2.214   6.044
41682SOL    HW225073   7.837   2.246   6.189
41683SOL     OW25074   9.153   3.349   6.690
41683SOL    HW125075   9.060   3.324   6.663
41683SOL    HW225076   9.179   3.299   6.772
41684SOL     OW25077   7.765   2.409   6.866
41684SOL    HW125078   7.803   2.350   6.938
41684SOL    HW225079   7.805   2.383   6.778
41685SOL     OW25080   8.260   3.448   6.273
41685SOL    HW125081   8.292   3.458   6.179
41685SOL    HW225082   8.181   3.386   6.275
41686SOL     OW25083   8.872   2.076   6.698
41686SOL    HW125084   8.924   2.011   6.753
41686SOL    HW225085   8.823   2.139   6.759
41687SOL     OW25086   8.449   1.896   6.740
41687SOL    HW125087   8.386   1.824   6.709
41687SOL    HW225088   8.542   1.860   6.740
41688SOL     OW25089   8.218   3.192   5.887
41688SOL    HW125090   8.172   3.105   5.904
41688SOL    HW225091   8.309   3.189   5.928
41689SOL     OW25092   8.066   3.429   6.870
41689SOL    HW125093   8.061   3.511   6.927
41689SOL    HW225094   8.155   3.426   6.825
41690SOL     OW25095   8.800   1.914   5.754
41690SOL    HW125096   8.835   1.873   5.670
41690SOL    HW225097   8.710   1.876   5.774
41691SOL     OW25098   8.748   2.315   6.277
41691SOL    HW125099   8.689   2.395   6.281
41691SOL    HW225100   8.763   2.280   6.370
41692SOL     OW25101   9.041   2.083   6.468
41692SOL    HW125102   8.957   2.082   6.522
41692SOL    HW225103   9.043   2.166   6.412
41693SOL     OW25104   7.487   2.939   5.886
41693SOL    HW125105   7.586   2.928   5.877
41693SOL    HW225106   7.447   2.853   5.918
41694SOL     OW25107   8.323   3.508   5.923
41694SOL    HW125108   8.246   3.473   5.869
41694SOL    HW225109   8.291   3.579   5.985
41695SOL     OW25110   7.678   2.490   7.561
41695SOL    HW125111   7.585   2.488   7.598
41695SOL    HW225112   7.679   2.451   7.469
41696SOL     OW25113   7.673   2.137   8.444
41696SOL    HW125114   7.708   2.120   8.536
41696SOL    HW225115   7.585   2.092   8.432
41697SOL     OW25116   7.467   2.230   8.095
41697SOL    HW125117   7.385   2.273   8.134
41697SOL    HW225118   7.439   2.157   8.032
41698SOL     OW25119   8.017   3.137   8.613
41698SOL    HW125120   7.924   3.130   8.576
41698SOL    HW225121   8.028   3.226   8.657
41699SOL     OW25122   9.003   3.373   8.151
41699SOL    HW125123   8.946   3.357   8.232
41699SOL    HW225124   8.944   3.383   8.071
41700SOL     OW25125   8.583   2.565   8.165
41700SOL    HW125126   8.640   2.643   8.140
41700SOL    HW225127   8.523   2.591   8.241
41701SOL     OW25128   9.203   2.469   7.679
41701SOL    HW125129   9.191   2.456   7.580
41701SOL    HW225130   9.173   2.388   7.728
41702SOL     OW25131   8.216   3.006   8.471
41702SOL    HW125132   8.138   3.023   8.531
41702SOL    HW225133   8.250   3.093   8.435
41703SOL     OW25134   8.298   2.660   9.271
41703SOL    HW125135   8.294   2.736   9.336
41703SOL    HW225136   8.320   2.696   9.180
41704SOL     OW25137   8.133   2.874   8.113
41704SOL    HW125138   8.202   2.858   8.183
41704SOL    HW225139   8.060   2.931   8.151
41705SOL     OW25140   8.134   3.023   9.251
41705SOL    HW125141   8.194   3.102   9.265
41705SOL    HW225142   8.048   3.054   9.210
41706SOL     OW25143   7.783   3.297   8.509
41706SOL    HW125144   7.705   3.266   8.456
41706SOL    HW225145   7.841   3.355   8.452
41707SOL     OW25146   8.908   3.367   8.787
41707SOL    HW125147   8.932   3.461   8.813
41707SOL    HW225148   8.892   3.313   8.869
41708SOL     OW25149   7.886   2.254   8.947
41708SOL    HW125150   7.968   2.198   8.956
41708SOL    HW225151   7.805   2.196   8.951
41709SOL     OW25152   9.051   2.309   8.185
41709SOL    HW125153   8.977   2.355   8.135
41709SOL    HW225154   9.102   2.377   8.238
41710SOL     OW25155   7.679   3.575   7.931
41710SOL    HW125156   7.713   3.652   7.985
41710SOL    HW225157   7.723   3.575   7.841
41711SOL     OW25158   8.575   3.203   9.138
41711SOL    HW125159   8.622   3.203   9.226
41711SOL    HW225160   8.527   3.116   9.127
41712SOL     OW25161   7.678   3.296   7.986
41712SOL    HW125162   7.652   3.392   7.986
41712SOL    HW225163   7.607   3.242   8.031
41713SOL     OW25164   7.688   2.953   8.334
41713SOL    HW125165   7.702   2.869   8.386
41713SOL    HW225166   7.633   3.017   8.389
41714SOL     OW25167   8.068   3.648   8.887
41714SOL    HW125168   7.976   3.631   8.922
41714SOL    HW225169   8.096   3.740   8.913
41715SOL     OW25170   8.054   2.826   7.571
41715SOL    HW125171   8.061   2.910   7.517
41715SOL    HW225172   8.100   2.839   7.659
41716SOL     OW25173   9.042   1.976   8.928
41716SOL    HW125174   9.024   2.043   8.856
41716SOL    HW225175   9.039   2.022   9.017
41717SOL     OW25176   7.570   2.505   8.011
41717SOL    HW125177   7.525   2.417   8.028
41717SOL    HW225178   7.569   2.559   8.095
41718SOL     OW25179   7.475   3.458   7.565
41718SOL    HW125180   7.456   3.362   7.586
41718SOL    HW225181   7.442   3.516   7.640
41719SOL     OW25182   9.137   2.784   8.060
41719SOL    HW125183   9.232   2.755   8.068
41719SOL    HW225184   9.129   2.849   7.985
41720SOL     OW25185   9.089   2.970   7.880
41720SOL    HW125186   9.175   2.972   7.828
41720SOL    HW225187   9.103   3.017   7.968
41721SOL     OW25188   7.561   2.599   9.045
41721SOL    HW125189   7.649   2.586   9.090
41721SOL    HW225190   7.548   2.696   9.023
41722SOL     OW25191   8.061   3.227   8.174
41722SOL    HW125192   8.012   3.140   8.183
41722SOL    HW225193   8.038   3.270   8.087
41723SOL     OW25194   8.741   3.090   8.871
41723SOL    HW125195   8.778   3.017   8.813
41723SOL    HW225196   8.793   3.095   8.956
41724SOL     OW25197   7.645   2.838   8.712
41724SOL    HW125198   7.734   2.793   8.698
41724SOL    HW225199   7.572   2.773   8.693
41725SOL     OW25200   8.973   2.861   7.638
41725SOL    HW125201   8.910   2.785   7.651
41725SOL    HW225202   9.021   2.879   7.724
41726SOL     OW25203   8.635   3.654   9.064
41726SOL    HW125204   8.659   3.714   8.988
41726SOL    HW225205   8.642   3.559   9.034
41727SOL     OW25206   7.765   2.113   9.249
41727SOL    HW125207   7.836   2.184   9.255
41727SOL    HW225208   7.677   2.152   9.277
41728SOL     OW25209   8.914   3.279   8.401
41728SOL    HW125210   8.855   3.285   8.481
41728SOL    HW225211   8.899   3.191   8.355
41729SOL     OW25212   9.115   3.576   8.020
41729SOL    HW125213   9.074   3.553   7.932
41729SOL    HW225214   9.097   3.502   8.085
41730SOL     OW25215   8.046   2.591   7.718
41730SOL    HW125216   8.070   2.660   7.650
41730SOL    HW225217   7.968   2.624   7.772
41731SOL     OW25218   8.729   2.207   8.392
41731SOL    HW125219   8.643   2.157   8.379
41731SOL    HW225220   8.791   2.153   8.448
41732SOL     OW25221   9.024   3.524   7.755
41732SOL    HW125222   9.113   3.570   7.758
41732SOL    HW225223   9.003   3.500   7.660
41733SOL     OW25224   8.255   2.467   8.913
41733SOL    HW125225   8.208   2.464   9.002
41733SOL    HW225226   8.204   2.412   8.847
41734SOL     OW25227   8.842   2.331   9.122
41734SOL    HW125228   8.822   2.374   9.210
41734SOL    HW225229   8.920   2.269   9.131
41735SOL     OW25230   8.421   2.752   9.020
41735SOL    HW125231   8.467   2.668   8.991
41735SOL    HW225232   8.365   2.786   8.945
41736SOL     OW25233   8.439   2.272   8.690
41736SOL    HW125234   8.362   2.306   8.744
41736SOL    HW225235   8.405   2.221   8.611
41737SOL     OW25236   8.489   2.563   7.877
41737SOL    HW125237   8.515   2.559   7.973
41737SOL    HW225238   8.404   2.512   7.863
41738SOL     OW25239   7.524   2.673   8.237
41738SOL    HW125240   7.623   2.661   8.246
41738SOL    HW225241   7.500   2.768   8.258
41739SOL     OW25242   7.578   3.683   9.019
41739SOL    HW125243   7.568   3.668   9.118
41739SOL    HW225244   7.492   3.719   8.983
41740SOL     OW25245   8.313   2.210   7.643
41740SOL    HW125246   8.372   2.273   7.594
41740SOL    HW225247   8.332   2.116   7.614
41741SOL     OW25248   9.167   2.447   9.279
41741SOL    HW125249   9.141   2.536   9.243
41741SOL    HW225250   9.165   2.379   9.206
41742SOL     OW25251   8.810   3.006   7.993
41742SOL    HW125252   8.893   2.977   7.945
41742SOL    HW225253   8.761   3.073   7.937
41743SOL     OW25254   7.998   2.058   8.333
41743SOL    HW125255   7.993   2.053   8.433
41743SOL    HW225256   8.000   2.154   8.304
41744SOL     OW25257   8.456   3.318   7.925
41744SOL    HW125258   8.410   3.390   7.873
41744SOL    HW225259   8.452   3.338   8.023
41745SOL     OW25260   7.799   3.663   8.301
41745SOL    HW125261   7.849   3.577   8.307
41745SOL    HW225262   7.864   3.740   8.298
41746SOL     OW25263   9.243   2.928   8.321
41746SOL    HW125264   9.181   2.913   8.245
41746SOL    HW225265   9.191   2.939   8.406
41747SOL     OW25266   8.675   3.412   8.954
41747SOL    HW125267   8.681   3.335   9.018
41747SOL    HW225268   8.623   3.386   8.874
41748SOL     OW25269   7.769   2.805   7.690
41748SOL    HW125270   7.851   2.844   7.648
41748SOL    HW225271   7.742   2.723   7.641
41749SOL     OW25272   8.906   2.597   8.176
41749SOL    HW125273   8.901   2.532   8.251
41749SOL    HW225274   8.986   2.656   8.189
41750SOL     OW25275   7.909   3.128   9.175
41750SOL    HW125276   7.859   3.129   9.089
41750SOL    HW225277   7.846   3.110   9.251
41751SOL     OW25278   8.559   3.638   7.685
41751SOL    HW125279   8.499   3.576   7.735
41751SOL    HW225280   8.590   3.594   7.600
41752SOL     OW25281   7.650   2.147   8.946
41752SOL    HW125282   7.570   2.207   8.933
41752SOL    HW225283   7.640   2.098   9.032
41753SOL     OW25284   9.080   3.239   7.529
41753SOL    HW125285   9.048   3.333   7.519
41753SOL    HW225286   9.004   3.176   7.517
41754SOL     OW25287   7.912   3.605   7.771
41754SOL    HW125288   7.945   3.644   7.857
41754SOL    HW225289   7.988   3.598   7.706
41755SOL     OW25290   8.848   1.969   7.874
41755SOL    HW125291   8.824   1.932   7.784
41755SOL    HW225292   8.947   1.985   7.878
41756SOL     OW25293   7.697   3.647   8.689
41756SOL    HW125294   7.754   3.582   8.739
41756SOL    HW225295   7.681   3.614   8.596
41757SOL     OW25296   8.388   3.560   8.352
41757SOL    HW125297   8.468   3.503   8.373
41757SOL    HW225298   8.339   3.520   8.275
41758SOL     OW25299   7.830   2.562   7.928
41758SOL    HW125300   7.875   2.472   7.925
41758SOL    HW225301   7.736   2.551   7.961
41759SOL     OW25302   8.995   2.084   9.177
41759SOL    HW125303   8.990   2.121   9.269
41759SOL    HW225304   8.923   2.015   9.165
41760SOL     OW25305   8.062   1.984   7.565
41760SOL    HW125306   8.160   1.962   7.572
41760SOL    HW225307   8.031   1.967   7.472
41761SOL     OW25308   8.229   2.126   9.197
41761SOL    HW125309   8.296   2.065   9.240
41761SOL    HW225310   8.156   2.145   9.262
41762SOL     OW25311   8.336   3.376   8.643
41762SOL    HW125312   8.313   3.351   8.549
41762SOL    HW225313   8.397   3.307   8.682
41763SOL     OW25314   8.799   2.452   8.881
41763SOL    HW125315   8.827   2.409   8.966
41763SOL    HW225316   8.824   2.548   8.882
41764SOL     OW25317   8.251   3.264   8.372
41764SOL    HW125318   8.341   3.278   8.330
41764SOL    HW225319   8.180   3.266   8.301
41765SOL     OW25320   8.370   2.365   8.347
41765SOL    HW125321   8.345   2.356   8.251
41765SOL    HW225322   8.418   2.283   8.378
41766SOL     OW25323   7.987   1.926   7.960
41766SOL    HW125324   7.906   1.927   8.018
41766SOL    HW225325   7.990   2.009   7.905
41767SOL     OW25326   8.882   3.050   7.489
41767SOL    HW125327   8.914   2.974   7.546
41767SOL    HW225328   8.790   3.077   7.519
41768SOL     OW25329   7.745   1.897   7.619
41768SOL    HW125330   7.794   1.981   7.598
41768SOL    HW225331   7.807   1.832   7.664
41769SOL     OW25332   8.383   2.098   7.928
41769SOL    HW125333   8.335   2.139   7.850
41769SOL    HW225334   8.482   2.096   7.909
41770SOL     OW25335   8.524   2.545   8.912
41770SOL    HW125336   8.444   2.484   8.915
41770SOL    HW225337   8.605   2.492   8.888
41771SOL     OW25338   8.675   3.432   8.241
41771SOL    HW125339   8.696   3.506   8.176
41771SOL    HW225340   8.743   3.432   8.314
41772SOL     OW25341   7.907   3.014   8.189
41772SOL    HW125342   7.836   2.987   8.254
41772SOL    HW225343   7.881   2.986   8.096
41773SOL     OW25344   8.719   3.659   8.039
41773SOL    HW125345   8.763   3.723   7.975
41773SOL    HW225346   8.669   3.711   8.109
41774SOL     OW25347   8.480   2.411   7.464
41774SOL    HW125348   8.439   2.493   7.425
41774SOL    HW225349   8.544   2.437   7.537
41775SOL     OW25350   7.526   2.418   8.834
41775SOL    HW125351   7.618   2.417   8.793
41775SOL    HW225352   7.520   2.492   8.901
41776SOL     OW25353   8.009   2.084   8.595
41776SOL    HW125354   8.047   2.000   8.632
41776SOL    HW225355   7.921   2.103   8.639
41777SOL     OW25356   8.314   2.316   8.090
41777SOL    HW125357   8.282   2.388   8.028
41777SOL    HW225358   8.338   2.235   8.037
41778SOL     OW25359   8.465   1.901   8.201
41778SOL    HW125360   8.393   1.906   8.132
41778SOL    HW225361   8.441   1.832   8.270
41779SOL     OW25362   8.877   3.035   8.315
41779SOL    HW125363   8.822   2.951   8.308
41779SOL    HW225364   8.903   3.064   8.223
41780SOL     OW25365   8.914   2.452   8.440
41780SOL    HW125366   8.884   2.357   8.447
41780SOL    HW225367   8.987   2.468   8.506
41781SOL     OW25368   9.305   2.695   7.825
41781SOL    HW125369   9.347   2.631   7.889
41781SOL    HW225370   9.267   2.644   7.747
41782SOL     OW25371   7.936   3.247   7.622
41782SOL    HW125372   7.849   3.232   7.669
41782SOL    HW225373   7.919   3.273   7.527
41783SOL     OW25374   9.112   3.142   8.105
41783SOL    HW125375   9.211   3.150   8.119
41783SOL    HW225376   9.067   3.226   8.136
41784SOL     OW25377   8.838   2.437   7.526
41784SOL    HW125378   8.784   2.416   7.607
41784SOL    HW225379   8.929   2.396   7.535
41785SOL     OW25380   7.975   2.118   7.776
41785SOL    HW125381   8.002   2.059   7.701
41785SOL    HW225382   7.975   2.213   7.745
41786SOL     OW25383   9.202   3.085   9.036
41786SOL    HW125384   9.293   3.046   9.023
41786SOL    HW225385   9.210   3.181   9.060
41787SOL     OW25386   8.512   3.209   8.788
41787SOL    HW125387   8.432   3.186   8.843
41787SOL    HW225388   8.595   3.183   8.837
41788SOL     OW25389   9.040   3.491   9.073
41788SOL    HW125390   9.067   3.525   8.983
41788SOL    HW225391   9.119   3.453   9.119
41789SOL     OW25392   8.559   3.057   8.548
41789SOL    HW125393   8.519   3.101   8.629
41789SOL    HW225394   8.518   3.094   8.465
41790SOL     OW25395   9.086   2.961   8.527
41790SOL    HW125396   9.091   3.042   8.586
41790SOL    HW225397   9.000   2.963   8.476
41791SOL     OW25398   8.363   1.951   8.850
41791SOL    HW125399   8.388   1.931   8.755
41791SOL    HW225400   8.435   2.007   8.892
41792SOL     OW25401   8.428   2.978   9.167
41792SOL    HW125402   8.329   2.984   9.177
41792SOL    HW225403   8.451   2.898   9.111
41793SOL     OW25404   8.153   2.912   7.816
41793SOL    HW125405   8.139   2.919   7.915
41793SOL    HW225406   8.237   2.861   7.798
41794SOL     OW25407   7.858   2.675   8.699
41794SOL    HW125408   7.944   2.687   8.749
41794SOL    HW225409   7.816   2.588   8.726
41795SOL     OW25410   8.722   2.248   8.710
41795SOL    HW125411   8.743   2.322   8.774
41795SOL    HW225412   8.633   2.265   8.667
41796SOL     OW25413   7.512   3.426   8.779
41796SOL    HW125414   7.466   3.508   8.745
41796SOL    HW225415   7.610   3.445   8.788
41797SOL     OW25416   7.815   2.962   7.949
41797SOL    HW125417   7.808   3.045   7.893
41797SOL    HW225418   7.819   2.882   7.889
41798SOL     OW25419   8.014   2.399   8.313
41798SOL    HW125420   8.026   2.465   8.239
41798SOL    HW225421   8.060   2.433   8.396
41799SOL     OW25422   8.700   3.210   7.836
41799SOL    HW125423   8.750   3.287   7.876
41799SOL    HW225424   8.605   3.212   7.868
41800SOL     OW25425   8.720   3.307   8.590
41800SOL    HW125426   8.767   3.320   8.677
41800SOL    HW225427   8.654   3.233   8.599
41801SOL     OW25428   9.030   2.501   7.920
41801SOL    HW125429   8.999   2.562   7.993
41801SOL    HW225430   9.080   2.553   7.851
41802SOL     OW25431   7.802   3.372   8.777
41802SOL    HW125432   7.781   3.328   8.690
41802SOL    HW225433   7.899   3.398   8.780
41803SOL     OW25434   7.850   2.613   9.046
41803SOL    HW125435   7.918   2.668   8.999
41803SOL    HW225436   7.890   2.525   9.073
41804SOL     OW25437   9.035   2.641   9.118
41804SOL    HW125438   8.943   2.679   9.113
41804SOL    HW225439   9.095   2.688   9.053
41805SOL     OW25440   8.461   1.967   9.218
41805SOL    HW125441   8.467   2.052   9.166
41805SOL    HW225442   8.493   1.891   9.161
41806SOL     OW25443   7.952   1.912   9.188
41806SOL    HW125444   7.910   1.855   9.118
41806SOL    HW225445   7.886   1.981   9.220
41807SOL     OW25446   8.021   2.732   8.477
41807SOL    HW125447   8.065   2.821   8.468
41807SOL    HW225448   7.958   2.732   8.554
41808SOL     OW25449   8.808   2.724   8.493
41808SOL    HW125450   8.733   2.724   8.427
41808SOL    HW225451   8.845   2.632   8.502
41809SOL     OW25452   8.657   2.387   7.723
41809SOL    HW125453   8.670   2.303   7.777
41809SOL    HW225454   8.628   2.461   7.783
41810SOL     OW25455   7.755   2.075   8.679
41810SOL    HW125456   7.732   2.112   8.769
41810SOL    HW225457   7.725   1.980   8.673
41811SOL     OW25458   7.485   3.172   8.730
41811SOL    HW125459   7.538   3.123   8.798
41811SOL    HW225460   7.507   3.270   8.735
41812SOL     OW25461   8.180   2.496   8.512
41812SOL    HW125462   8.239   2.470   8.436
41812SOL    HW225463   8.152   2.592   8.501
41813SOL     OW25464   9.176   2.797   9.302
41813SOL    HW125465   9.130   2.790   9.213
41813SOL    HW225466   9.114   2.841   9.368
41814SOL     OW25467   7.755   1.925   8.066
41814SOL    HW125468   7.744   2.019   8.099
41814SOL    HW225469   7.750   1.862   8.143
41815SOL     OW25470   9.070   2.229   7.822
41815SOL    HW125471   9.072   2.153   7.886
41815SOL    HW225472   9.022   2.306   7.862
41816SOL     OW25473   8.471   2.628   8.414
41816SOL    HW125474   8.486   2.649   8.510
41816SOL    HW225475   8.441   2.533   8.405
41817SOL     OW25476   8.428   3.435   9.148
41817SOL    HW125477   8.408   3.479   9.060
41817SOL    HW225478   8.467   3.344   9.132
41818SOL     OW25479   9.307   3.380   9.053
41818SOL    HW125480   9.321   3.407   8.958
41818SOL    HW225481   9.390   3.402   9.106
41819SOL     OW25482   7.798   2.760   9.252
41819SOL    HW125483   7.874   2.804   9.300
41819SOL    HW225484   7.833   2.713   9.170
41820SOL     OW25485   8.988   2.136   7.573
41820SOL    HW125486   8.927   2.061   7.596
41820SOL    HW225487   9.010   2.188   7.656
41821SOL     OW25488   8.751   2.700   7.490
41821SOL    HW125489   8.785   2.607   7.505
41821SOL    HW225490   8.769   2.727   7.395
41822SOL     OW25491   8.516   3.195   8.297
41822SOL    HW125492   8.523   3.111   8.242
41822SOL    HW225493   8.578   3.264   8.261
41823SOL     OW25494   7.767   2.672   8.397
41823SOL    HW125495   7.860   2.708   8.402
41823SOL    HW225496   7.761   2.587   8.449
41824SOL     OW25497   7.787   2.371   8.454
41824SOL    HW125498   7.735   2.288   8.437
41824SOL    HW225499   7.864   2.376   8.390
41825SOL     OW25500   8.586   2.242   9.126
41825SOL    HW125501   8.541   2.305   9.190
41825SOL    HW225502   8.679   2.273   9.109
41826SOL     OW25503   8.608   2.069   8.925
41826SOL    HW125504   8.608   2.133   9.002
41826SOL    HW225505   8.636   2.117   8.842
41827SOL     OW25506   7.456   3.188   7.648
41827SOL    HW125507   7.363   3.209   7.617
41827SOL    HW225508   7.466   3.089   7.661
41828SOL     OW25509   7.536   3.663   8.375
41828SOL    HW125510   7.494   3.577   8.348
41828SOL    HW225511   7.630   3.666   8.341
41829SOL     OW25512   7.952   3.430   8.358
41829SOL    HW125513   8.018   3.504   8.367
41829SOL    HW225514   7.996   3.351   8.316
41830SOL     OW25515   8.450   2.658   8.686
41830SOL    HW125516   8.491   2.626   8.772
41830SOL    HW225517   8.354   2.631   8.683
41831SOL     OW25518   7.488   2.406   8.562
41831SOL    HW125519   7.573   2.373   8.521
41831SOL    HW225520   7.501   2.421   8.660
41832SOL     OW25521   7.637   2.382   9.170
41832SOL    HW125522   7.696   2.342   9.100
41832SOL    HW225523   7.579   2.453   9.129
41833SOL     OW25524   8.817   2.812   9.108
41833SOL    HW125525   8.856   2.901   9.128
41833SOL    HW225526   8.827   2.792   9.011
41834SOL     OW25527   8.263   2.434   7.773
41834SOL    HW125528   8.270   2.345   7.727
41834SOL    HW225529   8.169   2.468   7.765
41835SOL     OW25530   9.105   2.466   8.654
41835SOL    HW125531   9.067   2.397   8.716
41835SOL    HW225532   9.187   2.430   8.610
41836SOL     OW25533   7.700   3.426   9.192
41836SOL    HW125534   7.670   3.483   9.268
41836SOL    HW225535   7.693   3.329   9.218
41837SOL     OW25536   8.119   2.326   8.717
41837SOL    HW125537   8.085   2.237   8.687
41837SOL    HW225538   8.145   2.380   8.637
41838SOL     OW25539   8.378   3.540   8.913
41838SOL    HW125540   8.354   3.522   8.818
41838SOL    HW225541   8.408   3.634   8.923
41839SOL     OW25542   7.921   2.362   7.639
41839SOL    HW125543   7.982   2.442   7.643
41839SOL    HW225544   7.826   2.393   7.646
41840SOL     OW25545   7.607   2.999   8.914
41840SOL    HW125546   7.629   2.938   8.990
41840SOL    HW225547   7.617   2.950   8.828
41841SOL     OW25548   8.795   2.921   8.682
41841SOL    HW125549   8.819   2.858   8.608
41841SOL    HW225550   8.705   2.961   8.664
41842SOL     OW25551   8.750   2.717   7.757
41842SOL    HW125552   8.664   2.686   7.799
41842SOL    HW225553   8.746   2.703   7.658
41843SOL     OW25554   9.207   3.609   8.602
41843SOL    HW125555   9.268   3.639   8.529
41843SOL    HW225556   9.169   3.520   8.580
41844SOL     OW25557   8.700   3.593   8.576
41844SOL    HW125558   8.784   3.598   8.522
41844SOL    HW225559   8.677   3.497   8.594
41845SOL     OW25560   7.531   3.120   8.470
41845SOL    HW125561   7.526   3.119   8.570
41845SOL    HW225562   7.448   3.079   8.432
41846SOL     OW25563   8.136   3.524   9.164
41846SOL    HW125564   8.080   3.605   9.173
41846SOL    HW225565   8.188   3.528   9.078
41847SOL     OW25566   9.174   1.997   7.971
41847SOL    HW125567   9.247   1.980   7.904
41847SOL    HW225568   9.143   1.910   8.009
41848SOL     OW25569   8.836   3.435   7.925
41848SOL    HW125570   8.903   3.447   7.851
41848SOL    HW225571   8.796   3.524   7.948
41849SOL     OW25572   7.578   3.656   9.299
41849SOL    HW125573   7.537   3.582   9.352
41849SOL    HW225574   7.642   3.707   9.357
41850SOL     OW25575   8.728   2.789   8.120
41850SOL    HW125576   8.788   2.708   8.122
41850SOL    HW225577   8.768   2.858   8.060
41851SOL     OW25578   8.278   3.135   8.870
41851SOL    HW125579   8.273   3.168   8.965
41851SOL    HW225580   8.192   3.154   8.824
41852SOL     OW25581   8.120   3.478   7.602
41852SOL    HW125582   8.129   3.488   7.503
41852SOL    HW225583   8.080   3.389   7.623
41853SOL     OW25584   9.098   3.582   8.842
41853SOL    HW125585   9.151   3.592   8.758
41853SOL    HW225586   9.071   3.672   8.876
41854SOL     OW25587   9.289   2.037   8.411
41854SOL    HW125588   9.328   1.952   8.375
41854SOL    HW225589   9.191   2.039   8.392
41855SOL     OW25590   7.711   2.188   8.168
41855SOL    HW125591   7.632   2.239   8.134
41855SOL    HW225592   7.702   2.173   8.266
41856SOL     OW25593   8.642   3.474   7.479
41856SOL    HW125594   8.648   3.381   7.516
41856SOL    HW225595   8.583   3.474   7.399
41857SOL     OW25596   8.270   2.864   8.820
41857SOL    HW125597   8.310   2.863   8.728
41857SOL    HW225598   8.280   2.956   8.860
41858SOL     OW25599   8.364   2.772   7.739
41858SOL    HW125600   8.427   2.810   7.671
41858SOL    HW225601   8.404   2.689   7.778
41859SOL     OW25602   8.952   3.469   7.492
41859SOL    HW125603   8.860   3.506   7.499
41859SOL    HW225604   8.990   3.489   7.402
41860SOL     OW25605   7.820   3.150   8.938
41860SOL    HW125606   7.807   3.243   8.904
41860SOL    HW225607   7.736   3.098   8.925
41861SOL     OW25608   9.062   3.154   8.737
41861SOL    HW125609   9.122   3.157   8.817
41861SOL    HW225610   8.987   3.218   8.750
41862SOL     OW25611   8.487   2.960   8.144
41862SOL    HW125612   8.417   2.913   8.198
41862SOL    HW225613   8.546   2.892   8.101
41863SOL     OW25614   8.462   2.098   8.419
41863SOL    HW125615   8.454   2.062   8.326
41863SOL    HW225616   8.460   2.022   8.484
41864SOL     OW25617   8.038   3.349   7.939
41864SOL    HW125618   8.080   3.291   7.869
41864SOL    HW225619   7.994   3.428   7.895
41865SOL     OW25620   9.157   2.247   8.829
41865SOL    HW125621   9.230   2.316   8.833
41865SOL    HW225622   9.185   2.172   8.770
41866SOL     OW25623   7.703   3.210   7.738
41866SOL    HW125624   7.607   3.211   7.711
41866SOL    HW225625   7.715   3.263   7.822
41867SOL     OW25626   7.553   2.875   9.174
41867SOL    HW125627   7.476   2.842   9.228
41867SOL    HW225628   7.638   2.845   9.216
41868SOL     OW25629   8.120   2.065   8.937
41868SOL    HW125630   8.210   2.049   8.897
41868SOL    HW225631   8.128   2.070   9.036
41869SOL     OW25632   7.523   2.207   7.481
41869SOL    HW125633   7.431   2.179   7.452
41869SOL    HW225634   7.554   2.284   7.425
41870SOL     OW25635   8.888   2.718   8.846
41870SOL    HW125636   8.831   2.770   8.783
41870SOL    HW225637   8.984   2.730   8.822
41871SOL     OW25638   7.520   2.028   7.766
41871SOL    HW125639   7.503   2.111   7.712
41871SOL    HW225640   7.610   1.991   7.744
41872SOL     OW25641   8.631   3.197   7.567
41872SOL    HW125642   8.532   3.186   7.569
41872SOL    HW225643   8.665   3.212   7.660
41873SOL     OW25644   8.061   2.704   8.879
41873SOL    HW125645   8.117   2.785   8.862
41873SOL    HW225646   8.120   2.624   8.882
41874SOL     OW25647   8.941   3.629   8.407
41874SOL    HW125648   8.974   3.693   8.338
41874SOL    HW225649   9.007   3.623   8.482
41875SOL     OW25650   8.164   2.427   9.156
41875SOL    HW125651   8.183   2.492   9.230
41875SOL    HW225652   8.224   2.347   9.165
41876SOL     OW25653   8.898   3.082   9.081
41876SOL    HW125654   8.889   3.072   9.180
41876SOL    HW225655   8.994   3.075   9.055
41877SOL     OW25656   7.838   3.603   9.008
41877SOL    HW125657   7.747   3.644   9.006
41877SOL    HW225658   7.831   3.509   9.040
41878SOL     OW25659   9.122   2.745   8.702
41878SOL    HW125660   9.095   2.656   8.665
41878SOL    HW225661   9.123   2.813   8.629
41879SOL     OW25662   8.673   2.187   7.897
41879SOL    HW125663   8.738   2.113   7.886
41879SOL    HW225664   8.693   2.237   7.981
41880SOL     OW25665   8.042   2.607   8.100
41880SOL    HW125666   8.092   2.692   8.081
41880SOL    HW225667   7.954   2.609   8.052
41881SOL     OW25668   9.225   2.204   9.090
41881SOL    HW125669   9.208   2.235   8.996
41881SOL    HW225670   9.141   2.167   9.128
41882SOL     OW25671   9.178   2.796   8.965
41882SOL    HW125672   9.216   2.887   8.980
41882SOL    HW225673   9.170   2.779   8.866
41883SOL     OW25674   8.307   3.236   7.464
41883SOL    HW125675   8.261   3.251   7.552
41883SOL    HW225676   8.351   3.321   7.434
41884SOL     OW25677   8.109   3.652   8.401
41884SOL    HW125678   8.063   3.740   8.388
41884SOL    HW225679   8.208   3.664   8.394
41885SOL     OW25680   8.307   2.818   8.309
41885SOL    HW125681   8.361   2.749   8.357
41885SOL    HW225682   8.275   2.887   8.375
41886SOL     OW25683   8.531   2.846   7.535
41886SOL    HW125684   8.508   2.899   7.453
41886SOL    HW225685   8.612   2.790   7.516
41887SOL     OW25686   9.309   3.431   8.299
41887SOL    HW125687   9.238   3.419   8.229
41887SOL    HW225688   9.310   3.352   8.359
41888SOL     OW25689   7.669   3.176   9.292
41888SOL    HW125690   7.604   3.103   9.271
41888SOL    HW225691   7.673   3.190   9.390
41889SOL     OW25692   7.527   3.102   8.101
41889SOL    HW125693   7.526   3.055   8.189
41889SOL    HW225694   7.609   3.074   8.050
41890SOL     OW25695   8.120   3.253   9.072
41890SOL    HW125696   8.042   3.203   9.110
41890SOL    HW225697   8.117   3.348   9.103
41891SOL     OW25698   9.272   2.054   8.675
41891SOL    HW125699   9.268   1.964   8.719
41891SOL    HW225700   9.275   2.043   8.576
41892SOL     OW25701   7.876   2.286   7.968
41892SOL    HW125702   7.906   2.214   7.906
41892SOL    HW225703   7.837   2.246   8.051
41893SOL     OW25704   9.153   3.349   8.552
41893SOL    HW125705   9.060   3.324   8.525
41893SOL    HW225706   9.179   3.299   8.634
41894SOL     OW25707   7.765   2.409   8.728
41894SOL    HW125708   7.803   2.350   8.800
41894SOL    HW225709   7.805   2.383   8.640
41895SOL     OW25710   8.260   3.448   8.135
41895SOL    HW125711   8.292   3.458   8.041
41895SOL    HW225712   8.181   3.386   8.137
41896SOL     OW25713   8.872   2.076   8.560
41896SOL    HW125714   8.924   2.011   8.615
41896SOL    HW225715   8.823   2.139   8.621
41897SOL     OW25716   8.449   1.896   8.602
41897SOL    HW125717   8.386   1.824   8.571
41897SOL    HW225718   8.542   1.860   8.602
41898SOL     OW25719   8.218   3.192   7.749
41898SOL    HW125720   8.172   3.105   7.766
41898SOL    HW225721   8.309   3.189   7.790
41899SOL     OW25722   8.066   3.429   8.732
41899SOL    HW125723   8.061   3.511   8.789
41899SOL    HW225724   8.155   3.426   8.687
41900SOL     OW25725   8.800   1.914   7.616
41900SOL    HW125726   8.835   1.873   7.532
41900SOL    HW225727   8.710   1.876   7.636
41901SOL     OW25728   8.748   2.315   8.139
41901SOL    HW125729   8.689   2.395   8.143
41901SOL    HW225730   8.763   2.280   8.232
41902SOL     OW25731   9.041   2.083   8.330
41902SOL    HW125732   8.957   2.082   8.384
41902SOL    HW225733   9.043   2.166   8.274
41903SOL     OW25734   7.487   2.939   7.748
41903SOL    HW125735   7.586   2.928   7.739
41903SOL    HW225736   7.447   2.853   7.780
41904SOL     OW25737   8.323   3.508   7.785
41904SOL    HW125738   8.246   3.473   7.731
41904SOL    HW225739   8.291   3.579   7.847
41905SOL     OW25740   7.678   2.490   9.423
41905SOL    HW125741   7.585   2.488   9.460
41905SOL    HW225742   7.679   2.451   9.331
41906SOL     OW25743   7.673   2.137  10.306
41906SOL    HW125744   7.708   2.120  10.398
41906SOL    HW225745   7.585   2.092  10.294
41907SOL     OW25746   7.467   2.230   9.957
41907SOL    HW125747   7.385   2.273   9.996
41907SOL    HW225748   7.439   2.157   9.894
41908SOL     OW25749   8.017   3.137  10.475
41908SOL    HW125750   7.924   3.130  10.438
41908SOL    HW225751   8.028   3.226  10.519
41909SOL     OW25752   9.003   3.373  10.013
41909SOL    HW125753   8.946   3.357  10.094
41909SOL    HW225754   8.944   3.383   9.933
41910SOL     OW25755   8.583   2.565  10.027
41910SOL    HW125756   8.640   2.643  10.002
41910SOL    HW225757   8.523   2.591  10.103
41911SOL     OW25758   9.203   2.469   9.541
41911SOL    HW125759   9.191   2.456   9.442
41911SOL    HW225760   9.173   2.388   9.590
41912SOL     OW25761   8.216   3.006  10.333
41912SOL    HW125762   8.138   3.023  10.393
41912SOL    HW225763   8.250   3.093  10.297
41913SOL     OW25764   8.298   2.660  11.133
41913SOL    HW125765   8.294   2.736  11.198
41913SOL    HW225766   8.320   2.696  11.042
41914SOL     OW25767   8.133   2.874   9.975
41914SOL    HW125768   8.202   2.858  10.045
41914SOL    HW225769   8.060   2.931  10.013
41915SOL     OW25770   8.134   3.023  11.113
41915SOL    HW125771   8.194   3.102  11.127
41915SOL    HW225772   8.048   3.054  11.072
41916SOL     OW25773   7.783   3.297  10.371
41916SOL    HW125774   7.705   3.266  10.318
41916SOL    HW225775   7.841   3.355  10.314
41917SOL     OW25776   8.908   3.367  10.649
41917SOL    HW125777   8.932   3.461  10.675
41917SOL    HW225778   8.892   3.313  10.731
41918SOL     OW25779   7.886   2.254  10.809
41918SOL    HW125780   7.968   2.198  10.818
41918SOL    HW225781   7.805   2.196  10.813
41919SOL     OW25782   9.051   2.309  10.047
41919SOL    HW125783   8.977   2.355   9.997
41919SOL    HW225784   9.102   2.377  10.100
41920SOL     OW25785   7.679   3.575   9.793
41920SOL    HW125786   7.713   3.652   9.847
41920SOL    HW225787   7.723   3.575   9.703
41921SOL     OW25788   8.575   3.203  11.000
41921SOL    HW125789   8.622   3.203  11.088
41921SOL    HW225790   8.527   3.116  10.989
41922SOL     OW25791   7.678   3.296   9.848
41922SOL    HW125792   7.652   3.392   9.848
41922SOL    HW225793   7.607   3.242   9.893
41923SOL     OW25794   7.688   2.953  10.196
41923SOL    HW125795   7.702   2.869  10.248
41923SOL    HW225796   7.633   3.017  10.251
41924SOL     OW25797   8.068   3.648  10.749
41924SOL    HW125798   7.976   3.631  10.784
41924SOL    HW225799   8.096   3.740  10.775
41925SOL     OW25800   8.054   2.826   9.433
41925SOL    HW125801   8.061   2.910   9.379
41925SOL    HW225802   8.100   2.839   9.521
41926SOL     OW25803   9.042   1.976  10.790
41926SOL    HW125804   9.024   2.043  10.718
41926SOL    HW225805   9.039   2.022  10.879
41927SOL     OW25806   7.570   2.505   9.873
41927SOL    HW125807   7.525   2.417   9.890
41927SOL    HW225808   7.569   2.559   9.957
41928SOL     OW25809   9.290   3.629   9.669
41928SOL    HW125810   9.344   3.600   9.749
41928SOL    HW225811   9.320   3.719   9.640
41929SOL     OW25812   7.475   3.458   9.427
41929SOL    HW125813   7.456   3.362   9.448
41929SOL    HW225814   7.442   3.516   9.502
41930SOL     OW25815   9.137   2.784   9.922
41930SOL    HW125816   9.232   2.755   9.930
41930SOL    HW225817   9.129   2.849   9.847
41931SOL     OW25818   9.089   2.970   9.742
41931SOL    HW125819   9.175   2.972   9.690
41931SOL    HW225820   9.103   3.017   9.830
41932SOL     OW25821   7.561   2.599  10.907
41932SOL    HW125822   7.649   2.586  10.952
41932SOL    HW225823   7.548   2.696  10.885
41933SOL     OW25824   8.061   3.227  10.036
41933SOL    HW125825   8.012   3.140  10.045
41933SOL    HW225826   8.038   3.270   9.949
41934SOL     OW25827   8.741   3.090  10.733
41934SOL    HW125828   8.778   3.017  10.675
41934SOL    HW225829   8.793   3.095  10.818
41935SOL     OW25830   8.257   1.866   9.812
41935SOL    HW125831   8.297   1.957   9.803
41935SOL    HW225832   8.157   1.874   9.818
41936SOL     OW25833   7.645   2.838  10.574
41936SOL    HW125834   7.734   2.793  10.560
41936SOL    HW225835   7.572   2.773  10.555
41937SOL     OW25836   8.973   2.861   9.500
41937SOL    HW125837   8.910   2.785   9.513
41937SOL    HW225838   9.021   2.879   9.586
41938SOL     OW25839   8.635   3.654  10.926
41938SOL    HW125840   8.659   3.714  10.850
41938SOL    HW225841   8.642   3.559  10.896
41939SOL     OW25842   7.765   2.113  11.111
41939SOL    HW125843   7.836   2.184  11.117
41939SOL    HW225844   7.677   2.152  11.139
41940SOL     OW25845   8.914   3.279  10.263
41940SOL    HW125846   8.855   3.285  10.343
41940SOL    HW225847   8.899   3.191  10.217
41941SOL     OW25848   9.115   3.576   9.882
41941SOL    HW125849   9.074   3.553   9.794
41941SOL    HW225850   9.097   3.502   9.947
41942SOL     OW25851   8.046   2.591   9.580
41942SOL    HW125852   8.070   2.660   9.512
41942SOL    HW225853   7.968   2.624   9.634
41943SOL     OW25854   8.729   2.207  10.254
41943SOL    HW125855   8.643   2.157  10.241
41943SOL    HW225856   8.791   2.153  10.310
41944SOL     OW25857   9.024   3.524   9.617
41944SOL    HW125858   9.113   3.570   9.620
41944SOL    HW225859   9.003   3.500   9.522
41945SOL     OW25860   8.255   2.467  10.775
41945SOL    HW125861   8.208   2.464  10.864
41945SOL    HW225862   8.204   2.412  10.709
41946SOL     OW25863   8.842   2.331  10.984
41946SOL    HW125864   8.822   2.374  11.072
41946SOL    HW225865   8.920   2.269  10.993
41947SOL     OW25866   8.421   2.752  10.882
41947SOL    HW125867   8.467   2.668  10.853
41947SOL    HW225868   8.365   2.786  10.807
41948SOL     OW25869   8.439   2.272  10.552
41948SOL    HW125870   8.362   2.306  10.606
41948SOL    HW225871   8.405   2.221  10.473
41949SOL     OW25872   8.489   2.563   9.739
41949SOL    HW125873   8.515   2.559   9.835
41949SOL    HW225874   8.404   2.512   9.725
41950SOL     OW25875   7.524   2.673  10.099
41950SOL    HW125876   7.623   2.661  10.108
41950SOL    HW225877   7.500   2.768  10.120
41951SOL     OW25878   7.578   3.683  10.881
41951SOL    HW125879   7.568   3.668  10.980
41951SOL    HW225880   7.492   3.719  10.845
41952SOL     OW25881   8.313   2.210   9.505
41952SOL    HW125882   8.372   2.273   9.456
41952SOL    HW225883   8.332   2.116   9.476
41953SOL     OW25884   9.167   2.447  11.141
41953SOL    HW125885   9.141   2.536  11.105
41953SOL    HW225886   9.165   2.379  11.068
41954SOL     OW25887   8.810   3.006   9.855
41954SOL    HW125888   8.893   2.977   9.807
41954SOL    HW225889   8.761   3.073   9.799
41955SOL     OW25890   7.998   2.058  10.195
41955SOL    HW125891   7.993   2.053  10.295
41955SOL    HW225892   8.000   2.154  10.166
41956SOL     OW25893   8.456   3.318   9.787
41956SOL    HW125894   8.410   3.390   9.735
41956SOL    HW225895   8.452   3.338   9.885
41957SOL     OW25896   7.799   3.663  10.163
41957SOL    HW125897   7.849   3.577  10.169
41957SOL    HW225898   7.864   3.740  10.160
41958SOL     OW25899   9.243   2.928  10.183
41958SOL    HW125900   9.181   2.913  10.107
41958SOL    HW225901   9.191   2.939  10.268
41959SOL     OW25902   8.675   3.412  10.816
41959SOL    HW125903   8.681   3.335  10.880
41959SOL    HW225904   8.623   3.386  10.736
41960SOL     OW25905   7.769   2.805   9.552
41960SOL    HW125906   7.851   2.844   9.510
41960SOL    HW225907   7.742   2.723   9.503
41961SOL     OW25908   8.906   2.597  10.038
41961SOL    HW125909   8.901   2.532  10.113
41961SOL    HW225910   8.986   2.656  10.051
41962SOL     OW25911   7.909   3.128  11.037
41962SOL    HW125912   7.859   3.129  10.951
41962SOL    HW225913   7.846   3.110  11.113
41963SOL     OW25914   8.559   3.638   9.547
41963SOL    HW125915   8.499   3.576   9.597
41963SOL    HW225916   8.590   3.594   9.462
41964SOL     OW25917   7.650   2.147  10.808
41964SOL    HW125918   7.570   2.207  10.795
41964SOL    HW225919   7.640   2.098  10.894
41965SOL     OW25920   9.080   3.239   9.391
41965SOL    HW125921   9.048   3.333   9.381
41965SOL    HW225922   9.004   3.176   9.379
41966SOL     OW25923   7.912   3.605   9.633
41966SOL    HW125924   7.945   3.644   9.719
41966SOL    HW225925   7.988   3.598   9.568
41967SOL     OW25926   8.848   1.969   9.736
41967SOL    HW125927   8.824   1.932   9.646
41967SOL    HW225928   8.947   1.985   9.740
41968SOL     OW25929   7.697   3.647  10.551
41968SOL    HW125930   7.754   3.582  10.601
41968SOL    HW225931   7.681   3.614  10.458
41969SOL     OW25932   8.388   3.560  10.214
41969SOL    HW125933   8.468   3.503  10.235
41969SOL    HW225934   8.339   3.520  10.137
41970SOL     OW25935   7.830   2.562   9.790
41970SOL    HW125936   7.875   2.472   9.787
41970SOL    HW225937   7.736   2.551   9.823
41971SOL     OW25938   8.995   2.084  11.039
41971SOL    HW125939   8.990   2.121  11.131
41971SOL    HW225940   8.923   2.015  11.027
41972SOL     OW25941   8.062   1.984   9.427
41972SOL    HW125942   8.160   1.962   9.434
41972SOL    HW225943   8.031   1.967   9.334
41973SOL     OW25944   8.229   2.126  11.059
41973SOL    HW125945   8.296   2.065  11.102
41973SOL    HW225946   8.156   2.145  11.124
41974SOL     OW25947   8.336   3.376  10.505
41974SOL    HW125948   8.313   3.351  10.411
41974SOL    HW225949   8.397   3.307  10.544
41975SOL     OW25950   8.799   2.452  10.743
41975SOL    HW125951   8.827   2.409  10.828
41975SOL    HW225952   8.824   2.548  10.744
41976SOL     OW25953   8.251   3.264  10.234
41976SOL    HW125954   8.341   3.278  10.192
41976SOL    HW225955   8.180   3.266  10.163
41977SOL     OW25956   8.370   2.365  10.209
41977SOL    HW125957   8.345   2.356  10.113
41977SOL    HW225958   8.418   2.283  10.240
41978SOL     OW25959   7.987   1.926   9.822
41978SOL    HW125960   7.906   1.927   9.880
41978SOL    HW225961   7.990   2.009   9.767
41979SOL     OW25962   8.882   3.050   9.351
41979SOL    HW125963   8.914   2.974   9.408
41979SOL    HW225964   8.790   3.077   9.381
41980SOL     OW25965   7.745   1.897   9.481
41980SOL    HW125966   7.794   1.981   9.460
41980SOL    HW225967   7.807   1.832   9.526
41981SOL     OW25968   8.383   2.098   9.790
41981SOL    HW125969   8.335   2.139   9.712
41981SOL    HW225970   8.482   2.096   9.771
41982SOL     OW25971   8.524   2.545  10.774
41982SOL    HW125972   8.444   2.484  10.777
41982SOL    HW225973   8.605   2.492  10.750
41983SOL     OW25974   8.675   3.432  10.103
41983SOL    HW125975   8.696   3.506  10.038
41983SOL    HW225976   8.743   3.432  10.176
41984SOL     OW25977   7.907   3.014  10.051
41984SOL    HW125978   7.836   2.987  10.116
41984SOL    HW225979   7.881   2.986   9.958
41985SOL     OW25980   8.719   3.659   9.901
41985SOL    HW125981   8.763   3.723   9.837
41985SOL    HW225982   8.669   3.711   9.971
41986SOL     OW25983   8.480   2.411   9.326
41986SOL    HW125984   8.439   2.493   9.287
41986SOL    HW225985   8.544   2.437   9.399
41987SOL     OW25986   7.526   2.418  10.696
41987SOL    HW125987   7.618   2.417  10.655
41987SOL    HW225988   7.520   2.492  10.763
41988SOL     OW25989   8.009   2.084  10.457
41988SOL    HW125990   8.047   2.000  10.494
41988SOL    HW225991   7.921   2.103  10.501
41989SOL     OW25992   8.314   2.316   9.952
41989SOL    HW125993   8.282   2.388   9.890
41989SOL    HW225994   8.338   2.235   9.899
41990SOL     OW25995   8.465   1.901  10.063
41990SOL    HW125996   8.393   1.906   9.994
41990SOL    HW225997   8.441   1.832  10.132
41991SOL     OW25998   8.877   3.035  10.177
41991SOL    HW125999   8.822   2.951  10.170
41991SOL    HW226000   8.903   3.064  10.085
41992SOL     OW26001   8.914   2.452  10.302
41992SOL    HW126002   8.884   2.357  10.309
41992SOL    HW226003   8.987   2.468  10.368
41993SOL     OW26004   9.305   2.695   9.687
41993SOL    HW126005   9.347   2.631   9.751
41993SOL    HW226006   9.267   2.644   9.609
41994SOL     OW26007   7.936   3.247   9.484
41994SOL    HW126008   7.849   3.232   9.531
41994SOL    HW226009   7.919   3.273   9.389
41995SOL     OW26010   9.112   3.142   9.967
41995SOL    HW126011   9.211   3.150   9.981
41995SOL    HW226012   9.067   3.226   9.998
41996SOL     OW26013   8.838   2.437   9.388
41996SOL    HW126014   8.784   2.416   9.469
41996SOL    HW226015   8.929   2.396   9.397
41997SOL     OW26016   7.975   2.118   9.638
41997SOL    HW126017   8.002   2.059   9.563
41997SOL    HW226018   7.975   2.213   9.607
41998SOL     OW26019   9.202   3.085  10.898
41998SOL    HW126020   9.293   3.046  10.885
41998SOL    HW226021   9.210   3.181  10.922
41999SOL     OW26022   8.512   3.209  10.650
41999SOL    HW126023   8.432   3.186  10.705
41999SOL    HW226024   8.595   3.183  10.699
42000SOL     OW26025   9.040   3.491  10.935
42000SOL    HW126026   9.067   3.525  10.845
42000SOL    HW226027   9.119   3.453  10.981
42001SOL     OW26028   8.559   3.057  10.410
42001SOL    HW126029   8.519   3.101  10.491
42001SOL    HW226030   8.518   3.094  10.327
42002SOL     OW26031   9.086   2.961  10.389
42002SOL    HW126032   9.091   3.042  10.448
42002SOL    HW226033   9.000   2.963  10.338
42003SOL     OW26034   8.363   1.951  10.712
42003SOL    HW126035   8.388   1.931  10.617
42003SOL    HW226036   8.435   2.007  10.754
42004SOL     OW26037   8.428   2.978  11.029
42004SOL    HW126038   8.329   2.984  11.039
42004SOL    HW226039   8.451   2.898  10.973
42005SOL     OW26040   8.153   2.912   9.678
42005SOL    HW126041   8.139   2.919   9.777
42005SOL    HW226042   8.237   2.861   9.660
42006SOL     OW26043   7.858   2.675  10.561
42006SOL    HW126044   7.944   2.687  10.611
42006SOL    HW226045   7.816   2.588  10.588
42007SOL     OW26046   8.722   2.248  10.572
42007SOL    HW126047   8.743   2.322  10.636
42007SOL    HW226048   8.633   2.265  10.529
42008SOL     OW26049   7.512   3.426  10.641
42008SOL    HW126050   7.466   3.508  10.607
42008SOL    HW226051   7.610   3.445  10.650
42009SOL     OW26052   7.815   2.962   9.811
42009SOL    HW126053   7.808   3.045   9.755
42009SOL    HW226054   7.819   2.882   9.751
42010SOL     OW26055   8.014   2.399  10.175
42010SOL    HW126056   8.026   2.465  10.101
42010SOL    HW226057   8.060   2.433  10.258
42011SOL     OW26058   8.700   3.210   9.698
42011SOL    HW126059   8.750   3.287   9.738
42011SOL    HW226060   8.605   3.212   9.730
42012SOL     OW26061   8.720   3.307  10.452
42012SOL    HW126062   8.767   3.320  10.539
42012SOL    HW226063   8.654   3.233  10.461
42013SOL     OW26064   9.030   2.501   9.782
42013SOL    HW126065   8.999   2.562   9.855
42013SOL    HW226066   9.080   2.553   9.713
42014SOL     OW26067   7.802   3.372  10.639
42014SOL    HW126068   7.781   3.328  10.552
42014SOL    HW226069   7.899   3.398  10.642
42015SOL     OW26070   7.850   2.613  10.908
42015SOL    HW126071   7.918   2.668  10.861
42015SOL    HW226072   7.890   2.525  10.935
42016SOL     OW26073   9.035   2.641  10.980
42016SOL    HW126074   8.943   2.679  10.975
42016SOL    HW226075   9.095   2.688  10.915
42017SOL     OW26076   8.461   1.967  11.080
42017SOL    HW126077   8.467   2.052  11.028
42017SOL    HW226078   8.493   1.891  11.023
42018SOL     OW26079   7.952   1.912  11.050
42018SOL    HW126080   7.910   1.855  10.980
42018SOL    HW226081   7.886   1.981  11.082
42019SOL     OW26082   8.021   2.732  10.339
42019SOL    HW126083   8.065   2.821  10.330
42019SOL    HW226084   7.958   2.732  10.416
42020SOL     OW26085   8.808   2.724  10.355
42020SOL    HW126086   8.733   2.724  10.289
42020SOL    HW226087   8.845   2.632  10.364
42021SOL     OW26088   8.657   2.387   9.585
42021SOL    HW126089   8.670   2.303   9.639
42021SOL    HW226090   8.628   2.461   9.645
42022SOL     OW26091   7.755   2.075  10.541
42022SOL    HW126092   7.732   2.112  10.631
42022SOL    HW226093   7.725   1.980  10.535
42023SOL     OW26094   7.485   3.172  10.592
42023SOL    HW126095   7.538   3.123  10.660
42023SOL    HW226096   7.507   3.270  10.597
42024SOL     OW26097   8.180   2.496  10.374
42024SOL    HW126098   8.239   2.470  10.298
42024SOL    HW226099   8.152   2.592  10.363
42025SOL     OW26100   9.176   2.797  11.164
42025SOL    HW126101   9.130   2.790  11.075
42025SOL    HW226102   9.114   2.841  11.230
42026SOL     OW26103   7.755   1.925   9.928
42026SOL    HW126104   7.744   2.019   9.961
42026SOL    HW226105   7.750   1.862  10.005
42027SOL     OW26106   9.070   2.229   9.684
42027SOL    HW126107   9.072   2.153   9.748
42027SOL    HW226108   9.022   2.306   9.724
42028SOL     OW26109   8.471   2.628  10.276
42028SOL    HW126110   8.486   2.649  10.372
42028SOL    HW226111   8.441   2.533  10.267
42029SOL     OW26112   8.428   3.435  11.010
42029SOL    HW126113   8.408   3.479  10.922
42029SOL    HW226114   8.467   3.344  10.994
42030SOL     OW26115   9.307   3.380  10.915
42030SOL    HW126116   9.321   3.407  10.820
42030SOL    HW226117   9.390   3.402  10.968
42031SOL     OW26118   7.798   2.760  11.114
42031SOL    HW126119   7.874   2.804  11.162
42031SOL    HW226120   7.833   2.713  11.032
42032SOL     OW26121   8.988   2.136   9.435
42032SOL    HW126122   8.927   2.061   9.458
42032SOL    HW226123   9.010   2.188   9.518
42033SOL     OW26124   8.751   2.700   9.352
42033SOL    HW126125   8.785   2.607   9.367
42033SOL    HW226126   8.769   2.727   9.257
42034SOL     OW26127   8.516   3.195  10.159
42034SOL    HW126128   8.523   3.111  10.104
42034SOL    HW226129   8.578   3.264  10.123
42035SOL     OW26130   7.767   2.672  10.259
42035SOL    HW126131   7.860   2.708  10.264
42035SOL    HW226132   7.761   2.587  10.311
42036SOL     OW26133   7.787   2.371  10.316
42036SOL    HW126134   7.735   2.288  10.299
42036SOL    HW226135   7.864   2.376  10.252
42037SOL     OW26136   8.586   2.242  10.988
42037SOL    HW126137   8.541   2.305  11.052
42037SOL    HW226138   8.679   2.273  10.971
42038SOL     OW26139   8.608   2.069  10.787
42038SOL    HW126140   8.608   2.133  10.864
42038SOL    HW226141   8.636   2.117  10.704
42039SOL     OW26142   7.456   3.188   9.510
42039SOL    HW126143   7.363   3.209   9.479
42039SOL    HW226144   7.466   3.089   9.523
42040SOL     OW26145   7.536   3.663  10.237
42040SOL    HW126146   7.494   3.577  10.210
42040SOL    HW226147   7.630   3.666  10.203
42041SOL     OW26148   7.952   3.430  10.220
42041SOL    HW126149   8.018   3.504  10.229
42041SOL    HW226150   7.996   3.351  10.178
42042SOL     OW26151   8.450   2.658  10.548
42042SOL    HW126152   8.491   2.626  10.634
42042SOL    HW226153   8.354   2.631  10.545
42043SOL     OW26154   7.488   2.406  10.424
42043SOL    HW126155   7.573   2.373  10.383
42043SOL    HW226156   7.501   2.421  10.522
42044SOL     OW26157   7.637   2.382  11.032
42044SOL    HW126158   7.696   2.342  10.962
42044SOL    HW226159   7.579   2.453  10.991
42045SOL     OW26160   8.817   2.812  10.970
42045SOL    HW126161   8.856   2.901  10.990
42045SOL    HW226162   8.827   2.792  10.873
42046SOL     OW26163   8.263   2.434   9.635
42046SOL    HW126164   8.270   2.345   9.589
42046SOL    HW226165   8.169   2.468   9.627
42047SOL     OW26166   9.105   2.466  10.516
42047SOL    HW126167   9.067   2.397  10.578
42047SOL    HW226168   9.187   2.430  10.472
42048SOL     OW26169   7.700   3.426  11.054
42048SOL    HW126170   7.670   3.483  11.130
42048SOL    HW226171   7.693   3.329  11.080
42049SOL     OW26172   8.119   2.326  10.579
42049SOL    HW126173   8.085   2.237  10.549
42049SOL    HW226174   8.145   2.380  10.499
42050SOL     OW26175   8.378   3.540  10.775
42050SOL    HW126176   8.354   3.522  10.680
42050SOL    HW226177   8.408   3.634  10.785
42051SOL     OW26178   7.921   2.362   9.501
42051SOL    HW126179   7.982   2.442   9.505
42051SOL    HW226180   7.826   2.393   9.508
42052SOL     OW26181   7.607   2.999  10.776
42052SOL    HW126182   7.629   2.938  10.852
42052SOL    HW226183   7.617   2.950  10.690
42053SOL     OW26184   8.795   2.921  10.544
42053SOL    HW126185   8.819   2.858  10.470
42053SOL    HW226186   8.705   2.961  10.526
42054SOL     OW26187   8.750   2.717   9.619
42054SOL    HW126188   8.664   2.686   9.661
42054SOL    HW226189   8.746   2.703   9.520
42055SOL     OW26190   9.207   3.609  10.464
42055SOL    HW126191   9.268   3.639  10.391
42055SOL    HW226192   9.169   3.520  10.442
42056SOL     OW26193   8.700   3.593  10.438
42056SOL    HW126194   8.784   3.598  10.384
42056SOL    HW226195   8.677   3.497  10.456
42057SOL     OW26196   7.531   3.120  10.332
42057SOL    HW126197   7.526   3.119  10.432
42057SOL    HW226198   7.448   3.079  10.294
42058SOL     OW26199   8.136   3.524  11.026
42058SOL    HW126200   8.080   3.605  11.035
42058SOL    HW226201   8.188   3.528  10.940
42059SOL     OW26202   9.174   1.997   9.833
42059SOL    HW126203   9.247   1.980   9.766
42059SOL    HW226204   9.143   1.910   9.871
42060SOL     OW26205   8.836   3.435   9.787
42060SOL    HW126206   8.903   3.447   9.713
42060SOL    HW226207   8.796   3.524   9.810
42061SOL     OW26208   7.578   3.656  11.161
42061SOL    HW126209   7.537   3.582  11.214
42061SOL    HW226210   7.642   3.707  11.219
42062SOL     OW26211   8.728   2.789   9.982
42062SOL    HW126212   8.788   2.708   9.984
42062SOL    HW226213   8.768   2.858   9.922
42063SOL     OW26214   8.278   3.135  10.732
42063SOL    HW126215   8.273   3.168  10.827
42063SOL    HW226216   8.192   3.154  10.686
42064SOL     OW26217   8.120   3.478   9.464
42064SOL    HW126218   8.129   3.488   9.365
42064SOL    HW226219   8.080   3.389   9.485
42065SOL     OW26220   9.098   3.582  10.704
42065SOL    HW126221   9.151   3.592  10.620
42065SOL    HW226222   9.071   3.672  10.738
42066SOL     OW26223   9.289   2.037  10.273
42066SOL    HW126224   9.328   1.952  10.237
42066SOL    HW226225   9.191   2.039  10.254
42067SOL     OW26226   7.711   2.188  10.030
42067SOL    HW126227   7.632   2.239   9.996
42067SOL    HW226228   7.702   2.173  10.128
42068SOL     OW26229   8.642   3.474   9.341
42068SOL    HW126230   8.648   3.381   9.378
42068SOL    HW226231   8.583   3.474   9.261
42069SOL     OW26232   8.270   2.864  10.682
42069SOL    HW126233   8.310   2.863  10.590
42069SOL    HW226234   8.280   2.956  10.722
42070SOL     OW26235   8.364   2.772   9.601
42070SOL    HW126236   8.427   2.810   9.533
42070SOL    HW226237   8.404   2.689   9.640
42071SOL     OW26238   8.952   3.469   9.354
42071SOL    HW126239   8.860   3.506   9.361
42071SOL    HW226240   8.990   3.489   9.264
42072SOL     OW26241   7.820   3.150  10.800
42072SOL    HW126242   7.807   3.243  10.766
42072SOL    HW226243   7.736   3.098  10.787
42073SOL     OW26244   9.062   3.154  10.599
42073SOL    HW126245   9.122   3.157  10.679
42073SOL    HW226246   8.987   3.218  10.612
42074SOL     OW26247   8.487   2.960  10.006
42074SOL    HW126248   8.417   2.913  10.060
42074SOL    HW226249   8.546   2.892   9.963
42075SOL     OW26250   8.462   2.098  10.281
42075SOL    HW126251   8.454   2.062  10.188
42075SOL    HW226252   8.460   2.022  10.346
42076SOL     OW26253   8.038   3.349   9.801
42076SOL    HW126254   8.080   3.291   9.731
42076SOL    HW226255   7.994   3.428   9.757
42077SOL     OW26256   9.157   2.247  10.691
42077SOL    HW126257   9.230   2.316  10.695
42077SOL    HW226258   9.185   2.172  10.632
42078SOL     OW26259   7.703   3.210   9.600
42078SOL    HW126260   7.607   3.211   9.573
42078SOL    HW226261   7.715   3.263   9.684
42079SOL     OW26262   7.553   2.875  11.036
42079SOL    HW126263   7.476   2.842  11.090
42079SOL    HW226264   7.638   2.845  11.078
42080SOL     OW26265   8.120   2.065  10.799
42080SOL    HW126266   8.210   2.049  10.759
42080SOL    HW226267   8.128   2.070  10.898
42081SOL     OW26268   7.523   2.207   9.343
42081SOL    HW126269   7.431   2.179   9.314
42081SOL    HW226270   7.554   2.284   9.287
42082SOL     OW26271   8.888   2.718  10.708
42082SOL    HW126272   8.831   2.770  10.645
42082SOL    HW226273   8.984   2.730  10.684
42083SOL     OW26274   7.520   2.028   9.628
42083SOL    HW126275   7.503   2.111   9.574
42083SOL    HW226276   7.610   1.991   9.606
42084SOL     OW26277   8.631   3.197   9.429
42084SOL    HW126278   8.532   3.186   9.431
42084SOL    HW226279   8.665   3.212   9.522
42085SOL     OW26280   8.061   2.704  10.741
42085SOL    HW126281   8.117   2.785  10.724
42085SOL    HW226282   8.120   2.624  10.744
42086SOL     OW26283   8.941   3.629  10.269
42086SOL    HW126284   8.974   3.693  10.200
42086SOL    HW226285   9.007   3.623  10.344
42087SOL     OW26286   8.164   2.427  11.018
42087SOL    HW126287   8.183   2.492  11.092
42087SOL    HW226288   8.224   2.347  11.027
42088SOL     OW26289   8.898   3.082  10.943
42088SOL    HW126290   8.889   3.072  11.042
42088SOL    HW226291   8.994   3.075  10.917
42089SOL     OW26292   7.838   3.603  10.870
42089SOL    HW126293   7.747   3.644  10.868
42089SOL    HW226294   7.831   3.509  10.902
42090SOL     OW26295   9.122   2.745  10.564
42090SOL    HW126296   9.095   2.656  10.527
42090SOL    HW226297   9.123   2.813  10.491
42091SOL     OW26298   8.673   2.187   9.759
42091SOL    HW126299   8.738   2.113   9.748
42091SOL    HW226300   8.693   2.237   9.843
42092SOL     OW26301   8.042   2.607   9.962
42092SOL    HW126302   8.092   2.692   9.943
42092SOL    HW226303   7.954   2.609   9.914
42093SOL     OW26304   9.225   2.204  10.952
42093SOL    HW126305   9.208   2.235  10.858
42093SOL    HW226306   9.141   2.167  10.990
42094SOL     OW26307   9.178   2.796  10.827
42094SOL    HW126308   9.216   2.887  10.842
42094SOL    HW226309   9.170   2.779  10.728
42095SOL     OW26310   8.307   3.236   9.326
42095SOL    HW126311   8.261   3.251   9.414
42095SOL    HW226312   8.351   3.321   9.296
42096SOL     OW26313   8.109   3.652  10.263
42096SOL    HW126314   8.063   3.740  10.250
42096SOL    HW226315   8.208   3.664  10.256
42097SOL     OW26316   8.307   2.818  10.171
42097SOL    HW126317   8.361   2.749  10.219
42097SOL    HW226318   8.275   2.887  10.237
42098SOL     OW26319   8.531   2.846   9.397
42098SOL    HW126320   8.508   2.899   9.315
42098SOL    HW226321   8.612   2.790   9.378
42099SOL     OW26322   9.309   3.431  10.161
42099SOL    HW126323   9.238   3.419  10.091
42099SOL    HW226324   9.310   3.352  10.221
42100SOL     OW26325   7.669   3.176  11.154
42100SOL    HW126326   7.604   3.103  11.133
42100SOL    HW226327   7.673   3.190  11.252
42101SOL     OW26328   7.527   3.102   9.963
42101SOL    HW126329   7.526   3.055  10.051
42101SOL    HW226330   7.609   3.074   9.912
42102SOL     OW26331   8.120   3.253  10.934
42102SOL    HW126332   8.042   3.203  10.972
42102SOL    HW226333   8.117   3.348  10.965
42103SOL     OW26334   9.272   2.054  10.537
42103SOL    HW126335   9.268   1.964  10.581
42103SOL    HW226336   9.275   2.043  10.438
42104SOL     OW26337   7.876   2.286   9.830
42104SOL    HW126338   7.906   2.214   9.768
42104SOL    HW226339   7.837   2.246   9.913
42105SOL     OW26340   9.153   3.349  10.414
42105SOL    HW126341   9.060   3.324  10.387
42105SOL    HW226342   9.179   3.299  10.496
42106SOL     OW26343   7.765   2.409  10.590
42106SOL    HW126344   7.803   2.350  10.662
42106SOL    HW226345   7.805   2.383  10.502
42107SOL     OW26346   8.260   3.448   9.997
42107SOL    HW126347   8.292   3.458   9.903
42107SOL    HW226348   8.181   3.386   9.999
42108SOL     OW26349   8.872   2.076  10.422
42108SOL    HW126350   8.924   2.011  10.477
42108SOL    HW226351   8.823   2.139  10.483
42109SOL     OW26352   8.449   1.896  10.464
42109SOL    HW126353   8.386   1.824  10.433
42109SOL    HW226354   8.542   1.860  10.464
42110SOL     OW26355   8.218   3.192   9.611
42110SOL    HW126356   8.172   3.105   9.628
42110SOL    HW226357   8.309   3.189   9.652
42111SOL     OW26358   8.066   3.429  10.594
42111SOL    HW126359   8.061   3.511  10.651
42111SOL    HW226360   8.155   3.426  10.549
42112SOL     OW26361   8.800   1.914   9.478
42112SOL    HW126362   8.835   1.873   9.394
42112SOL    HW226363   8.710   1.876   9.498
42113SOL     OW26364   8.748   2.315  10.001
42113SOL    HW126365   8.689   2.395  10.005
42113SOL    HW226366   8.763   2.280  10.094
42114SOL     OW26367   9.041   2.083  10.192
42114SOL    HW126368   8.957   2.082  10.246
42114SOL    HW226369   9.043   2.166  10.136
42115SOL     OW26370   7.487   2.939   9.610
42115SOL    HW126371   7.586   2.928   9.601
42115SOL    HW226372   7.447   2.853   9.642
42116SOL     OW26373   8.323   3.508   9.647
42116SOL    HW126374   8.246   3.473   9.593
42116SOL    HW226375   8.291   3.579   9.709
42117SOL     OW26376   7.678   2.490  11.285
42117SOL    HW126377   7.585   2.488  11.322
42117SOL    HW226378   7.679   2.451  11.193
42118SOL     OW26379   7.673   2.137  12.168
42118SOL    HW126380   7.708   2.120  12.260
42118SOL    HW226381   7.585   2.092  12.156
42119SOL     OW26382   7.467   2.230  11.819
42119SOL    HW126383   7.385   2.273  11.858
42119SOL    HW226384   7.439   2.157  11.756
42120SOL     OW26385   8.017   3.137  12.337
42120SOL    HW126386   7.924   3.130  12.300
42120SOL    HW226387   8.028   3.226  12.381
42121SOL     OW26388   9.003   3.373  11.875
42121SOL    HW126389   8.946   3.357  11.956
42121SOL    HW226390   8.944   3.383  11.795
42122SOL     OW26391   8.583   2.565  11.889
42122SOL    HW126392   8.640   2.643  11.864
42122SOL    HW226393   8.523   2.591  11.965
42123SOL     OW26394   9.203   2.469  11.403
42123SOL    HW126395   9.191   2.456  11.304
42123SOL    HW226396   9.173   2.388  11.452
42124SOL     OW26397   8.216   3.006  12.195
42124SOL    HW126398   8.138   3.023  12.255
42124SOL    HW226399   8.250   3.093  12.159
42125SOL     OW26400   8.133   2.874  11.837
42125SOL    HW126401   8.202   2.858  11.907
42125SOL    HW226402   8.060   2.931  11.875
42126SOL     OW26403   7.783   3.297  12.233
42126SOL    HW126404   7.705   3.266  12.180
42126SOL    HW226405   7.841   3.355  12.176
42127SOL     OW26406   8.908   3.367  12.511
42127SOL    HW126407   8.932   3.461  12.537
42127SOL    HW226408   8.892   3.313  12.593
42128SOL     OW26409   7.886   2.254  12.671
42128SOL    HW126410   7.968   2.198  12.680
42128SOL    HW226411   7.805   2.196  12.675
42129SOL     OW26412   9.051   2.309  11.909
42129SOL    HW126413   8.977   2.355  11.859
42129SOL    HW226414   9.102   2.377  11.962
42130SOL     OW26415   7.679   3.575  11.655
42130SOL    HW126416   7.713   3.652  11.709
42130SOL    HW226417   7.723   3.575  11.565
42131SOL     OW26418   7.678   3.296  11.710
42131SOL    HW126419   7.652   3.392  11.710
42131SOL    HW226420   7.607   3.242  11.755
42132SOL     OW26421   7.688   2.953  12.058
42132SOL    HW126422   7.702   2.869  12.110
42132SOL    HW226423   7.633   3.017  12.113
42133SOL     OW26424   8.068   3.648  12.611
42133SOL    HW126425   7.976   3.631  12.646
42133SOL    HW226426   8.096   3.740  12.637
42134SOL     OW26427   8.054   2.826  11.295
42134SOL    HW126428   8.061   2.910  11.241
42134SOL    HW226429   8.100   2.839  11.383
42135SOL     OW26430   9.042   1.976  12.652
42135SOL    HW126431   9.024   2.043  12.580
42135SOL    HW226432   9.039   2.022  12.741
42136SOL     OW26433   7.570   2.505  11.735
42136SOL    HW126434   7.525   2.417  11.752
42136SOL    HW226435   7.569   2.559  11.819
42137SOL     OW26436   9.290   3.629  11.531
42137SOL    HW126437   9.344   3.600  11.611
42137SOL    HW226438   9.320   3.719  11.502
42138SOL     OW26439   7.475   3.458  11.289
42138SOL    HW126440   7.456   3.362  11.310
42138SOL    HW226441   7.442   3.516  11.364
42139SOL     OW26442   9.137   2.784  11.784
42139SOL    HW126443   9.232   2.755  11.792
42139SOL    HW226444   9.129   2.849  11.709
42140SOL     OW26445   9.089   2.970  11.604
42140SOL    HW126446   9.175   2.972  11.552
42140SOL    HW226447   9.103   3.017  11.692
42141SOL     OW26448   8.061   3.227  11.898
42141SOL    HW126449   8.012   3.140  11.907
42141SOL    HW226450   8.038   3.270  11.811
42142SOL     OW26451   8.257   1.866  11.674
42142SOL    HW126452   8.297   1.957  11.665
42142SOL    HW226453   8.157   1.874  11.680
42143SOL     OW26454   7.645   2.838  12.436
42143SOL    HW126455   7.734   2.793  12.422
42143SOL    HW226456   7.572   2.773  12.417
42144SOL     OW26457   8.973   2.861  11.362
42144SOL    HW126458   8.910   2.785  11.375
42144SOL    HW226459   9.021   2.879  11.448
42145SOL     OW26460   7.765   2.113  12.973
42145SOL    HW126461   7.836   2.184  12.979
42145SOL    HW226462   7.677   2.152  13.001
42146SOL     OW26463   8.914   3.279  12.125
42146SOL    HW126464   8.855   3.285  12.205
42146SOL    HW226465   8.899   3.191  12.079
42147SOL     OW26466   9.115   3.576  11.744
42147SOL    HW126467   9.074   3.553  11.656
42147SOL    HW226468   9.097   3.502  11.809
42148SOL     OW26469   8.046   2.591  11.442
42148SOL    HW126470   8.070   2.660  11.374
42148SOL    HW226471   7.968   2.624  11.496
42149SOL     OW26472   8.729   2.207  12.116
42149SOL    HW126473   8.643   2.157  12.103
42149SOL    HW226474   8.791   2.153  12.172
42150SOL     OW26475   9.024   3.524  11.479
42150SOL    HW126476   9.113   3.570  11.482
42150SOL    HW226477   9.003   3.500  11.384
42151SOL     OW26478   8.255   2.467  12.637
42151SOL    HW126479   8.208   2.464  12.726
42151SOL    HW226480   8.204   2.412  12.571
42152SOL     OW26481   8.439   2.272  12.414
42152SOL    HW126482   8.362   2.306  12.468
42152SOL    HW226483   8.405   2.221  12.335
42153SOL     OW26484   8.489   2.563  11.601
42153SOL    HW126485   8.515   2.559  11.697
42153SOL    HW226486   8.404   2.512  11.587
42154SOL     OW26487   7.524   2.673  11.961
42154SOL    HW126488   7.623   2.661  11.970
42154SOL    HW226489   7.500   2.768  11.982
42155SOL     OW26490   7.578   3.683  12.743
42155SOL    HW126491   7.568   3.668  12.842
42155SOL    HW226492   7.492   3.719  12.707
42156SOL     OW26493   8.313   2.210  11.367
42156SOL    HW126494   8.372   2.273  11.318
42156SOL    HW226495   8.332   2.116  11.338
42157SOL     OW26496   8.810   3.006  11.717
42157SOL    HW126497   8.893   2.977  11.669
42157SOL    HW226498   8.761   3.073  11.661
42158SOL     OW26499   7.998   2.058  12.057
42158SOL    HW126500   7.993   2.053  12.157
42158SOL    HW226501   8.000   2.154  12.028
42159SOL     OW26502   8.456   3.318  11.649
42159SOL    HW126503   8.410   3.390  11.597
42159SOL    HW226504   8.452   3.338  11.747
42160SOL     OW26505   7.799   3.663  12.025
42160SOL    HW126506   7.849   3.577  12.031
42160SOL    HW226507   7.864   3.740  12.022
42161SOL     OW26508   9.243   2.928  12.045
42161SOL    HW126509   9.181   2.913  11.969
42161SOL    HW226510   9.191   2.939  12.130
42162SOL     OW26511   7.769   2.805  11.414
42162SOL    HW126512   7.851   2.844  11.372
42162SOL    HW226513   7.742   2.723  11.365
42163SOL     OW26514   8.906   2.597  11.900
42163SOL    HW126515   8.901   2.532  11.975
42163SOL    HW226516   8.986   2.656  11.913
42164SOL     OW26517   8.559   3.638  11.409
42164SOL    HW126518   8.499   3.576  11.459
42164SOL    HW226519   8.590   3.594  11.324
42165SOL     OW26520   7.650   2.147  12.670
42165SOL    HW126521   7.570   2.207  12.657
42165SOL    HW226522   7.640   2.098  12.756
42166SOL     OW26523   9.080   3.239  11.253
42166SOL    HW126524   9.048   3.333  11.243
42166SOL    HW226525   9.004   3.176  11.241
42167SOL     OW26526   8.848   1.969  11.598
42167SOL    HW126527   8.824   1.932  11.508
42167SOL    HW226528   8.947   1.985  11.602
42168SOL     OW26529   7.697   3.647  12.413
42168SOL    HW126530   7.754   3.582  12.463
42168SOL    HW226531   7.681   3.614  12.320
42169SOL     OW26532   8.388   3.560  12.076
42169SOL    HW126533   8.468   3.503  12.097
42169SOL    HW226534   8.339   3.520  11.999
42170SOL     OW26535   7.830   2.562  11.652
42170SOL    HW126536   7.875   2.472  11.649
42170SOL    HW226537   7.736   2.551  11.685
42171SOL     OW26538   8.062   1.984  11.289
42171SOL    HW126539   8.160   1.962  11.296
42171SOL    HW226540   8.031   1.967  11.196
42172SOL     OW26541   8.336   3.376  12.367
42172SOL    HW126542   8.313   3.351  12.273
42172SOL    HW226543   8.397   3.307  12.406
42173SOL     OW26544   8.251   3.264  12.096
42173SOL    HW126545   8.341   3.278  12.054
42173SOL    HW226546   8.180   3.266  12.025
42174SOL     OW26547   8.370   2.365  12.071
42174SOL    HW126548   8.345   2.356  11.975
42174SOL    HW226549   8.418   2.283  12.102
42175SOL     OW26550   7.987   1.926  11.684
42175SOL    HW126551   7.906   1.927  11.742
42175SOL    HW226552   7.990   2.009  11.629
42176SOL     OW26553   8.882   3.050  11.213
42176SOL    HW126554   8.914   2.974  11.270
42176SOL    HW226555   8.790   3.077  11.243
42177SOL     OW26556   7.745   1.897  11.343
42177SOL    HW126557   7.794   1.981  11.322
42177SOL    HW226558   7.807   1.832  11.388
42178SOL     OW26559   8.383   2.098  11.652
42178SOL    HW126560   8.335   2.139  11.574
42178SOL    HW226561   8.482   2.096  11.633
42179SOL     OW26562   8.675   3.432  11.965
42179SOL    HW126563   8.696   3.506  11.900
42179SOL    HW226564   8.743   3.432  12.038
42180SOL     OW26565   7.907   3.014  11.913
42180SOL    HW126566   7.836   2.987  11.978
42180SOL    HW226567   7.881   2.986  11.820
42181SOL     OW26568   8.719   3.659  11.763
42181SOL    HW126569   8.763   3.723  11.699
42181SOL    HW226570   8.669   3.711  11.833
42182SOL     OW26571   8.480   2.411  11.188
42182SOL    HW126572   8.439   2.493  11.149
42182SOL    HW226573   8.544   2.437  11.261
42183SOL     OW26574   7.526   2.418  12.558
42183SOL    HW126575   7.618   2.417  12.517
42183SOL    HW226576   7.520   2.492  12.625
42184SOL     OW26577   8.009   2.084  12.319
42184SOL    HW126578   8.047   2.000  12.356
42184SOL    HW226579   7.921   2.103  12.363
42185SOL     OW26580   8.314   2.316  11.814
42185SOL    HW126581   8.282   2.388  11.752
42185SOL    HW226582   8.338   2.235  11.761
42186SOL     OW26583   8.465   1.901  11.925
42186SOL    HW126584   8.393   1.906  11.856
42186SOL    HW226585   8.441   1.832  11.994
42187SOL     OW26586   8.877   3.035  12.039
42187SOL    HW126587   8.822   2.951  12.032
42187SOL    HW226588   8.903   3.064  11.947
42188SOL     OW26589   8.914   2.452  12.164
42188SOL    HW126590   8.884   2.357  12.171
42188SOL    HW226591   8.987   2.468  12.230
42189SOL     OW26592   9.305   2.695  11.549
42189SOL    HW126593   9.347   2.631  11.613
42189SOL    HW226594   9.267   2.644  11.471
42190SOL     OW26595   7.936   3.247  11.346
42190SOL    HW126596   7.849   3.232  11.393
42190SOL    HW226597   7.919   3.273  11.251
42191SOL     OW26598   9.112   3.142  11.829
42191SOL    HW126599   9.211   3.150  11.843
42191SOL    HW226600   9.067   3.226  11.860
42192SOL     OW26601   8.838   2.437  11.250
42192SOL    HW126602   8.784   2.416  11.331
42192SOL    HW226603   8.929   2.396  11.259
42193SOL     OW26604   7.975   2.118  11.500
42193SOL    HW126605   8.002   2.059  11.425
42193SOL    HW226606   7.975   2.213  11.469
42194SOL     OW26607   8.512   3.209  12.512
42194SOL    HW126608   8.432   3.186  12.567
42194SOL    HW226609   8.595   3.183  12.561
42195SOL     OW26610   8.559   3.057  12.272
42195SOL    HW126611   8.519   3.101  12.353
42195SOL    HW226612   8.518   3.094  12.189
42196SOL     OW26613   9.086   2.961  12.251
42196SOL    HW126614   9.091   3.042  12.310
42196SOL    HW226615   9.000   2.963  12.200
42197SOL     OW26616   8.363   1.951  12.574
42197SOL    HW126617   8.388   1.931  12.479
42197SOL    HW226618   8.435   2.007  12.616
42198SOL     OW26619   8.153   2.912  11.540
42198SOL    HW126620   8.139   2.919  11.639
42198SOL    HW226621   8.237   2.861  11.522
42199SOL     OW26622   7.858   2.675  12.423
42199SOL    HW126623   7.944   2.687  12.473
42199SOL    HW226624   7.816   2.588  12.450
42200SOL     OW26625   8.722   2.248  12.434
42200SOL    HW126626   8.743   2.322  12.498
42200SOL    HW226627   8.633   2.265  12.391
42201SOL     OW26628   7.512   3.426  12.503
42201SOL    HW126629   7.466   3.508  12.469
42201SOL    HW226630   7.610   3.445  12.512
42202SOL     OW26631   7.815   2.962  11.673
42202SOL    HW126632   7.808   3.045  11.617
42202SOL    HW226633   7.819   2.882  11.613
42203SOL     OW26634   8.014   2.399  12.037
42203SOL    HW126635   8.026   2.465  11.963
42203SOL    HW226636   8.060   2.433  12.120
42204SOL     OW26637   8.700   3.210  11.560
42204SOL    HW126638   8.750   3.287  11.600
42204SOL    HW226639   8.605   3.212  11.592
42205SOL     OW26640   8.720   3.307  12.314
42205SOL    HW126641   8.767   3.320  12.401
42205SOL    HW226642   8.654   3.233  12.323
42206SOL     OW26643   9.030   2.501  11.644
42206SOL    HW126644   8.999   2.562  11.717
42206SOL    HW226645   9.080   2.553  11.575
42207SOL     OW26646   7.802   3.372  12.501
42207SOL    HW126647   7.781   3.328  12.414
42207SOL    HW226648   7.899   3.398  12.504
42208SOL     OW26649   7.850   2.613  12.770
42208SOL    HW126650   7.918   2.668  12.723
42208SOL    HW226651   7.890   2.525  12.797
42209SOL     OW26652   9.035   2.641  12.842
42209SOL    HW126653   8.943   2.679  12.837
42209SOL    HW226654   9.095   2.688  12.777
42210SOL     OW26655   8.021   2.732  12.201
42210SOL    HW126656   8.065   2.821  12.192
42210SOL    HW226657   7.958   2.732  12.278
42211SOL     OW26658   8.808   2.724  12.217
42211SOL    HW126659   8.733   2.724  12.151
42211SOL    HW226660   8.845   2.632  12.226
42212SOL     OW26661   8.657   2.387  11.447
42212SOL    HW126662   8.670   2.303  11.501
42212SOL    HW226663   8.628   2.461  11.507
42213SOL     OW26664   7.755   2.075  12.403
42213SOL    HW126665   7.732   2.112  12.493
42213SOL    HW226666   7.725   1.980  12.397
42214SOL     OW26667   7.485   3.172  12.454
42214SOL    HW126668   7.538   3.123  12.522
42214SOL    HW226669   7.507   3.270  12.459
42215SOL     OW26670   8.180   2.496  12.236
42215SOL    HW126671   8.239   2.470  12.160
42215SOL    HW226672   8.152   2.592  12.225
42216SOL     OW26673   7.755   1.925  11.790
42216SOL    HW126674   7.744   2.019  11.823
42216SOL    HW226675   7.750   1.862  11.867
42217SOL     OW26676   9.070   2.229  11.546
42217SOL    HW126677   9.072   2.153  11.610
42217SOL    HW226678   9.022   2.306  11.586
42218SOL     OW26679   8.471   2.628  12.138
42218SOL    HW126680   8.486   2.649  12.234
42218SOL    HW226681   8.441   2.533  12.129
42219SOL     OW26682   8.428   3.435  12.872
42219SOL    HW126683   8.408   3.479  12.784
42219SOL    HW226684   8.467   3.344  12.856
42220SOL     OW26685   8.988   2.136  11.297
42220SOL    HW126686   8.927   2.061  11.320
42220SOL    HW226687   9.010   2.188  11.380
42221SOL     OW26688   8.751   2.700  11.214
42221SOL    HW126689   8.785   2.607  11.229
42221SOL    HW226690   8.769   2.727  11.119
42222SOL     OW26691   8.516   3.195  12.021
42222SOL    HW126692   8.523   3.111  11.966
42222SOL    HW226693   8.578   3.264  11.985
42223SOL     OW26694   7.767   2.672  12.121
42223SOL    HW126695   7.860   2.708  12.126
42223SOL    HW226696   7.761   2.587  12.173
42224SOL     OW26697   7.787   2.371  12.178
42224SOL    HW126698   7.735   2.288  12.161
42224SOL    HW226699   7.864   2.376  12.114
42225SOL     OW26700   8.586   2.242  12.850
42225SOL    HW126701   8.541   2.305  12.914
42225SOL    HW226702   8.679   2.273  12.833
42226SOL     OW26703   8.608   2.069  12.649
42226SOL    HW126704   8.608   2.133  12.726
42226SOL    HW226705   8.636   2.117  12.566
42227SOL     OW26706   7.456   3.188  11.372
42227SOL    HW126707   7.363   3.209  11.341
42227SOL    HW226708   7.466   3.089  11.385
42228SOL     OW26709   7.536   3.663  12.099
42228SOL    HW126710   7.494   3.577  12.072
42228SOL    HW226711   7.630   3.666  12.065
42229SOL     OW26712   7.952   3.430  12.082
42229SOL    HW126713   8.018   3.504  12.091
42229SOL    HW226714   7.996   3.351  12.040
42230SOL     OW26715   8.450   2.658  12.410
42230SOL    HW126716   8.491   2.626  12.496
42230SOL    HW226717   8.354   2.631  12.407
42231SOL     OW26718   7.488   2.406  12.286
42231SOL    HW126719   7.573   2.373  12.245
42231SOL    HW226720   7.501   2.421  12.384
42232SOL     OW26721   8.263   2.434  11.497
42232SOL    HW126722   8.270   2.345  11.451
42232SOL    HW226723   8.169   2.468  11.489
42233SOL     OW26724   9.105   2.466  12.378
42233SOL    HW126725   9.067   2.397  12.440
42233SOL    HW226726   9.187   2.430  12.334
42234SOL     OW26727   8.119   2.326  12.441
42234SOL    HW126728   8.085   2.237  12.411
42234SOL    HW226729   8.145   2.380  12.361
42235SOL     OW26730   8.378   3.540  12.637
42235SOL    HW126731   8.354   3.522  12.542
42235SOL    HW226732   8.408   3.634  12.647
42236SOL     OW26733   7.921   2.362  11.363
42236SOL    HW126734   7.982   2.442  11.367
42236SOL    HW226735   7.826   2.393  11.370
42237SOL     OW26736   7.607   2.999  12.638
42237SOL    HW126737   7.629   2.938  12.714
42237SOL    HW226738   7.617   2.950  12.552
42238SOL     OW26739   8.795   2.921  12.406
42238SOL    HW126740   8.819   2.858  12.332
42238SOL    HW226741   8.705   2.961  12.388
42239SOL     OW26742   8.750   2.717  11.481
42239SOL    HW126743   8.664   2.686  11.523
42239SOL    HW226744   8.746   2.703  11.382
42240SOL     OW26745   9.207   3.609  12.326
42240SOL    HW126746   9.268   3.639  12.253
42240SOL    HW226747   9.169   3.520  12.304
42241SOL     OW26748   8.700   3.593  12.300
42241SOL    HW126749   8.784   3.598  12.246
42241SOL    HW226750   8.677   3.497  12.318
42242SOL     OW26751   7.531   3.120  12.194
42242SOL    HW126752   7.526   3.119  12.294
42242SOL    HW226753   7.448   3.079  12.156
42243SOL     OW26754   9.174   1.997  11.695
42243SOL    HW126755   9.247   1.980  11.628
42243SOL    HW226756   9.143   1.910  11.733
42244SOL     OW26757   8.836   3.435  11.649
42244SOL    HW126758   8.903   3.447  11.575
42244SOL    HW226759   8.796   3.524  11.672
42245SOL     OW26760   8.728   2.789  11.844
42245SOL    HW126761   8.788   2.708  11.846
42245SOL    HW226762   8.768   2.858  11.784
42246SOL     OW26763   8.120   3.478  11.326
42246SOL    HW126764   8.129   3.488  11.227
42246SOL    HW226765   8.080   3.389  11.347
42247SOL     OW26766   9.098   3.582  12.566
42247SOL    HW126767   9.151   3.592  12.482
42247SOL    HW226768   9.071   3.672  12.600
42248SOL     OW26769   9.289   2.037  12.135
42248SOL    HW126770   9.328   1.952  12.099
42248SOL    HW226771   9.191   2.039  12.116
42249SOL     OW26772   7.711   2.188  11.892
42249SOL    HW126773   7.632   2.239  11.858
42249SOL    HW226774   7.702   2.173  11.990
42250SOL     OW26775   8.642   3.474  11.203
42250SOL    HW126776   8.648   3.381  11.240
42250SOL    HW226777   8.583   3.474  11.123
42251SOL     OW26778   8.270   2.864  12.544
42251SOL    HW126779   8.310   2.863  12.452
42251SOL    HW226780   8.280   2.956  12.584
42252SOL     OW26781   8.364   2.772  11.463
42252SOL    HW126782   8.427   2.810  11.395
42252SOL    HW226783   8.404   2.689  11.502
42253SOL     OW26784   8.952   3.469  11.216
42253SOL    HW126785   8.860   3.506  11.223
42253SOL    HW226786   8.990   3.489  11.126
42254SOL     OW26787   7.820   3.150  12.662
42254SOL    HW126788   7.807   3.243  12.628
42254SOL    HW226789   7.736   3.098  12.649
42255SOL     OW26790   9.062   3.154  12.461
42255SOL    HW126791   9.122   3.157  12.541
42255SOL    HW226792   8.987   3.218  12.474
42256SOL     OW26793   8.487   2.960  11.868
42256SOL    HW126794   8.417   2.913  11.922
42256SOL    HW226795   8.546   2.892  11.825
42257SOL     OW26796   8.462   2.098  12.143
42257SOL    HW126797   8.454   2.062  12.050
42257SOL    HW226798   8.460   2.022  12.208
42258SOL     OW26799   8.038   3.349  11.663
42258SOL    HW126800   8.080   3.291  11.593
42258SOL    HW226801   7.994   3.428  11.619
42259SOL     OW26802   9.157   2.247  12.553
42259SOL    HW126803   9.230   2.316  12.557
42259SOL    HW226804   9.185   2.172  12.494
42260SOL     OW26805   7.703   3.210  11.462
42260SOL    HW126806   7.607   3.211  11.435
42260SOL    HW226807   7.715   3.263  11.546
42261SOL     OW26808   7.523   2.207  11.205
42261SOL    HW126809   7.431   2.179  11.176
42261SOL    HW226810   7.554   2.284  11.149
42262SOL     OW26811   8.888   2.718  12.570
42262SOL    HW126812   8.831   2.770  12.507
42262SOL    HW226813   8.984   2.730  12.546
42263SOL     OW26814   7.520   2.028  11.490
42263SOL    HW126815   7.503   2.111  11.436
42263SOL    HW226816   7.610   1.991  11.468
42264SOL     OW26817   8.631   3.197  11.291
42264SOL    HW126818   8.532   3.186  11.293
42264SOL    HW226819   8.665   3.212  11.384
42265SOL     OW26820   8.061   2.704  12.603
42265SOL    HW126821   8.117   2.785  12.586
42265SOL    HW226822   8.120   2.624  12.606
42266SOL     OW26823   8.941   3.629  12.131
42266SOL    HW126824   8.974   3.693  12.062
42266SOL    HW226825   9.007   3.623  12.206
42267SOL     OW26826   7.838   3.603  12.732
42267SOL    HW126827   7.747   3.644  12.730
42267SOL    HW226828   7.831   3.509  12.764
42268SOL     OW26829   9.122   2.745  12.426
42268SOL    HW126830   9.095   2.656  12.389
42268SOL    HW226831   9.123   2.813  12.353
42269SOL     OW26832   8.673   2.187  11.621
42269SOL    HW126833   8.738   2.113  11.610
42269SOL    HW226834   8.693   2.237  11.705
42270SOL     OW26835   8.042   2.607  11.824
42270SOL    HW126836   8.092   2.692  11.805
42270SOL    HW226837   7.954   2.609  11.776
42271SOL     OW26838   9.225   2.204  12.814
42271SOL    HW126839   9.208   2.235  12.720
42271SOL    HW226840   9.141   2.167  12.852
42272SOL     OW26841   9.178   2.796  12.689
42272SOL    HW126842   9.216   2.887  12.704
42272SOL    HW226843   9.170   2.779  12.590
42273SOL     OW26844   8.307   3.236  11.188
42273SOL    HW126845   8.261   3.251  11.276
42273SOL    HW226846   8.351   3.321  11.158
42274SOL     OW26847   8.109   3.652  12.125
42274SOL    HW126848   8.063   3.740  12.112
42274SOL    HW226849   8.208   3.664  12.118
42275SOL     OW26850   8.307   2.818  12.033
42275SOL    HW126851   8.361   2.749  12.081
42275SOL    HW226852   8.275   2.887  12.099
42276SOL     OW26853   8.531   2.846  11.259
42276SOL    HW126854   8.508   2.899  11.177
42276SOL    HW226855   8.612   2.790  11.240
42277SOL     OW26856   9.309   3.431  12.023
42277SOL    HW126857   9.238   3.419  11.953
42277SOL    HW226858   9.310   3.352  12.083
42278SOL     OW26859   7.527   3.102  11.825
42278SOL    HW126860   7.526   3.055  11.913
42278SOL    HW226861   7.609   3.074  11.774
42279SOL     OW26862   9.272   2.054  12.399
42279SOL    HW126863   9.268   1.964  12.443
42279SOL    HW226864   9.275   2.043  12.300
42280SOL     OW26865   7.876   2.286  11.692
42280SOL    HW126866   7.906   2.214  11.630
42280SOL    HW226867   7.837   2.246  11.775
42281SOL     OW26868   9.153   3.349  12.276
42281SOL    HW126869   9.060   3.324  12.249
42281SOL    HW226870   9.179   3.299  12.358
42282SOL     OW26871   7.765   2.409  12.452
42282SOL    HW126872   7.803   2.350  12.524
42282SOL    HW226873   7.805   2.383  12.364
42283SOL     OW26874   8.260   3.448  11.859
42283SOL    HW126875   8.292   3.458  11.765
42283SOL    HW226876   8.181   3.386  11.861
42284SOL     OW26877   8.872   2.076  12.284
42284SOL    HW126878   8.924   2.011  12.339
42284SOL    HW226879   8.823   2.139  12.345
42285SOL     OW26880   8.449   1.896  12.326
42285SOL    HW126881   8.386   1.824  12.295
42285SOL    HW226882   8.542   1.860  12.326
42286SOL     OW26883   8.218   3.192  11.473
42286SOL    HW126884   8.172   3.105  11.490
42286SOL    HW226885   8.309   3.189  11.514
42287SOL     OW26886   8.066   3.429  12.456
42287SOL    HW126887   8.061   3.511  12.513
42287SOL    HW226888   8.155   3.426  12.411
42288SOL     OW26889   8.800   1.914  11.340
42288SOL    HW126890   8.835   1.873  11.256
42288SOL    HW226891   8.710   1.876  11.360
42289SOL     OW26892   8.748   2.315  11.863
42289SOL    HW126893   8.689   2.395  11.867
42289SOL    HW226894   8.763   2.280  11.956
42290SOL     OW26895   9.041   2.083  12.054
42290SOL    HW126896   8.957   2.082  12.108
42290SOL    HW226897   9.043   2.166  11.998
42291SOL     OW26898   7.487   2.939  11.472
42291SOL    HW126899   7.586   2.928  11.463
42291SOL    HW226900   7.447   2.853  11.504
42292SOL     OW26901   8.323   3.508  11.509
42292SOL    HW126902   8.246   3.473  11.455
42292SOL    HW226903   8.291   3.579  11.571
42293SOL     OW26904   7.678   4.352   0.113
42293SOL    HW126905   7.585   4.350   0.150
42293SOL    HW226906   7.679   4.313   0.021
42294SOL     OW26907   7.673   3.999   0.996
42294SOL    HW126908   7.708   3.982   1.088
42294SOL    HW226909   7.585   3.954   0.984
42295SOL     OW26910   7.467   4.092   0.647
42295SOL    HW126911   7.385   4.135   0.686
42295SOL    HW226912   7.439   4.019   0.584
42296SOL     OW26913   8.017   4.999   1.165
42296SOL    HW126914   7.924   4.992   1.128
42296SOL    HW226915   8.028   5.088   1.209
42297SOL     OW26916   9.003   5.235   0.703
42297SOL    HW126917   8.946   5.219   0.784
42297SOL    HW226918   8.944   5.245   0.623
42298SOL     OW26919   8.583   4.427   0.717
42298SOL    HW126920   8.640   4.505   0.692
42298SOL    HW226921   8.523   4.453   0.793
42299SOL     OW26922   9.203   4.331   0.231
42299SOL    HW126923   9.191   4.318   0.132
42299SOL    HW226924   9.173   4.250   0.280
42300SOL     OW26925   8.216   4.868   1.023
42300SOL    HW126926   8.138   4.885   1.083
42300SOL    HW226927   8.250   4.955   0.987
42301SOL     OW26928   8.298   4.522   1.823
42301SOL    HW126929   8.294   4.598   1.888
42301SOL    HW226930   8.320   4.558   1.732
42302SOL     OW26931   8.133   4.736   0.665
42302SOL    HW126932   8.202   4.720   0.735
42302SOL    HW226933   8.060   4.793   0.703
42303SOL     OW26934   8.134   4.885   1.803
42303SOL    HW126935   8.194   4.964   1.817
42303SOL    HW226936   8.048   4.916   1.762
42304SOL     OW26937   7.783   5.159   1.061
42304SOL    HW126938   7.705   5.128   1.008
42304SOL    HW226939   7.841   5.217   1.004
42305SOL     OW26940   8.908   5.229   1.339
42305SOL    HW126941   8.932   5.323   1.365
42305SOL    HW226942   8.892   5.175   1.421
42306SOL     OW26943   7.886   4.116   1.499
42306SOL    HW126944   7.968   4.060   1.508
42306SOL    HW226945   7.805   4.058   1.503
42307SOL     OW26946   9.051   4.171   0.737
42307SOL    HW126947   8.977   4.217   0.687
42307SOL    HW226948   9.102   4.239   0.790
42308SOL     OW26949   7.679   5.437   0.483
42308SOL    HW126950   7.713   5.514   0.537
42308SOL    HW226951   7.723   5.437   0.393
42309SOL     OW26952   8.575   5.065   1.690
42309SOL    HW126953   8.622   5.065   1.778
42309SOL    HW226954   8.527   4.978   1.679
42310SOL     OW26955   7.678   5.158   0.538
42310SOL    HW126956   7.652   5.254   0.538
42310SOL    HW226957   7.607   5.104   0.583
42311SOL     OW26958   7.688   4.815   0.886
42311SOL    HW126959   7.702   4.731   0.938
42311SOL    HW226960   7.633   4.879   0.941
42312SOL     OW26961   8.068   5.510   1.439
42312SOL    HW126962   7.976   5.493   1.474
42312SOL    HW226963   8.096   5.602   1.465
42313SOL     OW26964   8.054   4.688   0.123
42313SOL    HW126965   8.061   4.772   0.069
42313SOL    HW226966   8.100   4.701   0.211
42314SOL     OW26967   9.042   3.838   1.480
42314SOL    HW126968   9.024   3.905   1.408
42314SOL    HW226969   9.039   3.884   1.569
42315SOL     OW26970   7.570   4.367   0.563
42315SOL    HW126971   7.525   4.279   0.580
42315SOL    HW226972   7.569   4.421   0.647
42316SOL     OW26973   9.290   5.491   0.359
42316SOL    HW126974   9.344   5.462   0.439
42316SOL    HW226975   9.320   5.581   0.330
42317SOL     OW26976   7.475   5.320   0.117
42317SOL    HW126977   7.456   5.224   0.138
42317SOL    HW226978   7.442   5.378   0.192
42318SOL     OW26979   9.137   4.646   0.612
42318SOL    HW126980   9.232   4.617   0.620
42318SOL    HW226981   9.129   4.711   0.537
42319SOL     OW26982   9.089   4.832   0.432
42319SOL    HW126983   9.175   4.834   0.380
42319SOL    HW226984   9.103   4.879   0.520
42320SOL     OW26985   7.561   4.461   1.597
42320SOL    HW126986   7.649   4.448   1.642
42320SOL    HW226987   7.548   4.558   1.575
42321SOL     OW26988   8.061   5.089   0.726
42321SOL    HW126989   8.012   5.002   0.735
42321SOL    HW226990   8.038   5.132   0.639
42322SOL     OW26991   8.741   4.952   1.423
42322SOL    HW126992   8.778   4.879   1.365
42322SOL    HW226993   8.793   4.957   1.508
42323SOL     OW26994   8.257   3.728   0.502
42323SOL    HW126995   8.297   3.819   0.493
42323SOL    HW226996   8.157   3.736   0.508
42324SOL     OW26997   7.645   4.700   1.264
42324SOL    HW126998   7.734   4.655   1.250
42324SOL    HW226999   7.572   4.635   1.245
42325SOL     OW27000   8.973   4.723   0.190
42325SOL    HW127001   8.910   4.647   0.203
42325SOL    HW227002   9.021   4.741   0.276
42326SOL     OW27003   8.635   5.516   1.616
42326SOL    HW127004   8.659   5.576   1.540
42326SOL    HW227005   8.642   5.421   1.586
42327SOL     OW27006   7.765   3.975   1.801
42327SOL    HW127007   7.836   4.046   1.807
42327SOL    HW227008   7.677   4.014   1.829
42328SOL     OW27009   8.914   5.141   0.953
42328SOL    HW127010   8.855   5.147   1.033
42328SOL    HW227011   8.899   5.053   0.907
42329SOL     OW27012   9.115   5.438   0.572
42329SOL    HW127013   9.074   5.415   0.484
42329SOL    HW227014   9.097   5.364   0.637
42330SOL     OW27015   8.046   4.453   0.270
42330SOL    HW127016   8.070   4.522   0.202
42330SOL    HW227017   7.968   4.486   0.324
42331SOL     OW27018   8.729   4.069   0.944
42331SOL    HW127019   8.643   4.019   0.931
42331SOL    HW227020   8.791   4.015   1.000
42332SOL     OW27021   9.024   5.386   0.307
42332SOL    HW127022   9.113   5.432   0.310
42332SOL    HW227023   9.003   5.362   0.212
42333SOL     OW27024   8.255   4.329   1.465
42333SOL    HW127025   8.208   4.326   1.554
42333SOL    HW227026   8.204   4.274   1.399
42334SOL     OW27027   8.842   4.193   1.674
42334SOL    HW127028   8.822   4.236   1.762
42334SOL    HW227029   8.920   4.131   1.683
42335SOL     OW27030   8.421   4.614   1.572
42335SOL    HW127031   8.467   4.530   1.543
42335SOL    HW227032   8.365   4.648   1.497
42336SOL     OW27033   8.439   4.134   1.242
42336SOL    HW127034   8.362   4.168   1.296
42336SOL    HW227035   8.405   4.083   1.163
42337SOL     OW27036   8.489   4.425   0.429
42337SOL    HW127037   8.515   4.421   0.525
42337SOL    HW227038   8.404   4.374   0.415
42338SOL     OW27039   7.524   4.535   0.789
42338SOL    HW127040   7.623   4.523   0.798
42338SOL    HW227041   7.500   4.630   0.810
42339SOL     OW27042   7.578   5.545   1.571
42339SOL    HW127043   7.568   5.530   1.670
42339SOL    HW227044   7.492   5.581   1.535
42340SOL     OW27045   8.313   4.072   0.195
42340SOL    HW127046   8.372   4.135   0.146
42340SOL    HW227047   8.332   3.978   0.166
42341SOL     OW27048   9.167   4.309   1.831
42341SOL    HW127049   9.141   4.398   1.795
42341SOL    HW227050   9.165   4.241   1.758
42342SOL     OW27051   8.810   4.868   0.545
42342SOL    HW127052   8.893   4.839   0.497
42342SOL    HW227053   8.761   4.935   0.489
42343SOL     OW27054   7.998   3.920   0.885
42343SOL    HW127055   7.993   3.915   0.985
42343SOL    HW227056   8.000   4.016   0.856
42344SOL     OW27057   8.456   5.180   0.477
42344SOL    HW127058   8.410   5.252   0.425
42344SOL    HW227059   8.452   5.200   0.575
42345SOL     OW27060   7.799   5.525   0.853
42345SOL    HW127061   7.849   5.439   0.859
42345SOL    HW227062   7.864   5.602   0.850
42346SOL     OW27063   9.243   4.790   0.873
42346SOL    HW127064   9.181   4.775   0.797
42346SOL    HW227065   9.191   4.801   0.958
42347SOL     OW27066   8.675   5.274   1.506
42347SOL    HW127067   8.681   5.197   1.570
42347SOL    HW227068   8.623   5.248   1.426
42348SOL     OW27069   7.769   4.667   0.242
42348SOL    HW127070   7.851   4.706   0.200
42348SOL    HW227071   7.742   4.585   0.193
42349SOL     OW27072   8.906   4.459   0.728
42349SOL    HW127073   8.901   4.394   0.803
42349SOL    HW227074   8.986   4.518   0.741
42350SOL     OW27075   7.909   4.990   1.727
42350SOL    HW127076   7.859   4.991   1.641
42350SOL    HW227077   7.846   4.972   1.803
42351SOL     OW27078   8.559   5.500   0.237
42351SOL    HW127079   8.499   5.438   0.287
42351SOL    HW227080   8.590   5.456   0.152
42352SOL     OW27081   7.650   4.009   1.498
42352SOL    HW127082   7.570   4.069   1.485
42352SOL    HW227083   7.640   3.960   1.584
42353SOL     OW27084   9.080   5.101   0.081
42353SOL    HW127085   9.048   5.195   0.071
42353SOL    HW227086   9.004   5.038   0.069
42354SOL     OW27087   7.912   5.467   0.323
42354SOL    HW127088   7.945   5.506   0.409
42354SOL    HW227089   7.988   5.460   0.258
42355SOL     OW27090   8.848   3.831   0.426
42355SOL    HW127091   8.824   3.794   0.336
42355SOL    HW227092   8.947   3.847   0.430
42356SOL     OW27093   7.697   5.509   1.241
42356SOL    HW127094   7.754   5.444   1.291
42356SOL    HW227095   7.681   5.476   1.148
42357SOL     OW27096   8.388   5.422   0.904
42357SOL    HW127097   8.468   5.365   0.925
42357SOL    HW227098   8.339   5.382   0.827
42358SOL     OW27099   7.830   4.424   0.480
42358SOL    HW127100   7.875   4.334   0.477
42358SOL    HW227101   7.736   4.413   0.513
42359SOL     OW27102   8.995   3.946   1.729
42359SOL    HW127103   8.990   3.983   1.821
42359SOL    HW227104   8.923   3.877   1.717
42360SOL     OW27105   8.062   3.846   0.117
42360SOL    HW127106   8.160   3.824   0.124
42360SOL    HW227107   8.031   3.829   0.024
42361SOL     OW27108   8.229   3.988   1.749
42361SOL    HW127109   8.296   3.927   1.792
42361SOL    HW227110   8.156   4.007   1.814
42362SOL     OW27111   8.336   5.238   1.195
42362SOL    HW127112   8.313   5.213   1.101
42362SOL    HW227113   8.397   5.169   1.234
42363SOL     OW27114   8.799   4.314   1.433
42363SOL    HW127115   8.827   4.271   1.518
42363SOL    HW227116   8.824   4.410   1.434
42364SOL     OW27117   8.251   5.126   0.924
42364SOL    HW127118   8.341   5.140   0.882
42364SOL    HW227119   8.180   5.128   0.853
42365SOL     OW27120   8.370   4.227   0.899
42365SOL    HW127121   8.345   4.218   0.803
42365SOL    HW227122   8.418   4.145   0.930
42366SOL     OW27123   7.987   3.788   0.512
42366SOL    HW127124   7.906   3.789   0.570
42366SOL    HW227125   7.990   3.871   0.457
42367SOL     OW27126   8.882   4.912   0.041
42367SOL    HW127127   8.914   4.836   0.098
42367SOL    HW227128   8.790   4.939   0.071
42368SOL     OW27129   7.745   3.759   0.171
42368SOL    HW127130   7.794   3.843   0.150
42368SOL    HW227131   7.807   3.694   0.216
42369SOL     OW27132   8.383   3.960   0.480
42369SOL    HW127133   8.335   4.001   0.402
42369SOL    HW227134   8.482   3.958   0.461
42370SOL     OW27135   8.524   4.407   1.464
42370SOL    HW127136   8.444   4.346   1.467
42370SOL    HW227137   8.605   4.354   1.440
42371SOL     OW27138   8.675   5.294   0.793
42371SOL    HW127139   8.696   5.368   0.728
42371SOL    HW227140   8.743   5.294   0.866
42372SOL     OW27141   7.907   4.876   0.741
42372SOL    HW127142   7.836   4.849   0.806
42372SOL    HW227143   7.881   4.848   0.648
42373SOL     OW27144   8.719   5.521   0.591
42373SOL    HW127145   8.763   5.585   0.527
42373SOL    HW227146   8.669   5.573   0.661
42374SOL     OW27147   8.480   4.273   0.016
42374SOL    HW127148   8.439   4.355  -0.023
42374SOL    HW227149   8.544   4.299   0.089
42375SOL     OW27150   7.526   4.280   1.386
42375SOL    HW127151   7.618   4.279   1.345
42375SOL    HW227152   7.520   4.354   1.453
42376SOL     OW27153   8.009   3.946   1.147
42376SOL    HW127154   8.047   3.862   1.184
42376SOL    HW227155   7.921   3.965   1.191
42377SOL     OW27156   8.314   4.178   0.642
42377SOL    HW127157   8.282   4.250   0.580
42377SOL    HW227158   8.338   4.097   0.589
42378SOL     OW27159   8.465   3.763   0.753
42378SOL    HW127160   8.393   3.768   0.684
42378SOL    HW227161   8.441   3.694   0.822
42379SOL     OW27162   8.877   4.897   0.867
42379SOL    HW127163   8.822   4.813   0.860
42379SOL    HW227164   8.903   4.926   0.775
42380SOL     OW27165   8.914   4.314   0.992
42380SOL    HW127166   8.884   4.219   0.999
42380SOL    HW227167   8.987   4.330   1.058
42381SOL     OW27168   9.305   4.557   0.377
42381SOL    HW127169   9.347   4.493   0.441
42381SOL    HW227170   9.267   4.506   0.299
42382SOL     OW27171   7.936   5.109   0.174
42382SOL    HW127172   7.849   5.094   0.221
42382SOL    HW227173   7.919   5.135   0.079
42383SOL     OW27174   9.112   5.004   0.657
42383SOL    HW127175   9.211   5.012   0.671
42383SOL    HW227176   9.067   5.088   0.688
42384SOL     OW27177   8.838   4.299   0.078
42384SOL    HW127178   8.784   4.278   0.159
42384SOL    HW227179   8.929   4.258   0.087
42385SOL     OW27180   7.975   3.980   0.328
42385SOL    HW127181   8.002   3.921   0.253
42385SOL    HW227182   7.975   4.075   0.297
42386SOL     OW27183   9.202   4.947   1.588
42386SOL    HW127184   9.293   4.908   1.575
42386SOL    HW227185   9.210   5.043   1.612
42387SOL     OW27186   8.512   5.071   1.340
42387SOL    HW127187   8.432   5.048   1.395
42387SOL    HW227188   8.595   5.045   1.389
42388SOL     OW27189   9.040   5.353   1.625
42388SOL    HW127190   9.067   5.387   1.535
42388SOL    HW227191   9.119   5.315   1.671
42389SOL     OW27192   8.559   4.919   1.100
42389SOL    HW127193   8.519   4.963   1.181
42389SOL    HW227194   8.518   4.956   1.017
42390SOL     OW27195   9.086   4.823   1.079
42390SOL    HW127196   9.091   4.904   1.138
42390SOL    HW227197   9.000   4.825   1.028
42391SOL     OW27198   8.363   3.813   1.402
42391SOL    HW127199   8.388   3.793   1.307
42391SOL    HW227200   8.435   3.869   1.444
42392SOL     OW27201   8.428   4.840   1.719
42392SOL    HW127202   8.329   4.846   1.729
42392SOL    HW227203   8.451   4.760   1.663
42393SOL     OW27204   8.153   4.774   0.368
42393SOL    HW127205   8.139   4.781   0.467
42393SOL    HW227206   8.237   4.723   0.350
42394SOL     OW27207   7.858   4.537   1.251
42394SOL    HW127208   7.944   4.549   1.301
42394SOL    HW227209   7.816   4.450   1.278
42395SOL     OW27210   8.722   4.110   1.262
42395SOL    HW127211   8.743   4.184   1.326
42395SOL    HW227212   8.633   4.127   1.219
42396SOL     OW27213   7.512   5.288   1.331
42396SOL    HW127214   7.466   5.370   1.297
42396SOL    HW227215   7.610   5.307   1.340
42397SOL     OW27216   7.815   4.824   0.501
42397SOL    HW127217   7.808   4.907   0.445
42397SOL    HW227218   7.819   4.744   0.441
42398SOL     OW27219   8.014   4.261   0.865
42398SOL    HW127220   8.026   4.327   0.791
42398SOL    HW227221   8.060   4.295   0.948
42399SOL     OW27222   8.700   5.072   0.388
42399SOL    HW127223   8.750   5.149   0.428
42399SOL    HW227224   8.605   5.074   0.420
42400SOL     OW27225   8.720   5.169   1.142
42400SOL    HW127226   8.767   5.182   1.229
42400SOL    HW227227   8.654   5.095   1.151
42401SOL     OW27228   9.030   4.363   0.472
42401SOL    HW127229   8.999   4.424   0.545
42401SOL    HW227230   9.080   4.415   0.403
42402SOL     OW27231   7.802   5.234   1.329
42402SOL    HW127232   7.781   5.190   1.242
42402SOL    HW227233   7.899   5.260   1.332
42403SOL     OW27234   7.850   4.475   1.598
42403SOL    HW127235   7.918   4.530   1.551
42403SOL    HW227236   7.890   4.387   1.625
42404SOL     OW27237   9.035   4.503   1.670
42404SOL    HW127238   8.943   4.541   1.665
42404SOL    HW227239   9.095   4.550   1.605
42405SOL     OW27240   8.461   3.829   1.770
42405SOL    HW127241   8.467   3.914   1.718
42405SOL    HW227242   8.493   3.753   1.713
42406SOL     OW27243   7.952   3.774   1.740
42406SOL    HW127244   7.910   3.717   1.670
42406SOL    HW227245   7.886   3.843   1.772
42407SOL     OW27246   8.021   4.594   1.029
42407SOL    HW127247   8.065   4.683   1.020
42407SOL    HW227248   7.958   4.594   1.106
42408SOL     OW27249   8.808   4.586   1.045
42408SOL    HW127250   8.733   4.586   0.979
42408SOL    HW227251   8.845   4.494   1.054
42409SOL     OW27252   8.657   4.249   0.275
42409SOL    HW127253   8.670   4.165   0.329
42409SOL    HW227254   8.628   4.323   0.335
42410SOL     OW27255   7.755   3.937   1.231
42410SOL    HW127256   7.732   3.974   1.321
42410SOL    HW227257   7.725   3.842   1.225
42411SOL     OW27258   7.485   5.034   1.282
42411SOL    HW127259   7.538   4.985   1.350
42411SOL    HW227260   7.507   5.132   1.287
42412SOL     OW27261   8.180   4.358   1.064
42412SOL    HW127262   8.239   4.332   0.988
42412SOL    HW227263   8.152   4.454   1.053
42413SOL     OW27264   9.176   4.659   1.854
42413SOL    HW127265   9.130   4.652   1.765
42413SOL    HW227266   9.114   4.703   1.920
42414SOL     OW27267   7.755   3.787   0.618
42414SOL    HW127268   7.744   3.881   0.651
42414SOL    HW227269   7.750   3.724   0.695
42415SOL     OW27270   9.070   4.091   0.374
42415SOL    HW127271   9.072   4.015   0.438
42415SOL    HW227272   9.022   4.168   0.414
42416SOL     OW27273   8.471   4.490   0.966
42416SOL    HW127274   8.486   4.511   1.062
42416SOL    HW227275   8.441   4.395   0.957
42417SOL     OW27276   8.428   5.297   1.700
42417SOL    HW127277   8.408   5.341   1.612
42417SOL    HW227278   8.467   5.206   1.684
42418SOL     OW27279   9.307   5.242   1.605
42418SOL    HW127280   9.321   5.269   1.510
42418SOL    HW227281   9.390   5.264   1.658
42419SOL     OW27282   7.798   4.622   1.804
42419SOL    HW127283   7.874   4.666   1.852
42419SOL    HW227284   7.833   4.575   1.722
42420SOL     OW27285   8.988   3.998   0.125
42420SOL    HW127286   8.927   3.923   0.148
42420SOL    HW227287   9.010   4.050   0.208
42421SOL     OW27288   8.751   4.562   0.042
42421SOL    HW127289   8.785   4.469   0.057
42421SOL    HW227290   8.769   4.589  -0.053
42422SOL     OW27291   8.516   5.057   0.849
42422SOL    HW127292   8.523   4.973   0.794
42422SOL    HW227293   8.578   5.126   0.813
42423SOL     OW27294   7.767   4.534   0.949
42423SOL    HW127295   7.860   4.570   0.954
42423SOL    HW227296   7.761   4.449   1.001
42424SOL     OW27297   7.787   4.233   1.006
42424SOL    HW127298   7.735   4.150   0.989
42424SOL    HW227299   7.864   4.238   0.942
42425SOL     OW27300   8.586   4.104   1.678
42425SOL    HW127301   8.541   4.167   1.742
42425SOL    HW227302   8.679   4.135   1.661
42426SOL     OW27303   8.608   3.931   1.477
42426SOL    HW127304   8.608   3.995   1.554
42426SOL    HW227305   8.636   3.979   1.394
42427SOL     OW27306   7.456   5.050   0.200
42427SOL    HW127307   7.363   5.071   0.169
42427SOL    HW227308   7.466   4.951   0.213
42428SOL     OW27309   7.536   5.525   0.927
42428SOL    HW127310   7.494   5.439   0.900
42428SOL    HW227311   7.630   5.528   0.893
42429SOL     OW27312   7.952   5.292   0.910
42429SOL    HW127313   8.018   5.366   0.919
42429SOL    HW227314   7.996   5.213   0.868
42430SOL     OW27315   8.450   4.520   1.238
42430SOL    HW127316   8.491   4.488   1.324
42430SOL    HW227317   8.354   4.493   1.235
42431SOL     OW27318   7.488   4.268   1.114
42431SOL    HW127319   7.573   4.235   1.073
42431SOL    HW227320   7.501   4.283   1.212
42432SOL     OW27321   7.637   4.244   1.722
42432SOL    HW127322   7.696   4.204   1.652
42432SOL    HW227323   7.579   4.315   1.681
42433SOL     OW27324   8.817   4.674   1.660
42433SOL    HW127325   8.856   4.763   1.680
42433SOL    HW227326   8.827   4.654   1.563
42434SOL     OW27327   8.263   4.296   0.325
42434SOL    HW127328   8.270   4.207   0.279
42434SOL    HW227329   8.169   4.330   0.317
42435SOL     OW27330   9.105   4.328   1.206
42435SOL    HW127331   9.067   4.259   1.268
42435SOL    HW227332   9.187   4.292   1.162
42436SOL     OW27333   7.700   5.288   1.744
42436SOL    HW127334   7.670   5.345   1.820
42436SOL    HW227335   7.693   5.191   1.770
42437SOL     OW27336   8.119   4.188   1.269
42437SOL    HW127337   8.085   4.099   1.239
42437SOL    HW227338   8.145   4.242   1.189
42438SOL     OW27339   8.378   5.402   1.465
42438SOL    HW127340   8.354   5.384   1.370
42438SOL    HW227341   8.408   5.496   1.475
42439SOL     OW27342   7.921   4.224   0.191
42439SOL    HW127343   7.982   4.304   0.195
42439SOL    HW227344   7.826   4.255   0.198
42440SOL     OW27345   7.607   4.861   1.466
42440SOL    HW127346   7.629   4.800   1.542
42440SOL    HW227347   7.617   4.812   1.380
42441SOL     OW27348   8.795   4.783   1.234
42441SOL    HW127349   8.819   4.720   1.160
42441SOL    HW227350   8.705   4.823   1.216
42442SOL     OW27351   8.750   4.579   0.309
42442SOL    HW127352   8.664   4.548   0.351
42442SOL    HW227353   8.746   4.565   0.210
42443SOL     OW27354   9.207   5.471   1.154
42443SOL    HW127355   9.268   5.501   1.081
42443SOL    HW227356   9.169   5.382   1.132
42444SOL     OW27357   8.700   5.455   1.128
42444SOL    HW127358   8.784   5.460   1.074
42444SOL    HW227359   8.677   5.359   1.146
42445SOL     OW27360   7.531   4.982   1.022
42445SOL    HW127361   7.526   4.981   1.122
42445SOL    HW227362   7.448   4.941   0.984
42446SOL     OW27363   8.136   5.386   1.716
42446SOL    HW127364   8.080   5.467   1.725
42446SOL    HW227365   8.188   5.390   1.630
42447SOL     OW27366   8.351   3.810   0.133
42447SOL    HW127367   8.402   3.811   0.047
42447SOL    HW227368   8.407   3.768   0.204
42448SOL     OW27369   9.174   3.859   0.523
42448SOL    HW127370   9.247   3.842   0.456
42448SOL    HW227371   9.143   3.772   0.561
42449SOL     OW27372   8.836   5.297   0.477
42449SOL    HW127373   8.903   5.309   0.403
42449SOL    HW227374   8.796   5.386   0.500
42450SOL     OW27375   7.578   5.518   1.851
42450SOL    HW127376   7.537   5.444   1.904
42450SOL    HW227377   7.642   5.569   1.909
42451SOL     OW27378   8.728   4.651   0.672
42451SOL    HW127379   8.788   4.570   0.674
42451SOL    HW227380   8.768   4.720   0.612
42452SOL     OW27381   8.278   4.997   1.422
42452SOL    HW127382   8.273   5.030   1.517
42452SOL    HW227383   8.192   5.016   1.376
42453SOL     OW27384   8.120   5.340   0.154
42453SOL    HW127385   8.129   5.350   0.055
42453SOL    HW227386   8.080   5.251   0.175
42454SOL     OW27387   9.098   5.444   1.394
42454SOL    HW127388   9.151   5.454   1.310
42454SOL    HW227389   9.071   5.534   1.428
42455SOL     OW27390   9.289   3.899   0.963
42455SOL    HW127391   9.328   3.814   0.927
42455SOL    HW227392   9.191   3.901   0.944
42456SOL     OW27393   7.711   4.050   0.720
42456SOL    HW127394   7.632   4.101   0.686
42456SOL    HW227395   7.702   4.035   0.818
42457SOL     OW27396   8.642   5.336   0.031
42457SOL    HW127397   8.648   5.243   0.068
42457SOL    HW227398   8.583   5.336  -0.049
42458SOL     OW27399   8.270   4.726   1.372
42458SOL    HW127400   8.310   4.725   1.280
42458SOL    HW227401   8.280   4.818   1.412
42459SOL     OW27402   8.364   4.634   0.291
42459SOL    HW127403   8.427   4.672   0.223
42459SOL    HW227404   8.404   4.551   0.330
42460SOL     OW27405   8.952   5.331   0.044
42460SOL    HW127406   8.860   5.368   0.051
42460SOL    HW227407   8.990   5.351  -0.046
42461SOL     OW27408   7.820   5.012   1.490
42461SOL    HW127409   7.807   5.105   1.456
42461SOL    HW227410   7.736   4.960   1.477
42462SOL     OW27411   9.062   5.016   1.289
42462SOL    HW127412   9.122   5.019   1.369
42462SOL    HW227413   8.987   5.080   1.302
42463SOL     OW27414   8.487   4.822   0.696
42463SOL    HW127415   8.417   4.775   0.750
42463SOL    HW227416   8.546   4.754   0.653
42464SOL     OW27417   8.462   3.960   0.971
42464SOL    HW127418   8.454   3.924   0.878
42464SOL    HW227419   8.460   3.884   1.036
42465SOL     OW27420   8.038   5.211   0.491
42465SOL    HW127421   8.080   5.153   0.421
42465SOL    HW227422   7.994   5.290   0.447
42466SOL     OW27423   9.157   4.109   1.381
42466SOL    HW127424   9.230   4.178   1.385
42466SOL    HW227425   9.185   4.034   1.322
42467SOL     OW27426   7.703   5.072   0.290
42467SOL    HW127427   7.607   5.073   0.263
42467SOL    HW227428   7.715   5.125   0.374
42468SOL     OW27429   7.553   4.737   1.726
42468SOL    HW127430   7.476   4.704   1.780
42468SOL    HW227431   7.638   4.707   1.768
42469SOL     OW27432   8.120   3.927   1.489
42469SOL    HW127433   8.210   3.911   1.449
42469SOL    HW227434   8.128   3.932   1.588
42470SOL     OW27435   8.888   4.580   1.398
42470SOL    HW127436   8.831   4.632   1.335
42470SOL    HW227437   8.984   4.592   1.374
42471SOL     OW27438   7.520   3.890   0.318
42471SOL    HW127439   7.503   3.973   0.264
42471SOL    HW227440   7.610   3.853   0.296
42472SOL     OW27441   8.631   5.059   0.119
42472SOL    HW127442   8.532   5.048   0.121
42472SOL    HW227443   8.665   5.074   0.212
42473SOL     OW27444   8.061   4.566   1.431
42473SOL    HW127445   8.117   4.647   1.414
42473SOL    HW227446   8.120   4.486   1.434
42474SOL     OW27447   8.941   5.491   0.959
42474SOL    HW127448   8.974   5.555   0.890
42474SOL    HW227449   9.007   5.485   1.034
42475SOL     OW27450   8.164   4.289   1.708
42475SOL    HW127451   8.183   4.354   1.782
42475SOL    HW227452   8.224   4.209   1.717
42476SOL     OW27453   8.898   4.944   1.633
42476SOL    HW127454   8.889   4.934   1.732
42476SOL    HW227455   8.994   4.937   1.607
42477SOL     OW27456   7.838   5.465   1.560
42477SOL    HW127457   7.747   5.506   1.558
42477SOL    HW227458   7.831   5.371   1.592
42478SOL     OW27459   9.122   4.607   1.254
42478SOL    HW127460   9.095   4.518   1.217
42478SOL    HW227461   9.123   4.675   1.181
42479SOL     OW27462   8.673   4.049   0.449
42479SOL    HW127463   8.738   3.975   0.438
42479SOL    HW227464   8.693   4.099   0.533
42480SOL     OW27465   8.042   4.469   0.652
42480SOL    HW127466   8.092   4.554   0.633
42480SOL    HW227467   7.954   4.471   0.604
42481SOL     OW27468   9.225   4.066   1.642
42481SOL    HW127469   9.208   4.097   1.548
42481SOL    HW227470   9.141   4.029   1.680
42482SOL     OW27471   9.178   4.658   1.517
42482SOL    HW127472   9.216   4.749   1.532
42482SOL    HW227473   9.170   4.641   1.418
42483SOL     OW27474   8.307   5.098   0.016
42483SOL    HW127475   8.261   5.113   0.104
42483SOL    HW227476   8.351   5.183  -0.014
42484SOL     OW27477   8.109   5.514   0.953
42484SOL    HW127478   8.063   5.602   0.940
42484SOL    HW227479   8.208   5.526   0.946
42485SOL     OW27480   8.307   4.680   0.861
42485SOL    HW127481   8.361   4.611   0.909
42485SOL    HW227482   8.275   4.749   0.927
42486SOL     OW27483   8.531   4.708   0.087
42486SOL    HW127484   8.508   4.761   0.005
42486SOL    HW227485   8.612   4.652   0.068
42487SOL     OW27486   9.309   5.293   0.851
42487SOL    HW127487   9.238   5.281   0.781
42487SOL    HW227488   9.310   5.214   0.911
42488SOL     OW27489   7.669   5.038   1.844
42488SOL    HW127490   7.604   4.965   1.823
42488SOL    HW227491   7.673   5.052   1.942
42489SOL     OW27492   7.527   4.964   0.653
42489SOL    HW127493   7.526   4.917   0.741
42489SOL    HW227494   7.609   4.936   0.602
42490SOL     OW27495   8.120   5.115   1.624
42490SOL    HW127496   8.042   5.065   1.662
42490SOL    HW227497   8.117   5.210   1.655
42491SOL     OW27498   9.272   3.916   1.227
42491SOL    HW127499   9.268   3.826   1.271
42491SOL    HW227500   9.275   3.905   1.128
42492SOL     OW27501   7.876   4.148   0.520
42492SOL    HW127502   7.906   4.076   0.458
42492SOL    HW227503   7.837   4.108   0.603
42493SOL     OW27504   9.153   5.211   1.104
42493SOL    HW127505   9.060   5.186   1.077
42493SOL    HW227506   9.179   5.161   1.186
42494SOL     OW27507   7.765   4.271   1.280
42494SOL    HW127508   7.803   4.212   1.352
42494SOL    HW227509   7.805   4.245   1.192
42495SOL     OW27510   8.260   5.310   0.687
42495SOL    HW127511   8.292   5.320   0.593
42495SOL    HW227512   8.181   5.248   0.689
42496SOL     OW27513   8.872   3.938   1.112
42496SOL    HW127514   8.924   3.873   1.167
42496SOL    HW227515   8.823   4.001   1.173
42497SOL     OW27516   8.449   3.758   1.154
42497SOL    HW127517   8.386   3.686   1.123
42497SOL    HW227518   8.542   3.722   1.154
42498SOL     OW27519   8.218   5.054   0.301
42498SOL    HW127520   8.172   4.967   0.318
42498SOL    HW227521   8.309   5.051   0.342
42499SOL     OW27522   8.066   5.291   1.284
42499SOL    HW127523   8.061   5.373   1.341
42499SOL    HW227524   8.155   5.288   1.239
42500SOL     OW27525   8.800   3.776   0.168
42500SOL    HW127526   8.835   3.735   0.084
42500SOL    HW227527   8.710   3.738   0.188
42501SOL     OW27528   8.748   4.177   0.691
42501SOL    HW127529   8.689   4.257   0.695
42501SOL    HW227530   8.763   4.142   0.784
42502SOL     OW27531   9.041   3.945   0.882
42502SOL    HW127532   8.957   3.944   0.936
42502SOL    HW227533   9.043   4.028   0.826
42503SOL     OW27534   7.487   4.801   0.300
42503SOL    HW127535   7.586   4.790   0.291
42503SOL    HW227536   7.447   4.715   0.332
42504SOL     OW27537   8.323   5.370   0.337
42504SOL    HW127538   8.246   5.335   0.283
42504SOL    HW227539   8.291   5.441   0.399
42505SOL     OW27540   7.678   4.352   1.975
42505SOL    HW127541   7.585   4.350   2.012
42505SOL    HW227542   7.679   4.313   1.883
42506SOL     OW27543   7.673   3.999   2.858
42506SOL    HW127544   7.708   3.982   2.950
42506SOL    HW227545   7.585   3.954   2.846
42507SOL     OW27546   7.467   4.092   2.509
42507SOL    HW127547   7.385   4.135   2.548
42507SOL    HW227548   7.439   4.019   2.446
42508SOL     OW27549   8.017   4.999   3.027
42508SOL    HW127550   7.924   4.992   2.990
42508SOL    HW227551   8.028   5.088   3.071
42509SOL     OW27552   9.003   5.235   2.565
42509SOL    HW127553   8.946   5.219   2.646
42509SOL    HW227554   8.944   5.245   2.485
42510SOL     OW27555   8.583   4.427   2.579
42510SOL    HW127556   8.640   4.505   2.554
42510SOL    HW227557   8.523   4.453   2.655
42511SOL     OW27558   9.203   4.331   2.093
42511SOL    HW127559   9.191   4.318   1.994
42511SOL    HW227560   9.173   4.250   2.142
42512SOL     OW27561   8.216   4.868   2.885
42512SOL    HW127562   8.138   4.885   2.945
42512SOL    HW227563   8.250   4.955   2.849
42513SOL     OW27564   8.298   4.522   3.685
42513SOL    HW127565   8.294   4.598   3.750
42513SOL    HW227566   8.320   4.558   3.594
42514SOL     OW27567   8.133   4.736   2.527
42514SOL    HW127568   8.202   4.720   2.597
42514SOL    HW227569   8.060   4.793   2.565
42515SOL     OW27570   8.134   4.885   3.665
42515SOL    HW127571   8.194   4.964   3.679
42515SOL    HW227572   8.048   4.916   3.624
42516SOL     OW27573   7.783   5.159   2.923
42516SOL    HW127574   7.705   5.128   2.870
42516SOL    HW227575   7.841   5.217   2.866
42517SOL     OW27576   8.908   5.229   3.201
42517SOL    HW127577   8.932   5.323   3.227
42517SOL    HW227578   8.892   5.175   3.283
42518SOL     OW27579   7.886   4.116   3.361
42518SOL    HW127580   7.968   4.060   3.370
42518SOL    HW227581   7.805   4.058   3.365
42519SOL     OW27582   9.051   4.171   2.599
42519SOL    HW127583   8.977   4.217   2.549
42519SOL    HW227584   9.102   4.239   2.652
42520SOL     OW27585   7.679   5.437   2.345
42520SOL    HW127586   7.713   5.514   2.399
42520SOL    HW227587   7.723   5.437   2.255
42521SOL     OW27588   8.575   5.065   3.552
42521SOL    HW127589   8.622   5.065   3.640
42521SOL    HW227590   8.527   4.978   3.541
42522SOL     OW27591   7.678   5.158   2.400
42522SOL    HW127592   7.652   5.254   2.400
42522SOL    HW227593   7.607   5.104   2.445
42523SOL     OW27594   7.688   4.815   2.748
42523SOL    HW127595   7.702   4.731   2.800
42523SOL    HW227596   7.633   4.879   2.803
42524SOL     OW27597   8.068   5.510   3.301
42524SOL    HW127598   7.976   5.493   3.336
42524SOL    HW227599   8.096   5.602   3.327
42525SOL     OW27600   8.054   4.688   1.985
42525SOL    HW127601   8.061   4.772   1.931
42525SOL    HW227602   8.100   4.701   2.073
42526SOL     OW27603   9.042   3.838   3.342
42526SOL    HW127604   9.024   3.905   3.270
42526SOL    HW227605   9.039   3.884   3.431
42527SOL     OW27606   7.570   4.367   2.425
42527SOL    HW127607   7.525   4.279   2.442
42527SOL    HW227608   7.569   4.421   2.509
42528SOL     OW27609   9.290   5.491   2.221
42528SOL    HW127610   9.344   5.462   2.301
42528SOL    HW227611   9.320   5.581   2.192
42529SOL     OW27612   7.475   5.320   1.979
42529SOL    HW127613   7.456   5.224   2.000
42529SOL    HW227614   7.442   5.378   2.054
42530SOL     OW27615   9.137   4.646   2.474
42530SOL    HW127616   9.232   4.617   2.482
42530SOL    HW227617   9.129   4.711   2.399
42531SOL     OW27618   9.089   4.832   2.294
42531SOL    HW127619   9.175   4.834   2.242
42531SOL    HW227620   9.103   4.879   2.382
42532SOL     OW27621   7.561   4.461   3.459
42532SOL    HW127622   7.649   4.448   3.504
42532SOL    HW227623   7.548   4.558   3.437
42533SOL     OW27624   8.061   5.089   2.588
42533SOL    HW127625   8.012   5.002   2.597
42533SOL    HW227626   8.038   5.132   2.501
42534SOL     OW27627   8.741   4.952   3.285
42534SOL    HW127628   8.778   4.879   3.227
42534SOL    HW227629   8.793   4.957   3.370
42535SOL     OW27630   8.257   3.728   2.364
42535SOL    HW127631   8.297   3.819   2.355
42535SOL    HW227632   8.157   3.736   2.370
42536SOL     OW27633   7.645   4.700   3.126
42536SOL    HW127634   7.734   4.655   3.112
42536SOL    HW227635   7.572   4.635   3.107
42537SOL     OW27636   8.973   4.723   2.052
42537SOL    HW127637   8.910   4.647   2.065
42537SOL    HW227638   9.021   4.741   2.138
42538SOL     OW27639   8.635   5.516   3.478
42538SOL    HW127640   8.659   5.576   3.402
42538SOL    HW227641   8.642   5.421   3.448
42539SOL     OW27642   7.765   3.975   3.663
42539SOL    HW127643   7.836   4.046   3.669
42539SOL    HW227644   7.677   4.014   3.691
42540SOL     OW27645   8.914   5.141   2.815
42540SOL    HW127646   8.855   5.147   2.895
42540SOL    HW227647   8.899   5.053   2.769
42541SOL     OW27648   9.115   5.438   2.434
42541SOL    HW127649   9.074   5.415   2.346
42541SOL    HW227650   9.097   5.364   2.499
42542SOL     OW27651   8.046   4.453   2.132
42542SOL    HW127652   8.070   4.522   2.064
42542SOL    HW227653   7.968   4.486   2.186
42543SOL     OW27654   8.729   4.069   2.806
42543SOL    HW127655   8.643   4.019   2.793
42543SOL    HW227656   8.791   4.015   2.862
42544SOL     OW27657   9.024   5.386   2.169
42544SOL    HW127658   9.113   5.432   2.172
42544SOL    HW227659   9.003   5.362   2.074
42545SOL     OW27660   8.255   4.329   3.327
42545SOL    HW127661   8.208   4.326   3.416
42545SOL    HW227662   8.204   4.274   3.261
42546SOL     OW27663   8.842   4.193   3.536
42546SOL    HW127664   8.822   4.236   3.624
42546SOL    HW227665   8.920   4.131   3.545
42547SOL     OW27666   8.421   4.614   3.434
42547SOL    HW127667   8.467   4.530   3.405
42547SOL    HW227668   8.365   4.648   3.359
42548SOL     OW27669   8.439   4.134   3.104
42548SOL    HW127670   8.362   4.168   3.158
42548SOL    HW227671   8.405   4.083   3.025
42549SOL     OW27672   8.489   4.425   2.291
42549SOL    HW127673   8.515   4.421   2.387
42549SOL    HW227674   8.404   4.374   2.277
42550SOL     OW27675   7.524   4.535   2.651
42550SOL    HW127676   7.623   4.523   2.660
42550SOL    HW227677   7.500   4.630   2.672
42551SOL     OW27678   7.578   5.545   3.433
42551SOL    HW127679   7.568   5.530   3.532
42551SOL    HW227680   7.492   5.581   3.397
42552SOL     OW27681   8.313   4.072   2.057
42552SOL    HW127682   8.372   4.135   2.008
42552SOL    HW227683   8.332   3.978   2.028
42553SOL     OW27684   9.167   4.309   3.693
42553SOL    HW127685   9.141   4.398   3.657
42553SOL    HW227686   9.165   4.241   3.620
42554SOL     OW27687   8.810   4.868   2.407
42554SOL    HW127688   8.893   4.839   2.359
42554SOL    HW227689   8.761   4.935   2.351
42555SOL     OW27690   7.998   3.920   2.747
42555SOL    HW127691   7.993   3.915   2.847
42555SOL    HW227692   8.000   4.016   2.718
42556SOL     OW27693   8.456   5.180   2.339
42556SOL    HW127694   8.410   5.252   2.287
42556SOL    HW227695   8.452   5.200   2.437
42557SOL     OW27696   7.799   5.525   2.715
42557SOL    HW127697   7.849   5.439   2.721
42557SOL    HW227698   7.864   5.602   2.712
42558SOL     OW27699   9.243   4.790   2.735
42558SOL    HW127700   9.181   4.775   2.659
42558SOL    HW227701   9.191   4.801   2.820
42559SOL     OW27702   7.769   4.667   2.104
42559SOL    HW127703   7.851   4.706   2.062
42559SOL    HW227704   7.742   4.585   2.055
42560SOL     OW27705   8.906   4.459   2.590
42560SOL    HW127706   8.901   4.394   2.665
42560SOL    HW227707   8.986   4.518   2.603
42561SOL     OW27708   7.909   4.990   3.589
42561SOL    HW127709   7.859   4.991   3.503
42561SOL    HW227710   7.846   4.972   3.665
42562SOL     OW27711   8.559   5.500   2.099
42562SOL    HW127712   8.499   5.438   2.149
42562SOL    HW227713   8.590   5.456   2.014
42563SOL     OW27714   7.650   4.009   3.360
42563SOL    HW127715   7.570   4.069   3.347
42563SOL    HW227716   7.640   3.960   3.446
42564SOL     OW27717   9.080   5.101   1.943
42564SOL    HW127718   9.048   5.195   1.933
42564SOL    HW227719   9.004   5.038   1.931
42565SOL     OW27720   7.912   5.467   2.185
42565SOL    HW127721   7.945   5.506   2.271
42565SOL    HW227722   7.988   5.460   2.120
42566SOL     OW27723   8.848   3.831   2.288
42566SOL    HW127724   8.824   3.794   2.198
42566SOL    HW227725   8.947   3.847   2.292
42567SOL     OW27726   7.697   5.509   3.103
42567SOL    HW127727   7.754   5.444   3.153
42567SOL    HW227728   7.681   5.476   3.010
42568SOL     OW27729   8.388   5.422   2.766
42568SOL    HW127730   8.468   5.365   2.787
42568SOL    HW227731   8.339   5.382   2.689
42569SOL     OW27732   7.830   4.424   2.342
42569SOL    HW127733   7.875   4.334   2.339
42569SOL    HW227734   7.736   4.413   2.375
42570SOL     OW27735   8.995   3.946   3.591
42570SOL    HW127736   8.990   3.983   3.683
42570SOL    HW227737   8.923   3.877   3.579
42571SOL     OW27738   8.062   3.846   1.979
42571SOL    HW127739   8.160   3.824   1.986
42571SOL    HW227740   8.031   3.829   1.886
42572SOL     OW27741   8.229   3.988   3.611
42572SOL    HW127742   8.296   3.927   3.654
42572SOL    HW227743   8.156   4.007   3.676
42573SOL     OW27744   8.336   5.238   3.057
42573SOL    HW127745   8.313   5.213   2.963
42573SOL    HW227746   8.397   5.169   3.096
42574SOL     OW27747   8.799   4.314   3.295
42574SOL    HW127748   8.827   4.271   3.380
42574SOL    HW227749   8.824   4.410   3.296
42575SOL     OW27750   8.251   5.126   2.786
42575SOL    HW127751   8.341   5.140   2.744
42575SOL    HW227752   8.180   5.128   2.715
42576SOL     OW27753   8.370   4.227   2.761
42576SOL    HW127754   8.345   4.218   2.665
42576SOL    HW227755   8.418   4.145   2.792
42577SOL     OW27756   7.987   3.788   2.374
42577SOL    HW127757   7.906   3.789   2.432
42577SOL    HW227758   7.990   3.871   2.319
42578SOL     OW27759   8.882   4.912   1.903
42578SOL    HW127760   8.914   4.836   1.960
42578SOL    HW227761   8.790   4.939   1.933
42579SOL     OW27762   7.745   3.759   2.033
42579SOL    HW127763   7.794   3.843   2.012
42579SOL    HW227764   7.807   3.694   2.078
42580SOL     OW27765   8.383   3.960   2.342
42580SOL    HW127766   8.335   4.001   2.264
42580SOL    HW227767   8.482   3.958   2.323
42581SOL     OW27768   8.524   4.407   3.326
42581SOL    HW127769   8.444   4.346   3.329
42581SOL    HW227770   8.605   4.354   3.302
42582SOL     OW27771   8.675   5.294   2.655
42582SOL    HW127772   8.696   5.368   2.590
42582SOL    HW227773   8.743   5.294   2.728
42583SOL     OW27774   7.907   4.876   2.603
42583SOL    HW127775   7.836   4.849   2.668
42583SOL    HW227776   7.881   4.848   2.510
42584SOL     OW27777   8.719   5.521   2.453
42584SOL    HW127778   8.763   5.585   2.389
42584SOL    HW227779   8.669   5.573   2.523
42585SOL     OW27780   8.480   4.273   1.878
42585SOL    HW127781   8.439   4.355   1.839
42585SOL    HW227782   8.544   4.299   1.951
42586SOL     OW27783   7.526   4.280   3.248
42586SOL    HW127784   7.618   4.279   3.207
42586SOL    HW227785   7.520   4.354   3.315
42587SOL     OW27786   8.009   3.946   3.009
42587SOL    HW127787   8.047   3.862   3.046
42587SOL    HW227788   7.921   3.965   3.053
42588SOL     OW27789   8.314   4.178   2.504
42588SOL    HW127790   8.282   4.250   2.442
42588SOL    HW227791   8.338   4.097   2.451
42589SOL     OW27792   8.465   3.763   2.615
42589SOL    HW127793   8.393   3.768   2.546
42589SOL    HW227794   8.441   3.694   2.684
42590SOL     OW27795   8.877   4.897   2.729
42590SOL    HW127796   8.822   4.813   2.722
42590SOL    HW227797   8.903   4.926   2.637
42591SOL     OW27798   8.914   4.314   2.854
42591SOL    HW127799   8.884   4.219   2.861
42591SOL    HW227800   8.987   4.330   2.920
42592SOL     OW27801   9.305   4.557   2.239
42592SOL    HW127802   9.347   4.493   2.303
42592SOL    HW227803   9.267   4.506   2.161
42593SOL     OW27804   7.936   5.109   2.036
42593SOL    HW127805   7.849   5.094   2.083
42593SOL    HW227806   7.919   5.135   1.941
42594SOL     OW27807   9.112   5.004   2.519
42594SOL    HW127808   9.211   5.012   2.533
42594SOL    HW227809   9.067   5.088   2.550
42595SOL     OW27810   8.838   4.299   1.940
42595SOL    HW127811   8.784   4.278   2.021
42595SOL    HW227812   8.929   4.258   1.949
42596SOL     OW27813   7.975   3.980   2.190
42596SOL    HW127814   8.002   3.921   2.115
42596SOL    HW227815   7.975   4.075   2.159
42597SOL     OW27816   9.202   4.947   3.450
42597SOL    HW127817   9.293   4.908   3.437
42597SOL    HW227818   9.210   5.043   3.474
42598SOL     OW27819   8.512   5.071   3.202
42598SOL    HW127820   8.432   5.048   3.257
42598SOL    HW227821   8.595   5.045   3.251
42599SOL     OW27822   9.040   5.353   3.487
42599SOL    HW127823   9.067   5.387   3.397
42599SOL    HW227824   9.119   5.315   3.533
42600SOL     OW27825   8.559   4.919   2.962
42600SOL    HW127826   8.519   4.963   3.043
42600SOL    HW227827   8.518   4.956   2.879
42601SOL     OW27828   9.086   4.823   2.941
42601SOL    HW127829   9.091   4.904   3.000
42601SOL    HW227830   9.000   4.825   2.890
42602SOL     OW27831   8.363   3.813   3.264
42602SOL    HW127832   8.388   3.793   3.169
42602SOL    HW227833   8.435   3.869   3.306
42603SOL     OW27834   8.428   4.840   3.581
42603SOL    HW127835   8.329   4.846   3.591
42603SOL    HW227836   8.451   4.760   3.525
42604SOL     OW27837   8.153   4.774   2.230
42604SOL    HW127838   8.139   4.781   2.329
42604SOL    HW227839   8.237   4.723   2.212
42605SOL     OW27840   7.858   4.537   3.113
42605SOL    HW127841   7.944   4.549   3.163
42605SOL    HW227842   7.816   4.450   3.140
42606SOL     OW27843   8.722   4.110   3.124
42606SOL    HW127844   8.743   4.184   3.188
42606SOL    HW227845   8.633   4.127   3.081
42607SOL     OW27846   7.512   5.288   3.193
42607SOL    HW127847   7.466   5.370   3.159
42607SOL    HW227848   7.610   5.307   3.202
42608SOL     OW27849   7.815   4.824   2.363
42608SOL    HW127850   7.808   4.907   2.307
42608SOL    HW227851   7.819   4.744   2.303
42609SOL     OW27852   8.014   4.261   2.727
42609SOL    HW127853   8.026   4.327   2.653
42609SOL    HW227854   8.060   4.295   2.810
42610SOL     OW27855   8.700   5.072   2.250
42610SOL    HW127856   8.750   5.149   2.290
42610SOL    HW227857   8.605   5.074   2.282
42611SOL     OW27858   8.720   5.169   3.004
42611SOL    HW127859   8.767   5.182   3.091
42611SOL    HW227860   8.654   5.095   3.013
42612SOL     OW27861   9.030   4.363   2.334
42612SOL    HW127862   8.999   4.424   2.407
42612SOL    HW227863   9.080   4.415   2.265
42613SOL     OW27864   7.802   5.234   3.191
42613SOL    HW127865   7.781   5.190   3.104
42613SOL    HW227866   7.899   5.260   3.194
42614SOL     OW27867   7.850   4.475   3.460
42614SOL    HW127868   7.918   4.530   3.413
42614SOL    HW227869   7.890   4.387   3.487
42615SOL     OW27870   9.035   4.503   3.532
42615SOL    HW127871   8.943   4.541   3.527
42615SOL    HW227872   9.095   4.550   3.467
42616SOL     OW27873   8.461   3.829   3.632
42616SOL    HW127874   8.467   3.914   3.580
42616SOL    HW227875   8.493   3.753   3.575
42617SOL     OW27876   7.952   3.774   3.602
42617SOL    HW127877   7.910   3.717   3.532
42617SOL    HW227878   7.886   3.843   3.634
42618SOL     OW27879   8.021   4.594   2.891
42618SOL    HW127880   8.065   4.683   2.882
42618SOL    HW227881   7.958   4.594   2.968
42619SOL     OW27882   8.808   4.586   2.907
42619SOL    HW127883   8.733   4.586   2.841
42619SOL    HW227884   8.845   4.494   2.916
42620SOL     OW27885   8.657   4.249   2.137
42620SOL    HW127886   8.670   4.165   2.191
42620SOL    HW227887   8.628   4.323   2.197
42621SOL     OW27888   7.755   3.937   3.093
42621SOL    HW127889   7.732   3.974   3.183
42621SOL    HW227890   7.725   3.842   3.087
42622SOL     OW27891   7.485   5.034   3.144
42622SOL    HW127892   7.538   4.985   3.212
42622SOL    HW227893   7.507   5.132   3.149
42623SOL     OW27894   8.180   4.358   2.926
42623SOL    HW127895   8.239   4.332   2.850
42623SOL    HW227896   8.152   4.454   2.915
42624SOL     OW27897   9.176   4.659   3.716
42624SOL    HW127898   9.130   4.652   3.627
42624SOL    HW227899   9.114   4.703   3.782
42625SOL     OW27900   7.755   3.787   2.480
42625SOL    HW127901   7.744   3.881   2.513
42625SOL    HW227902   7.750   3.724   2.557
42626SOL     OW27903   9.070   4.091   2.236
42626SOL    HW127904   9.072   4.015   2.300
42626SOL    HW227905   9.022   4.168   2.276
42627SOL     OW27906   8.471   4.490   2.828
42627SOL    HW127907   8.486   4.511   2.924
42627SOL    HW227908   8.441   4.395   2.819
42628SOL     OW27909   8.428   5.297   3.562
42628SOL    HW127910   8.408   5.341   3.474
42628SOL    HW227911   8.467   5.206   3.546
42629SOL     OW27912   9.307   5.242   3.467
42629SOL    HW127913   9.321   5.269   3.372
42629SOL    HW227914   9.390   5.264   3.520
42630SOL     OW27915   7.798   4.622   3.666
42630SOL    HW127916   7.874   4.666   3.714
42630SOL    HW227917   7.833   4.575   3.584
42631SOL     OW27918   8.988   3.998   1.987
42631SOL    HW127919   8.927   3.923   2.010
42631SOL    HW227920   9.010   4.050   2.070
42632SOL     OW27921   8.751   4.562   1.904
42632SOL    HW127922   8.785   4.469   1.919
42632SOL    HW227923   8.769   4.589   1.809
42633SOL     OW27924   8.516   5.057   2.711
42633SOL    HW127925   8.523   4.973   2.656
42633SOL    HW227926   8.578   5.126   2.675
42634SOL     OW27927   7.767   4.534   2.811
42634SOL    HW127928   7.860   4.570   2.816
42634SOL    HW227929   7.761   4.449   2.863
42635SOL     OW27930   7.787   4.233   2.868
42635SOL    HW127931   7.735   4.150   2.851
42635SOL    HW227932   7.864   4.238   2.804
42636SOL     OW27933   8.586   4.104   3.540
42636SOL    HW127934   8.541   4.167   3.604
42636SOL    HW227935   8.679   4.135   3.523
42637SOL     OW27936   8.608   3.931   3.339
42637SOL    HW127937   8.608   3.995   3.416
42637SOL    HW227938   8.636   3.979   3.256
42638SOL     OW27939   7.456   5.050   2.062
42638SOL    HW127940   7.363   5.071   2.031
42638SOL    HW227941   7.466   4.951   2.075
42639SOL     OW27942   7.536   5.525   2.789
42639SOL    HW127943   7.494   5.439   2.762
42639SOL    HW227944   7.630   5.528   2.755
42640SOL     OW27945   7.952   5.292   2.772
42640SOL    HW127946   8.018   5.366   2.781
42640SOL    HW227947   7.996   5.213   2.730
42641SOL     OW27948   8.450   4.520   3.100
42641SOL    HW127949   8.491   4.488   3.186
42641SOL    HW227950   8.354   4.493   3.097
42642SOL     OW27951   7.488   4.268   2.976
42642SOL    HW127952   7.573   4.235   2.935
42642SOL    HW227953   7.501   4.283   3.074
42643SOL     OW27954   7.637   4.244   3.584
42643SOL    HW127955   7.696   4.204   3.514
42643SOL    HW227956   7.579   4.315   3.543
42644SOL     OW27957   8.817   4.674   3.522
42644SOL    HW127958   8.856   4.763   3.542
42644SOL    HW227959   8.827   4.654   3.425
42645SOL     OW27960   8.263   4.296   2.187
42645SOL    HW127961   8.270   4.207   2.141
42645SOL    HW227962   8.169   4.330   2.179
42646SOL     OW27963   9.105   4.328   3.068
42646SOL    HW127964   9.067   4.259   3.130
42646SOL    HW227965   9.187   4.292   3.024
42647SOL     OW27966   7.700   5.288   3.606
42647SOL    HW127967   7.670   5.345   3.682
42647SOL    HW227968   7.693   5.191   3.632
42648SOL     OW27969   8.119   4.188   3.131
42648SOL    HW127970   8.085   4.099   3.101
42648SOL    HW227971   8.145   4.242   3.051
42649SOL     OW27972   8.378   5.402   3.327
42649SOL    HW127973   8.354   5.384   3.232
42649SOL    HW227974   8.408   5.496   3.337
42650SOL     OW27975   7.921   4.224   2.053
42650SOL    HW127976   7.982   4.304   2.057
42650SOL    HW227977   7.826   4.255   2.060
42651SOL     OW27978   7.607   4.861   3.328
42651SOL    HW127979   7.629   4.800   3.404
42651SOL    HW227980   7.617   4.812   3.242
42652SOL     OW27981   8.795   4.783   3.096
42652SOL    HW127982   8.819   4.720   3.022
42652SOL    HW227983   8.705   4.823   3.078
42653SOL     OW27984   8.750   4.579   2.171
42653SOL    HW127985   8.664   4.548   2.213
42653SOL    HW227986   8.746   4.565   2.072
42654SOL     OW27987   9.207   5.471   3.016
42654SOL    HW127988   9.268   5.501   2.943
42654SOL    HW227989   9.169   5.382   2.994
42655SOL     OW27990   8.700   5.455   2.990
42655SOL    HW127991   8.784   5.460   2.936
42655SOL    HW227992   8.677   5.359   3.008
42656SOL     OW27993   7.531   4.982   2.884
42656SOL    HW127994   7.526   4.981   2.984
42656SOL    HW227995   7.448   4.941   2.846
42657SOL     OW27996   8.136   5.386   3.578
42657SOL    HW127997   8.080   5.467   3.587
42657SOL    HW227998   8.188   5.390   3.492
42658SOL     OW27999   9.174   3.859   2.385
42658SOL    HW128000   9.247   3.842   2.318
42658SOL    HW228001   9.143   3.772   2.423
42659SOL     OW28002   8.836   5.297   2.339
42659SOL    HW128003   8.903   5.309   2.265
42659SOL    HW228004   8.796   5.386   2.362
42660SOL     OW28005   7.578   5.518   3.713
42660SOL    HW128006   7.537   5.444   3.766
42660SOL    HW228007   7.642   5.569   3.771
42661SOL     OW28008   8.728   4.651   2.534
42661SOL    HW128009   8.788   4.570   2.536
42661SOL    HW228010   8.768   4.720   2.474
42662SOL     OW28011   8.278   4.997   3.284
42662SOL    HW128012   8.273   5.030   3.379
42662SOL    HW228013   8.192   5.016   3.238
42663SOL     OW28014   8.120   5.340   2.016
42663SOL    HW128015   8.129   5.350   1.917
42663SOL    HW228016   8.080   5.251   2.037
42664SOL     OW28017   9.098   5.444   3.256
42664SOL    HW128018   9.151   5.454   3.172
42664SOL    HW228019   9.071   5.534   3.290
42665SOL     OW28020   9.289   3.899   2.825
42665SOL    HW128021   9.328   3.814   2.789
42665SOL    HW228022   9.191   3.901   2.806
42666SOL     OW28023   7.711   4.050   2.582
42666SOL    HW128024   7.632   4.101   2.548
42666SOL    HW228025   7.702   4.035   2.680
42667SOL     OW28026   8.642   5.336   1.893
42667SOL    HW128027   8.648   5.243   1.930
42667SOL    HW228028   8.583   5.336   1.813
42668SOL     OW28029   8.270   4.726   3.234
42668SOL    HW128030   8.310   4.725   3.142
42668SOL    HW228031   8.280   4.818   3.274
42669SOL     OW28032   8.364   4.634   2.153
42669SOL    HW128033   8.427   4.672   2.085
42669SOL    HW228034   8.404   4.551   2.192
42670SOL     OW28035   8.952   5.331   1.906
42670SOL    HW128036   8.860   5.368   1.913
42670SOL    HW228037   8.990   5.351   1.816
42671SOL     OW28038   7.820   5.012   3.352
42671SOL    HW128039   7.807   5.105   3.318
42671SOL    HW228040   7.736   4.960   3.339
42672SOL     OW28041   9.062   5.016   3.151
42672SOL    HW128042   9.122   5.019   3.231
42672SOL    HW228043   8.987   5.080   3.164
42673SOL     OW28044   8.487   4.822   2.558
42673SOL    HW128045   8.417   4.775   2.612
42673SOL    HW228046   8.546   4.754   2.515
42674SOL     OW28047   8.462   3.960   2.833
42674SOL    HW128048   8.454   3.924   2.740
42674SOL    HW228049   8.460   3.884   2.898
42675SOL     OW28050   8.038   5.211   2.353
42675SOL    HW128051   8.080   5.153   2.283
42675SOL    HW228052   7.994   5.290   2.309
42676SOL     OW28053   9.157   4.109   3.243
42676SOL    HW128054   9.230   4.178   3.247
42676SOL    HW228055   9.185   4.034   3.184
42677SOL     OW28056   7.703   5.072   2.152
42677SOL    HW128057   7.607   5.073   2.125
42677SOL    HW228058   7.715   5.125   2.236
42678SOL     OW28059   7.553   4.737   3.588
42678SOL    HW128060   7.476   4.704   3.642
42678SOL    HW228061   7.638   4.707   3.630
42679SOL     OW28062   8.120   3.927   3.351
42679SOL    HW128063   8.210   3.911   3.311
42679SOL    HW228064   8.128   3.932   3.450
42680SOL     OW28065   7.523   4.069   1.895
42680SOL    HW128066   7.431   4.041   1.866
42680SOL    HW228067   7.554   4.146   1.839
42681SOL     OW28068   8.888   4.580   3.260
42681SOL    HW128069   8.831   4.632   3.197
42681SOL    HW228070   8.984   4.592   3.236
42682SOL     OW28071   7.520   3.890   2.180
42682SOL    HW128072   7.503   3.973   2.126
42682SOL    HW228073   7.610   3.853   2.158
42683SOL     OW28074   8.631   5.059   1.981
42683SOL    HW128075   8.532   5.048   1.983
42683SOL    HW228076   8.665   5.074   2.074
42684SOL     OW28077   8.061   4.566   3.293
42684SOL    HW128078   8.117   4.647   3.276
42684SOL    HW228079   8.120   4.486   3.296
42685SOL     OW28080   8.941   5.491   2.821
42685SOL    HW128081   8.974   5.555   2.752
42685SOL    HW228082   9.007   5.485   2.896
42686SOL     OW28083   8.164   4.289   3.570
42686SOL    HW128084   8.183   4.354   3.644
42686SOL    HW228085   8.224   4.209   3.579
42687SOL     OW28086   8.898   4.944   3.495
42687SOL    HW128087   8.889   4.934   3.594
42687SOL    HW228088   8.994   4.937   3.469
42688SOL     OW28089   7.838   5.465   3.422
42688SOL    HW128090   7.747   5.506   3.420
42688SOL    HW228091   7.831   5.371   3.454
42689SOL     OW28092   9.122   4.607   3.116
42689SOL    HW128093   9.095   4.518   3.079
42689SOL    HW228094   9.123   4.675   3.043
42690SOL     OW28095   8.673   4.049   2.311
42690SOL    HW128096   8.738   3.975   2.300
42690SOL    HW228097   8.693   4.099   2.395
42691SOL     OW28098   8.042   4.469   2.514
42691SOL    HW128099   8.092   4.554   2.495
42691SOL    HW228100   7.954   4.471   2.466
42692SOL     OW28101   9.225   4.066   3.504
42692SOL    HW128102   9.208   4.097   3.410
42692SOL    HW228103   9.141   4.029   3.542
42693SOL     OW28104   9.178   4.658   3.379
42693SOL    HW128105   9.216   4.749   3.394
42693SOL    HW228106   9.170   4.641   3.280
42694SOL     OW28107   8.307   5.098   1.878
42694SOL    HW128108   8.261   5.113   1.966
42694SOL    HW228109   8.351   5.183   1.848
42695SOL     OW28110   8.109   5.514   2.815
42695SOL    HW128111   8.063   5.602   2.802
42695SOL    HW228112   8.208   5.526   2.808
42696SOL     OW28113   8.307   4.680   2.723
42696SOL    HW128114   8.361   4.611   2.771
42696SOL    HW228115   8.275   4.749   2.789
42697SOL     OW28116   8.531   4.708   1.949
42697SOL    HW128117   8.508   4.761   1.867
42697SOL    HW228118   8.612   4.652   1.930
42698SOL     OW28119   9.309   5.293   2.713
42698SOL    HW128120   9.238   5.281   2.643
42698SOL    HW228121   9.310   5.214   2.773
42699SOL     OW28122   7.669   5.038   3.706
42699SOL    HW128123   7.604   4.965   3.685
42699SOL    HW228124   7.673   5.052   3.804
42700SOL     OW28125   7.527   4.964   2.515
42700SOL    HW128126   7.526   4.917   2.603
42700SOL    HW228127   7.609   4.936   2.464
42701SOL     OW28128   8.120   5.115   3.486
42701SOL    HW128129   8.042   5.065   3.524
42701SOL    HW228130   8.117   5.210   3.517
42702SOL     OW28131   9.272   3.916   3.089
42702SOL    HW128132   9.268   3.826   3.133
42702SOL    HW228133   9.275   3.905   2.990
42703SOL     OW28134   7.876   4.148   2.382
42703SOL    HW128135   7.906   4.076   2.320
42703SOL    HW228136   7.837   4.108   2.465
42704SOL     OW28137   9.153   5.211   2.966
42704SOL    HW128138   9.060   5.186   2.939
42704SOL    HW228139   9.179   5.161   3.048
42705SOL     OW28140   7.765   4.271   3.142
42705SOL    HW128141   7.803   4.212   3.214
42705SOL    HW228142   7.805   4.245   3.054
42706SOL     OW28143   8.260   5.310   2.549
42706SOL    HW128144   8.292   5.320   2.455
42706SOL    HW228145   8.181   5.248   2.551
42707SOL     OW28146   8.872   3.938   2.974
42707SOL    HW128147   8.924   3.873   3.029
42707SOL    HW228148   8.823   4.001   3.035
42708SOL     OW28149   8.449   3.758   3.016
42708SOL    HW128150   8.386   3.686   2.985
42708SOL    HW228151   8.542   3.722   3.016
42709SOL     OW28152   8.218   5.054   2.163
42709SOL    HW128153   8.172   4.967   2.180
42709SOL    HW228154   8.309   5.051   2.204
42710SOL     OW28155   8.066   5.291   3.146
42710SOL    HW128156   8.061   5.373   3.203
42710SOL    HW228157   8.155   5.288   3.101
42711SOL     OW28158   8.800   3.776   2.030
42711SOL    HW128159   8.835   3.735   1.946
42711SOL    HW228160   8.710   3.738   2.050
42712SOL     OW28161   8.748   4.177   2.553
42712SOL    HW128162   8.689   4.257   2.557
42712SOL    HW228163   8.763   4.142   2.646
42713SOL     OW28164   9.041   3.945   2.744
42713SOL    HW128165   8.957   3.944   2.798
42713SOL    HW228166   9.043   4.028   2.688
42714SOL     OW28167   7.487   4.801   2.162
42714SOL    HW128168   7.586   4.790   2.153
42714SOL    HW228169   7.447   4.715   2.194
42715SOL     OW28170   8.323   5.370   2.199
42715SOL    HW128171   8.246   5.335   2.145
42715SOL    HW228172   8.291   5.441   2.261
42716SOL     OW28173   7.678   4.352   3.837
42716SOL    HW128174   7.585   4.350   3.874
42716SOL    HW228175   7.679   4.313   3.745
42717SOL     OW28176   7.673   3.999   4.720
42717SOL    HW128177   7.708   3.982   4.812
42717SOL    HW228178   7.585   3.954   4.708
42718SOL     OW28179   7.467   4.092   4.371
42718SOL    HW128180   7.385   4.135   4.410
42718SOL    HW228181   7.439   4.019   4.308
42719SOL     OW28182   8.017   4.999   4.889
42719SOL    HW128183   7.924   4.992   4.852
42719SOL    HW228184   8.028   5.088   4.933
42720SOL     OW28185   9.003   5.235   4.427
42720SOL    HW128186   8.946   5.219   4.508
42720SOL    HW228187   8.944   5.245   4.347
42721SOL     OW28188   8.583   4.427   4.441
42721SOL    HW128189   8.640   4.505   4.416
42721SOL    HW228190   8.523   4.453   4.517
42722SOL     OW28191   9.203   4.331   3.955
42722SOL    HW128192   9.191   4.318   3.856
42722SOL    HW228193   9.173   4.250   4.004
42723SOL     OW28194   8.216   4.868   4.747
42723SOL    HW128195   8.138   4.885   4.807
42723SOL    HW228196   8.250   4.955   4.711
42724SOL     OW28197   8.298   4.522   5.547
42724SOL    HW128198   8.294   4.598   5.612
42724SOL    HW228199   8.320   4.558   5.456
42725SOL     OW28200   8.133   4.736   4.389
42725SOL    HW128201   8.202   4.720   4.459
42725SOL    HW228202   8.060   4.793   4.427
42726SOL     OW28203   8.134   4.885   5.527
42726SOL    HW128204   8.194   4.964   5.541
42726SOL    HW228205   8.048   4.916   5.486
42727SOL     OW28206   7.783   5.159   4.785
42727SOL    HW128207   7.705   5.128   4.732
42727SOL    HW228208   7.841   5.217   4.728
42728SOL     OW28209   8.908   5.229   5.063
42728SOL    HW128210   8.932   5.323   5.089
42728SOL    HW228211   8.892   5.175   5.145
42729SOL     OW28212   7.886   4.116   5.223
42729SOL    HW128213   7.968   4.060   5.232
42729SOL    HW228214   7.805   4.058   5.227
42730SOL     OW28215   9.051   4.171   4.461
42730SOL    HW128216   8.977   4.217   4.411
42730SOL    HW228217   9.102   4.239   4.514
42731SOL     OW28218   7.679   5.437   4.207
42731SOL    HW128219   7.713   5.514   4.261
42731SOL    HW228220   7.723   5.437   4.117
42732SOL     OW28221   8.575   5.065   5.414
42732SOL    HW128222   8.622   5.065   5.502
42732SOL    HW228223   8.527   4.978   5.403
42733SOL     OW28224   7.678   5.158   4.262
42733SOL    HW128225   7.652   5.254   4.262
42733SOL    HW228226   7.607   5.104   4.307
42734SOL     OW28227   7.688   4.815   4.610
42734SOL    HW128228   7.702   4.731   4.662
42734SOL    HW228229   7.633   4.879   4.665
42735SOL     OW28230   8.068   5.510   5.163
42735SOL    HW128231   7.976   5.493   5.198
42735SOL    HW228232   8.096   5.602   5.189
42736SOL     OW28233   8.054   4.688   3.847
42736SOL    HW128234   8.061   4.772   3.793
42736SOL    HW228235   8.100   4.701   3.935
42737SOL     OW28236   9.042   3.838   5.204
42737SOL    HW128237   9.024   3.905   5.132
42737SOL    HW228238   9.039   3.884   5.293
42738SOL     OW28239   7.570   4.367   4.287
42738SOL    HW128240   7.525   4.279   4.304
42738SOL    HW228241   7.569   4.421   4.371
42739SOL     OW28242   9.290   5.491   4.083
42739SOL    HW128243   9.344   5.462   4.163
42739SOL    HW228244   9.320   5.581   4.054
42740SOL     OW28245   7.475   5.320   3.841
42740SOL    HW128246   7.456   5.224   3.862
42740SOL    HW228247   7.442   5.378   3.916
42741SOL     OW28248   9.137   4.646   4.336
42741SOL    HW128249   9.232   4.617   4.344
42741SOL    HW228250   9.129   4.711   4.261
42742SOL     OW28251   9.089   4.832   4.156
42742SOL    HW128252   9.175   4.834   4.104
42742SOL    HW228253   9.103   4.879   4.244
42743SOL     OW28254   7.561   4.461   5.321
42743SOL    HW128255   7.649   4.448   5.366
42743SOL    HW228256   7.548   4.558   5.299
42744SOL     OW28257   8.061   5.089   4.450
42744SOL    HW128258   8.012   5.002   4.459
42744SOL    HW228259   8.038   5.132   4.363
42745SOL     OW28260   8.741   4.952   5.147
42745SOL    HW128261   8.778   4.879   5.089
42745SOL    HW228262   8.793   4.957   5.232
42746SOL     OW28263   8.257   3.728   4.226
42746SOL    HW128264   8.297   3.819   4.217
42746SOL    HW228265   8.157   3.736   4.232
42747SOL     OW28266   7.645   4.700   4.988
42747SOL    HW128267   7.734   4.655   4.974
42747SOL    HW228268   7.572   4.635   4.969
42748SOL     OW28269   8.973   4.723   3.914
42748SOL    HW128270   8.910   4.647   3.927
42748SOL    HW228271   9.021   4.741   4.000
42749SOL     OW28272   8.635   5.516   5.340
42749SOL    HW128273   8.659   5.576   5.264
42749SOL    HW228274   8.642   5.421   5.310
42750SOL     OW28275   7.765   3.975   5.525
42750SOL    HW128276   7.836   4.046   5.531
42750SOL    HW228277   7.677   4.014   5.553
42751SOL     OW28278   8.914   5.141   4.677
42751SOL    HW128279   8.855   5.147   4.757
42751SOL    HW228280   8.899   5.053   4.631
42752SOL     OW28281   9.115   5.438   4.296
42752SOL    HW128282   9.074   5.415   4.208
42752SOL    HW228283   9.097   5.364   4.361
42753SOL     OW28284   8.046   4.453   3.994
42753SOL    HW128285   8.070   4.522   3.926
42753SOL    HW228286   7.968   4.486   4.048
42754SOL     OW28287   8.729   4.069   4.668
42754SOL    HW128288   8.643   4.019   4.655
42754SOL    HW228289   8.791   4.015   4.724
42755SOL     OW28290   9.024   5.386   4.031
42755SOL    HW128291   9.113   5.432   4.034
42755SOL    HW228292   9.003   5.362   3.936
42756SOL     OW28293   8.255   4.329   5.189
42756SOL    HW128294   8.208   4.326   5.278
42756SOL    HW228295   8.204   4.274   5.123
42757SOL     OW28296   8.842   4.193   5.398
42757SOL    HW128297   8.822   4.236   5.486
42757SOL    HW228298   8.920   4.131   5.407
42758SOL     OW28299   8.421   4.614   5.296
42758SOL    HW128300   8.467   4.530   5.267
42758SOL    HW228301   8.365   4.648   5.221
42759SOL     OW28302   8.439   4.134   4.966
42759SOL    HW128303   8.362   4.168   5.020
42759SOL    HW228304   8.405   4.083   4.887
42760SOL     OW28305   8.489   4.425   4.153
42760SOL    HW128306   8.515   4.421   4.249
42760SOL    HW228307   8.404   4.374   4.139
42761SOL     OW28308   7.524   4.535   4.513
42761SOL    HW128309   7.623   4.523   4.522
42761SOL    HW228310   7.500   4.630   4.534
42762SOL     OW28311   7.578   5.545   5.295
42762SOL    HW128312   7.568   5.530   5.394
42762SOL    HW228313   7.492   5.581   5.259
42763SOL     OW28314   8.313   4.072   3.919
42763SOL    HW128315   8.372   4.135   3.870
42763SOL    HW228316   8.332   3.978   3.890
42764SOL     OW28317   9.167   4.309   5.555
42764SOL    HW128318   9.141   4.398   5.519
42764SOL    HW228319   9.165   4.241   5.482
42765SOL     OW28320   8.810   4.868   4.269
42765SOL    HW128321   8.893   4.839   4.221
42765SOL    HW228322   8.761   4.935   4.213
42766SOL     OW28323   7.998   3.920   4.609
42766SOL    HW128324   7.993   3.915   4.709
42766SOL    HW228325   8.000   4.016   4.580
42767SOL     OW28326   8.456   5.180   4.201
42767SOL    HW128327   8.410   5.252   4.149
42767SOL    HW228328   8.452   5.200   4.299
42768SOL     OW28329   7.799   5.525   4.577
42768SOL    HW128330   7.849   5.439   4.583
42768SOL    HW228331   7.864   5.602   4.574
42769SOL     OW28332   9.243   4.790   4.597
42769SOL    HW128333   9.181   4.775   4.521
42769SOL    HW228334   9.191   4.801   4.682
42770SOL     OW28335   8.675   5.274   5.230
42770SOL    HW128336   8.681   5.197   5.294
42770SOL    HW228337   8.623   5.248   5.150
42771SOL     OW28338   7.769   4.667   3.966
42771SOL    HW128339   7.851   4.706   3.924
42771SOL    HW228340   7.742   4.585   3.917
42772SOL     OW28341   8.906   4.459   4.452
42772SOL    HW128342   8.901   4.394   4.527
42772SOL    HW228343   8.986   4.518   4.465
42773SOL     OW28344   7.909   4.990   5.451
42773SOL    HW128345   7.859   4.991   5.365
42773SOL    HW228346   7.846   4.972   5.527
42774SOL     OW28347   8.559   5.500   3.961
42774SOL    HW128348   8.499   5.438   4.011
42774SOL    HW228349   8.590   5.456   3.876
42775SOL     OW28350   7.650   4.009   5.222
42775SOL    HW128351   7.570   4.069   5.209
42775SOL    HW228352   7.640   3.960   5.308
42776SOL     OW28353   9.080   5.101   3.805
42776SOL    HW128354   9.048   5.195   3.795
42776SOL    HW228355   9.004   5.038   3.793
42777SOL     OW28356   7.912   5.467   4.047
42777SOL    HW128357   7.945   5.506   4.133
42777SOL    HW228358   7.988   5.460   3.982
42778SOL     OW28359   8.848   3.831   4.150
42778SOL    HW128360   8.824   3.794   4.060
42778SOL    HW228361   8.947   3.847   4.154
42779SOL     OW28362   7.697   5.509   4.965
42779SOL    HW128363   7.754   5.444   5.015
42779SOL    HW228364   7.681   5.476   4.872
42780SOL     OW28365   8.388   5.422   4.628
42780SOL    HW128366   8.468   5.365   4.649
42780SOL    HW228367   8.339   5.382   4.551
42781SOL     OW28368   7.830   4.424   4.204
42781SOL    HW128369   7.875   4.334   4.201
42781SOL    HW228370   7.736   4.413   4.237
42782SOL     OW28371   8.995   3.946   5.453
42782SOL    HW128372   8.990   3.983   5.545
42782SOL    HW228373   8.923   3.877   5.441
42783SOL     OW28374   8.062   3.846   3.841
42783SOL    HW128375   8.160   3.824   3.848
42783SOL    HW228376   8.031   3.829   3.748
42784SOL     OW28377   8.229   3.988   5.473
42784SOL    HW128378   8.296   3.927   5.516
42784SOL    HW228379   8.156   4.007   5.538
42785SOL     OW28380   8.336   5.238   4.919
42785SOL    HW128381   8.313   5.213   4.825
42785SOL    HW228382   8.397   5.169   4.958
42786SOL     OW28383   8.799   4.314   5.157
42786SOL    HW128384   8.827   4.271   5.242
42786SOL    HW228385   8.824   4.410   5.158
42787SOL     OW28386   8.251   5.126   4.648
42787SOL    HW128387   8.341   5.140   4.606
42787SOL    HW228388   8.180   5.128   4.577
42788SOL     OW28389   8.370   4.227   4.623
42788SOL    HW128390   8.345   4.218   4.527
42788SOL    HW228391   8.418   4.145   4.654
42789SOL     OW28392   7.987   3.788   4.236
42789SOL    HW128393   7.906   3.789   4.294
42789SOL    HW228394   7.990   3.871   4.181
42790SOL     OW28395   8.882   4.912   3.765
42790SOL    HW128396   8.914   4.836   3.822
42790SOL    HW228397   8.790   4.939   3.795
42791SOL     OW28398   7.745   3.759   3.895
42791SOL    HW128399   7.794   3.843   3.874
42791SOL    HW228400   7.807   3.694   3.940
42792SOL     OW28401   8.383   3.960   4.204
42792SOL    HW128402   8.335   4.001   4.126
42792SOL    HW228403   8.482   3.958   4.185
42793SOL     OW28404   8.524   4.407   5.188
42793SOL    HW128405   8.444   4.346   5.191
42793SOL    HW228406   8.605   4.354   5.164
42794SOL     OW28407   8.675   5.294   4.517
42794SOL    HW128408   8.696   5.368   4.452
42794SOL    HW228409   8.743   5.294   4.590
42795SOL     OW28410   7.907   4.876   4.465
42795SOL    HW128411   7.836   4.849   4.530
42795SOL    HW228412   7.881   4.848   4.372
42796SOL     OW28413   8.480   4.273   3.740
42796SOL    HW128414   8.439   4.355   3.701
42796SOL    HW228415   8.544   4.299   3.813
42797SOL     OW28416   7.526   4.280   5.110
42797SOL    HW128417   7.618   4.279   5.069
42797SOL    HW228418   7.520   4.354   5.177
42798SOL     OW28419   8.009   3.946   4.871
42798SOL    HW128420   8.047   3.862   4.908
42798SOL    HW228421   7.921   3.965   4.915
42799SOL     OW28422   8.314   4.178   4.366
42799SOL    HW128423   8.282   4.250   4.304
42799SOL    HW228424   8.338   4.097   4.313
42800SOL     OW28425   8.465   3.763   4.477
42800SOL    HW128426   8.393   3.768   4.408
42800SOL    HW228427   8.441   3.694   4.546
42801SOL     OW28428   8.877   4.897   4.591
42801SOL    HW128429   8.822   4.813   4.584
42801SOL    HW228430   8.903   4.926   4.499
42802SOL     OW28431   8.914   4.314   4.716
42802SOL    HW128432   8.884   4.219   4.723
42802SOL    HW228433   8.987   4.330   4.782
42803SOL     OW28434   9.305   4.557   4.101
42803SOL    HW128435   9.347   4.493   4.165
42803SOL    HW228436   9.267   4.506   4.023
42804SOL     OW28437   7.936   5.109   3.898
42804SOL    HW128438   7.849   5.094   3.945
42804SOL    HW228439   7.919   5.135   3.803
42805SOL     OW28440   8.838   4.299   3.802
42805SOL    HW128441   8.784   4.278   3.883
42805SOL    HW228442   8.929   4.258   3.811
42806SOL     OW28443   7.975   3.980   4.052
42806SOL    HW128444   8.002   3.921   3.977
42806SOL    HW228445   7.975   4.075   4.021
42807SOL     OW28446   9.202   4.947   5.312
42807SOL    HW128447   9.293   4.908   5.299
42807SOL    HW228448   9.210   5.043   5.336
42808SOL     OW28449   8.512   5.071   5.064
42808SOL    HW128450   8.432   5.048   5.119
42808SOL    HW228451   8.595   5.045   5.113
42809SOL     OW28452   9.040   5.353   5.349
42809SOL    HW128453   9.067   5.387   5.259
42809SOL    HW228454   9.119   5.315   5.395
42810SOL     OW28455   8.559   4.919   4.824
42810SOL    HW128456   8.519   4.963   4.905
42810SOL    HW228457   8.518   4.956   4.741
42811SOL     OW28458   9.086   4.823   4.803
42811SOL    HW128459   9.091   4.904   4.862
42811SOL    HW228460   9.000   4.825   4.752
42812SOL     OW28461   8.363   3.813   5.126
42812SOL    HW128462   8.388   3.793   5.031
42812SOL    HW228463   8.435   3.869   5.168
42813SOL     OW28464   8.428   4.840   5.443
42813SOL    HW128465   8.329   4.846   5.453
42813SOL    HW228466   8.451   4.760   5.387
42814SOL     OW28467   8.153   4.774   4.092
42814SOL    HW128468   8.139   4.781   4.191
42814SOL    HW228469   8.237   4.723   4.074
42815SOL     OW28470   7.858   4.537   4.975
42815SOL    HW128471   7.944   4.549   5.025
42815SOL    HW228472   7.816   4.450   5.002
42816SOL     OW28473   8.722   4.110   4.986
42816SOL    HW128474   8.743   4.184   5.050
42816SOL    HW228475   8.633   4.127   4.943
42817SOL     OW28476   7.512   5.288   5.055
42817SOL    HW128477   7.466   5.370   5.021
42817SOL    HW228478   7.610   5.307   5.064
42818SOL     OW28479   7.815   4.824   4.225
42818SOL    HW128480   7.808   4.907   4.169
42818SOL    HW228481   7.819   4.744   4.165
42819SOL     OW28482   8.014   4.261   4.589
42819SOL    HW128483   8.026   4.327   4.515
42819SOL    HW228484   8.060   4.295   4.672
42820SOL     OW28485   8.700   5.072   4.112
42820SOL    HW128486   8.750   5.149   4.152
42820SOL    HW228487   8.605   5.074   4.144
42821SOL     OW28488   8.720   5.169   4.866
42821SOL    HW128489   8.767   5.182   4.953
42821SOL    HW228490   8.654   5.095   4.875
42822SOL     OW28491   9.030   4.363   4.196
42822SOL    HW128492   8.999   4.424   4.269
42822SOL    HW228493   9.080   4.415   4.127
42823SOL     OW28494   7.802   5.234   5.053
42823SOL    HW128495   7.781   5.190   4.966
42823SOL    HW228496   7.899   5.260   5.056
42824SOL     OW28497   7.850   4.475   5.322
42824SOL    HW128498   7.918   4.530   5.275
42824SOL    HW228499   7.890   4.387   5.349
42825SOL     OW28500   9.035   4.503   5.394
42825SOL    HW128501   8.943   4.541   5.389
42825SOL    HW228502   9.095   4.550   5.329
42826SOL     OW28503   8.461   3.829   5.494
42826SOL    HW128504   8.467   3.914   5.442
42826SOL    HW228505   8.493   3.753   5.437
42827SOL     OW28506   7.952   3.774   5.464
42827SOL    HW128507   7.910   3.717   5.394
42827SOL    HW228508   7.886   3.843   5.496
42828SOL     OW28509   8.021   4.594   4.753
42828SOL    HW128510   8.065   4.683   4.744
42828SOL    HW228511   7.958   4.594   4.830
42829SOL     OW28512   8.808   4.586   4.769
42829SOL    HW128513   8.733   4.586   4.703
42829SOL    HW228514   8.845   4.494   4.778
42830SOL     OW28515   8.657   4.249   3.999
42830SOL    HW128516   8.670   4.165   4.053
42830SOL    HW228517   8.628   4.323   4.059
42831SOL     OW28518   7.755   3.937   4.955
42831SOL    HW128519   7.732   3.974   5.045
42831SOL    HW228520   7.725   3.842   4.949
42832SOL     OW28521   7.485   5.034   5.006
42832SOL    HW128522   7.538   4.985   5.074
42832SOL    HW228523   7.507   5.132   5.011
42833SOL     OW28524   8.180   4.358   4.788
42833SOL    HW128525   8.239   4.332   4.712
42833SOL    HW228526   8.152   4.454   4.777
42834SOL     OW28527   9.176   4.659   5.578
42834SOL    HW128528   9.130   4.652   5.489
42834SOL    HW228529   9.114   4.703   5.644
42835SOL     OW28530   7.755   3.787   4.342
42835SOL    HW128531   7.744   3.881   4.375
42835SOL    HW228532   7.750   3.724   4.419
42836SOL     OW28533   9.070   4.091   4.098
42836SOL    HW128534   9.072   4.015   4.162
42836SOL    HW228535   9.022   4.168   4.138
42837SOL     OW28536   8.471   4.490   4.690
42837SOL    HW128537   8.486   4.511   4.786
42837SOL    HW228538   8.441   4.395   4.681
42838SOL     OW28539   8.428   5.297   5.424
42838SOL    HW128540   8.408   5.341   5.336
42838SOL    HW228541   8.467   5.206   5.408
42839SOL     OW28542   9.307   5.242   5.329
42839SOL    HW128543   9.321   5.269   5.234
42839SOL    HW228544   9.390   5.264   5.382
42840SOL     OW28545   7.798   4.622   5.528
42840SOL    HW128546   7.874   4.666   5.576
42840SOL    HW228547   7.833   4.575   5.446
42841SOL     OW28548   8.988   3.998   3.849
42841SOL    HW128549   8.927   3.923   3.872
42841SOL    HW228550   9.010   4.050   3.932
42842SOL     OW28551   8.751   4.562   3.766
42842SOL    HW128552   8.785   4.469   3.781
42842SOL    HW228553   8.769   4.589   3.671
42843SOL     OW28554   8.516   5.057   4.573
42843SOL    HW128555   8.523   4.973   4.518
42843SOL    HW228556   8.578   5.126   4.537
42844SOL     OW28557   7.767   4.534   4.673
42844SOL    HW128558   7.860   4.570   4.678
42844SOL    HW228559   7.761   4.449   4.725
42845SOL     OW28560   7.787   4.233   4.730
42845SOL    HW128561   7.735   4.150   4.713
42845SOL    HW228562   7.864   4.238   4.666
42846SOL     OW28563   8.586   4.104   5.402
42846SOL    HW128564   8.541   4.167   5.466
42846SOL    HW228565   8.679   4.135   5.385
42847SOL     OW28566   8.608   3.931   5.201
42847SOL    HW128567   8.608   3.995   5.278
42847SOL    HW228568   8.636   3.979   5.118
42848SOL     OW28569   7.456   5.050   3.924
42848SOL    HW128570   7.363   5.071   3.893
42848SOL    HW228571   7.466   4.951   3.937
42849SOL     OW28572   7.952   5.292   4.634
42849SOL    HW128573   8.018   5.366   4.643
42849SOL    HW228574   7.996   5.213   4.592
42850SOL     OW28575   8.450   4.520   4.962
42850SOL    HW128576   8.491   4.488   5.048
42850SOL    HW228577   8.354   4.493   4.959
42851SOL     OW28578   7.488   4.268   4.838
42851SOL    HW128579   7.573   4.235   4.797
42851SOL    HW228580   7.501   4.283   4.936
42852SOL     OW28581   7.637   4.244   5.446
42852SOL    HW128582   7.696   4.204   5.376
42852SOL    HW228583   7.579   4.315   5.405
42853SOL     OW28584   8.817   4.674   5.384
42853SOL    HW128585   8.856   4.763   5.404
42853SOL    HW228586   8.827   4.654   5.287
42854SOL     OW28587   8.263   4.296   4.049
42854SOL    HW128588   8.270   4.207   4.003
42854SOL    HW228589   8.169   4.330   4.041
42855SOL     OW28590   9.105   4.328   4.930
42855SOL    HW128591   9.067   4.259   4.992
42855SOL    HW228592   9.187   4.292   4.886
42856SOL     OW28593   7.700   5.288   5.468
42856SOL    HW128594   7.670   5.345   5.544
42856SOL    HW228595   7.693   5.191   5.494
42857SOL     OW28596   8.119   4.188   4.993
42857SOL    HW128597   8.085   4.099   4.963
42857SOL    HW228598   8.145   4.242   4.913
42858SOL     OW28599   8.378   5.402   5.189
42858SOL    HW128600   8.354   5.384   5.094
42858SOL    HW228601   8.408   5.496   5.199
42859SOL     OW28602   7.921   4.224   3.915
42859SOL    HW128603   7.982   4.304   3.919
42859SOL    HW228604   7.826   4.255   3.922
42860SOL     OW28605   7.607   4.861   5.190
42860SOL    HW128606   7.629   4.800   5.266
42860SOL    HW228607   7.617   4.812   5.104
42861SOL     OW28608   8.795   4.783   4.958
42861SOL    HW128609   8.819   4.720   4.884
42861SOL    HW228610   8.705   4.823   4.940
42862SOL     OW28611   8.750   4.579   4.033
42862SOL    HW128612   8.664   4.548   4.075
42862SOL    HW228613   8.746   4.565   3.934
42863SOL     OW28614   9.207   5.471   4.878
42863SOL    HW128615   9.268   5.501   4.805
42863SOL    HW228616   9.169   5.382   4.856
42864SOL     OW28617   8.700   5.455   4.852
42864SOL    HW128618   8.784   5.460   4.798
42864SOL    HW228619   8.677   5.359   4.870
42865SOL     OW28620   7.531   4.982   4.746
42865SOL    HW128621   7.526   4.981   4.846
42865SOL    HW228622   7.448   4.941   4.708
42866SOL     OW28623   8.136   5.386   5.440
42866SOL    HW128624   8.080   5.467   5.449
42866SOL    HW228625   8.188   5.390   5.354
42867SOL     OW28626   9.174   3.859   4.247
42867SOL    HW128627   9.247   3.842   4.180
42867SOL    HW228628   9.143   3.772   4.285
42868SOL     OW28629   8.836   5.297   4.201
42868SOL    HW128630   8.903   5.309   4.127
42868SOL    HW228631   8.796   5.386   4.224
42869SOL     OW28632   7.578   5.518   5.575
42869SOL    HW128633   7.537   5.444   5.628
42869SOL    HW228634   7.642   5.569   5.633
42870SOL     OW28635   8.728   4.651   4.396
42870SOL    HW128636   8.788   4.570   4.398
42870SOL    HW228637   8.768   4.720   4.336
42871SOL     OW28638   8.278   4.997   5.146
42871SOL    HW128639   8.273   5.030   5.241
42871SOL    HW228640   8.192   5.016   5.100
42872SOL     OW28641   8.120   5.340   3.878
42872SOL    HW128642   8.129   5.350   3.779
42872SOL    HW228643   8.080   5.251   3.899
42873SOL     OW28644   9.098   5.444   5.118
42873SOL    HW128645   9.151   5.454   5.034
42873SOL    HW228646   9.071   5.534   5.152
42874SOL     OW28647   9.289   3.899   4.687
42874SOL    HW128648   9.328   3.814   4.651
42874SOL    HW228649   9.191   3.901   4.668
42875SOL     OW28650   7.711   4.050   4.444
42875SOL    HW128651   7.632   4.101   4.410
42875SOL    HW228652   7.702   4.035   4.542
42876SOL     OW28653   8.642   5.336   3.755
42876SOL    HW128654   8.648   5.243   3.792
42876SOL    HW228655   8.583   5.336   3.675
42877SOL     OW28656   8.270   4.726   5.096
42877SOL    HW128657   8.310   4.725   5.004
42877SOL    HW228658   8.280   4.818   5.136
42878SOL     OW28659   8.364   4.634   4.015
42878SOL    HW128660   8.427   4.672   3.947
42878SOL    HW228661   8.404   4.551   4.054
42879SOL     OW28662   8.952   5.331   3.768
42879SOL    HW128663   8.860   5.368   3.775
42879SOL    HW228664   8.990   5.351   3.678
42880SOL     OW28665   7.820   5.012   5.214
42880SOL    HW128666   7.807   5.105   5.180
42880SOL    HW228667   7.736   4.960   5.201
42881SOL     OW28668   9.062   5.016   5.013
42881SOL    HW128669   9.122   5.019   5.093
42881SOL    HW228670   8.987   5.080   5.026
42882SOL     OW28671   8.487   4.822   4.420
42882SOL    HW128672   8.417   4.775   4.474
42882SOL    HW228673   8.546   4.754   4.377
42883SOL     OW28674   8.462   3.960   4.695
42883SOL    HW128675   8.454   3.924   4.602
42883SOL    HW228676   8.460   3.884   4.760
42884SOL     OW28677   8.038   5.211   4.215
42884SOL    HW128678   8.080   5.153   4.145
42884SOL    HW228679   7.994   5.290   4.171
42885SOL     OW28680   9.157   4.109   5.105
42885SOL    HW128681   9.230   4.178   5.109
42885SOL    HW228682   9.185   4.034   5.046
42886SOL     OW28683   7.703   5.072   4.014
42886SOL    HW128684   7.607   5.073   3.987
42886SOL    HW228685   7.715   5.125   4.098
42887SOL     OW28686   7.553   4.737   5.450
42887SOL    HW128687   7.476   4.704   5.504
42887SOL    HW228688   7.638   4.707   5.492
42888SOL     OW28689   8.120   3.927   5.213
42888SOL    HW128690   8.210   3.911   5.173
42888SOL    HW228691   8.128   3.932   5.312
42889SOL     OW28692   7.523   4.069   3.757
42889SOL    HW128693   7.431   4.041   3.728
42889SOL    HW228694   7.554   4.146   3.701
42890SOL     OW28695   8.888   4.580   5.122
42890SOL    HW128696   8.831   4.632   5.059
42890SOL    HW228697   8.984   4.592   5.098
42891SOL     OW28698   7.520   3.890   4.042
42891SOL    HW128699   7.503   3.973   3.988
42891SOL    HW228700   7.610   3.853   4.020
42892SOL     OW28701   8.631   5.059   3.843
42892SOL    HW128702   8.532   5.048   3.845
42892SOL    HW228703   8.665   5.074   3.936
42893SOL     OW28704   8.061   4.566   5.155
42893SOL    HW128705   8.117   4.647   5.138
42893SOL    HW228706   8.120   4.486   5.158
42894SOL     OW28707   8.941   5.491   4.683
42894SOL    HW128708   8.974   5.555   4.614
42894SOL    HW228709   9.007   5.485   4.758
42895SOL     OW28710   8.164   4.289   5.432
42895SOL    HW128711   8.183   4.354   5.506
42895SOL    HW228712   8.224   4.209   5.441
42896SOL     OW28713   8.898   4.944   5.357
42896SOL    HW128714   8.889   4.934   5.456
42896SOL    HW228715   8.994   4.937   5.331
42897SOL     OW28716   7.838   5.465   5.284
42897SOL    HW128717   7.747   5.506   5.282
42897SOL    HW228718   7.831   5.371   5.316
42898SOL     OW28719   9.122   4.607   4.978
42898SOL    HW128720   9.095   4.518   4.941
42898SOL    HW228721   9.123   4.675   4.905
42899SOL     OW28722   8.673   4.049   4.173
42899SOL    HW128723   8.738   3.975   4.162
42899SOL    HW228724   8.693   4.099   4.257
42900SOL     OW28725   8.042   4.469   4.376
42900SOL    HW128726   8.092   4.554   4.357
42900SOL    HW228727   7.954   4.471   4.328
42901SOL     OW28728   9.225   4.066   5.366
42901SOL    HW128729   9.208   4.097   5.272
42901SOL    HW228730   9.141   4.029   5.404
42902SOL     OW28731   9.178   4.658   5.241
42902SOL    HW128732   9.216   4.749   5.256
42902SOL    HW228733   9.170   4.641   5.142
42903SOL     OW28734   8.307   5.098   3.740
42903SOL    HW128735   8.261   5.113   3.828
42903SOL    HW228736   8.351   5.183   3.710
42904SOL     OW28737   8.109   5.514   4.677
42904SOL    HW128738   8.063   5.602   4.664
42904SOL    HW228739   8.208   5.526   4.670
42905SOL     OW28740   8.307   4.680   4.585
42905SOL    HW128741   8.361   4.611   4.633
42905SOL    HW228742   8.275   4.749   4.651
42906SOL     OW28743   8.531   4.708   3.811
42906SOL    HW128744   8.508   4.761   3.729
42906SOL    HW228745   8.612   4.652   3.792
42907SOL     OW28746   9.309   5.293   4.575
42907SOL    HW128747   9.238   5.281   4.505
42907SOL    HW228748   9.310   5.214   4.635
42908SOL     OW28749   7.669   5.038   5.568
42908SOL    HW128750   7.604   4.965   5.547
42908SOL    HW228751   7.673   5.052   5.666
42909SOL     OW28752   7.527   4.964   4.377
42909SOL    HW128753   7.526   4.917   4.465
42909SOL    HW228754   7.609   4.936   4.326
42910SOL     OW28755   8.120   5.115   5.348
42910SOL    HW128756   8.042   5.065   5.386
42910SOL    HW228757   8.117   5.210   5.379
42911SOL     OW28758   9.272   3.916   4.951
42911SOL    HW128759   9.268   3.826   4.995
42911SOL    HW228760   9.275   3.905   4.852
42912SOL     OW28761   7.876   4.148   4.244
42912SOL    HW128762   7.906   4.076   4.182
42912SOL    HW228763   7.837   4.108   4.327
42913SOL     OW28764   9.153   5.211   4.828
42913SOL    HW128765   9.060   5.186   4.801
42913SOL    HW228766   9.179   5.161   4.910
42914SOL     OW28767   7.765   4.271   5.004
42914SOL    HW128768   7.803   4.212   5.076
42914SOL    HW228769   7.805   4.245   4.916
42915SOL     OW28770   8.260   5.310   4.411
42915SOL    HW128771   8.292   5.320   4.317
42915SOL    HW228772   8.181   5.248   4.413
42916SOL     OW28773   8.872   3.938   4.836
42916SOL    HW128774   8.924   3.873   4.891
42916SOL    HW228775   8.823   4.001   4.897
42917SOL     OW28776   8.449   3.758   4.878
42917SOL    HW128777   8.386   3.686   4.847
42917SOL    HW228778   8.542   3.722   4.878
42918SOL     OW28779   8.218   5.054   4.025
42918SOL    HW128780   8.172   4.967   4.042
42918SOL    HW228781   8.309   5.051   4.066
42919SOL     OW28782   8.066   5.291   5.008
42919SOL    HW128783   8.061   5.373   5.065
42919SOL    HW228784   8.155   5.288   4.963
42920SOL     OW28785   8.800   3.776   3.892
42920SOL    HW128786   8.835   3.735   3.808
42920SOL    HW228787   8.710   3.738   3.912
42921SOL     OW28788   8.748   4.177   4.415
42921SOL    HW128789   8.689   4.257   4.419
42921SOL    HW228790   8.763   4.142   4.508
42922SOL     OW28791   7.487   4.801   4.024
42922SOL    HW128792   7.586   4.790   4.015
42922SOL    HW228793   7.447   4.715   4.056
42923SOL     OW28794   8.323   5.370   4.061
42923SOL    HW128795   8.246   5.335   4.007
42923SOL    HW228796   8.291   5.441   4.123
42924SOL     OW28797   7.678   4.352   5.699
42924SOL    HW128798   7.585   4.350   5.736
42924SOL    HW228799   7.679   4.313   5.607
42925SOL     OW28800   7.673   3.999   6.582
42925SOL    HW128801   7.708   3.982   6.674
42925SOL    HW228802   7.585   3.954   6.570
42926SOL     OW28803   7.467   4.092   6.233
42926SOL    HW128804   7.385   4.135   6.272
42926SOL    HW228805   7.439   4.019   6.170
42927SOL     OW28806   8.017   4.999   6.751
42927SOL    HW128807   7.924   4.992   6.714
42927SOL    HW228808   8.028   5.088   6.795
42928SOL     OW28809   9.003   5.235   6.289
42928SOL    HW128810   8.946   5.219   6.370
42928SOL    HW228811   8.944   5.245   6.209
42929SOL     OW28812   8.583   4.427   6.303
42929SOL    HW128813   8.640   4.505   6.278
42929SOL    HW228814   8.523   4.453   6.379
42930SOL     OW28815   9.203   4.331   5.817
42930SOL    HW128816   9.191   4.318   5.718
42930SOL    HW228817   9.173   4.250   5.866
42931SOL     OW28818   8.216   4.868   6.609
42931SOL    HW128819   8.138   4.885   6.669
42931SOL    HW228820   8.250   4.955   6.573
42932SOL     OW28821   8.298   4.522   7.409
42932SOL    HW128822   8.294   4.598   7.474
42932SOL    HW228823   8.320   4.558   7.318
42933SOL     OW28824   8.133   4.736   6.251
42933SOL    HW128825   8.202   4.720   6.321
42933SOL    HW228826   8.060   4.793   6.289
42934SOL     OW28827   8.134   4.885   7.389
42934SOL    HW128828   8.194   4.964   7.403
42934SOL    HW228829   8.048   4.916   7.348
42935SOL     OW28830   7.783   5.159   6.647
42935SOL    HW128831   7.705   5.128   6.594
42935SOL    HW228832   7.841   5.217   6.590
42936SOL     OW28833   8.908   5.229   6.925
42936SOL    HW128834   8.932   5.323   6.951
42936SOL    HW228835   8.892   5.175   7.007
42937SOL     OW28836   7.886   4.116   7.085
42937SOL    HW128837   7.968   4.060   7.094
42937SOL    HW228838   7.805   4.058   7.089
42938SOL     OW28839   9.051   4.171   6.323
42938SOL    HW128840   8.977   4.217   6.273
42938SOL    HW228841   9.102   4.239   6.376
42939SOL     OW28842   7.679   5.437   6.069
42939SOL    HW128843   7.713   5.514   6.123
42939SOL    HW228844   7.723   5.437   5.979
42940SOL     OW28845   8.575   5.065   7.276
42940SOL    HW128846   8.622   5.065   7.364
42940SOL    HW228847   8.527   4.978   7.265
42941SOL     OW28848   7.678   5.158   6.124
42941SOL    HW128849   7.652   5.254   6.124
42941SOL    HW228850   7.607   5.104   6.169
42942SOL     OW28851   7.688   4.815   6.472
42942SOL    HW128852   7.702   4.731   6.524
42942SOL    HW228853   7.633   4.879   6.527
42943SOL     OW28854   8.068   5.510   7.025
42943SOL    HW128855   7.976   5.493   7.060
42943SOL    HW228856   8.096   5.602   7.051
42944SOL     OW28857   8.054   4.688   5.709
42944SOL    HW128858   8.061   4.772   5.655
42944SOL    HW228859   8.100   4.701   5.797
42945SOL     OW28860   9.042   3.838   7.066
42945SOL    HW128861   9.024   3.905   6.994
42945SOL    HW228862   9.039   3.884   7.155
42946SOL     OW28863   7.570   4.367   6.149
42946SOL    HW128864   7.525   4.279   6.166
42946SOL    HW228865   7.569   4.421   6.233
42947SOL     OW28866   9.290   5.491   5.945
42947SOL    HW128867   9.344   5.462   6.025
42947SOL    HW228868   9.320   5.581   5.916
42948SOL     OW28869   7.475   5.320   5.703
42948SOL    HW128870   7.456   5.224   5.724
42948SOL    HW228871   7.442   5.378   5.778
42949SOL     OW28872   9.137   4.646   6.198
42949SOL    HW128873   9.232   4.617   6.206
42949SOL    HW228874   9.129   4.711   6.123
42950SOL     OW28875   9.089   4.832   6.018
42950SOL    HW128876   9.175   4.834   5.966
42950SOL    HW228877   9.103   4.879   6.106
42951SOL     OW28878   7.561   4.461   7.183
42951SOL    HW128879   7.649   4.448   7.228
42951SOL    HW228880   7.548   4.558   7.161
42952SOL     OW28881   8.061   5.089   6.312
42952SOL    HW128882   8.012   5.002   6.321
42952SOL    HW228883   8.038   5.132   6.225
42953SOL     OW28884   8.741   4.952   7.009
42953SOL    HW128885   8.778   4.879   6.951
42953SOL    HW228886   8.793   4.957   7.094
42954SOL     OW28887   8.257   3.728   6.088
42954SOL    HW128888   8.297   3.819   6.079
42954SOL    HW228889   8.157   3.736   6.094
42955SOL     OW28890   7.645   4.700   6.850
42955SOL    HW128891   7.734   4.655   6.836
42955SOL    HW228892   7.572   4.635   6.831
42956SOL     OW28893   8.973   4.723   5.776
42956SOL    HW128894   8.910   4.647   5.789
42956SOL    HW228895   9.021   4.741   5.862
42957SOL     OW28896   8.635   5.516   7.202
42957SOL    HW128897   8.659   5.576   7.126
42957SOL    HW228898   8.642   5.421   7.172
42958SOL     OW28899   7.765   3.975   7.387
42958SOL    HW128900   7.836   4.046   7.393
42958SOL    HW228901   7.677   4.014   7.415
42959SOL     OW28902   8.914   5.141   6.539
42959SOL    HW128903   8.855   5.147   6.619
42959SOL    HW228904   8.899   5.053   6.493
42960SOL     OW28905   9.115   5.438   6.158
42960SOL    HW128906   9.074   5.415   6.070
42960SOL    HW228907   9.097   5.364   6.223
42961SOL     OW28908   8.046   4.453   5.856
42961SOL    HW128909   8.070   4.522   5.788
42961SOL    HW228910   7.968   4.486   5.910
42962SOL     OW28911   8.729   4.069   6.530
42962SOL    HW128912   8.643   4.019   6.517
42962SOL    HW228913   8.791   4.015   6.586
42963SOL     OW28914   9.024   5.386   5.893
42963SOL    HW128915   9.113   5.432   5.896
42963SOL    HW228916   9.003   5.362   5.798
42964SOL     OW28917   8.255   4.329   7.051
42964SOL    HW128918   8.208   4.326   7.140
42964SOL    HW228919   8.204   4.274   6.985
42965SOL     OW28920   8.842   4.193   7.260
42965SOL    HW128921   8.822   4.236   7.348
42965SOL    HW228922   8.920   4.131   7.269
42966SOL     OW28923   8.421   4.614   7.158
42966SOL    HW128924   8.467   4.530   7.129
42966SOL    HW228925   8.365   4.648   7.083
42967SOL     OW28926   8.439   4.134   6.828
42967SOL    HW128927   8.362   4.168   6.882
42967SOL    HW228928   8.405   4.083   6.749
42968SOL     OW28929   8.489   4.425   6.015
42968SOL    HW128930   8.515   4.421   6.111
42968SOL    HW228931   8.404   4.374   6.001
42969SOL     OW28932   7.524   4.535   6.375
42969SOL    HW128933   7.623   4.523   6.384
42969SOL    HW228934   7.500   4.630   6.396
42970SOL     OW28935   7.578   5.545   7.157
42970SOL    HW128936   7.568   5.530   7.256
42970SOL    HW228937   7.492   5.581   7.121
42971SOL     OW28938   8.313   4.072   5.781
42971SOL    HW128939   8.372   4.135   5.732
42971SOL    HW228940   8.332   3.978   5.752
42972SOL     OW28941   9.167   4.309   7.417
42972SOL    HW128942   9.141   4.398   7.381
42972SOL    HW228943   9.165   4.241   7.344
42973SOL     OW28944   8.810   4.868   6.131
42973SOL    HW128945   8.893   4.839   6.083
42973SOL    HW228946   8.761   4.935   6.075
42974SOL     OW28947   7.998   3.920   6.471
42974SOL    HW128948   7.993   3.915   6.571
42974SOL    HW228949   8.000   4.016   6.442
42975SOL     OW28950   8.456   5.180   6.063
42975SOL    HW128951   8.410   5.252   6.011
42975SOL    HW228952   8.452   5.200   6.161
42976SOL     OW28953   7.799   5.525   6.439
42976SOL    HW128954   7.849   5.439   6.445
42976SOL    HW228955   7.864   5.602   6.436
42977SOL     OW28956   9.243   4.790   6.459
42977SOL    HW128957   9.181   4.775   6.383
42977SOL    HW228958   9.191   4.801   6.544
42978SOL     OW28959   8.675   5.274   7.092
42978SOL    HW128960   8.681   5.197   7.156
42978SOL    HW228961   8.623   5.248   7.012
42979SOL     OW28962   7.769   4.667   5.828
42979SOL    HW128963   7.851   4.706   5.786
42979SOL    HW228964   7.742   4.585   5.779
42980SOL     OW28965   8.906   4.459   6.314
42980SOL    HW128966   8.901   4.394   6.389
42980SOL    HW228967   8.986   4.518   6.327
42981SOL     OW28968   7.909   4.990   7.313
42981SOL    HW128969   7.859   4.991   7.227
42981SOL    HW228970   7.846   4.972   7.389
42982SOL     OW28971   8.559   5.500   5.823
42982SOL    HW128972   8.499   5.438   5.873
42982SOL    HW228973   8.590   5.456   5.738
42983SOL     OW28974   7.650   4.009   7.084
42983SOL    HW128975   7.570   4.069   7.071
42983SOL    HW228976   7.640   3.960   7.170
42984SOL     OW28977   9.080   5.101   5.667
42984SOL    HW128978   9.048   5.195   5.657
42984SOL    HW228979   9.004   5.038   5.655
42985SOL     OW28980   7.912   5.467   5.909
42985SOL    HW128981   7.945   5.506   5.995
42985SOL    HW228982   7.988   5.460   5.844
42986SOL     OW28983   8.848   3.831   6.012
42986SOL    HW128984   8.824   3.794   5.922
42986SOL    HW228985   8.947   3.847   6.016
42987SOL     OW28986   7.697   5.509   6.827
42987SOL    HW128987   7.754   5.444   6.877
42987SOL    HW228988   7.681   5.476   6.734
42988SOL     OW28989   8.388   5.422   6.490
42988SOL    HW128990   8.468   5.365   6.511
42988SOL    HW228991   8.339   5.382   6.413
42989SOL     OW28992   7.830   4.424   6.066
42989SOL    HW128993   7.875   4.334   6.063
42989SOL    HW228994   7.736   4.413   6.099
42990SOL     OW28995   8.995   3.946   7.315
42990SOL    HW128996   8.990   3.983   7.407
42990SOL    HW228997   8.923   3.877   7.303
42991SOL     OW28998   8.062   3.846   5.703
42991SOL    HW128999   8.160   3.824   5.710
42991SOL    HW229000   8.031   3.829   5.610
42992SOL     OW29001   8.229   3.988   7.335
42992SOL    HW129002   8.296   3.927   7.378
42992SOL    HW229003   8.156   4.007   7.400
42993SOL     OW29004   8.336   5.238   6.781
42993SOL    HW129005   8.313   5.213   6.687
42993SOL    HW229006   8.397   5.169   6.820
42994SOL     OW29007   8.799   4.314   7.019
42994SOL    HW129008   8.827   4.271   7.104
42994SOL    HW229009   8.824   4.410   7.020
42995SOL     OW29010   8.251   5.126   6.510
42995SOL    HW129011   8.341   5.140   6.468
42995SOL    HW229012   8.180   5.128   6.439
42996SOL     OW29013   8.370   4.227   6.485
42996SOL    HW129014   8.345   4.218   6.389
42996SOL    HW229015   8.418   4.145   6.516
42997SOL     OW29016   7.987   3.788   6.098
42997SOL    HW129017   7.906   3.789   6.156
42997SOL    HW229018   7.990   3.871   6.043
42998SOL     OW29019   8.882   4.912   5.627
42998SOL    HW129020   8.914   4.836   5.684
42998SOL    HW229021   8.790   4.939   5.657
42999SOL     OW29022   7.745   3.759   5.757
42999SOL    HW129023   7.794   3.843   5.736
42999SOL    HW229024   7.807   3.694   5.802
43000SOL     OW29025   8.383   3.960   6.066
43000SOL    HW129026   8.335   4.001   5.988
43000SOL    HW229027   8.482   3.958   6.047
43001SOL     OW29028   8.524   4.407   7.050
43001SOL    HW129029   8.444   4.346   7.053
43001SOL    HW229030   8.605   4.354   7.026
43002SOL     OW29031   8.675   5.294   6.379
43002SOL    HW129032   8.696   5.368   6.314
43002SOL    HW229033   8.743   5.294   6.452
43003SOL     OW29034   7.907   4.876   6.327
43003SOL    HW129035   7.836   4.849   6.392
43003SOL    HW229036   7.881   4.848   6.234
43004SOL     OW29037   8.719   5.521   6.177
43004SOL    HW129038   8.763   5.585   6.113
43004SOL    HW229039   8.669   5.573   6.247
43005SOL     OW29040   8.480   4.273   5.602
43005SOL    HW129041   8.439   4.355   5.563
43005SOL    HW229042   8.544   4.299   5.675
43006SOL     OW29043   7.526   4.280   6.972
43006SOL    HW129044   7.618   4.279   6.931
43006SOL    HW229045   7.520   4.354   7.039
43007SOL     OW29046   8.009   3.946   6.733
43007SOL    HW129047   8.047   3.862   6.770
43007SOL    HW229048   7.921   3.965   6.777
43008SOL     OW29049   8.314   4.178   6.228
43008SOL    HW129050   8.282   4.250   6.166
43008SOL    HW229051   8.338   4.097   6.175
43009SOL     OW29052   8.465   3.763   6.339
43009SOL    HW129053   8.393   3.768   6.270
43009SOL    HW229054   8.441   3.694   6.408
43010SOL     OW29055   8.877   4.897   6.453
43010SOL    HW129056   8.822   4.813   6.446
43010SOL    HW229057   8.903   4.926   6.361
43011SOL     OW29058   8.914   4.314   6.578
43011SOL    HW129059   8.884   4.219   6.585
43011SOL    HW229060   8.987   4.330   6.644
43012SOL     OW29061   9.305   4.557   5.963
43012SOL    HW129062   9.347   4.493   6.027
43012SOL    HW229063   9.267   4.506   5.885
43013SOL     OW29064   7.936   5.109   5.760
43013SOL    HW129065   7.849   5.094   5.807
43013SOL    HW229066   7.919   5.135   5.665
43014SOL     OW29067   9.112   5.004   6.243
43014SOL    HW129068   9.211   5.012   6.257
43014SOL    HW229069   9.067   5.088   6.274
43015SOL     OW29070   8.838   4.299   5.664
43015SOL    HW129071   8.784   4.278   5.745
43015SOL    HW229072   8.929   4.258   5.673
43016SOL     OW29073   7.975   3.980   5.914
43016SOL    HW129074   8.002   3.921   5.839
43016SOL    HW229075   7.975   4.075   5.883
43017SOL     OW29076   9.202   4.947   7.174
43017SOL    HW129077   9.293   4.908   7.161
43017SOL    HW229078   9.210   5.043   7.198
43018SOL     OW29079   8.512   5.071   6.926
43018SOL    HW129080   8.432   5.048   6.981
43018SOL    HW229081   8.595   5.045   6.975
43019SOL     OW29082   9.040   5.353   7.211
43019SOL    HW129083   9.067   5.387   7.121
43019SOL    HW229084   9.119   5.315   7.257
43020SOL     OW29085   8.559   4.919   6.686
43020SOL    HW129086   8.519   4.963   6.767
43020SOL    HW229087   8.518   4.956   6.603
43021SOL     OW29088   9.086   4.823   6.665
43021SOL    HW129089   9.091   4.904   6.724
43021SOL    HW229090   9.000   4.825   6.614
43022SOL     OW29091   8.363   3.813   6.988
43022SOL    HW129092   8.388   3.793   6.893
43022SOL    HW229093   8.435   3.869   7.030
43023SOL     OW29094   8.428   4.840   7.305
43023SOL    HW129095   8.329   4.846   7.315
43023SOL    HW229096   8.451   4.760   7.249
43024SOL     OW29097   8.153   4.774   5.954
43024SOL    HW129098   8.139   4.781   6.053
43024SOL    HW229099   8.237   4.723   5.936
43025SOL     OW29100   7.858   4.537   6.837
43025SOL    HW129101   7.944   4.549   6.887
43025SOL    HW229102   7.816   4.450   6.864
43026SOL     OW29103   8.722   4.110   6.848
43026SOL    HW129104   8.743   4.184   6.912
43026SOL    HW229105   8.633   4.127   6.805
43027SOL     OW29106   7.512   5.288   6.917
43027SOL    HW129107   7.466   5.370   6.883
43027SOL    HW229108   7.610   5.307   6.926
43028SOL     OW29109   7.815   4.824   6.087
43028SOL    HW129110   7.808   4.907   6.031
43028SOL    HW229111   7.819   4.744   6.027
43029SOL     OW29112   8.014   4.261   6.451
43029SOL    HW129113   8.026   4.327   6.377
43029SOL    HW229114   8.060   4.295   6.534
43030SOL     OW29115   8.700   5.072   5.974
43030SOL    HW129116   8.750   5.149   6.014
43030SOL    HW229117   8.605   5.074   6.006
43031SOL     OW29118   8.720   5.169   6.728
43031SOL    HW129119   8.767   5.182   6.815
43031SOL    HW229120   8.654   5.095   6.737
43032SOL     OW29121   9.030   4.363   6.058
43032SOL    HW129122   8.999   4.424   6.131
43032SOL    HW229123   9.080   4.415   5.989
43033SOL     OW29124   7.802   5.234   6.915
43033SOL    HW129125   7.781   5.190   6.828
43033SOL    HW229126   7.899   5.260   6.918
43034SOL     OW29127   7.850   4.475   7.184
43034SOL    HW129128   7.918   4.530   7.137
43034SOL    HW229129   7.890   4.387   7.211
43035SOL     OW29130   9.035   4.503   7.256
43035SOL    HW129131   8.943   4.541   7.251
43035SOL    HW229132   9.095   4.550   7.191
43036SOL     OW29133   8.461   3.829   7.356
43036SOL    HW129134   8.467   3.914   7.304
43036SOL    HW229135   8.493   3.753   7.299
43037SOL     OW29136   7.952   3.774   7.326
43037SOL    HW129137   7.910   3.717   7.256
43037SOL    HW229138   7.886   3.843   7.358
43038SOL     OW29139   8.021   4.594   6.615
43038SOL    HW129140   8.065   4.683   6.606
43038SOL    HW229141   7.958   4.594   6.692
43039SOL     OW29142   8.808   4.586   6.631
43039SOL    HW129143   8.733   4.586   6.565
43039SOL    HW229144   8.845   4.494   6.640
43040SOL     OW29145   8.657   4.249   5.861
43040SOL    HW129146   8.670   4.165   5.915
43040SOL    HW229147   8.628   4.323   5.921
43041SOL     OW29148   7.755   3.937   6.817
43041SOL    HW129149   7.732   3.974   6.907
43041SOL    HW229150   7.725   3.842   6.811
43042SOL     OW29151   7.485   5.034   6.868
43042SOL    HW129152   7.538   4.985   6.936
43042SOL    HW229153   7.507   5.132   6.873
43043SOL     OW29154   8.180   4.358   6.650
43043SOL    HW129155   8.239   4.332   6.574
43043SOL    HW229156   8.152   4.454   6.639
43044SOL     OW29157   9.176   4.659   7.440
43044SOL    HW129158   9.130   4.652   7.351
43044SOL    HW229159   9.114   4.703   7.506
43045SOL     OW29160   7.755   3.787   6.204
43045SOL    HW129161   7.744   3.881   6.237
43045SOL    HW229162   7.750   3.724   6.281
43046SOL     OW29163   9.070   4.091   5.960
43046SOL    HW129164   9.072   4.015   6.024
43046SOL    HW229165   9.022   4.168   6.000
43047SOL     OW29166   8.471   4.490   6.552
43047SOL    HW129167   8.486   4.511   6.648
43047SOL    HW229168   8.441   4.395   6.543
43048SOL     OW29169   8.428   5.297   7.286
43048SOL    HW129170   8.408   5.341   7.198
43048SOL    HW229171   8.467   5.206   7.270
43049SOL     OW29172   9.307   5.242   7.191
43049SOL    HW129173   9.321   5.269   7.096
43049SOL    HW229174   9.390   5.264   7.244
43050SOL     OW29175   7.798   4.622   7.390
43050SOL    HW129176   7.874   4.666   7.438
43050SOL    HW229177   7.833   4.575   7.308
43051SOL     OW29178   8.988   3.998   5.711
43051SOL    HW129179   8.927   3.923   5.734
43051SOL    HW229180   9.010   4.050   5.794
43052SOL     OW29181   8.751   4.562   5.628
43052SOL    HW129182   8.785   4.469   5.643
43052SOL    HW229183   8.769   4.589   5.533
43053SOL     OW29184   8.516   5.057   6.435
43053SOL    HW129185   8.523   4.973   6.380
43053SOL    HW229186   8.578   5.126   6.399
43054SOL     OW29187   7.767   4.534   6.535
43054SOL    HW129188   7.860   4.570   6.540
43054SOL    HW229189   7.761   4.449   6.587
43055SOL     OW29190   7.787   4.233   6.592
43055SOL    HW129191   7.735   4.150   6.575
43055SOL    HW229192   7.864   4.238   6.528
43056SOL     OW29193   8.586   4.104   7.264
43056SOL    HW129194   8.541   4.167   7.328
43056SOL    HW229195   8.679   4.135   7.247
43057SOL     OW29196   8.608   3.931   7.063
43057SOL    HW129197   8.608   3.995   7.140
43057SOL    HW229198   8.636   3.979   6.980
43058SOL     OW29199   7.456   5.050   5.786
43058SOL    HW129200   7.363   5.071   5.755
43058SOL    HW229201   7.466   4.951   5.799
43059SOL     OW29202   7.536   5.525   6.513
43059SOL    HW129203   7.494   5.439   6.486
43059SOL    HW229204   7.630   5.528   6.479
43060SOL     OW29205   7.952   5.292   6.496
43060SOL    HW129206   8.018   5.366   6.505
43060SOL    HW229207   7.996   5.213   6.454
43061SOL     OW29208   8.450   4.520   6.824
43061SOL    HW129209   8.491   4.488   6.910
43061SOL    HW229210   8.354   4.493   6.821
43062SOL     OW29211   7.488   4.268   6.700
43062SOL    HW129212   7.573   4.235   6.659
43062SOL    HW229213   7.501   4.283   6.798
43063SOL     OW29214   7.637   4.244   7.308
43063SOL    HW129215   7.696   4.204   7.238
43063SOL    HW229216   7.579   4.315   7.267
43064SOL     OW29217   8.817   4.674   7.246
43064SOL    HW129218   8.856   4.763   7.266
43064SOL    HW229219   8.827   4.654   7.149
43065SOL     OW29220   8.263   4.296   5.911
43065SOL    HW129221   8.270   4.207   5.865
43065SOL    HW229222   8.169   4.330   5.903
43066SOL     OW29223   9.105   4.328   6.792
43066SOL    HW129224   9.067   4.259   6.854
43066SOL    HW229225   9.187   4.292   6.748
43067SOL     OW29226   7.700   5.288   7.330
43067SOL    HW129227   7.670   5.345   7.406
43067SOL    HW229228   7.693   5.191   7.356
43068SOL     OW29229   8.119   4.188   6.855
43068SOL    HW129230   8.085   4.099   6.825
43068SOL    HW229231   8.145   4.242   6.775
43069SOL     OW29232   8.378   5.402   7.051
43069SOL    HW129233   8.354   5.384   6.956
43069SOL    HW229234   8.408   5.496   7.061
43070SOL     OW29235   7.921   4.224   5.777
43070SOL    HW129236   7.982   4.304   5.781
43070SOL    HW229237   7.826   4.255   5.784
43071SOL     OW29238   7.607   4.861   7.052
43071SOL    HW129239   7.629   4.800   7.128
43071SOL    HW229240   7.617   4.812   6.966
43072SOL     OW29241   8.795   4.783   6.820
43072SOL    HW129242   8.819   4.720   6.746
43072SOL    HW229243   8.705   4.823   6.802
43073SOL     OW29244   8.750   4.579   5.895
43073SOL    HW129245   8.664   4.548   5.937
43073SOL    HW229246   8.746   4.565   5.796
43074SOL     OW29247   9.207   5.471   6.740
43074SOL    HW129248   9.268   5.501   6.667
43074SOL    HW229249   9.169   5.382   6.718
43075SOL     OW29250   8.700   5.455   6.714
43075SOL    HW129251   8.784   5.460   6.660
43075SOL    HW229252   8.677   5.359   6.732
43076SOL     OW29253   7.531   4.982   6.608
43076SOL    HW129254   7.526   4.981   6.708
43076SOL    HW229255   7.448   4.941   6.570
43077SOL     OW29256   8.136   5.386   7.302
43077SOL    HW129257   8.080   5.467   7.311
43077SOL    HW229258   8.188   5.390   7.216
43078SOL     OW29259   9.174   3.859   6.109
43078SOL    HW129260   9.247   3.842   6.042
43078SOL    HW229261   9.143   3.772   6.147
43079SOL     OW29262   8.836   5.297   6.063
43079SOL    HW129263   8.903   5.309   5.989
43079SOL    HW229264   8.796   5.386   6.086
43080SOL     OW29265   7.578   5.518   7.437
43080SOL    HW129266   7.537   5.444   7.490
43080SOL    HW229267   7.642   5.569   7.495
43081SOL     OW29268   8.728   4.651   6.258
43081SOL    HW129269   8.788   4.570   6.260
43081SOL    HW229270   8.768   4.720   6.198
43082SOL     OW29271   8.278   4.997   7.008
43082SOL    HW129272   8.273   5.030   7.103
43082SOL    HW229273   8.192   5.016   6.962
43083SOL     OW29274   8.120   5.340   5.740
43083SOL    HW129275   8.129   5.350   5.641
43083SOL    HW229276   8.080   5.251   5.761
43084SOL     OW29277   9.098   5.444   6.980
43084SOL    HW129278   9.151   5.454   6.896
43084SOL    HW229279   9.071   5.534   7.014
43085SOL     OW29280   9.289   3.899   6.549
43085SOL    HW129281   9.328   3.814   6.513
43085SOL    HW229282   9.191   3.901   6.530
43086SOL     OW29283   7.711   4.050   6.306
43086SOL    HW129284   7.632   4.101   6.272
43086SOL    HW229285   7.702   4.035   6.404
43087SOL     OW29286   8.642   5.336   5.617
43087SOL    HW129287   8.648   5.243   5.654
43087SOL    HW229288   8.583   5.336   5.537
43088SOL     OW29289   8.270   4.726   6.958
43088SOL    HW129290   8.310   4.725   6.866
43088SOL    HW229291   8.280   4.818   6.998
43089SOL     OW29292   8.364   4.634   5.877
43089SOL    HW129293   8.427   4.672   5.809
43089SOL    HW229294   8.404   4.551   5.916
43090SOL     OW29295   8.952   5.331   5.630
43090SOL    HW129296   8.860   5.368   5.637
43090SOL    HW229297   8.990   5.351   5.540
43091SOL     OW29298   7.820   5.012   7.076
43091SOL    HW129299   7.807   5.105   7.042
43091SOL    HW229300   7.736   4.960   7.063
43092SOL     OW29301   9.062   5.016   6.875
43092SOL    HW129302   9.122   5.019   6.955
43092SOL    HW229303   8.987   5.080   6.888
43093SOL     OW29304   8.487   4.822   6.282
43093SOL    HW129305   8.417   4.775   6.336
43093SOL    HW229306   8.546   4.754   6.239
43094SOL     OW29307   8.462   3.960   6.557
43094SOL    HW129308   8.454   3.924   6.464
43094SOL    HW229309   8.460   3.884   6.622
43095SOL     OW29310   8.038   5.211   6.077
43095SOL    HW129311   8.080   5.153   6.007
43095SOL    HW229312   7.994   5.290   6.033
43096SOL     OW29313   9.157   4.109   6.967
43096SOL    HW129314   9.230   4.178   6.971
43096SOL    HW229315   9.185   4.034   6.908
43097SOL     OW29316   7.703   5.072   5.876
43097SOL    HW129317   7.607   5.073   5.849
43097SOL    HW229318   7.715   5.125   5.960
43098SOL     OW29319   7.553   4.737   7.312
43098SOL    HW129320   7.476   4.704   7.366
43098SOL    HW229321   7.638   4.707   7.354
43099SOL     OW29322   8.120   3.927   7.075
43099SOL    HW129323   8.210   3.911   7.035
43099SOL    HW229324   8.128   3.932   7.174
43100SOL     OW29325   7.523   4.069   5.619
43100SOL    HW129326   7.431   4.041   5.590
43100SOL    HW229327   7.554   4.146   5.563
43101SOL     OW29328   8.888   4.580   6.984
43101SOL    HW129329   8.831   4.632   6.921
43101SOL    HW229330   8.984   4.592   6.960
43102SOL     OW29331   7.520   3.890   5.904
43102SOL    HW129332   7.503   3.973   5.850
43102SOL    HW229333   7.610   3.853   5.882
43103SOL     OW29334   8.631   5.059   5.705
43103SOL    HW129335   8.532   5.048   5.707
43103SOL    HW229336   8.665   5.074   5.798
43104SOL     OW29337   8.061   4.566   7.017
43104SOL    HW129338   8.117   4.647   7.000
43104SOL    HW229339   8.120   4.486   7.020
43105SOL     OW29340   8.941   5.491   6.545
43105SOL    HW129341   8.974   5.555   6.476
43105SOL    HW229342   9.007   5.485   6.620
43106SOL     OW29343   8.164   4.289   7.294
43106SOL    HW129344   8.183   4.354   7.368
43106SOL    HW229345   8.224   4.209   7.303
43107SOL     OW29346   8.898   4.944   7.219
43107SOL    HW129347   8.889   4.934   7.318
43107SOL    HW229348   8.994   4.937   7.193
43108SOL     OW29349   7.838   5.465   7.146
43108SOL    HW129350   7.747   5.506   7.144
43108SOL    HW229351   7.831   5.371   7.178
43109SOL     OW29352   9.122   4.607   6.840
43109SOL    HW129353   9.095   4.518   6.803
43109SOL    HW229354   9.123   4.675   6.767
43110SOL     OW29355   8.673   4.049   6.035
43110SOL    HW129356   8.738   3.975   6.024
43110SOL    HW229357   8.693   4.099   6.119
43111SOL     OW29358   8.042   4.469   6.238
43111SOL    HW129359   8.092   4.554   6.219
43111SOL    HW229360   7.954   4.471   6.190
43112SOL     OW29361   9.225   4.066   7.228
43112SOL    HW129362   9.208   4.097   7.134
43112SOL    HW229363   9.141   4.029   7.266
43113SOL     OW29364   9.178   4.658   7.103
43113SOL    HW129365   9.216   4.749   7.118
43113SOL    HW229366   9.170   4.641   7.004
43114SOL     OW29367   8.307   5.098   5.602
43114SOL    HW129368   8.261   5.113   5.690
43114SOL    HW229369   8.351   5.183   5.572
43115SOL     OW29370   8.109   5.514   6.539
43115SOL    HW129371   8.063   5.602   6.526
43115SOL    HW229372   8.208   5.526   6.532
43116SOL     OW29373   8.307   4.680   6.447
43116SOL    HW129374   8.361   4.611   6.495
43116SOL    HW229375   8.275   4.749   6.513
43117SOL     OW29376   8.531   4.708   5.673
43117SOL    HW129377   8.508   4.761   5.591
43117SOL    HW229378   8.612   4.652   5.654
43118SOL     OW29379   9.309   5.293   6.437
43118SOL    HW129380   9.238   5.281   6.367
43118SOL    HW229381   9.310   5.214   6.497
43119SOL     OW29382   7.669   5.038   7.430
43119SOL    HW129383   7.604   4.965   7.409
43119SOL    HW229384   7.673   5.052   7.528
43120SOL     OW29385   7.527   4.964   6.239
43120SOL    HW129386   7.526   4.917   6.327
43120SOL    HW229387   7.609   4.936   6.188
43121SOL     OW29388   8.120   5.115   7.210
43121SOL    HW129389   8.042   5.065   7.248
43121SOL    HW229390   8.117   5.210   7.241
43122SOL     OW29391   9.272   3.916   6.813
43122SOL    HW129392   9.268   3.826   6.857
43122SOL    HW229393   9.275   3.905   6.714
43123SOL     OW29394   7.876   4.148   6.106
43123SOL    HW129395   7.906   4.076   6.044
43123SOL    HW229396   7.837   4.108   6.189
43124SOL     OW29397   9.153   5.211   6.690
43124SOL    HW129398   9.060   5.186   6.663
43124SOL    HW229399   9.179   5.161   6.772
43125SOL     OW29400   7.765   4.271   6.866
43125SOL    HW129401   7.803   4.212   6.938
43125SOL    HW229402   7.805   4.245   6.778
43126SOL     OW29403   8.260   5.310   6.273
43126SOL    HW129404   8.292   5.320   6.179
43126SOL    HW229405   8.181   5.248   6.275
43127SOL     OW29406   8.872   3.938   6.698
43127SOL    HW129407   8.924   3.873   6.753
43127SOL    HW229408   8.823   4.001   6.759
43128SOL     OW29409   8.449   3.758   6.740
43128SOL    HW129410   8.386   3.686   6.709
43128SOL    HW229411   8.542   3.722   6.740
43129SOL     OW29412   8.218   5.054   5.887
43129SOL    HW129413   8.172   4.967   5.904
43129SOL    HW229414   8.309   5.051   5.928
43130SOL     OW29415   8.066   5.291   6.870
43130SOL    HW129416   8.061   5.373   6.927
43130SOL    HW229417   8.155   5.288   6.825
43131SOL     OW29418   8.800   3.776   5.754
43131SOL    HW129419   8.835   3.735   5.670
43131SOL    HW229420   8.710   3.738   5.774
43132SOL     OW29421   8.748   4.177   6.277
43132SOL    HW129422   8.689   4.257   6.281
43132SOL    HW229423   8.763   4.142   6.370
43133SOL     OW29424   9.041   3.945   6.468
43133SOL    HW129425   8.957   3.944   6.522
43133SOL    HW229426   9.043   4.028   6.412
43134SOL     OW29427   7.487   4.801   5.886
43134SOL    HW129428   7.586   4.790   5.877
43134SOL    HW229429   7.447   4.715   5.918
43135SOL     OW29430   8.323   5.370   5.923
43135SOL    HW129431   8.246   5.335   5.869
43135SOL    HW229432   8.291   5.441   5.985
43136SOL     OW29433   7.678   4.352   7.561
43136SOL    HW129434   7.585   4.350   7.598
43136SOL    HW229435   7.679   4.313   7.469
43137SOL     OW29436   7.673   3.999   8.444
43137SOL    HW129437   7.708   3.982   8.536
43137SOL    HW229438   7.585   3.954   8.432
43138SOL     OW29439   7.467   4.092   8.095
43138SOL    HW129440   7.385   4.135   8.134
43138SOL    HW229441   7.439   4.019   8.032
43139SOL     OW29442   8.017   4.999   8.613
43139SOL    HW129443   7.924   4.992   8.576
43139SOL    HW229444   8.028   5.088   8.657
43140SOL     OW29445   9.003   5.235   8.151
43140SOL    HW129446   8.946   5.219   8.232
43140SOL    HW229447   8.944   5.245   8.071
43141SOL     OW29448   8.583   4.427   8.165
43141SOL    HW129449   8.640   4.505   8.140
43141SOL    HW229450   8.523   4.453   8.241
43142SOL     OW29451   9.203   4.331   7.679
43142SOL    HW129452   9.191   4.318   7.580
43142SOL    HW229453   9.173   4.250   7.728
43143SOL     OW29454   8.216   4.868   8.471
43143SOL    HW129455   8.138   4.885   8.531
43143SOL    HW229456   8.250   4.955   8.435
43144SOL     OW29457   8.298   4.522   9.271
43144SOL    HW129458   8.294   4.598   9.336
43144SOL    HW229459   8.320   4.558   9.180
43145SOL     OW29460   8.133   4.736   8.113
43145SOL    HW129461   8.202   4.720   8.183
43145SOL    HW229462   8.060   4.793   8.151
43146SOL     OW29463   8.134   4.885   9.251
43146SOL    HW129464   8.194   4.964   9.265
43146SOL    HW229465   8.048   4.916   9.210
43147SOL     OW29466   7.783   5.159   8.509
43147SOL    HW129467   7.705   5.128   8.456
43147SOL    HW229468   7.841   5.217   8.452
43148SOL     OW29469   8.908   5.229   8.787
43148SOL    HW129470   8.932   5.323   8.813
43148SOL    HW229471   8.892   5.175   8.869
43149SOL     OW29472   7.886   4.116   8.947
43149SOL    HW129473   7.968   4.060   8.956
43149SOL    HW229474   7.805   4.058   8.951
43150SOL     OW29475   9.051   4.171   8.185
43150SOL    HW129476   8.977   4.217   8.135
43150SOL    HW229477   9.102   4.239   8.238
43151SOL     OW29478   7.679   5.437   7.931
43151SOL    HW129479   7.713   5.514   7.985
43151SOL    HW229480   7.723   5.437   7.841
43152SOL     OW29481   8.575   5.065   9.138
43152SOL    HW129482   8.622   5.065   9.226
43152SOL    HW229483   8.527   4.978   9.127
43153SOL     OW29484   7.678   5.158   7.986
43153SOL    HW129485   7.652   5.254   7.986
43153SOL    HW229486   7.607   5.104   8.031
43154SOL     OW29487   7.688   4.815   8.334
43154SOL    HW129488   7.702   4.731   8.386
43154SOL    HW229489   7.633   4.879   8.389
43155SOL     OW29490   8.068   5.510   8.887
43155SOL    HW129491   7.976   5.493   8.922
43155SOL    HW229492   8.096   5.602   8.913
43156SOL     OW29493   8.054   4.688   7.571
43156SOL    HW129494   8.061   4.772   7.517
43156SOL    HW229495   8.100   4.701   7.659
43157SOL     OW29496   9.042   3.838   8.928
43157SOL    HW129497   9.024   3.905   8.856
43157SOL    HW229498   9.039   3.884   9.017
43158SOL     OW29499   7.570   4.367   8.011
43158SOL    HW129500   7.525   4.279   8.028
43158SOL    HW229501   7.569   4.421   8.095
43159SOL     OW29502   9.290   5.491   7.807
43159SOL    HW129503   9.344   5.462   7.887
43159SOL    HW229504   9.320   5.581   7.778
43160SOL     OW29505   7.475   5.320   7.565
43160SOL    HW129506   7.456   5.224   7.586
43160SOL    HW229507   7.442   5.378   7.640
43161SOL     OW29508   9.137   4.646   8.060
43161SOL    HW129509   9.232   4.617   8.068
43161SOL    HW229510   9.129   4.711   7.985
43162SOL     OW29511   9.089   4.832   7.880
43162SOL    HW129512   9.175   4.834   7.828
43162SOL    HW229513   9.103   4.879   7.968
43163SOL     OW29514   7.561   4.461   9.045
43163SOL    HW129515   7.649   4.448   9.090
43163SOL    HW229516   7.548   4.558   9.023
43164SOL     OW29517   8.061   5.089   8.174
43164SOL    HW129518   8.012   5.002   8.183
43164SOL    HW229519   8.038   5.132   8.087
43165SOL     OW29520   8.741   4.952   8.871
43165SOL    HW129521   8.778   4.879   8.813
43165SOL    HW229522   8.793   4.957   8.956
43166SOL     OW29523   8.257   3.728   7.950
43166SOL    HW129524   8.297   3.819   7.941
43166SOL    HW229525   8.157   3.736   7.956
43167SOL     OW29526   7.645   4.700   8.712
43167SOL    HW129527   7.734   4.655   8.698
43167SOL    HW229528   7.572   4.635   8.693
43168SOL     OW29529   8.973   4.723   7.638
43168SOL    HW129530   8.910   4.647   7.651
43168SOL    HW229531   9.021   4.741   7.724
43169SOL     OW29532   8.635   5.516   9.064
43169SOL    HW129533   8.659   5.576   8.988
43169SOL    HW229534   8.642   5.421   9.034
43170SOL     OW29535   7.765   3.975   9.249
43170SOL    HW129536   7.836   4.046   9.255
43170SOL    HW229537   7.677   4.014   9.277
43171SOL     OW29538   8.914   5.141   8.401
43171SOL    HW129539   8.855   5.147   8.481
43171SOL    HW229540   8.899   5.053   8.355
43172SOL     OW29541   9.115   5.438   8.020
43172SOL    HW129542   9.074   5.415   7.932
43172SOL    HW229543   9.097   5.364   8.085
43173SOL     OW29544   8.046   4.453   7.718
43173SOL    HW129545   8.070   4.522   7.650
43173SOL    HW229546   7.968   4.486   7.772
43174SOL     OW29547   8.729   4.069   8.392
43174SOL    HW129548   8.643   4.019   8.379
43174SOL    HW229549   8.791   4.015   8.448
43175SOL     OW29550   9.024   5.386   7.755
43175SOL    HW129551   9.113   5.432   7.758
43175SOL    HW229552   9.003   5.362   7.660
43176SOL     OW29553   8.255   4.329   8.913
43176SOL    HW129554   8.208   4.326   9.002
43176SOL    HW229555   8.204   4.274   8.847
43177SOL     OW29556   8.842   4.193   9.122
43177SOL    HW129557   8.822   4.236   9.210
43177SOL    HW229558   8.920   4.131   9.131
43178SOL     OW29559   8.421   4.614   9.020
43178SOL    HW129560   8.467   4.530   8.991
43178SOL    HW229561   8.365   4.648   8.945
43179SOL     OW29562   8.439   4.134   8.690
43179SOL    HW129563   8.362   4.168   8.744
43179SOL    HW229564   8.405   4.083   8.611
43180SOL     OW29565   8.489   4.425   7.877
43180SOL    HW129566   8.515   4.421   7.973
43180SOL    HW229567   8.404   4.374   7.863
43181SOL     OW29568   7.524   4.535   8.237
43181SOL    HW129569   7.623   4.523   8.246
43181SOL    HW229570   7.500   4.630   8.258
43182SOL     OW29571   7.578   5.545   9.019
43182SOL    HW129572   7.568   5.530   9.118
43182SOL    HW229573   7.492   5.581   8.983
43183SOL     OW29574   8.313   4.072   7.643
43183SOL    HW129575   8.372   4.135   7.594
43183SOL    HW229576   8.332   3.978   7.614
43184SOL     OW29577   9.167   4.309   9.279
43184SOL    HW129578   9.141   4.398   9.243
43184SOL    HW229579   9.165   4.241   9.206
43185SOL     OW29580   8.810   4.868   7.993
43185SOL    HW129581   8.893   4.839   7.945
43185SOL    HW229582   8.761   4.935   7.937
43186SOL     OW29583   7.998   3.920   8.333
43186SOL    HW129584   7.993   3.915   8.433
43186SOL    HW229585   8.000   4.016   8.304
43187SOL     OW29586   8.456   5.180   7.925
43187SOL    HW129587   8.410   5.252   7.873
43187SOL    HW229588   8.452   5.200   8.023
43188SOL     OW29589   7.799   5.525   8.301
43188SOL    HW129590   7.849   5.439   8.307
43188SOL    HW229591   7.864   5.602   8.298
43189SOL     OW29592   9.243   4.790   8.321
43189SOL    HW129593   9.181   4.775   8.245
43189SOL    HW229594   9.191   4.801   8.406
43190SOL     OW29595   8.675   5.274   8.954
43190SOL    HW129596   8.681   5.197   9.018
43190SOL    HW229597   8.623   5.248   8.874
43191SOL     OW29598   7.769   4.667   7.690
43191SOL    HW129599   7.851   4.706   7.648
43191SOL    HW229600   7.742   4.585   7.641
43192SOL     OW29601   8.906   4.459   8.176
43192SOL    HW129602   8.901   4.394   8.251
43192SOL    HW229603   8.986   4.518   8.189
43193SOL     OW29604   7.909   4.990   9.175
43193SOL    HW129605   7.859   4.991   9.089
43193SOL    HW229606   7.846   4.972   9.251
43194SOL     OW29607   7.650   4.009   8.946
43194SOL    HW129608   7.570   4.069   8.933
43194SOL    HW229609   7.640   3.960   9.032
43195SOL     OW29610   9.080   5.101   7.529
43195SOL    HW129611   9.048   5.195   7.519
43195SOL    HW229612   9.004   5.038   7.517
43196SOL     OW29613   7.912   5.467   7.771
43196SOL    HW129614   7.945   5.506   7.857
43196SOL    HW229615   7.988   5.460   7.706
43197SOL     OW29616   8.848   3.831   7.874
43197SOL    HW129617   8.824   3.794   7.784
43197SOL    HW229618   8.947   3.847   7.878
43198SOL     OW29619   7.697   5.509   8.689
43198SOL    HW129620   7.754   5.444   8.739
43198SOL    HW229621   7.681   5.476   8.596
43199SOL     OW29622   8.388   5.422   8.352
43199SOL    HW129623   8.468   5.365   8.373
43199SOL    HW229624   8.339   5.382   8.275
43200SOL     OW29625   7.830   4.424   7.928
43200SOL    HW129626   7.875   4.334   7.925
43200SOL    HW229627   7.736   4.413   7.961
43201SOL     OW29628   8.995   3.946   9.177
43201SOL    HW129629   8.990   3.983   9.269
43201SOL    HW229630   8.923   3.877   9.165
43202SOL     OW29631   8.062   3.846   7.565
43202SOL    HW129632   8.160   3.824   7.572
43202SOL    HW229633   8.031   3.829   7.472
43203SOL     OW29634   8.229   3.988   9.197
43203SOL    HW129635   8.296   3.927   9.240
43203SOL    HW229636   8.156   4.007   9.262
43204SOL     OW29637   8.336   5.238   8.643
43204SOL    HW129638   8.313   5.213   8.549
43204SOL    HW229639   8.397   5.169   8.682
43205SOL     OW29640   8.799   4.314   8.881
43205SOL    HW129641   8.827   4.271   8.966
43205SOL    HW229642   8.824   4.410   8.882
43206SOL     OW29643   8.251   5.126   8.372
43206SOL    HW129644   8.341   5.140   8.330
43206SOL    HW229645   8.180   5.128   8.301
43207SOL     OW29646   8.370   4.227   8.347
43207SOL    HW129647   8.345   4.218   8.251
43207SOL    HW229648   8.418   4.145   8.378
43208SOL     OW29649   7.987   3.788   7.960
43208SOL    HW129650   7.906   3.789   8.018
43208SOL    HW229651   7.990   3.871   7.905
43209SOL     OW29652   8.882   4.912   7.489
43209SOL    HW129653   8.914   4.836   7.546
43209SOL    HW229654   8.790   4.939   7.519
43210SOL     OW29655   7.745   3.759   7.619
43210SOL    HW129656   7.794   3.843   7.598
43210SOL    HW229657   7.807   3.694   7.664
43211SOL     OW29658   8.383   3.960   7.928
43211SOL    HW129659   8.335   4.001   7.850
43211SOL    HW229660   8.482   3.958   7.909
43212SOL     OW29661   8.524   4.407   8.912
43212SOL    HW129662   8.444   4.346   8.915
43212SOL    HW229663   8.605   4.354   8.888
43213SOL     OW29664   8.675   5.294   8.241
43213SOL    HW129665   8.696   5.368   8.176
43213SOL    HW229666   8.743   5.294   8.314
43214SOL     OW29667   7.907   4.876   8.189
43214SOL    HW129668   7.836   4.849   8.254
43214SOL    HW229669   7.881   4.848   8.096
43215SOL     OW29670   8.719   5.521   8.039
43215SOL    HW129671   8.763   5.585   7.975
43215SOL    HW229672   8.669   5.573   8.109
43216SOL     OW29673   8.480   4.273   7.464
43216SOL    HW129674   8.439   4.355   7.425
43216SOL    HW229675   8.544   4.299   7.537
43217SOL     OW29676   7.526   4.280   8.834
43217SOL    HW129677   7.618   4.279   8.793
43217SOL    HW229678   7.520   4.354   8.901
43218SOL     OW29679   8.009   3.946   8.595
43218SOL    HW129680   8.047   3.862   8.632
43218SOL    HW229681   7.921   3.965   8.639
43219SOL     OW29682   8.314   4.178   8.090
43219SOL    HW129683   8.282   4.250   8.028
43219SOL    HW229684   8.338   4.097   8.037
43220SOL     OW29685   8.465   3.763   8.201
43220SOL    HW129686   8.393   3.768   8.132
43220SOL    HW229687   8.441   3.694   8.270
43221SOL     OW29688   8.877   4.897   8.315
43221SOL    HW129689   8.822   4.813   8.308
43221SOL    HW229690   8.903   4.926   8.223
43222SOL     OW29691   8.914   4.314   8.440
43222SOL    HW129692   8.884   4.219   8.447
43222SOL    HW229693   8.987   4.330   8.506
43223SOL     OW29694   9.305   4.557   7.825
43223SOL    HW129695   9.347   4.493   7.889
43223SOL    HW229696   9.267   4.506   7.747
43224SOL     OW29697   7.936   5.109   7.622
43224SOL    HW129698   7.849   5.094   7.669
43224SOL    HW229699   7.919   5.135   7.527
43225SOL     OW29700   9.112   5.004   8.105
43225SOL    HW129701   9.211   5.012   8.119
43225SOL    HW229702   9.067   5.088   8.136
43226SOL     OW29703   8.838   4.299   7.526
43226SOL    HW129704   8.784   4.278   7.607
43226SOL    HW229705   8.929   4.258   7.535
43227SOL     OW29706   7.975   3.980   7.776
43227SOL    HW129707   8.002   3.921   7.701
43227SOL    HW229708   7.975   4.075   7.745
43228SOL     OW29709   9.202   4.947   9.036
43228SOL    HW129710   9.293   4.908   9.023
43228SOL    HW229711   9.210   5.043   9.060
43229SOL     OW29712   8.512   5.071   8.788
43229SOL    HW129713   8.432   5.048   8.843
43229SOL    HW229714   8.595   5.045   8.837
43230SOL     OW29715   9.040   5.353   9.073
43230SOL    HW129716   9.067   5.387   8.983
43230SOL    HW229717   9.119   5.315   9.119
43231SOL     OW29718   8.559   4.919   8.548
43231SOL    HW129719   8.519   4.963   8.629
43231SOL    HW229720   8.518   4.956   8.465
43232SOL     OW29721   9.086   4.823   8.527
43232SOL    HW129722   9.091   4.904   8.586
43232SOL    HW229723   9.000   4.825   8.476
43233SOL     OW29724   8.363   3.813   8.850
43233SOL    HW129725   8.388   3.793   8.755
43233SOL    HW229726   8.435   3.869   8.892
43234SOL     OW29727   8.428   4.840   9.167
43234SOL    HW129728   8.329   4.846   9.177
43234SOL    HW229729   8.451   4.760   9.111
43235SOL     OW29730   8.153   4.774   7.816
43235SOL    HW129731   8.139   4.781   7.915
43235SOL    HW229732   8.237   4.723   7.798
43236SOL     OW29733   7.858   4.537   8.699
43236SOL    HW129734   7.944   4.549   8.749
43236SOL    HW229735   7.816   4.450   8.726
43237SOL     OW29736   8.722   4.110   8.710
43237SOL    HW129737   8.743   4.184   8.774
43237SOL    HW229738   8.633   4.127   8.667
43238SOL     OW29739   7.512   5.288   8.779
43238SOL    HW129740   7.466   5.370   8.745
43238SOL    HW229741   7.610   5.307   8.788
43239SOL     OW29742   7.815   4.824   7.949
43239SOL    HW129743   7.808   4.907   7.893
43239SOL    HW229744   7.819   4.744   7.889
43240SOL     OW29745   8.014   4.261   8.313
43240SOL    HW129746   8.026   4.327   8.239
43240SOL    HW229747   8.060   4.295   8.396
43241SOL     OW29748   8.700   5.072   7.836
43241SOL    HW129749   8.750   5.149   7.876
43241SOL    HW229750   8.605   5.074   7.868
43242SOL     OW29751   8.720   5.169   8.590
43242SOL    HW129752   8.767   5.182   8.677
43242SOL    HW229753   8.654   5.095   8.599
43243SOL     OW29754   9.030   4.363   7.920
43243SOL    HW129755   8.999   4.424   7.993
43243SOL    HW229756   9.080   4.415   7.851
43244SOL     OW29757   7.802   5.234   8.777
43244SOL    HW129758   7.781   5.190   8.690
43244SOL    HW229759   7.899   5.260   8.780
43245SOL     OW29760   7.850   4.475   9.046
43245SOL    HW129761   7.918   4.530   8.999
43245SOL    HW229762   7.890   4.387   9.073
43246SOL     OW29763   9.035   4.503   9.118
43246SOL    HW129764   8.943   4.541   9.113
43246SOL    HW229765   9.095   4.550   9.053
43247SOL     OW29766   8.461   3.829   9.218
43247SOL    HW129767   8.467   3.914   9.166
43247SOL    HW229768   8.493   3.753   9.161
43248SOL     OW29769   7.952   3.774   9.188
43248SOL    HW129770   7.910   3.717   9.118
43248SOL    HW229771   7.886   3.843   9.220
43249SOL     OW29772   8.021   4.594   8.477
43249SOL    HW129773   8.065   4.683   8.468
43249SOL    HW229774   7.958   4.594   8.554
43250SOL     OW29775   8.808   4.586   8.493
43250SOL    HW129776   8.733   4.586   8.427
43250SOL    HW229777   8.845   4.494   8.502
43251SOL     OW29778   8.657   4.249   7.723
43251SOL    HW129779   8.670   4.165   7.777
43251SOL    HW229780   8.628   4.323   7.783
43252SOL     OW29781   7.755   3.937   8.679
43252SOL    HW129782   7.732   3.974   8.769
43252SOL    HW229783   7.725   3.842   8.673
43253SOL     OW29784   7.485   5.034   8.730
43253SOL    HW129785   7.538   4.985   8.798
43253SOL    HW229786   7.507   5.132   8.735
43254SOL     OW29787   8.180   4.358   8.512
43254SOL    HW129788   8.239   4.332   8.436
43254SOL    HW229789   8.152   4.454   8.501
43255SOL     OW29790   9.176   4.659   9.302
43255SOL    HW129791   9.130   4.652   9.213
43255SOL    HW229792   9.114   4.703   9.368
43256SOL     OW29793   7.755   3.787   8.066
43256SOL    HW129794   7.744   3.881   8.099
43256SOL    HW229795   7.750   3.724   8.143
43257SOL     OW29796   9.070   4.091   7.822
43257SOL    HW129797   9.072   4.015   7.886
43257SOL    HW229798   9.022   4.168   7.862
43258SOL     OW29799   8.471   4.490   8.414
43258SOL    HW129800   8.486   4.511   8.510
43258SOL    HW229801   8.441   4.395   8.405
43259SOL     OW29802   8.428   5.297   9.148
43259SOL    HW129803   8.408   5.341   9.060
43259SOL    HW229804   8.467   5.206   9.132
43260SOL     OW29805   9.307   5.242   9.053
43260SOL    HW129806   9.321   5.269   8.958
43260SOL    HW229807   9.390   5.264   9.106
43261SOL     OW29808   7.798   4.622   9.252
43261SOL    HW129809   7.874   4.666   9.300
43261SOL    HW229810   7.833   4.575   9.170
43262SOL     OW29811   8.988   3.998   7.573
43262SOL    HW129812   8.927   3.923   7.596
43262SOL    HW229813   9.010   4.050   7.656
43263SOL     OW29814   8.751   4.562   7.490
43263SOL    HW129815   8.785   4.469   7.505
43263SOL    HW229816   8.769   4.589   7.395
43264SOL     OW29817   8.516   5.057   8.297
43264SOL    HW129818   8.523   4.973   8.242
43264SOL    HW229819   8.578   5.126   8.261
43265SOL     OW29820   7.767   4.534   8.397
43265SOL    HW129821   7.860   4.570   8.402
43265SOL    HW229822   7.761   4.449   8.449
43266SOL     OW29823   7.787   4.233   8.454
43266SOL    HW129824   7.735   4.150   8.437
43266SOL    HW229825   7.864   4.238   8.390
43267SOL     OW29826   8.586   4.104   9.126
43267SOL    HW129827   8.541   4.167   9.190
43267SOL    HW229828   8.679   4.135   9.109
43268SOL     OW29829   8.608   3.931   8.925
43268SOL    HW129830   8.608   3.995   9.002
43268SOL    HW229831   8.636   3.979   8.842
43269SOL     OW29832   7.456   5.050   7.648
43269SOL    HW129833   7.363   5.071   7.617
43269SOL    HW229834   7.466   4.951   7.661
43270SOL     OW29835   7.536   5.525   8.375
43270SOL    HW129836   7.494   5.439   8.348
43270SOL    HW229837   7.630   5.528   8.341
43271SOL     OW29838   7.952   5.292   8.358
43271SOL    HW129839   8.018   5.366   8.367
43271SOL    HW229840   7.996   5.213   8.316
43272SOL     OW29841   8.450   4.520   8.686
43272SOL    HW129842   8.491   4.488   8.772
43272SOL    HW229843   8.354   4.493   8.683
43273SOL     OW29844   7.488   4.268   8.562
43273SOL    HW129845   7.573   4.235   8.521
43273SOL    HW229846   7.501   4.283   8.660
43274SOL     OW29847   7.637   4.244   9.170
43274SOL    HW129848   7.696   4.204   9.100
43274SOL    HW229849   7.579   4.315   9.129
43275SOL     OW29850   8.817   4.674   9.108
43275SOL    HW129851   8.856   4.763   9.128
43275SOL    HW229852   8.827   4.654   9.011
43276SOL     OW29853   8.263   4.296   7.773
43276SOL    HW129854   8.270   4.207   7.727
43276SOL    HW229855   8.169   4.330   7.765
43277SOL     OW29856   9.105   4.328   8.654
43277SOL    HW129857   9.067   4.259   8.716
43277SOL    HW229858   9.187   4.292   8.610
43278SOL     OW29859   7.700   5.288   9.192
43278SOL    HW129860   7.670   5.345   9.268
43278SOL    HW229861   7.693   5.191   9.218
43279SOL     OW29862   8.119   4.188   8.717
43279SOL    HW129863   8.085   4.099   8.687
43279SOL    HW229864   8.145   4.242   8.637
43280SOL     OW29865   8.378   5.402   8.913
43280SOL    HW129866   8.354   5.384   8.818
43280SOL    HW229867   8.408   5.496   8.923
43281SOL     OW29868   7.921   4.224   7.639
43281SOL    HW129869   7.982   4.304   7.643
43281SOL    HW229870   7.826   4.255   7.646
43282SOL     OW29871   7.607   4.861   8.914
43282SOL    HW129872   7.629   4.800   8.990
43282SOL    HW229873   7.617   4.812   8.828
43283SOL     OW29874   8.795   4.783   8.682
43283SOL    HW129875   8.819   4.720   8.608
43283SOL    HW229876   8.705   4.823   8.664
43284SOL     OW29877   8.750   4.579   7.757
43284SOL    HW129878   8.664   4.548   7.799
43284SOL    HW229879   8.746   4.565   7.658
43285SOL     OW29880   9.207   5.471   8.602
43285SOL    HW129881   9.268   5.501   8.529
43285SOL    HW229882   9.169   5.382   8.580
43286SOL     OW29883   8.700   5.455   8.576
43286SOL    HW129884   8.784   5.460   8.522
43286SOL    HW229885   8.677   5.359   8.594
43287SOL     OW29886   7.531   4.982   8.470
43287SOL    HW129887   7.526   4.981   8.570
43287SOL    HW229888   7.448   4.941   8.432
43288SOL     OW29889   8.136   5.386   9.164
43288SOL    HW129890   8.080   5.467   9.173
43288SOL    HW229891   8.188   5.390   9.078
43289SOL     OW29892   9.174   3.859   7.971
43289SOL    HW129893   9.247   3.842   7.904
43289SOL    HW229894   9.143   3.772   8.009
43290SOL     OW29895   8.836   5.297   7.925
43290SOL    HW129896   8.903   5.309   7.851
43290SOL    HW229897   8.796   5.386   7.948
43291SOL     OW29898   7.578   5.518   9.299
43291SOL    HW129899   7.537   5.444   9.352
43291SOL    HW229900   7.642   5.569   9.357
43292SOL     OW29901   8.728   4.651   8.120
43292SOL    HW129902   8.788   4.570   8.122
43292SOL    HW229903   8.768   4.720   8.060
43293SOL     OW29904   8.278   4.997   8.870
43293SOL    HW129905   8.273   5.030   8.965
43293SOL    HW229906   8.192   5.016   8.824
43294SOL     OW29907   8.120   5.340   7.602
43294SOL    HW129908   8.129   5.350   7.503
43294SOL    HW229909   8.080   5.251   7.623
43295SOL     OW29910   9.098   5.444   8.842
43295SOL    HW129911   9.151   5.454   8.758
43295SOL    HW229912   9.071   5.534   8.876
43296SOL     OW29913   9.289   3.899   8.411
43296SOL    HW129914   9.328   3.814   8.375
43296SOL    HW229915   9.191   3.901   8.392
43297SOL     OW29916   7.711   4.050   8.168
43297SOL    HW129917   7.632   4.101   8.134
43297SOL    HW229918   7.702   4.035   8.266
43298SOL     OW29919   8.642   5.336   7.479
43298SOL    HW129920   8.648   5.243   7.516
43298SOL    HW229921   8.583   5.336   7.399
43299SOL     OW29922   8.270   4.726   8.820
43299SOL    HW129923   8.310   4.725   8.728
43299SOL    HW229924   8.280   4.818   8.860
43300SOL     OW29925   8.364   4.634   7.739
43300SOL    HW129926   8.427   4.672   7.671
43300SOL    HW229927   8.404   4.551   7.778
43301SOL     OW29928   8.952   5.331   7.492
43301SOL    HW129929   8.860   5.368   7.499
43301SOL    HW229930   8.990   5.351   7.402
43302SOL     OW29931   7.820   5.012   8.938
43302SOL    HW129932   7.807   5.105   8.904
43302SOL    HW229933   7.736   4.960   8.925
43303SOL     OW29934   9.062   5.016   8.737
43303SOL    HW129935   9.122   5.019   8.817
43303SOL    HW229936   8.987   5.080   8.750
43304SOL     OW29937   8.487   4.822   8.144
43304SOL    HW129938   8.417   4.775   8.198
43304SOL    HW229939   8.546   4.754   8.101
43305SOL     OW29940   8.462   3.960   8.419
43305SOL    HW129941   8.454   3.924   8.326
43305SOL    HW229942   8.460   3.884   8.484
43306SOL     OW29943   8.038   5.211   7.939
43306SOL    HW129944   8.080   5.153   7.869
43306SOL    HW229945   7.994   5.290   7.895
43307SOL     OW29946   9.157   4.109   8.829
43307SOL    HW129947   9.230   4.178   8.833
43307SOL    HW229948   9.185   4.034   8.770
43308SOL     OW29949   7.703   5.072   7.738
43308SOL    HW129950   7.607   5.073   7.711
43308SOL    HW229951   7.715   5.125   7.822
43309SOL     OW29952   7.553   4.737   9.174
43309SOL    HW129953   7.476   4.704   9.228
43309SOL    HW229954   7.638   4.707   9.216
43310SOL     OW29955   8.120   3.927   8.937
43310SOL    HW129956   8.210   3.911   8.897
43310SOL    HW229957   8.128   3.932   9.036
43311SOL     OW29958   7.523   4.069   7.481
43311SOL    HW129959   7.431   4.041   7.452
43311SOL    HW229960   7.554   4.146   7.425
43312SOL     OW29961   8.888   4.580   8.846
43312SOL    HW129962   8.831   4.632   8.783
43312SOL    HW229963   8.984   4.592   8.822
43313SOL     OW29964   7.520   3.890   7.766
43313SOL    HW129965   7.503   3.973   7.712
43313SOL    HW229966   7.610   3.853   7.744
43314SOL     OW29967   8.631   5.059   7.567
43314SOL    HW129968   8.532   5.048   7.569
43314SOL    HW229969   8.665   5.074   7.660
43315SOL     OW29970   8.061   4.566   8.879
43315SOL    HW129971   8.117   4.647   8.862
43315SOL    HW229972   8.120   4.486   8.882
43316SOL     OW29973   8.941   5.491   8.407
43316SOL    HW129974   8.974   5.555   8.338
43316SOL    HW229975   9.007   5.485   8.482
43317SOL     OW29976   8.164   4.289   9.156
43317SOL    HW129977   8.183   4.354   9.230
43317SOL    HW229978   8.224   4.209   9.165
43318SOL     OW29979   8.898   4.944   9.081
43318SOL    HW129980   8.889   4.934   9.180
43318SOL    HW229981   8.994   4.937   9.055
43319SOL     OW29982   7.838   5.465   9.008
43319SOL    HW129983   7.747   5.506   9.006
43319SOL    HW229984   7.831   5.371   9.040
43320SOL     OW29985   9.122   4.607   8.702
43320SOL    HW129986   9.095   4.518   8.665
43320SOL    HW229987   9.123   4.675   8.629
43321SOL     OW29988   8.673   4.049   7.897
43321SOL    HW129989   8.738   3.975   7.886
43321SOL    HW229990   8.693   4.099   7.981
43322SOL     OW29991   8.042   4.469   8.100
43322SOL    HW129992   8.092   4.554   8.081
43322SOL    HW229993   7.954   4.471   8.052
43323SOL     OW29994   9.225   4.066   9.090
43323SOL    HW129995   9.208   4.097   8.996
43323SOL    HW229996   9.141   4.029   9.128
43324SOL     OW29997   9.178   4.658   8.965
43324SOL    HW129998   9.216   4.749   8.980
43324SOL    HW229999   9.170   4.641   8.866
43325SOL     OW30000   8.307   5.098   7.464
43325SOL    HW130001   8.261   5.113   7.552
43325SOL    HW230002   8.351   5.183   7.434
43326SOL     OW30003   8.109   5.514   8.401
43326SOL    HW130004   8.063   5.602   8.388
43326SOL    HW230005   8.208   5.526   8.394
43327SOL     OW30006   8.307   4.680   8.309
43327SOL    HW130007   8.361   4.611   8.357
43327SOL    HW230008   8.275   4.749   8.375
43328SOL     OW30009   8.531   4.708   7.535
43328SOL    HW130010   8.508   4.761   7.453
43328SOL    HW230011   8.612   4.652   7.516
43329SOL     OW30012   9.309   5.293   8.299
43329SOL    HW130013   9.238   5.281   8.229
43329SOL    HW230014   9.310   5.214   8.359
43330SOL     OW30015   7.669   5.038   9.292
43330SOL    HW130016   7.604   4.965   9.271
43330SOL    HW230017   7.673   5.052   9.390
43331SOL     OW30018   7.527   4.964   8.101
43331SOL    HW130019   7.526   4.917   8.189
43331SOL    HW230020   7.609   4.936   8.050
43332SOL     OW30021   8.120   5.115   9.072
43332SOL    HW130022   8.042   5.065   9.110
43332SOL    HW230023   8.117   5.210   9.103
43333SOL     OW30024   9.272   3.916   8.675
43333SOL    HW130025   9.268   3.826   8.719
43333SOL    HW230026   9.275   3.905   8.576
43334SOL     OW30027   7.876   4.148   7.968
43334SOL    HW130028   7.906   4.076   7.906
43334SOL    HW230029   7.837   4.108   8.051
43335SOL     OW30030   9.153   5.211   8.552
43335SOL    HW130031   9.060   5.186   8.525
43335SOL    HW230032   9.179   5.161   8.634
43336SOL     OW30033   7.765   4.271   8.728
43336SOL    HW130034   7.803   4.212   8.800
43336SOL    HW230035   7.805   4.245   8.640
43337SOL     OW30036   8.260   5.310   8.135
43337SOL    HW130037   8.292   5.320   8.041
43337SOL    HW230038   8.181   5.248   8.137
43338SOL     OW30039   8.872   3.938   8.560
43338SOL    HW130040   8.924   3.873   8.615
43338SOL    HW230041   8.823   4.001   8.621
43339SOL     OW30042   8.449   3.758   8.602
43339SOL    HW130043   8.386   3.686   8.571
43339SOL    HW230044   8.542   3.722   8.602
43340SOL     OW30045   8.218   5.054   7.749
43340SOL    HW130046   8.172   4.967   7.766
43340SOL    HW230047   8.309   5.051   7.790
43341SOL     OW30048   8.066   5.291   8.732
43341SOL    HW130049   8.061   5.373   8.789
43341SOL    HW230050   8.155   5.288   8.687
43342SOL     OW30051   8.800   3.776   7.616
43342SOL    HW130052   8.835   3.735   7.532
43342SOL    HW230053   8.710   3.738   7.636
43343SOL     OW30054   8.748   4.177   8.139
43343SOL    HW130055   8.689   4.257   8.143
43343SOL    HW230056   8.763   4.142   8.232
43344SOL     OW30057   9.041   3.945   8.330
43344SOL    HW130058   8.957   3.944   8.384
43344SOL    HW230059   9.043   4.028   8.274
43345SOL     OW30060   7.487   4.801   7.748
43345SOL    HW130061   7.586   4.790   7.739
43345SOL    HW230062   7.447   4.715   7.780
43346SOL     OW30063   8.323   5.370   7.785
43346SOL    HW130064   8.246   5.335   7.731
43346SOL    HW230065   8.291   5.441   7.847
43347SOL     OW30066   7.678   4.352   9.423
43347SOL    HW130067   7.585   4.350   9.460
43347SOL    HW230068   7.679   4.313   9.331
43348SOL     OW30069   7.673   3.999  10.306
43348SOL    HW130070   7.708   3.982  10.398
43348SOL    HW230071   7.585   3.954  10.294
43349SOL     OW30072   7.467   4.092   9.957
43349SOL    HW130073   7.385   4.135   9.996
43349SOL    HW230074   7.439   4.019   9.894
43350SOL     OW30075   8.017   4.999  10.475
43350SOL    HW130076   7.924   4.992  10.438
43350SOL    HW230077   8.028   5.088  10.519
43351SOL     OW30078   9.003   5.235  10.013
43351SOL    HW130079   8.946   5.219  10.094
43351SOL    HW230080   8.944   5.245   9.933
43352SOL     OW30081   8.583   4.427  10.027
43352SOL    HW130082   8.640   4.505  10.002
43352SOL    HW230083   8.523   4.453  10.103
43353SOL     OW30084   9.203   4.331   9.541
43353SOL    HW130085   9.191   4.318   9.442
43353SOL    HW230086   9.173   4.250   9.590
43354SOL     OW30087   8.216   4.868  10.333
43354SOL    HW130088   8.138   4.885  10.393
43354SOL    HW230089   8.250   4.955  10.297
43355SOL     OW30090   8.298   4.522  11.133
43355SOL    HW130091   8.294   4.598  11.198
43355SOL    HW230092   8.320   4.558  11.042
43356SOL     OW30093   8.133   4.736   9.975
43356SOL    HW130094   8.202   4.720  10.045
43356SOL    HW230095   8.060   4.793  10.013
43357SOL     OW30096   8.134   4.885  11.113
43357SOL    HW130097   8.194   4.964  11.127
43357SOL    HW230098   8.048   4.916  11.072
43358SOL     OW30099   7.783   5.159  10.371
43358SOL    HW130100   7.705   5.128  10.318
43358SOL    HW230101   7.841   5.217  10.314
43359SOL     OW30102   8.908   5.229  10.649
43359SOL    HW130103   8.932   5.323  10.675
43359SOL    HW230104   8.892   5.175  10.731
43360SOL     OW30105   7.886   4.116  10.809
43360SOL    HW130106   7.968   4.060  10.818
43360SOL    HW230107   7.805   4.058  10.813
43361SOL     OW30108   9.051   4.171  10.047
43361SOL    HW130109   8.977   4.217   9.997
43361SOL    HW230110   9.102   4.239  10.100
43362SOL     OW30111   7.679   5.437   9.793
43362SOL    HW130112   7.713   5.514   9.847
43362SOL    HW230113   7.723   5.437   9.703
43363SOL     OW30114   8.575   5.065  11.000
43363SOL    HW130115   8.622   5.065  11.088
43363SOL    HW230116   8.527   4.978  10.989
43364SOL     OW30117   7.678   5.158   9.848
43364SOL    HW130118   7.652   5.254   9.848
43364SOL    HW230119   7.607   5.104   9.893
43365SOL     OW30120   7.688   4.815  10.196
43365SOL    HW130121   7.702   4.731  10.248
43365SOL    HW230122   7.633   4.879  10.251
43366SOL     OW30123   8.068   5.510  10.749
43366SOL    HW130124   7.976   5.493  10.784
43366SOL    HW230125   8.096   5.602  10.775
43367SOL     OW30126   8.054   4.688   9.433
43367SOL    HW130127   8.061   4.772   9.379
43367SOL    HW230128   8.100   4.701   9.521
43368SOL     OW30129   9.042   3.838  10.790
43368SOL    HW130130   9.024   3.905  10.718
43368SOL    HW230131   9.039   3.884  10.879
43369SOL     OW30132   7.570   4.367   9.873
43369SOL    HW130133   7.525   4.279   9.890
43369SOL    HW230134   7.569   4.421   9.957
43370SOL     OW30135   9.290   5.491   9.669
43370SOL    HW130136   9.344   5.462   9.749
43370SOL    HW230137   9.320   5.581   9.640
43371SOL     OW30138   7.475   5.320   9.427
43371SOL    HW130139   7.456   5.224   9.448
43371SOL    HW230140   7.442   5.378   9.502
43372SOL     OW30141   9.137   4.646   9.922
43372SOL    HW130142   9.232   4.617   9.930
43372SOL    HW230143   9.129   4.711   9.847
43373SOL     OW30144   9.089   4.832   9.742
43373SOL    HW130145   9.175   4.834   9.690
43373SOL    HW230146   9.103   4.879   9.830
43374SOL     OW30147   7.561   4.461  10.907
43374SOL    HW130148   7.649   4.448  10.952
43374SOL    HW230149   7.548   4.558  10.885
43375SOL     OW30150   8.061   5.089  10.036
43375SOL    HW130151   8.012   5.002  10.045
43375SOL    HW230152   8.038   5.132   9.949
43376SOL     OW30153   8.741   4.952  10.733
43376SOL    HW130154   8.778   4.879  10.675
43376SOL    HW230155   8.793   4.957  10.818
43377SOL     OW30156   8.257   3.728   9.812
43377SOL    HW130157   8.297   3.819   9.803
43377SOL    HW230158   8.157   3.736   9.818
43378SOL     OW30159   7.645   4.700  10.574
43378SOL    HW130160   7.734   4.655  10.560
43378SOL    HW230161   7.572   4.635  10.555
43379SOL     OW30162   8.973   4.723   9.500
43379SOL    HW130163   8.910   4.647   9.513
43379SOL    HW230164   9.021   4.741   9.586
43380SOL     OW30165   8.635   5.516  10.926
43380SOL    HW130166   8.659   5.576  10.850
43380SOL    HW230167   8.642   5.421  10.896
43381SOL     OW30168   7.765   3.975  11.111
43381SOL    HW130169   7.836   4.046  11.117
43381SOL    HW230170   7.677   4.014  11.139
43382SOL     OW30171   8.914   5.141  10.263
43382SOL    HW130172   8.855   5.147  10.343
43382SOL    HW230173   8.899   5.053  10.217
43383SOL     OW30174   9.115   5.438   9.882
43383SOL    HW130175   9.074   5.415   9.794
43383SOL    HW230176   9.097   5.364   9.947
43384SOL     OW30177   8.046   4.453   9.580
43384SOL    HW130178   8.070   4.522   9.512
43384SOL    HW230179   7.968   4.486   9.634
43385SOL     OW30180   8.729   4.069  10.254
43385SOL    HW130181   8.643   4.019  10.241
43385SOL    HW230182   8.791   4.015  10.310
43386SOL     OW30183   9.024   5.386   9.617
43386SOL    HW130184   9.113   5.432   9.620
43386SOL    HW230185   9.003   5.362   9.522
43387SOL     OW30186   8.255   4.329  10.775
43387SOL    HW130187   8.208   4.326  10.864
43387SOL    HW230188   8.204   4.274  10.709
43388SOL     OW30189   8.842   4.193  10.984
43388SOL    HW130190   8.822   4.236  11.072
43388SOL    HW230191   8.920   4.131  10.993
43389SOL     OW30192   8.421   4.614  10.882
43389SOL    HW130193   8.467   4.530  10.853
43389SOL    HW230194   8.365   4.648  10.807
43390SOL     OW30195   8.439   4.134  10.552
43390SOL    HW130196   8.362   4.168  10.606
43390SOL    HW230197   8.405   4.083  10.473
43391SOL     OW30198   8.489   4.425   9.739
43391SOL    HW130199   8.515   4.421   9.835
43391SOL    HW230200   8.404   4.374   9.725
43392SOL     OW30201   7.524   4.535  10.099
43392SOL    HW130202   7.623   4.523  10.108
43392SOL    HW230203   7.500   4.630  10.120
43393SOL     OW30204   7.578   5.545  10.881
43393SOL    HW130205   7.568   5.530  10.980
43393SOL    HW230206   7.492   5.581  10.845
43394SOL     OW30207   8.313   4.072   9.505
43394SOL    HW130208   8.372   4.135   9.456
43394SOL    HW230209   8.332   3.978   9.476
43395SOL     OW30210   9.167   4.309  11.141
43395SOL    HW130211   9.141   4.398  11.105
43395SOL    HW230212   9.165   4.241  11.068
43396SOL     OW30213   8.810   4.868   9.855
43396SOL    HW130214   8.893   4.839   9.807
43396SOL    HW230215   8.761   4.935   9.799
43397SOL     OW30216   7.998   3.920  10.195
43397SOL    HW130217   7.993   3.915  10.295
43397SOL    HW230218   8.000   4.016  10.166
43398SOL     OW30219   8.456   5.180   9.787
43398SOL    HW130220   8.410   5.252   9.735
43398SOL    HW230221   8.452   5.200   9.885
43399SOL     OW30222   7.799   5.525  10.163
43399SOL    HW130223   7.849   5.439  10.169
43399SOL    HW230224   7.864   5.602  10.160
43400SOL     OW30225   9.243   4.790  10.183
43400SOL    HW130226   9.181   4.775  10.107
43400SOL    HW230227   9.191   4.801  10.268
43401SOL     OW30228   8.675   5.274  10.816
43401SOL    HW130229   8.681   5.197  10.880
43401SOL    HW230230   8.623   5.248  10.736
43402SOL     OW30231   7.769   4.667   9.552
43402SOL    HW130232   7.851   4.706   9.510
43402SOL    HW230233   7.742   4.585   9.503
43403SOL     OW30234   8.906   4.459  10.038
43403SOL    HW130235   8.901   4.394  10.113
43403SOL    HW230236   8.986   4.518  10.051
43404SOL     OW30237   7.909   4.990  11.037
43404SOL    HW130238   7.859   4.991  10.951
43404SOL    HW230239   7.846   4.972  11.113
43405SOL     OW30240   8.559   5.500   9.547
43405SOL    HW130241   8.499   5.438   9.597
43405SOL    HW230242   8.590   5.456   9.462
43406SOL     OW30243   7.650   4.009  10.808
43406SOL    HW130244   7.570   4.069  10.795
43406SOL    HW230245   7.640   3.960  10.894
43407SOL     OW30246   9.080   5.101   9.391
43407SOL    HW130247   9.048   5.195   9.381
43407SOL    HW230248   9.004   5.038   9.379
43408SOL     OW30249   7.912   5.467   9.633
43408SOL    HW130250   7.945   5.506   9.719
43408SOL    HW230251   7.988   5.460   9.568
43409SOL     OW30252   8.848   3.831   9.736
43409SOL    HW130253   8.824   3.794   9.646
43409SOL    HW230254   8.947   3.847   9.740
43410SOL     OW30255   7.697   5.509  10.551
43410SOL    HW130256   7.754   5.444  10.601
43410SOL    HW230257   7.681   5.476  10.458
43411SOL     OW30258   8.388   5.422  10.214
43411SOL    HW130259   8.468   5.365  10.235
43411SOL    HW230260   8.339   5.382  10.137
43412SOL     OW30261   7.830   4.424   9.790
43412SOL    HW130262   7.875   4.334   9.787
43412SOL    HW230263   7.736   4.413   9.823
43413SOL     OW30264   8.995   3.946  11.039
43413SOL    HW130265   8.990   3.983  11.131
43413SOL    HW230266   8.923   3.877  11.027
43414SOL     OW30267   8.062   3.846   9.427
43414SOL    HW130268   8.160   3.824   9.434
43414SOL    HW230269   8.031   3.829   9.334
43415SOL     OW30270   8.229   3.988  11.059
43415SOL    HW130271   8.296   3.927  11.102
43415SOL    HW230272   8.156   4.007  11.124
43416SOL     OW30273   8.336   5.238  10.505
43416SOL    HW130274   8.313   5.213  10.411
43416SOL    HW230275   8.397   5.169  10.544
43417SOL     OW30276   8.799   4.314  10.743
43417SOL    HW130277   8.827   4.271  10.828
43417SOL    HW230278   8.824   4.410  10.744
43418SOL     OW30279   8.251   5.126  10.234
43418SOL    HW130280   8.341   5.140  10.192
43418SOL    HW230281   8.180   5.128  10.163
43419SOL     OW30282   8.370   4.227  10.209
43419SOL    HW130283   8.345   4.218  10.113
43419SOL    HW230284   8.418   4.145  10.240
43420SOL     OW30285   7.987   3.788   9.822
43420SOL    HW130286   7.906   3.789   9.880
43420SOL    HW230287   7.990   3.871   9.767
43421SOL     OW30288   8.882   4.912   9.351
43421SOL    HW130289   8.914   4.836   9.408
43421SOL    HW230290   8.790   4.939   9.381
43422SOL     OW30291   7.745   3.759   9.481
43422SOL    HW130292   7.794   3.843   9.460
43422SOL    HW230293   7.807   3.694   9.526
43423SOL     OW30294   8.383   3.960   9.790
43423SOL    HW130295   8.335   4.001   9.712
43423SOL    HW230296   8.482   3.958   9.771
43424SOL     OW30297   8.524   4.407  10.774
43424SOL    HW130298   8.444   4.346  10.777
43424SOL    HW230299   8.605   4.354  10.750
43425SOL     OW30300   8.675   5.294  10.103
43425SOL    HW130301   8.696   5.368  10.038
43425SOL    HW230302   8.743   5.294  10.176
43426SOL     OW30303   7.907   4.876  10.051
43426SOL    HW130304   7.836   4.849  10.116
43426SOL    HW230305   7.881   4.848   9.958
43427SOL     OW30306   8.719   5.521   9.901
43427SOL    HW130307   8.763   5.585   9.837
43427SOL    HW230308   8.669   5.573   9.971
43428SOL     OW30309   8.480   4.273   9.326
43428SOL    HW130310   8.439   4.355   9.287
43428SOL    HW230311   8.544   4.299   9.399
43429SOL     OW30312   7.526   4.280  10.696
43429SOL    HW130313   7.618   4.279  10.655
43429SOL    HW230314   7.520   4.354  10.763
43430SOL     OW30315   8.009   3.946  10.457
43430SOL    HW130316   8.047   3.862  10.494
43430SOL    HW230317   7.921   3.965  10.501
43431SOL     OW30318   8.314   4.178   9.952
43431SOL    HW130319   8.282   4.250   9.890
43431SOL    HW230320   8.338   4.097   9.899
43432SOL     OW30321   8.465   3.763  10.063
43432SOL    HW130322   8.393   3.768   9.994
43432SOL    HW230323   8.441   3.694  10.132
43433SOL     OW30324   8.877   4.897  10.177
43433SOL    HW130325   8.822   4.813  10.170
43433SOL    HW230326   8.903   4.926  10.085
43434SOL     OW30327   8.914   4.314  10.302
43434SOL    HW130328   8.884   4.219  10.309
43434SOL    HW230329   8.987   4.330  10.368
43435SOL     OW30330   9.305   4.557   9.687
43435SOL    HW130331   9.347   4.493   9.751
43435SOL    HW230332   9.267   4.506   9.609
43436SOL     OW30333   7.936   5.109   9.484
43436SOL    HW130334   7.849   5.094   9.531
43436SOL    HW230335   7.919   5.135   9.389
43437SOL     OW30336   9.112   5.004   9.967
43437SOL    HW130337   9.211   5.012   9.981
43437SOL    HW230338   9.067   5.088   9.998
43438SOL     OW30339   8.838   4.299   9.388
43438SOL    HW130340   8.784   4.278   9.469
43438SOL    HW230341   8.929   4.258   9.397
43439SOL     OW30342   7.975   3.980   9.638
43439SOL    HW130343   8.002   3.921   9.563
43439SOL    HW230344   7.975   4.075   9.607
43440SOL     OW30345   9.202   4.947  10.898
43440SOL    HW130346   9.293   4.908  10.885
43440SOL    HW230347   9.210   5.043  10.922
43441SOL     OW30348   8.512   5.071  10.650
43441SOL    HW130349   8.432   5.048  10.705
43441SOL    HW230350   8.595   5.045  10.699
43442SOL     OW30351   9.040   5.353  10.935
43442SOL    HW130352   9.067   5.387  10.845
43442SOL    HW230353   9.119   5.315  10.981
43443SOL     OW30354   8.559   4.919  10.410
43443SOL    HW130355   8.519   4.963  10.491
43443SOL    HW230356   8.518   4.956  10.327
43444SOL     OW30357   9.086   4.823  10.389
43444SOL    HW130358   9.091   4.904  10.448
43444SOL    HW230359   9.000   4.825  10.338
43445SOL     OW30360   8.363   3.813  10.712
43445SOL    HW130361   8.388   3.793  10.617
43445SOL    HW230362   8.435   3.869  10.754
43446SOL     OW30363   8.428   4.840  11.029
43446SOL    HW130364   8.329   4.846  11.039
43446SOL    HW230365   8.451   4.760  10.973
43447SOL     OW30366   8.153   4.774   9.678
43447SOL    HW130367   8.139   4.781   9.777
43447SOL    HW230368   8.237   4.723   9.660
43448SOL     OW30369   7.858   4.537  10.561
43448SOL    HW130370   7.944   4.549  10.611
43448SOL    HW230371   7.816   4.450  10.588
43449SOL     OW30372   8.722   4.110  10.572
43449SOL    HW130373   8.743   4.184  10.636
43449SOL    HW230374   8.633   4.127  10.529
43450SOL     OW30375   7.512   5.288  10.641
43450SOL    HW130376   7.466   5.370  10.607
43450SOL    HW230377   7.610   5.307  10.650
43451SOL     OW30378   7.815   4.824   9.811
43451SOL    HW130379   7.808   4.907   9.755
43451SOL    HW230380   7.819   4.744   9.751
43452SOL     OW30381   8.014   4.261  10.175
43452SOL    HW130382   8.026   4.327  10.101
43452SOL    HW230383   8.060   4.295  10.258
43453SOL     OW30384   8.700   5.072   9.698
43453SOL    HW130385   8.750   5.149   9.738
43453SOL    HW230386   8.605   5.074   9.730
43454SOL     OW30387   8.720   5.169  10.452
43454SOL    HW130388   8.767   5.182  10.539
43454SOL    HW230389   8.654   5.095  10.461
43455SOL     OW30390   9.030   4.363   9.782
43455SOL    HW130391   8.999   4.424   9.855
43455SOL    HW230392   9.080   4.415   9.713
43456SOL     OW30393   7.802   5.234  10.639
43456SOL    HW130394   7.781   5.190  10.552
43456SOL    HW230395   7.899   5.260  10.642
43457SOL     OW30396   7.850   4.475  10.908
43457SOL    HW130397   7.918   4.530  10.861
43457SOL    HW230398   7.890   4.387  10.935
43458SOL     OW30399   9.035   4.503  10.980
43458SOL    HW130400   8.943   4.541  10.975
43458SOL    HW230401   9.095   4.550  10.915
43459SOL     OW30402   8.461   3.829  11.080
43459SOL    HW130403   8.467   3.914  11.028
43459SOL    HW230404   8.493   3.753  11.023
43460SOL     OW30405   7.952   3.774  11.050
43460SOL    HW130406   7.910   3.717  10.980
43460SOL    HW230407   7.886   3.843  11.082
43461SOL     OW30408   8.021   4.594  10.339
43461SOL    HW130409   8.065   4.683  10.330
43461SOL    HW230410   7.958   4.594  10.416
43462SOL     OW30411   8.808   4.586  10.355
43462SOL    HW130412   8.733   4.586  10.289
43462SOL    HW230413   8.845   4.494  10.364
43463SOL     OW30414   8.657   4.249   9.585
43463SOL    HW130415   8.670   4.165   9.639
43463SOL    HW230416   8.628   4.323   9.645
43464SOL     OW30417   7.755   3.937  10.541
43464SOL    HW130418   7.732   3.974  10.631
43464SOL    HW230419   7.725   3.842  10.535
43465SOL     OW30420   7.485   5.034  10.592
43465SOL    HW130421   7.538   4.985  10.660
43465SOL    HW230422   7.507   5.132  10.597
43466SOL     OW30423   8.180   4.358  10.374
43466SOL    HW130424   8.239   4.332  10.298
43466SOL    HW230425   8.152   4.454  10.363
43467SOL     OW30426   9.176   4.659  11.164
43467SOL    HW130427   9.130   4.652  11.075
43467SOL    HW230428   9.114   4.703  11.230
43468SOL     OW30429   7.755   3.787   9.928
43468SOL    HW130430   7.744   3.881   9.961
43468SOL    HW230431   7.750   3.724  10.005
43469SOL     OW30432   9.070   4.091   9.684
43469SOL    HW130433   9.072   4.015   9.748
43469SOL    HW230434   9.022   4.168   9.724
43470SOL     OW30435   8.471   4.490  10.276
43470SOL    HW130436   8.486   4.511  10.372
43470SOL    HW230437   8.441   4.395  10.267
43471SOL     OW30438   8.428   5.297  11.010
43471SOL    HW130439   8.408   5.341  10.922
43471SOL    HW230440   8.467   5.206  10.994
43472SOL     OW30441   9.307   5.242  10.915
43472SOL    HW130442   9.321   5.269  10.820
43472SOL    HW230443   9.390   5.264  10.968
43473SOL     OW30444   7.798   4.622  11.114
43473SOL    HW130445   7.874   4.666  11.162
43473SOL    HW230446   7.833   4.575  11.032
43474SOL     OW30447   8.988   3.998   9.435
43474SOL    HW130448   8.927   3.923   9.458
43474SOL    HW230449   9.010   4.050   9.518
43475SOL     OW30450   8.751   4.562   9.352
43475SOL    HW130451   8.785   4.469   9.367
43475SOL    HW230452   8.769   4.589   9.257
43476SOL     OW30453   8.516   5.057  10.159
43476SOL    HW130454   8.523   4.973  10.104
43476SOL    HW230455   8.578   5.126  10.123
43477SOL     OW30456   7.767   4.534  10.259
43477SOL    HW130457   7.860   4.570  10.264
43477SOL    HW230458   7.761   4.449  10.311
43478SOL     OW30459   7.787   4.233  10.316
43478SOL    HW130460   7.735   4.150  10.299
43478SOL    HW230461   7.864   4.238  10.252
43479SOL     OW30462   8.586   4.104  10.988
43479SOL    HW130463   8.541   4.167  11.052
43479SOL    HW230464   8.679   4.135  10.971
43480SOL     OW30465   8.608   3.931  10.787
43480SOL    HW130466   8.608   3.995  10.864
43480SOL    HW230467   8.636   3.979  10.704
43481SOL     OW30468   7.456   5.050   9.510
43481SOL    HW130469   7.363   5.071   9.479
43481SOL    HW230470   7.466   4.951   9.523
43482SOL     OW30471   7.536   5.525  10.237
43482SOL    HW130472   7.494   5.439  10.210
43482SOL    HW230473   7.630   5.528  10.203
43483SOL     OW30474   7.952   5.292  10.220
43483SOL    HW130475   8.018   5.366  10.229
43483SOL    HW230476   7.996   5.213  10.178
43484SOL     OW30477   8.450   4.520  10.548
43484SOL    HW130478   8.491   4.488  10.634
43484SOL    HW230479   8.354   4.493  10.545
43485SOL     OW30480   7.488   4.268  10.424
43485SOL    HW130481   7.573   4.235  10.383
43485SOL    HW230482   7.501   4.283  10.522
43486SOL     OW30483   7.637   4.244  11.032
43486SOL    HW130484   7.696   4.204  10.962
43486SOL    HW230485   7.579   4.315  10.991
43487SOL     OW30486   8.817   4.674  10.970
43487SOL    HW130487   8.856   4.763  10.990
43487SOL    HW230488   8.827   4.654  10.873
43488SOL     OW30489   8.263   4.296   9.635
43488SOL    HW130490   8.270   4.207   9.589
43488SOL    HW230491   8.169   4.330   9.627
43489SOL     OW30492   9.105   4.328  10.516
43489SOL    HW130493   9.067   4.259  10.578
43489SOL    HW230494   9.187   4.292  10.472
43490SOL     OW30495   7.700   5.288  11.054
43490SOL    HW130496   7.670   5.345  11.130
43490SOL    HW230497   7.693   5.191  11.080
43491SOL     OW30498   8.119   4.188  10.579
43491SOL    HW130499   8.085   4.099  10.549
43491SOL    HW230500   8.145   4.242  10.499
43492SOL     OW30501   8.378   5.402  10.775
43492SOL    HW130502   8.354   5.384  10.680
43492SOL    HW230503   8.408   5.496  10.785
43493SOL     OW30504   7.921   4.224   9.501
43493SOL    HW130505   7.982   4.304   9.505
43493SOL    HW230506   7.826   4.255   9.508
43494SOL     OW30507   7.607   4.861  10.776
43494SOL    HW130508   7.629   4.800  10.852
43494SOL    HW230509   7.617   4.812  10.690
43495SOL     OW30510   8.795   4.783  10.544
43495SOL    HW130511   8.819   4.720  10.470
43495SOL    HW230512   8.705   4.823  10.526
43496SOL     OW30513   8.750   4.579   9.619
43496SOL    HW130514   8.664   4.548   9.661
43496SOL    HW230515   8.746   4.565   9.520
43497SOL     OW30516   9.207   5.471  10.464
43497SOL    HW130517   9.268   5.501  10.391
43497SOL    HW230518   9.169   5.382  10.442
43498SOL     OW30519   8.700   5.455  10.438
43498SOL    HW130520   8.784   5.460  10.384
43498SOL    HW230521   8.677   5.359  10.456
43499SOL     OW30522   7.531   4.982  10.332
43499SOL    HW130523   7.526   4.981  10.432
43499SOL    HW230524   7.448   4.941  10.294
43500SOL     OW30525   8.136   5.386  11.026
43500SOL    HW130526   8.080   5.467  11.035
43500SOL    HW230527   8.188   5.390  10.940
43501SOL     OW30528   9.174   3.859   9.833
43501SOL    HW130529   9.247   3.842   9.766
43501SOL    HW230530   9.143   3.772   9.871
43502SOL     OW30531   8.836   5.297   9.787
43502SOL    HW130532   8.903   5.309   9.713
43502SOL    HW230533   8.796   5.386   9.810
43503SOL     OW30534   7.578   5.518  11.161
43503SOL    HW130535   7.537   5.444  11.214
43503SOL    HW230536   7.642   5.569  11.219
43504SOL     OW30537   8.728   4.651   9.982
43504SOL    HW130538   8.788   4.570   9.984
43504SOL    HW230539   8.768   4.720   9.922
43505SOL     OW30540   8.278   4.997  10.732
43505SOL    HW130541   8.273   5.030  10.827
43505SOL    HW230542   8.192   5.016  10.686
43506SOL     OW30543   8.120   5.340   9.464
43506SOL    HW130544   8.129   5.350   9.365
43506SOL    HW230545   8.080   5.251   9.485
43507SOL     OW30546   9.098   5.444  10.704
43507SOL    HW130547   9.151   5.454  10.620
43507SOL    HW230548   9.071   5.534  10.738
43508SOL     OW30549   9.289   3.899  10.273
43508SOL    HW130550   9.328   3.814  10.237
43508SOL    HW230551   9.191   3.901  10.254
43509SOL     OW30552   7.711   4.050  10.030
43509SOL    HW130553   7.632   4.101   9.996
43509SOL    HW230554   7.702   4.035  10.128
43510SOL     OW30555   8.642   5.336   9.341
43510SOL    HW130556   8.648   5.243   9.378
43510SOL    HW230557   8.583   5.336   9.261
43511SOL     OW30558   8.270   4.726  10.682
43511SOL    HW130559   8.310   4.725  10.590
43511SOL    HW230560   8.280   4.818  10.722
43512SOL     OW30561   8.364   4.634   9.601
43512SOL    HW130562   8.427   4.672   9.533
43512SOL    HW230563   8.404   4.551   9.640
43513SOL     OW30564   8.952   5.331   9.354
43513SOL    HW130565   8.860   5.368   9.361
43513SOL    HW230566   8.990   5.351   9.264
43514SOL     OW30567   7.820   5.012  10.800
43514SOL    HW130568   7.807   5.105  10.766
43514SOL    HW230569   7.736   4.960  10.787
43515SOL     OW30570   9.062   5.016  10.599
43515SOL    HW130571   9.122   5.019  10.679
43515SOL    HW230572   8.987   5.080  10.612
43516SOL     OW30573   8.487   4.822  10.006
43516SOL    HW130574   8.417   4.775  10.060
43516SOL    HW230575   8.546   4.754   9.963
43517SOL     OW30576   8.462   3.960  10.281
43517SOL    HW130577   8.454   3.924  10.188
43517SOL    HW230578   8.460   3.884  10.346
43518SOL     OW30579   8.038   5.211   9.801
43518SOL    HW130580   8.080   5.153   9.731
43518SOL    HW230581   7.994   5.290   9.757
43519SOL     OW30582   9.157   4.109  10.691
43519SOL    HW130583   9.230   4.178  10.695
43519SOL    HW230584   9.185   4.034  10.632
43520SOL     OW30585   7.703   5.072   9.600
43520SOL    HW130586   7.607   5.073   9.573
43520SOL    HW230587   7.715   5.125   9.684
43521SOL     OW30588   7.553   4.737  11.036
43521SOL    HW130589   7.476   4.704  11.090
43521SOL    HW230590   7.638   4.707  11.078
43522SOL     OW30591   8.120   3.927  10.799
43522SOL    HW130592   8.210   3.911  10.759
43522SOL    HW230593   8.128   3.932  10.898
43523SOL     OW30594   7.523   4.069   9.343
43523SOL    HW130595   7.431   4.041   9.314
43523SOL    HW230596   7.554   4.146   9.287
43524SOL     OW30597   8.888   4.580  10.708
43524SOL    HW130598   8.831   4.632  10.645
43524SOL    HW230599   8.984   4.592  10.684
43525SOL     OW30600   7.520   3.890   9.628
43525SOL    HW130601   7.503   3.973   9.574
43525SOL    HW230602   7.610   3.853   9.606
43526SOL     OW30603   8.631   5.059   9.429
43526SOL    HW130604   8.532   5.048   9.431
43526SOL    HW230605   8.665   5.074   9.522
43527SOL     OW30606   8.061   4.566  10.741
43527SOL    HW130607   8.117   4.647  10.724
43527SOL    HW230608   8.120   4.486  10.744
43528SOL     OW30609   8.941   5.491  10.269
43528SOL    HW130610   8.974   5.555  10.200
43528SOL    HW230611   9.007   5.485  10.344
43529SOL     OW30612   8.164   4.289  11.018
43529SOL    HW130613   8.183   4.354  11.092
43529SOL    HW230614   8.224   4.209  11.027
43530SOL     OW30615   8.898   4.944  10.943
43530SOL    HW130616   8.889   4.934  11.042
43530SOL    HW230617   8.994   4.937  10.917
43531SOL     OW30618   7.838   5.465  10.870
43531SOL    HW130619   7.747   5.506  10.868
43531SOL    HW230620   7.831   5.371  10.902
43532SOL     OW30621   9.122   4.607  10.564
43532SOL    HW130622   9.095   4.518  10.527
43532SOL    HW230623   9.123   4.675  10.491
43533SOL     OW30624   8.673   4.049   9.759
43533SOL    HW130625   8.738   3.975   9.748
43533SOL    HW230626   8.693   4.099   9.843
43534SOL     OW30627   8.042   4.469   9.962
43534SOL    HW130628   8.092   4.554   9.943
43534SOL    HW230629   7.954   4.471   9.914
43535SOL     OW30630   9.225   4.066  10.952
43535SOL    HW130631   9.208   4.097  10.858
43535SOL    HW230632   9.141   4.029  10.990
43536SOL     OW30633   9.178   4.658  10.827
43536SOL    HW130634   9.216   4.749  10.842
43536SOL    HW230635   9.170   4.641  10.728
43537SOL     OW30636   8.307   5.098   9.326
43537SOL    HW130637   8.261   5.113   9.414
43537SOL    HW230638   8.351   5.183   9.296
43538SOL     OW30639   8.109   5.514  10.263
43538SOL    HW130640   8.063   5.602  10.250
43538SOL    HW230641   8.208   5.526  10.256
43539SOL     OW30642   8.307   4.680  10.171
43539SOL    HW130643   8.361   4.611  10.219
43539SOL    HW230644   8.275   4.749  10.237
43540SOL     OW30645   8.531   4.708   9.397
43540SOL    HW130646   8.508   4.761   9.315
43540SOL    HW230647   8.612   4.652   9.378
43541SOL     OW30648   9.309   5.293  10.161
43541SOL    HW130649   9.238   5.281  10.091
43541SOL    HW230650   9.310   5.214  10.221
43542SOL     OW30651   7.669   5.038  11.154
43542SOL    HW130652   7.604   4.965  11.133
43542SOL    HW230653   7.673   5.052  11.252
43543SOL     OW30654   7.527   4.964   9.963
43543SOL    HW130655   7.526   4.917  10.051
43543SOL    HW230656   7.609   4.936   9.912
43544SOL     OW30657   8.120   5.115  10.934
43544SOL    HW130658   8.042   5.065  10.972
43544SOL    HW230659   8.117   5.210  10.965
43545SOL     OW30660   9.272   3.916  10.537
43545SOL    HW130661   9.268   3.826  10.581
43545SOL    HW230662   9.275   3.905  10.438
43546SOL     OW30663   7.876   4.148   9.830
43546SOL    HW130664   7.906   4.076   9.768
43546SOL    HW230665   7.837   4.108   9.913
43547SOL     OW30666   9.153   5.211  10.414
43547SOL    HW130667   9.060   5.186  10.387
43547SOL    HW230668   9.179   5.161  10.496
43548SOL     OW30669   7.765   4.271  10.590
43548SOL    HW130670   7.803   4.212  10.662
43548SOL    HW230671   7.805   4.245  10.502
43549SOL     OW30672   8.260   5.310   9.997
43549SOL    HW130673   8.292   5.320   9.903
43549SOL    HW230674   8.181   5.248   9.999
43550SOL     OW30675   8.872   3.938  10.422
43550SOL    HW130676   8.924   3.873  10.477
43550SOL    HW230677   8.823   4.001  10.483
43551SOL     OW30678   8.449   3.758  10.464
43551SOL    HW130679   8.386   3.686  10.433
43551SOL    HW230680   8.542   3.722  10.464
43552SOL     OW30681   8.218   5.054   9.611
43552SOL    HW130682   8.172   4.967   9.628
43552SOL    HW230683   8.309   5.051   9.652
43553SOL     OW30684   8.066   5.291  10.594
43553SOL    HW130685   8.061   5.373  10.651
43553SOL    HW230686   8.155   5.288  10.549
43554SOL     OW30687   8.800   3.776   9.478
43554SOL    HW130688   8.835   3.735   9.394
43554SOL    HW230689   8.710   3.738   9.498
43555SOL     OW30690   8.748   4.177  10.001
43555SOL    HW130691   8.689   4.257  10.005
43555SOL    HW230692   8.763   4.142  10.094
43556SOL     OW30693   9.041   3.945  10.192
43556SOL    HW130694   8.957   3.944  10.246
43556SOL    HW230695   9.043   4.028  10.136
43557SOL     OW30696   7.487   4.801   9.610
43557SOL    HW130697   7.586   4.790   9.601
43557SOL    HW230698   7.447   4.715   9.642
43558SOL     OW30699   8.323   5.370   9.647
43558SOL    HW130700   8.246   5.335   9.593
43558SOL    HW230701   8.291   5.441   9.709
43559SOL     OW30702   7.678   4.352  11.285
43559SOL    HW130703   7.585   4.350  11.322
43559SOL    HW230704   7.679   4.313  11.193
43560SOL     OW30705   7.673   3.999  12.168
43560SOL    HW130706   7.708   3.982  12.260
43560SOL    HW230707   7.585   3.954  12.156
43561SOL     OW30708   7.467   4.092  11.819
43561SOL    HW130709   7.385   4.135  11.858
43561SOL    HW230710   7.439   4.019  11.756
43562SOL     OW30711   8.017   4.999  12.337
43562SOL    HW130712   7.924   4.992  12.300
43562SOL    HW230713   8.028   5.088  12.381
43563SOL     OW30714   9.003   5.235  11.875
43563SOL    HW130715   8.946   5.219  11.956
43563SOL    HW230716   8.944   5.245  11.795
43564SOL     OW30717   8.583   4.427  11.889
43564SOL    HW130718   8.640   4.505  11.864
43564SOL    HW230719   8.523   4.453  11.965
43565SOL     OW30720   9.203   4.331  11.403
43565SOL    HW130721   9.191   4.318  11.304
43565SOL    HW230722   9.173   4.250  11.452
43566SOL     OW30723   8.216   4.868  12.195
43566SOL    HW130724   8.138   4.885  12.255
43566SOL    HW230725   8.250   4.955  12.159
43567SOL     OW30726   8.133   4.736  11.837
43567SOL    HW130727   8.202   4.720  11.907
43567SOL    HW230728   8.060   4.793  11.875
43568SOL     OW30729   7.783   5.159  12.233
43568SOL    HW130730   7.705   5.128  12.180
43568SOL    HW230731   7.841   5.217  12.176
43569SOL     OW30732   8.908   5.229  12.511
43569SOL    HW130733   8.932   5.323  12.537
43569SOL    HW230734   8.892   5.175  12.593
43570SOL     OW30735   7.886   4.116  12.671
43570SOL    HW130736   7.968   4.060  12.680
43570SOL    HW230737   7.805   4.058  12.675
43571SOL     OW30738   9.051   4.171  11.909
43571SOL    HW130739   8.977   4.217  11.859
43571SOL    HW230740   9.102   4.239  11.962
43572SOL     OW30741   7.679   5.437  11.655
43572SOL    HW130742   7.713   5.514  11.709
43572SOL    HW230743   7.723   5.437  11.565
43573SOL     OW30744   7.678   5.158  11.710
43573SOL    HW130745   7.652   5.254  11.710
43573SOL    HW230746   7.607   5.104  11.755
43574SOL     OW30747   7.688   4.815  12.058
43574SOL    HW130748   7.702   4.731  12.110
43574SOL    HW230749   7.633   4.879  12.113
43575SOL     OW30750   8.068   5.510  12.611
43575SOL    HW130751   7.976   5.493  12.646
43575SOL    HW230752   8.096   5.602  12.637
43576SOL     OW30753   8.054   4.688  11.295
43576SOL    HW130754   8.061   4.772  11.241
43576SOL    HW230755   8.100   4.701  11.383
43577SOL     OW30756   9.042   3.838  12.652
43577SOL    HW130757   9.024   3.905  12.580
43577SOL    HW230758   9.039   3.884  12.741
43578SOL     OW30759   7.570   4.367  11.735
43578SOL    HW130760   7.525   4.279  11.752
43578SOL    HW230761   7.569   4.421  11.819
43579SOL     OW30762   9.290   5.491  11.531
43579SOL    HW130763   9.344   5.462  11.611
43579SOL    HW230764   9.320   5.581  11.502
43580SOL     OW30765   7.475   5.320  11.289
43580SOL    HW130766   7.456   5.224  11.310
43580SOL    HW230767   7.442   5.378  11.364
43581SOL     OW30768   9.137   4.646  11.784
43581SOL    HW130769   9.232   4.617  11.792
43581SOL    HW230770   9.129   4.711  11.709
43582SOL     OW30771   9.089   4.832  11.604
43582SOL    HW130772   9.175   4.834  11.552
43582SOL    HW230773   9.103   4.879  11.692
43583SOL     OW30774   8.061   5.089  11.898
43583SOL    HW130775   8.012   5.002  11.907
43583SOL    HW230776   8.038   5.132  11.811
43584SOL     OW30777   8.257   3.728  11.674
43584SOL    HW130778   8.297   3.819  11.665
43584SOL    HW230779   8.157   3.736  11.680
43585SOL     OW30780   7.645   4.700  12.436
43585SOL    HW130781   7.734   4.655  12.422
43585SOL    HW230782   7.572   4.635  12.417
43586SOL     OW30783   8.973   4.723  11.362
43586SOL    HW130784   8.910   4.647  11.375
43586SOL    HW230785   9.021   4.741  11.448
43587SOL     OW30786   7.765   3.975  12.973
43587SOL    HW130787   7.836   4.046  12.979
43587SOL    HW230788   7.677   4.014  13.001
43588SOL     OW30789   8.914   5.141  12.125
43588SOL    HW130790   8.855   5.147  12.205
43588SOL    HW230791   8.899   5.053  12.079
43589SOL     OW30792   9.115   5.438  11.744
43589SOL    HW130793   9.074   5.415  11.656
43589SOL    HW230794   9.097   5.364  11.809
43590SOL     OW30795   8.046   4.453  11.442
43590SOL    HW130796   8.070   4.522  11.374
43590SOL    HW230797   7.968   4.486  11.496
43591SOL     OW30798   8.729   4.069  12.116
43591SOL    HW130799   8.643   4.019  12.103
43591SOL    HW230800   8.791   4.015  12.172
43592SOL     OW30801   9.024   5.386  11.479
43592SOL    HW130802   9.113   5.432  11.482
43592SOL    HW230803   9.003   5.362  11.384
43593SOL     OW30804   8.255   4.329  12.637
43593SOL    HW130805   8.208   4.326  12.726
43593SOL    HW230806   8.204   4.274  12.571
43594SOL     OW30807   8.439   4.134  12.414
43594SOL    HW130808   8.362   4.168  12.468
43594SOL    HW230809   8.405   4.083  12.335
43595SOL     OW30810   8.489   4.425  11.601
43595SOL    HW130811   8.515   4.421  11.697
43595SOL    HW230812   8.404   4.374  11.587
43596SOL     OW30813   7.524   4.535  11.961
43596SOL    HW130814   7.623   4.523  11.970
43596SOL    HW230815   7.500   4.630  11.982
43597SOL     OW30816   7.578   5.545  12.743
43597SOL    HW130817   7.568   5.530  12.842
43597SOL    HW230818   7.492   5.581  12.707
43598SOL     OW30819   8.313   4.072  11.367
43598SOL    HW130820   8.372   4.135  11.318
43598SOL    HW230821   8.332   3.978  11.338
43599SOL     OW30822   8.810   4.868  11.717
43599SOL    HW130823   8.893   4.839  11.669
43599SOL    HW230824   8.761   4.935  11.661
43600SOL     OW30825   7.998   3.920  12.057
43600SOL    HW130826   7.993   3.915  12.157
43600SOL    HW230827   8.000   4.016  12.028
43601SOL     OW30828   8.456   5.180  11.649
43601SOL    HW130829   8.410   5.252  11.597
43601SOL    HW230830   8.452   5.200  11.747
43602SOL     OW30831   7.799   5.525  12.025
43602SOL    HW130832   7.849   5.439  12.031
43602SOL    HW230833   7.864   5.602  12.022
43603SOL     OW30834   9.243   4.790  12.045
43603SOL    HW130835   9.181   4.775  11.969
43603SOL    HW230836   9.191   4.801  12.130
43604SOL     OW30837   7.769   4.667  11.414
43604SOL    HW130838   7.851   4.706  11.372
43604SOL    HW230839   7.742   4.585  11.365
43605SOL     OW30840   8.906   4.459  11.900
43605SOL    HW130841   8.901   4.394  11.975
43605SOL    HW230842   8.986   4.518  11.913
43606SOL     OW30843   8.559   5.500  11.409
43606SOL    HW130844   8.499   5.438  11.459
43606SOL    HW230845   8.590   5.456  11.324
43607SOL     OW30846   7.650   4.009  12.670
43607SOL    HW130847   7.570   4.069  12.657
43607SOL    HW230848   7.640   3.960  12.756
43608SOL     OW30849   9.080   5.101  11.253
43608SOL    HW130850   9.048   5.195  11.243
43608SOL    HW230851   9.004   5.038  11.241
43609SOL     OW30852   7.912   5.467  11.495
43609SOL    HW130853   7.945   5.506  11.581
43609SOL    HW230854   7.988   5.460  11.430
43610SOL     OW30855   8.848   3.831  11.598
43610SOL    HW130856   8.824   3.794  11.508
43610SOL    HW230857   8.947   3.847  11.602
43611SOL     OW30858   7.697   5.509  12.413
43611SOL    HW130859   7.754   5.444  12.463
43611SOL    HW230860   7.681   5.476  12.320
43612SOL     OW30861   8.388   5.422  12.076
43612SOL    HW130862   8.468   5.365  12.097
43612SOL    HW230863   8.339   5.382  11.999
43613SOL     OW30864   8.062   3.846  11.289
43613SOL    HW130865   8.160   3.824  11.296
43613SOL    HW230866   8.031   3.829  11.196
43614SOL     OW30867   8.336   5.238  12.367
43614SOL    HW130868   8.313   5.213  12.273
43614SOL    HW230869   8.397   5.169  12.406
43615SOL     OW30870   8.251   5.126  12.096
43615SOL    HW130871   8.341   5.140  12.054
43615SOL    HW230872   8.180   5.128  12.025
43616SOL     OW30873   8.370   4.227  12.071
43616SOL    HW130874   8.345   4.218  11.975
43616SOL    HW230875   8.418   4.145  12.102
43617SOL     OW30876   7.987   3.788  11.684
43617SOL    HW130877   7.906   3.789  11.742
43617SOL    HW230878   7.990   3.871  11.629
43618SOL     OW30879   8.882   4.912  11.213
43618SOL    HW130880   8.914   4.836  11.270
43618SOL    HW230881   8.790   4.939  11.243
43619SOL     OW30882   7.745   3.759  11.343
43619SOL    HW130883   7.794   3.843  11.322
43619SOL    HW230884   7.807   3.694  11.388
43620SOL     OW30885   8.383   3.960  11.652
43620SOL    HW130886   8.335   4.001  11.574
43620SOL    HW230887   8.482   3.958  11.633
43621SOL     OW30888   8.675   5.294  11.965
43621SOL    HW130889   8.696   5.368  11.900
43621SOL    HW230890   8.743   5.294  12.038
43622SOL     OW30891   7.907   4.876  11.913
43622SOL    HW130892   7.836   4.849  11.978
43622SOL    HW230893   7.881   4.848  11.820
43623SOL     OW30894   8.719   5.521  11.763
43623SOL    HW130895   8.763   5.585  11.699
43623SOL    HW230896   8.669   5.573  11.833
43624SOL     OW30897   8.480   4.273  11.188
43624SOL    HW130898   8.439   4.355  11.149
43624SOL    HW230899   8.544   4.299  11.261
43625SOL     OW30900   7.526   4.280  12.558
43625SOL    HW130901   7.618   4.279  12.517
43625SOL    HW230902   7.520   4.354  12.625
43626SOL     OW30903   8.009   3.946  12.319
43626SOL    HW130904   8.047   3.862  12.356
43626SOL    HW230905   7.921   3.965  12.363
43627SOL     OW30906   8.314   4.178  11.814
43627SOL    HW130907   8.282   4.250  11.752
43627SOL    HW230908   8.338   4.097  11.761
43628SOL     OW30909   8.465   3.763  11.925
43628SOL    HW130910   8.393   3.768  11.856
43628SOL    HW230911   8.441   3.694  11.994
43629SOL     OW30912   8.877   4.897  12.039
43629SOL    HW130913   8.822   4.813  12.032
43629SOL    HW230914   8.903   4.926  11.947
43630SOL     OW30915   8.914   4.314  12.164
43630SOL    HW130916   8.884   4.219  12.171
43630SOL    HW230917   8.987   4.330  12.230
43631SOL     OW30918   9.305   4.557  11.549
43631SOL    HW130919   9.347   4.493  11.613
43631SOL    HW230920   9.267   4.506  11.471
43632SOL     OW30921   7.936   5.109  11.346
43632SOL    HW130922   7.849   5.094  11.393
43632SOL    HW230923   7.919   5.135  11.251
43633SOL     OW30924   9.112   5.004  11.829
43633SOL    HW130925   9.211   5.012  11.843
43633SOL    HW230926   9.067   5.088  11.860
43634SOL     OW30927   8.838   4.299  11.250
43634SOL    HW130928   8.784   4.278  11.331
43634SOL    HW230929   8.929   4.258  11.259
43635SOL     OW30930   7.975   3.980  11.500
43635SOL    HW130931   8.002   3.921  11.425
43635SOL    HW230932   7.975   4.075  11.469
43636SOL     OW30933   8.512   5.071  12.512
43636SOL    HW130934   8.432   5.048  12.567
43636SOL    HW230935   8.595   5.045  12.561
43637SOL     OW30936   8.559   4.919  12.272
43637SOL    HW130937   8.519   4.963  12.353
43637SOL    HW230938   8.518   4.956  12.189
43638SOL     OW30939   9.086   4.823  12.251
43638SOL    HW130940   9.091   4.904  12.310
43638SOL    HW230941   9.000   4.825  12.200
43639SOL     OW30942   8.363   3.813  12.574
43639SOL    HW130943   8.388   3.793  12.479
43639SOL    HW230944   8.435   3.869  12.616
43640SOL     OW30945   8.153   4.774  11.540
43640SOL    HW130946   8.139   4.781  11.639
43640SOL    HW230947   8.237   4.723  11.522
43641SOL     OW30948   7.858   4.537  12.423
43641SOL    HW130949   7.944   4.549  12.473
43641SOL    HW230950   7.816   4.450  12.450
43642SOL     OW30951   8.722   4.110  12.434
43642SOL    HW130952   8.743   4.184  12.498
43642SOL    HW230953   8.633   4.127  12.391
43643SOL     OW30954   7.512   5.288  12.503
43643SOL    HW130955   7.466   5.370  12.469
43643SOL    HW230956   7.610   5.307  12.512
43644SOL     OW30957   7.815   4.824  11.673
43644SOL    HW130958   7.808   4.907  11.617
43644SOL    HW230959   7.819   4.744  11.613
43645SOL     OW30960   8.014   4.261  12.037
43645SOL    HW130961   8.026   4.327  11.963
43645SOL    HW230962   8.060   4.295  12.120
43646SOL     OW30963   8.700   5.072  11.560
43646SOL    HW130964   8.750   5.149  11.600
43646SOL    HW230965   8.605   5.074  11.592
43647SOL     OW30966   8.720   5.169  12.314
43647SOL    HW130967   8.767   5.182  12.401
43647SOL    HW230968   8.654   5.095  12.323
43648SOL     OW30969   9.030   4.363  11.644
43648SOL    HW130970   8.999   4.424  11.717
43648SOL    HW230971   9.080   4.415  11.575
43649SOL     OW30972   7.802   5.234  12.501
43649SOL    HW130973   7.781   5.190  12.414
43649SOL    HW230974   7.899   5.260  12.504
43650SOL     OW30975   7.850   4.475  12.770
43650SOL    HW130976   7.918   4.530  12.723
43650SOL    HW230977   7.890   4.387  12.797
43651SOL     OW30978   9.035   4.503  12.842
43651SOL    HW130979   8.943   4.541  12.837
43651SOL    HW230980   9.095   4.550  12.777
43652SOL     OW30981   8.021   4.594  12.201
43652SOL    HW130982   8.065   4.683  12.192
43652SOL    HW230983   7.958   4.594  12.278
43653SOL     OW30984   8.808   4.586  12.217
43653SOL    HW130985   8.733   4.586  12.151
43653SOL    HW230986   8.845   4.494  12.226
43654SOL     OW30987   8.657   4.249  11.447
43654SOL    HW130988   8.670   4.165  11.501
43654SOL    HW230989   8.628   4.323  11.507
43655SOL     OW30990   7.755   3.937  12.403
43655SOL    HW130991   7.732   3.974  12.493
43655SOL    HW230992   7.725   3.842  12.397
43656SOL     OW30993   7.485   5.034  12.454
43656SOL    HW130994   7.538   4.985  12.522
43656SOL    HW230995   7.507   5.132  12.459
43657SOL     OW30996   8.180   4.358  12.236
43657SOL    HW130997   8.239   4.332  12.160
43657SOL    HW230998   8.152   4.454  12.225
43658SOL     OW30999   7.755   3.787  11.790
43658SOL    HW131000   7.744   3.881  11.823
43658SOL    HW231001   7.750   3.724  11.867
43659SOL     OW31002   9.070   4.091  11.546
43659SOL    HW131003   9.072   4.015  11.610
43659SOL    HW231004   9.022   4.168  11.586
43660SOL     OW31005   8.471   4.490  12.138
43660SOL    HW131006   8.486   4.511  12.234
43660SOL    HW231007   8.441   4.395  12.129
43661SOL     OW31008   8.428   5.297  12.872
43661SOL    HW131009   8.408   5.341  12.784
43661SOL    HW231010   8.467   5.206  12.856
43662SOL     OW31011   8.988   3.998  11.297
43662SOL    HW131012   8.927   3.923  11.320
43662SOL    HW231013   9.010   4.050  11.380
43663SOL     OW31014   8.751   4.562  11.214
43663SOL    HW131015   8.785   4.469  11.229
43663SOL    HW231016   8.769   4.589  11.119
43664SOL     OW31017   8.516   5.057  12.021
43664SOL    HW131018   8.523   4.973  11.966
43664SOL    HW231019   8.578   5.126  11.985
43665SOL     OW31020   7.767   4.534  12.121
43665SOL    HW131021   7.860   4.570  12.126
43665SOL    HW231022   7.761   4.449  12.173
43666SOL     OW31023   7.787   4.233  12.178
43666SOL    HW131024   7.735   4.150  12.161
43666SOL    HW231025   7.864   4.238  12.114
43667SOL     OW31026   8.586   4.104  12.850
43667SOL    HW131027   8.541   4.167  12.914
43667SOL    HW231028   8.679   4.135  12.833
43668SOL     OW31029   8.608   3.931  12.649
43668SOL    HW131030   8.608   3.995  12.726
43668SOL    HW231031   8.636   3.979  12.566
43669SOL     OW31032   7.456   5.050  11.372
43669SOL    HW131033   7.363   5.071  11.341
43669SOL    HW231034   7.466   4.951  11.385
43670SOL     OW31035   7.536   5.525  12.099
43670SOL    HW131036   7.494   5.439  12.072
43670SOL    HW231037   7.630   5.528  12.065
43671SOL     OW31038   7.952   5.292  12.082
43671SOL    HW131039   8.018   5.366  12.091
43671SOL    HW231040   7.996   5.213  12.040
43672SOL     OW31041   8.450   4.520  12.410
43672SOL    HW131042   8.491   4.488  12.496
43672SOL    HW231043   8.354   4.493  12.407
43673SOL     OW31044   7.488   4.268  12.286
43673SOL    HW131045   7.573   4.235  12.245
43673SOL    HW231046   7.501   4.283  12.384
43674SOL     OW31047   8.263   4.296  11.497
43674SOL    HW131048   8.270   4.207  11.451
43674SOL    HW231049   8.169   4.330  11.489
43675SOL     OW31050   9.105   4.328  12.378
43675SOL    HW131051   9.067   4.259  12.440
43675SOL    HW231052   9.187   4.292  12.334
43676SOL     OW31053   8.119   4.188  12.441
43676SOL    HW131054   8.085   4.099  12.411
43676SOL    HW231055   8.145   4.242  12.361
43677SOL     OW31056   8.378   5.402  12.637
43677SOL    HW131057   8.354   5.384  12.542
43677SOL    HW231058   8.408   5.496  12.647
43678SOL     OW31059   7.921   4.224  11.363
43678SOL    HW131060   7.982   4.304  11.367
43678SOL    HW231061   7.826   4.255  11.370
43679SOL     OW31062   7.607   4.861  12.638
43679SOL    HW131063   7.629   4.800  12.714
43679SOL    HW231064   7.617   4.812  12.552
43680SOL     OW31065   8.795   4.783  12.406
43680SOL    HW131066   8.819   4.720  12.332
43680SOL    HW231067   8.705   4.823  12.388
43681SOL     OW31068   8.750   4.579  11.481
43681SOL    HW131069   8.664   4.548  11.523
43681SOL    HW231070   8.746   4.565  11.382
43682SOL     OW31071   9.207   5.471  12.326
43682SOL    HW131072   9.268   5.501  12.253
43682SOL    HW231073   9.169   5.382  12.304
43683SOL     OW31074   8.700   5.455  12.300
43683SOL    HW131075   8.784   5.460  12.246
43683SOL    HW231076   8.677   5.359  12.318
43684SOL     OW31077   7.531   4.982  12.194
43684SOL    HW131078   7.526   4.981  12.294
43684SOL    HW231079   7.448   4.941  12.156
43685SOL     OW31080   9.174   3.859  11.695
43685SOL    HW131081   9.247   3.842  11.628
43685SOL    HW231082   9.143   3.772  11.733
43686SOL     OW31083   8.836   5.297  11.649
43686SOL    HW131084   8.903   5.309  11.575
43686SOL    HW231085   8.796   5.386  11.672
43687SOL     OW31086   8.728   4.651  11.844
43687SOL    HW131087   8.788   4.570  11.846
43687SOL    HW231088   8.768   4.720  11.784
43688SOL     OW31089   8.120   5.340  11.326
43688SOL    HW131090   8.129   5.350  11.227
43688SOL    HW231091   8.080   5.251  11.347
43689SOL     OW31092   9.098   5.444  12.566
43689SOL    HW131093   9.151   5.454  12.482
43689SOL    HW231094   9.071   5.534  12.600
43690SOL     OW31095   9.289   3.899  12.135
43690SOL    HW131096   9.328   3.814  12.099
43690SOL    HW231097   9.191   3.901  12.116
43691SOL     OW31098   7.711   4.050  11.892
43691SOL    HW131099   7.632   4.101  11.858
43691SOL    HW231100   7.702   4.035  11.990
43692SOL     OW31101   8.642   5.336  11.203
43692SOL    HW131102   8.648   5.243  11.240
43692SOL    HW231103   8.583   5.336  11.123
43693SOL     OW31104   8.270   4.726  12.544
43693SOL    HW131105   8.310   4.725  12.452
43693SOL    HW231106   8.280   4.818  12.584
43694SOL     OW31107   8.364   4.634  11.463
43694SOL    HW131108   8.427   4.672  11.395
43694SOL    HW231109   8.404   4.551  11.502
43695SOL     OW31110   8.952   5.331  11.216
43695SOL    HW131111   8.860   5.368  11.223
43695SOL    HW231112   8.990   5.351  11.126
43696SOL     OW31113   7.820   5.012  12.662
43696SOL    HW131114   7.807   5.105  12.628
43696SOL    HW231115   7.736   4.960  12.649
43697SOL     OW31116   9.062   5.016  12.461
43697SOL    HW131117   9.122   5.019  12.541
43697SOL    HW231118   8.987   5.080  12.474
43698SOL     OW31119   8.487   4.822  11.868
43698SOL    HW131120   8.417   4.775  11.922
43698SOL    HW231121   8.546   4.754  11.825
43699SOL     OW31122   8.462   3.960  12.143
43699SOL    HW131123   8.454   3.924  12.050
43699SOL    HW231124   8.460   3.884  12.208
43700SOL     OW31125   8.038   5.211  11.663
43700SOL    HW131126   8.080   5.153  11.593
43700SOL    HW231127   7.994   5.290  11.619
43701SOL     OW31128   9.157   4.109  12.553
43701SOL    HW131129   9.230   4.178  12.557
43701SOL    HW231130   9.185   4.034  12.494
43702SOL     OW31131   7.703   5.072  11.462
43702SOL    HW131132   7.607   5.073  11.435
43702SOL    HW231133   7.715   5.125  11.546
43703SOL     OW31134   7.523   4.069  11.205
43703SOL    HW131135   7.431   4.041  11.176
43703SOL    HW231136   7.554   4.146  11.149
43704SOL     OW31137   8.888   4.580  12.570
43704SOL    HW131138   8.831   4.632  12.507
43704SOL    HW231139   8.984   4.592  12.546
43705SOL     OW31140   7.520   3.890  11.490
43705SOL    HW131141   7.503   3.973  11.436
43705SOL    HW231142   7.610   3.853  11.468
43706SOL     OW31143   8.631   5.059  11.291
43706SOL    HW131144   8.532   5.048  11.293
43706SOL    HW231145   8.665   5.074  11.384
43707SOL     OW31146   8.061   4.566  12.603
43707SOL    HW131147   8.117   4.647  12.586
43707SOL    HW231148   8.120   4.486  12.606
43708SOL     OW31149   8.941   5.491  12.131
43708SOL    HW131150   8.974   5.555  12.062
43708SOL    HW231151   9.007   5.485  12.206
43709SOL     OW31152   7.838   5.465  12.732
43709SOL    HW131153   7.747   5.506  12.730
43709SOL    HW231154   7.831   5.371  12.764
43710SOL     OW31155   9.122   4.607  12.426
43710SOL    HW131156   9.095   4.518  12.389
43710SOL    HW231157   9.123   4.675  12.353
43711SOL     OW31158   8.673   4.049  11.621
43711SOL    HW131159   8.738   3.975  11.610
43711SOL    HW231160   8.693   4.099  11.705
43712SOL     OW31161   8.042   4.469  11.824
43712SOL    HW131162   8.092   4.554  11.805
43712SOL    HW231163   7.954   4.471  11.776
43713SOL     OW31164   9.225   4.066  12.814
43713SOL    HW131165   9.208   4.097  12.720
43713SOL    HW231166   9.141   4.029  12.852
43714SOL     OW31167   8.307   5.098  11.188
43714SOL    HW131168   8.261   5.113  11.276
43714SOL    HW231169   8.351   5.183  11.158
43715SOL     OW31170   8.109   5.514  12.125
43715SOL    HW131171   8.063   5.602  12.112
43715SOL    HW231172   8.208   5.526  12.118
43716SOL     OW31173   8.307   4.680  12.033
43716SOL    HW131174   8.361   4.611  12.081
43716SOL    HW231175   8.275   4.749  12.099
43717SOL     OW31176   8.531   4.708  11.259
43717SOL    HW131177   8.508   4.761  11.177
43717SOL    HW231178   8.612   4.652  11.240
43718SOL     OW31179   9.309   5.293  12.023
43718SOL    HW131180   9.238   5.281  11.953
43718SOL    HW231181   9.310   5.214  12.083
43719SOL     OW31182   7.527   4.964  11.825
43719SOL    HW131183   7.526   4.917  11.913
43719SOL    HW231184   7.609   4.936  11.774
43720SOL     OW31185   9.272   3.916  12.399
43720SOL    HW131186   9.268   3.826  12.443
43720SOL    HW231187   9.275   3.905  12.300
43721SOL     OW31188   7.876   4.148  11.692
43721SOL    HW131189   7.906   4.076  11.630
43721SOL    HW231190   7.837   4.108  11.775
43722SOL     OW31191   9.153   5.211  12.276
43722SOL    HW131192   9.060   5.186  12.249
43722SOL    HW231193   9.179   5.161  12.358
43723SOL     OW31194   7.765   4.271  12.452
43723SOL    HW131195   7.803   4.212  12.524
43723SOL    HW231196   7.805   4.245  12.364
43724SOL     OW31197   8.260   5.310  11.859
43724SOL    HW131198   8.292   5.320  11.765
43724SOL    HW231199   8.181   5.248  11.861
43725SOL     OW31200   8.872   3.938  12.284
43725SOL    HW131201   8.924   3.873  12.339
43725SOL    HW231202   8.823   4.001  12.345
43726SOL     OW31203   8.449   3.758  12.326
43726SOL    HW131204   8.386   3.686  12.295
43726SOL    HW231205   8.542   3.722  12.326
43727SOL     OW31206   8.218   5.054  11.473
43727SOL    HW131207   8.172   4.967  11.490
43727SOL    HW231208   8.309   5.051  11.514
43728SOL     OW31209   8.066   5.291  12.456
43728SOL    HW131210   8.061   5.373  12.513
43728SOL    HW231211   8.155   5.288  12.411
43729SOL     OW31212   8.800   3.776  11.340
43729SOL    HW131213   8.835   3.735  11.256
43729SOL    HW231214   8.710   3.738  11.360
43730SOL     OW31215   8.748   4.177  11.863
43730SOL    HW131216   8.689   4.257  11.867
43730SOL    HW231217   8.763   4.142  11.956
43731SOL     OW31218   9.041   3.945  12.054
43731SOL    HW131219   8.957   3.944  12.108
43731SOL    HW231220   9.043   4.028  11.998
43732SOL     OW31221   7.487   4.801  11.472
43732SOL    HW131222   7.586   4.790  11.463
43732SOL    HW231223   7.447   4.715  11.504
43733SOL     OW31224   8.323   5.370  11.509
43733SOL    HW131225   8.246   5.335  11.455
43733SOL    HW231226   8.291   5.441  11.571
43734SOL     OW31227   7.678   6.214   0.113
43734SOL    HW131228   7.585   6.212   0.150
43734SOL    HW231229   7.679   6.175   0.021
43735SOL     OW31230   7.673   5.861   0.996
43735SOL    HW131231   7.708   5.844   1.088
43735SOL    HW231232   7.585   5.816   0.984
43736SOL     OW31233   7.467   5.954   0.647
43736SOL    HW131234   7.385   5.997   0.686
43736SOL    HW231235   7.439   5.881   0.584
43737SOL     OW31236   8.017   6.861   1.165
43737SOL    HW131237   7.924   6.854   1.128
43737SOL    HW231238   8.028   6.950   1.209
43738SOL     OW31239   9.003   7.097   0.703
43738SOL    HW131240   8.946   7.081   0.784
43738SOL    HW231241   8.944   7.107   0.623
43739SOL     OW31242   8.583   6.289   0.717
43739SOL    HW131243   8.640   6.367   0.692
43739SOL    HW231244   8.523   6.315   0.793
43740SOL     OW31245   9.203   6.193   0.231
43740SOL    HW131246   9.191   6.180   0.132
43740SOL    HW231247   9.173   6.112   0.280
43741SOL     OW31248   8.216   6.730   1.023
43741SOL    HW131249   8.138   6.747   1.083
43741SOL    HW231250   8.250   6.817   0.987
43742SOL     OW31251   8.298   6.384   1.823
43742SOL    HW131252   8.294   6.460   1.888
43742SOL    HW231253   8.320   6.420   1.732
43743SOL     OW31254   8.133   6.598   0.665
43743SOL    HW131255   8.202   6.582   0.735
43743SOL    HW231256   8.060   6.655   0.703
43744SOL     OW31257   8.134   6.747   1.803
43744SOL    HW131258   8.194   6.826   1.817
43744SOL    HW231259   8.048   6.778   1.762
43745SOL     OW31260   7.783   7.021   1.061
43745SOL    HW131261   7.705   6.990   1.008
43745SOL    HW231262   7.841   7.079   1.004
43746SOL     OW31263   8.908   7.091   1.339
43746SOL    HW131264   8.932   7.185   1.365
43746SOL    HW231265   8.892   7.037   1.421
43747SOL     OW31266   7.886   5.978   1.499
43747SOL    HW131267   7.968   5.922   1.508
43747SOL    HW231268   7.805   5.920   1.503
43748SOL     OW31269   9.051   6.033   0.737
43748SOL    HW131270   8.977   6.079   0.687
43748SOL    HW231271   9.102   6.101   0.790
43749SOL     OW31272   7.679   7.299   0.483
43749SOL    HW131273   7.713   7.376   0.537
43749SOL    HW231274   7.723   7.299   0.393
43750SOL     OW31275   8.575   6.927   1.690
43750SOL    HW131276   8.622   6.927   1.778
43750SOL    HW231277   8.527   6.840   1.679
43751SOL     OW31278   7.678   7.020   0.538
43751SOL    HW131279   7.652   7.116   0.538
43751SOL    HW231280   7.607   6.966   0.583
43752SOL     OW31281   7.688   6.677   0.886
43752SOL    HW131282   7.702   6.593   0.938
43752SOL    HW231283   7.633   6.741   0.941
43753SOL     OW31284   8.068   7.372   1.439
43753SOL    HW131285   7.976   7.355   1.474
43753SOL    HW231286   8.096   7.464   1.465
43754SOL     OW31287   8.054   6.550   0.123
43754SOL    HW131288   8.061   6.634   0.069
43754SOL    HW231289   8.100   6.563   0.211
43755SOL     OW31290   9.042   5.700   1.480
43755SOL    HW131291   9.024   5.767   1.408
43755SOL    HW231292   9.039   5.746   1.569
43756SOL     OW31293   7.570   6.229   0.563
43756SOL    HW131294   7.525   6.141   0.580
43756SOL    HW231295   7.569   6.283   0.647
43757SOL     OW31296   9.290   7.353   0.359
43757SOL    HW131297   9.344   7.324   0.439
43757SOL    HW231298   9.320   7.443   0.330
43758SOL     OW31299   7.475   7.182   0.117
43758SOL    HW131300   7.456   7.086   0.138
43758SOL    HW231301   7.442   7.240   0.192
43759SOL     OW31302   9.137   6.508   0.612
43759SOL    HW131303   9.232   6.479   0.620
43759SOL    HW231304   9.129   6.573   0.537
43760SOL     OW31305   9.089   6.694   0.432
43760SOL    HW131306   9.175   6.696   0.380
43760SOL    HW231307   9.103   6.741   0.520
43761SOL     OW31308   7.561   6.323   1.597
43761SOL    HW131309   7.649   6.310   1.642
43761SOL    HW231310   7.548   6.420   1.575
43762SOL     OW31311   8.061   6.951   0.726
43762SOL    HW131312   8.012   6.864   0.735
43762SOL    HW231313   8.038   6.994   0.639
43763SOL     OW31314   8.741   6.814   1.423
43763SOL    HW131315   8.778   6.741   1.365
43763SOL    HW231316   8.793   6.819   1.508
43764SOL     OW31317   8.257   5.590   0.502
43764SOL    HW131318   8.297   5.681   0.493
43764SOL    HW231319   8.157   5.598   0.508
43765SOL     OW31320   7.645   6.562   1.264
43765SOL    HW131321   7.734   6.517   1.250
43765SOL    HW231322   7.572   6.497   1.245
43766SOL     OW31323   8.973   6.585   0.190
43766SOL    HW131324   8.910   6.509   0.203
43766SOL    HW231325   9.021   6.603   0.276
43767SOL     OW31326   8.635   7.378   1.616
43767SOL    HW131327   8.659   7.438   1.540
43767SOL    HW231328   8.642   7.283   1.586
43768SOL     OW31329   7.765   5.837   1.801
43768SOL    HW131330   7.836   5.908   1.807
43768SOL    HW231331   7.677   5.876   1.829
43769SOL     OW31332   8.914   7.003   0.953
43769SOL    HW131333   8.855   7.009   1.033
43769SOL    HW231334   8.899   6.915   0.907
43770SOL     OW31335   9.115   7.300   0.572
43770SOL    HW131336   9.074   7.277   0.484
43770SOL    HW231337   9.097   7.226   0.637
43771SOL     OW31338   8.046   6.315   0.270
43771SOL    HW131339   8.070   6.384   0.202
43771SOL    HW231340   7.968   6.348   0.324
43772SOL     OW31341   8.729   5.931   0.944
43772SOL    HW131342   8.643   5.881   0.931
43772SOL    HW231343   8.791   5.877   1.000
43773SOL     OW31344   9.024   7.248   0.307
43773SOL    HW131345   9.113   7.294   0.310
43773SOL    HW231346   9.003   7.224   0.212
43774SOL     OW31347   8.255   6.191   1.465
43774SOL    HW131348   8.208   6.188   1.554
43774SOL    HW231349   8.204   6.136   1.399
43775SOL     OW31350   8.842   6.055   1.674
43775SOL    HW131351   8.822   6.098   1.762
43775SOL    HW231352   8.920   5.993   1.683
43776SOL     OW31353   8.421   6.476   1.572
43776SOL    HW131354   8.467   6.392   1.543
43776SOL    HW231355   8.365   6.510   1.497
43777SOL     OW31356   8.439   5.996   1.242
43777SOL    HW131357   8.362   6.030   1.296
43777SOL    HW231358   8.405   5.945   1.163
43778SOL     OW31359   8.489   6.287   0.429
43778SOL    HW131360   8.515   6.283   0.525
43778SOL    HW231361   8.404   6.236   0.415
43779SOL     OW31362   7.524   6.397   0.789
43779SOL    HW131363   7.623   6.385   0.798
43779SOL    HW231364   7.500   6.492   0.810
43780SOL     OW31365   7.578   7.407   1.571
43780SOL    HW131366   7.568   7.392   1.670
43780SOL    HW231367   7.492   7.443   1.535
43781SOL     OW31368   8.313   5.934   0.195
43781SOL    HW131369   8.372   5.997   0.146
43781SOL    HW231370   8.332   5.840   0.166
43782SOL     OW31371   9.167   6.171   1.831
43782SOL    HW131372   9.141   6.260   1.795
43782SOL    HW231373   9.165   6.103   1.758
43783SOL     OW31374   8.810   6.730   0.545
43783SOL    HW131375   8.893   6.701   0.497
43783SOL    HW231376   8.761   6.797   0.489
43784SOL     OW31377   7.998   5.782   0.885
43784SOL    HW131378   7.993   5.777   0.985
43784SOL    HW231379   8.000   5.878   0.856
43785SOL     OW31380   8.456   7.042   0.477
43785SOL    HW131381   8.410   7.114   0.425
43785SOL    HW231382   8.452   7.062   0.575
43786SOL     OW31383   7.799   7.387   0.853
43786SOL    HW131384   7.849   7.301   0.859
43786SOL    HW231385   7.864   7.464   0.850
43787SOL     OW31386   9.243   6.652   0.873
43787SOL    HW131387   9.181   6.637   0.797
43787SOL    HW231388   9.191   6.663   0.958
43788SOL     OW31389   8.675   7.136   1.506
43788SOL    HW131390   8.681   7.059   1.570
43788SOL    HW231391   8.623   7.110   1.426
43789SOL     OW31392   7.769   6.529   0.242
43789SOL    HW131393   7.851   6.568   0.200
43789SOL    HW231394   7.742   6.447   0.193
43790SOL     OW31395   8.906   6.321   0.728
43790SOL    HW131396   8.901   6.256   0.803
43790SOL    HW231397   8.986   6.380   0.741
43791SOL     OW31398   7.909   6.852   1.727
43791SOL    HW131399   7.859   6.853   1.641
43791SOL    HW231400   7.846   6.834   1.803
43792SOL     OW31401   8.559   7.362   0.237
43792SOL    HW131402   8.499   7.300   0.287
43792SOL    HW231403   8.590   7.318   0.152
43793SOL     OW31404   7.650   5.871   1.498
43793SOL    HW131405   7.570   5.931   1.485
43793SOL    HW231406   7.640   5.822   1.584
43794SOL     OW31407   9.080   6.963   0.081
43794SOL    HW131408   9.048   7.057   0.071
43794SOL    HW231409   9.004   6.900   0.069
43795SOL     OW31410   7.912   7.329   0.323
43795SOL    HW131411   7.945   7.368   0.409
43795SOL    HW231412   7.988   7.322   0.258
43796SOL     OW31413   8.848   5.693   0.426
43796SOL    HW131414   8.824   5.656   0.336
43796SOL    HW231415   8.947   5.709   0.430
43797SOL     OW31416   7.697   7.371   1.241
43797SOL    HW131417   7.754   7.306   1.291
43797SOL    HW231418   7.681   7.338   1.148
43798SOL     OW31419   8.388   7.284   0.904
43798SOL    HW131420   8.468   7.227   0.925
43798SOL    HW231421   8.339   7.244   0.827
43799SOL     OW31422   7.830   6.286   0.480
43799SOL    HW131423   7.875   6.196   0.477
43799SOL    HW231424   7.736   6.275   0.513
43800SOL     OW31425   8.995   5.808   1.729
43800SOL    HW131426   8.990   5.845   1.821
43800SOL    HW231427   8.923   5.739   1.717
43801SOL     OW31428   8.062   5.708   0.117
43801SOL    HW131429   8.160   5.686   0.124
43801SOL    HW231430   8.031   5.691   0.024
43802SOL     OW31431   8.229   5.850   1.749
43802SOL    HW131432   8.296   5.789   1.792
43802SOL    HW231433   8.156   5.869   1.814
43803SOL     OW31434   8.336   7.100   1.195
43803SOL    HW131435   8.313   7.075   1.101
43803SOL    HW231436   8.397   7.031   1.234
43804SOL     OW31437   8.799   6.176   1.433
43804SOL    HW131438   8.827   6.133   1.518
43804SOL    HW231439   8.824   6.272   1.434
43805SOL     OW31440   8.251   6.988   0.924
43805SOL    HW131441   8.341   7.002   0.882
43805SOL    HW231442   8.180   6.990   0.853
43806SOL     OW31443   8.370   6.089   0.899
43806SOL    HW131444   8.345   6.080   0.803
43806SOL    HW231445   8.418   6.007   0.930
43807SOL     OW31446   7.987   5.650   0.512
43807SOL    HW131447   7.906   5.651   0.570
43807SOL    HW231448   7.990   5.733   0.457
43808SOL     OW31449   8.882   6.774   0.041
43808SOL    HW131450   8.914   6.698   0.098
43808SOL    HW231451   8.790   6.801   0.071
43809SOL     OW31452   7.745   5.621   0.171
43809SOL    HW131453   7.794   5.705   0.150
43809SOL    HW231454   7.807   5.556   0.216
43810SOL     OW31455   8.383   5.822   0.480
43810SOL    HW131456   8.335   5.863   0.402
43810SOL    HW231457   8.482   5.820   0.461
43811SOL     OW31458   8.524   6.269   1.464
43811SOL    HW131459   8.444   6.208   1.467
43811SOL    HW231460   8.605   6.216   1.440
43812SOL     OW31461   8.675   7.156   0.793
43812SOL    HW131462   8.696   7.230   0.728
43812SOL    HW231463   8.743   7.156   0.866
43813SOL     OW31464   7.907   6.738   0.741
43813SOL    HW131465   7.836   6.711   0.806
43813SOL    HW231466   7.881   6.710   0.648
43814SOL     OW31467   8.719   7.383   0.591
43814SOL    HW131468   8.763   7.447   0.527
43814SOL    HW231469   8.669   7.435   0.661
43815SOL     OW31470   8.480   6.135   0.016
43815SOL    HW131471   8.439   6.217  -0.023
43815SOL    HW231472   8.544   6.161   0.089
43816SOL     OW31473   7.526   6.142   1.386
43816SOL    HW131474   7.618   6.141   1.345
43816SOL    HW231475   7.520   6.216   1.453
43817SOL     OW31476   8.009   5.808   1.147
43817SOL    HW131477   8.047   5.724   1.184
43817SOL    HW231478   7.921   5.827   1.191
43818SOL     OW31479   8.314   6.040   0.642
43818SOL    HW131480   8.282   6.112   0.580
43818SOL    HW231481   8.338   5.959   0.589
43819SOL     OW31482   8.465   5.625   0.753
43819SOL    HW131483   8.393   5.630   0.684
43819SOL    HW231484   8.441   5.556   0.822
43820SOL     OW31485   8.877   6.759   0.867
43820SOL    HW131486   8.822   6.675   0.860
43820SOL    HW231487   8.903   6.788   0.775
43821SOL     OW31488   8.914   6.176   0.992
43821SOL    HW131489   8.884   6.081   0.999
43821SOL    HW231490   8.987   6.192   1.058
43822SOL     OW31491   9.305   6.419   0.377
43822SOL    HW131492   9.347   6.355   0.441
43822SOL    HW231493   9.267   6.368   0.299
43823SOL     OW31494   7.936   6.971   0.174
43823SOL    HW131495   7.849   6.956   0.221
43823SOL    HW231496   7.919   6.997   0.079
43824SOL     OW31497   9.112   6.866   0.657
43824SOL    HW131498   9.211   6.874   0.671
43824SOL    HW231499   9.067   6.950   0.688
43825SOL     OW31500   8.838   6.161   0.078
43825SOL    HW131501   8.784   6.140   0.159
43825SOL    HW231502   8.929   6.120   0.087
43826SOL     OW31503   7.975   5.842   0.328
43826SOL    HW131504   8.002   5.783   0.253
43826SOL    HW231505   7.975   5.937   0.297
43827SOL     OW31506   9.202   6.809   1.588
43827SOL    HW131507   9.293   6.770   1.575
43827SOL    HW231508   9.210   6.905   1.612
43828SOL     OW31509   8.512   6.933   1.340
43828SOL    HW131510   8.432   6.910   1.395
43828SOL    HW231511   8.595   6.907   1.389
43829SOL     OW31512   9.040   7.215   1.625
43829SOL    HW131513   9.067   7.249   1.535
43829SOL    HW231514   9.119   7.177   1.671
43830SOL     OW31515   8.559   6.781   1.100
43830SOL    HW131516   8.519   6.825   1.181
43830SOL    HW231517   8.518   6.818   1.017
43831SOL     OW31518   9.086   6.685   1.079
43831SOL    HW131519   9.091   6.766   1.138
43831SOL    HW231520   9.000   6.687   1.028
43832SOL     OW31521   8.363   5.675   1.402
43832SOL    HW131522   8.388   5.655   1.307
43832SOL    HW231523   8.435   5.731   1.444
43833SOL     OW31524   8.428   6.702   1.719
43833SOL    HW131525   8.329   6.708   1.729
43833SOL    HW231526   8.451   6.622   1.663
43834SOL     OW31527   8.153   6.636   0.368
43834SOL    HW131528   8.139   6.643   0.467
43834SOL    HW231529   8.237   6.585   0.350
43835SOL     OW31530   7.858   6.399   1.251
43835SOL    HW131531   7.944   6.411   1.301
43835SOL    HW231532   7.816   6.312   1.278
43836SOL     OW31533   8.722   5.972   1.262
43836SOL    HW131534   8.743   6.046   1.326
43836SOL    HW231535   8.633   5.989   1.219
43837SOL     OW31536   7.512   7.150   1.331
43837SOL    HW131537   7.466   7.232   1.297
43837SOL    HW231538   7.610   7.169   1.340
43838SOL     OW31539   7.815   6.686   0.501
43838SOL    HW131540   7.808   6.769   0.445
43838SOL    HW231541   7.819   6.606   0.441
43839SOL     OW31542   8.014   6.123   0.865
43839SOL    HW131543   8.026   6.189   0.791
43839SOL    HW231544   8.060   6.157   0.948
43840SOL     OW31545   8.700   6.934   0.388
43840SOL    HW131546   8.750   7.011   0.428
43840SOL    HW231547   8.605   6.936   0.420
43841SOL     OW31548   8.720   7.031   1.142
43841SOL    HW131549   8.767   7.044   1.229
43841SOL    HW231550   8.654   6.957   1.151
43842SOL     OW31551   9.030   6.225   0.472
43842SOL    HW131552   8.999   6.286   0.545
43842SOL    HW231553   9.080   6.277   0.403
43843SOL     OW31554   7.802   7.096   1.329
43843SOL    HW131555   7.781   7.052   1.242
43843SOL    HW231556   7.899   7.122   1.332
43844SOL     OW31557   7.850   6.337   1.598
43844SOL    HW131558   7.918   6.392   1.551
43844SOL    HW231559   7.890   6.249   1.625
43845SOL     OW31560   9.035   6.365   1.670
43845SOL    HW131561   8.943   6.403   1.665
43845SOL    HW231562   9.095   6.412   1.605
43846SOL     OW31563   8.461   5.691   1.770
43846SOL    HW131564   8.467   5.776   1.718
43846SOL    HW231565   8.493   5.615   1.713
43847SOL     OW31566   7.952   5.636   1.740
43847SOL    HW131567   7.910   5.579   1.670
43847SOL    HW231568   7.886   5.705   1.772
43848SOL     OW31569   8.021   6.456   1.029
43848SOL    HW131570   8.065   6.545   1.020
43848SOL    HW231571   7.958   6.456   1.106
43849SOL     OW31572   8.657   6.111   0.275
43849SOL    HW131573   8.670   6.027   0.329
43849SOL    HW231574   8.628   6.185   0.335
43850SOL     OW31575   7.755   5.799   1.231
43850SOL    HW131576   7.732   5.836   1.321
43850SOL    HW231577   7.725   5.704   1.225
43851SOL     OW31578   7.485   6.896   1.282
43851SOL    HW131579   7.538   6.847   1.350
43851SOL    HW231580   7.507   6.994   1.287
43852SOL     OW31581   8.180   6.220   1.064
43852SOL    HW131582   8.239   6.194   0.988
43852SOL    HW231583   8.152   6.316   1.053
43853SOL     OW31584   9.176   6.521   1.854
43853SOL    HW131585   9.130   6.514   1.765
43853SOL    HW231586   9.114   6.565   1.920
43854SOL     OW31587   7.755   5.649   0.618
43854SOL    HW131588   7.744   5.743   0.651
43854SOL    HW231589   7.750   5.586   0.695
43855SOL     OW31590   9.070   5.953   0.374
43855SOL    HW131591   9.072   5.877   0.438
43855SOL    HW231592   9.022   6.030   0.414
43856SOL     OW31593   8.471   6.352   0.966
43856SOL    HW131594   8.486   6.373   1.062
43856SOL    HW231595   8.441   6.257   0.957
43857SOL     OW31596   8.428   7.159   1.700
43857SOL    HW131597   8.408   7.203   1.612
43857SOL    HW231598   8.467   7.068   1.684
43858SOL     OW31599   9.307   7.104   1.605
43858SOL    HW131600   9.321   7.131   1.510
43858SOL    HW231601   9.390   7.126   1.658
43859SOL     OW31602   7.798   6.484   1.804
43859SOL    HW131603   7.874   6.528   1.852
43859SOL    HW231604   7.833   6.437   1.722
43860SOL     OW31605   8.988   5.860   0.125
43860SOL    HW131606   8.927   5.785   0.148
43860SOL    HW231607   9.010   5.912   0.208
43861SOL     OW31608   8.751   6.424   0.042
43861SOL    HW131609   8.785   6.331   0.057
43861SOL    HW231610   8.769   6.451  -0.053
43862SOL     OW31611   8.516   6.919   0.849
43862SOL    HW131612   8.523   6.835   0.794
43862SOL    HW231613   8.578   6.988   0.813
43863SOL     OW31614   7.767   6.396   0.949
43863SOL    HW131615   7.860   6.432   0.954
43863SOL    HW231616   7.761   6.311   1.001
43864SOL     OW31617   7.787   6.095   1.006
43864SOL    HW131618   7.735   6.012   0.989
43864SOL    HW231619   7.864   6.100   0.942
43865SOL     OW31620   8.586   5.966   1.678
43865SOL    HW131621   8.541   6.029   1.742
43865SOL    HW231622   8.679   5.997   1.661
43866SOL     OW31623   8.608   5.793   1.477
43866SOL    HW131624   8.608   5.857   1.554
43866SOL    HW231625   8.636   5.841   1.394
43867SOL     OW31626   7.456   6.912   0.200
43867SOL    HW131627   7.363   6.933   0.169
43867SOL    HW231628   7.466   6.813   0.213
43868SOL     OW31629   7.536   7.387   0.927
43868SOL    HW131630   7.494   7.301   0.900
43868SOL    HW231631   7.630   7.390   0.893
43869SOL     OW31632   7.952   7.154   0.910
43869SOL    HW131633   8.018   7.228   0.919
43869SOL    HW231634   7.996   7.075   0.868
43870SOL     OW31635   8.450   6.382   1.238
43870SOL    HW131636   8.491   6.350   1.324
43870SOL    HW231637   8.354   6.355   1.235
43871SOL     OW31638   7.488   6.130   1.114
43871SOL    HW131639   7.573   6.097   1.073
43871SOL    HW231640   7.501   6.145   1.212
43872SOL     OW31641   7.637   6.106   1.722
43872SOL    HW131642   7.696   6.066   1.652
43872SOL    HW231643   7.579   6.177   1.681
43873SOL     OW31644   8.817   6.536   1.660
43873SOL    HW131645   8.856   6.625   1.680
43873SOL    HW231646   8.827   6.516   1.563
43874SOL     OW31647   8.263   6.158   0.325
43874SOL    HW131648   8.270   6.069   0.279
43874SOL    HW231649   8.169   6.192   0.317
43875SOL     OW31650   9.105   6.190   1.206
43875SOL    HW131651   9.067   6.121   1.268
43875SOL    HW231652   9.187   6.154   1.162
43876SOL     OW31653   7.700   7.150   1.744
43876SOL    HW131654   7.670   7.207   1.820
43876SOL    HW231655   7.693   7.053   1.770
43877SOL     OW31656   8.119   6.050   1.269
43877SOL    HW131657   8.085   5.961   1.239
43877SOL    HW231658   8.145   6.104   1.189
43878SOL     OW31659   8.378   7.264   1.465
43878SOL    HW131660   8.354   7.246   1.370
43878SOL    HW231661   8.408   7.358   1.475
43879SOL     OW31662   7.921   6.086   0.191
43879SOL    HW131663   7.982   6.166   0.195
43879SOL    HW231664   7.826   6.117   0.198
43880SOL     OW31665   7.607   6.723   1.466
43880SOL    HW131666   7.629   6.662   1.542
43880SOL    HW231667   7.617   6.674   1.380
43881SOL     OW31668   8.795   6.645   1.234
43881SOL    HW131669   8.819   6.582   1.160
43881SOL    HW231670   8.705   6.685   1.216
43882SOL     OW31671   8.750   6.441   0.309
43882SOL    HW131672   8.664   6.410   0.351
43882SOL    HW231673   8.746   6.427   0.210
43883SOL     OW31674   9.207   7.333   1.154
43883SOL    HW131675   9.268   7.363   1.081
43883SOL    HW231676   9.169   7.244   1.132
43884SOL     OW31677   8.700   7.317   1.128
43884SOL    HW131678   8.784   7.322   1.074
43884SOL    HW231679   8.677   7.221   1.146
43885SOL     OW31680   7.531   6.844   1.022
43885SOL    HW131681   7.526   6.843   1.122
43885SOL    HW231682   7.448   6.803   0.984
43886SOL     OW31683   8.136   7.248   1.716
43886SOL    HW131684   8.080   7.329   1.725
43886SOL    HW231685   8.188   7.252   1.630
43887SOL     OW31686   8.351   5.672   0.133
43887SOL    HW131687   8.402   5.673   0.047
43887SOL    HW231688   8.407   5.630   0.204
43888SOL     OW31689   9.174   5.721   0.523
43888SOL    HW131690   9.247   5.704   0.456
43888SOL    HW231691   9.143   5.634   0.561
43889SOL     OW31692   8.836   7.159   0.477
43889SOL    HW131693   8.903   7.171   0.403
43889SOL    HW231694   8.796   7.248   0.500
43890SOL     OW31695   7.578   7.380   1.851
43890SOL    HW131696   7.537   7.306   1.904
43890SOL    HW231697   7.642   7.431   1.909
43891SOL     OW31698   8.728   6.513   0.672
43891SOL    HW131699   8.788   6.432   0.674
43891SOL    HW231700   8.768   6.582   0.612
43892SOL     OW31701   8.278   6.859   1.422
43892SOL    HW131702   8.273   6.892   1.517
43892SOL    HW231703   8.192   6.878   1.376
43893SOL     OW31704   8.120   7.202   0.154
43893SOL    HW131705   8.129   7.212   0.055
43893SOL    HW231706   8.080   7.113   0.175
43894SOL     OW31707   9.098   7.306   1.394
43894SOL    HW131708   9.151   7.316   1.310
43894SOL    HW231709   9.071   7.396   1.428
43895SOL     OW31710   9.289   5.761   0.963
43895SOL    HW131711   9.328   5.676   0.927
43895SOL    HW231712   9.191   5.763   0.944
43896SOL     OW31713   7.711   5.912   0.720
43896SOL    HW131714   7.632   5.963   0.686
43896SOL    HW231715   7.702   5.897   0.818
43897SOL     OW31716   8.642   7.198   0.031
43897SOL    HW131717   8.648   7.105   0.068
43897SOL    HW231718   8.583   7.198  -0.049
43898SOL     OW31719   8.270   6.588   1.372
43898SOL    HW131720   8.310   6.587   1.280
43898SOL    HW231721   8.280   6.680   1.412
43899SOL     OW31722   8.364   6.496   0.291
43899SOL    HW131723   8.427   6.534   0.223
43899SOL    HW231724   8.404   6.413   0.330
43900SOL     OW31725   8.952   7.193   0.044
43900SOL    HW131726   8.860   7.230   0.051
43900SOL    HW231727   8.990   7.213  -0.046
43901SOL     OW31728   7.820   6.874   1.490
43901SOL    HW131729   7.807   6.967   1.456
43901SOL    HW231730   7.736   6.822   1.477
43902SOL     OW31731   9.062   6.878   1.289
43902SOL    HW131732   9.122   6.881   1.369
43902SOL    HW231733   8.987   6.942   1.302
43903SOL     OW31734   8.487   6.684   0.696
43903SOL    HW131735   8.417   6.637   0.750
43903SOL    HW231736   8.546   6.616   0.653
43904SOL     OW31737   8.462   5.822   0.971
43904SOL    HW131738   8.454   5.786   0.878
43904SOL    HW231739   8.460   5.746   1.036
43905SOL     OW31740   8.038   7.073   0.491
43905SOL    HW131741   8.080   7.015   0.421
43905SOL    HW231742   7.994   7.152   0.447
43906SOL     OW31743   9.157   5.971   1.381
43906SOL    HW131744   9.230   6.040   1.385
43906SOL    HW231745   9.185   5.896   1.322
43907SOL     OW31746   7.703   6.934   0.290
43907SOL    HW131747   7.607   6.935   0.263
43907SOL    HW231748   7.715   6.987   0.374
43908SOL     OW31749   7.553   6.599   1.726
43908SOL    HW131750   7.476   6.566   1.780
43908SOL    HW231751   7.638   6.569   1.768
43909SOL     OW31752   8.120   5.789   1.489
43909SOL    HW131753   8.210   5.773   1.449
43909SOL    HW231754   8.128   5.794   1.588
43910SOL     OW31755   7.523   5.931   0.033
43910SOL    HW131756   7.431   5.903   0.004
43910SOL    HW231757   7.554   6.008  -0.023
43911SOL     OW31758   8.888   6.442   1.398
43911SOL    HW131759   8.831   6.494   1.335
43911SOL    HW231760   8.984   6.454   1.374
43912SOL     OW31761   7.520   5.752   0.318
43912SOL    HW131762   7.503   5.835   0.264
43912SOL    HW231763   7.610   5.715   0.296
43913SOL     OW31764   8.631   6.921   0.119
43913SOL    HW131765   8.532   6.910   0.121
43913SOL    HW231766   8.665   6.936   0.212
43914SOL     OW31767   8.061   6.428   1.431
43914SOL    HW131768   8.117   6.509   1.414
43914SOL    HW231769   8.120   6.348   1.434
43915SOL     OW31770   8.941   7.353   0.959
43915SOL    HW131771   8.974   7.417   0.890
43915SOL    HW231772   9.007   7.347   1.034
43916SOL     OW31773   8.164   6.151   1.708
43916SOL    HW131774   8.183   6.216   1.782
43916SOL    HW231775   8.224   6.071   1.717
43917SOL     OW31776   8.898   6.806   1.633
43917SOL    HW131777   8.889   6.796   1.732
43917SOL    HW231778   8.994   6.799   1.607
43918SOL     OW31779   7.838   7.327   1.560
43918SOL    HW131780   7.747   7.368   1.558
43918SOL    HW231781   7.831   7.233   1.592
43919SOL     OW31782   9.122   6.469   1.254
43919SOL    HW131783   9.095   6.380   1.217
43919SOL    HW231784   9.123   6.537   1.181
43920SOL     OW31785   8.673   5.911   0.449
43920SOL    HW131786   8.738   5.837   0.438
43920SOL    HW231787   8.693   5.961   0.533
43921SOL     OW31788   8.042   6.331   0.652
43921SOL    HW131789   8.092   6.416   0.633
43921SOL    HW231790   7.954   6.333   0.604
43922SOL     OW31791   9.225   5.928   1.642
43922SOL    HW131792   9.208   5.959   1.548
43922SOL    HW231793   9.141   5.891   1.680
43923SOL     OW31794   9.178   6.520   1.517
43923SOL    HW131795   9.216   6.611   1.532
43923SOL    HW231796   9.170   6.503   1.418
43924SOL     OW31797   8.307   6.960   0.016
43924SOL    HW131798   8.261   6.975   0.104
43924SOL    HW231799   8.351   7.045  -0.014
43925SOL     OW31800   8.109   7.376   0.953
43925SOL    HW131801   8.063   7.464   0.940
43925SOL    HW231802   8.208   7.388   0.946
43926SOL     OW31803   8.307   6.542   0.861
43926SOL    HW131804   8.361   6.473   0.909
43926SOL    HW231805   8.275   6.611   0.927
43927SOL     OW31806   8.531   6.570   0.087
43927SOL    HW131807   8.508   6.623   0.005
43927SOL    HW231808   8.612   6.514   0.068
43928SOL     OW31809   9.309   7.155   0.851
43928SOL    HW131810   9.238   7.143   0.781
43928SOL    HW231811   9.310   7.076   0.911
43929SOL     OW31812   7.669   6.900   1.844
43929SOL    HW131813   7.604   6.827   1.823
43929SOL    HW231814   7.673   6.914   1.942
43930SOL     OW31815   7.527   6.826   0.653
43930SOL    HW131816   7.526   6.779   0.741
43930SOL    HW231817   7.609   6.798   0.602
43931SOL     OW31818   8.120   6.977   1.624
43931SOL    HW131819   8.042   6.927   1.662
43931SOL    HW231820   8.117   7.072   1.655
43932SOL     OW31821   9.272   5.778   1.227
43932SOL    HW131822   9.268   5.688   1.271
43932SOL    HW231823   9.275   5.767   1.128
43933SOL     OW31824   7.876   6.010   0.520
43933SOL    HW131825   7.906   5.938   0.458
43933SOL    HW231826   7.837   5.970   0.603
43934SOL     OW31827   9.153   7.073   1.104
43934SOL    HW131828   9.060   7.048   1.077
43934SOL    HW231829   9.179   7.023   1.186
43935SOL     OW31830   7.765   6.133   1.280
43935SOL    HW131831   7.803   6.074   1.352
43935SOL    HW231832   7.805   6.107   1.192
43936SOL     OW31833   8.260   7.172   0.687
43936SOL    HW131834   8.292   7.182   0.593
43936SOL    HW231835   8.181   7.110   0.689
43937SOL     OW31836   8.872   5.800   1.112
43937SOL    HW131837   8.924   5.735   1.167
43937SOL    HW231838   8.823   5.863   1.173
43938SOL     OW31839   8.449   5.620   1.154
43938SOL    HW131840   8.386   5.548   1.123
43938SOL    HW231841   8.542   5.584   1.154
43939SOL     OW31842   8.218   6.916   0.301
43939SOL    HW131843   8.172   6.829   0.318
43939SOL    HW231844   8.309   6.913   0.342
43940SOL     OW31845   8.066   7.153   1.284
43940SOL    HW131846   8.061   7.235   1.341
43940SOL    HW231847   8.155   7.150   1.239
43941SOL     OW31848   8.800   5.638   0.168
43941SOL    HW131849   8.835   5.597   0.084
43941SOL    HW231850   8.710   5.600   0.188
43942SOL     OW31851   8.748   6.039   0.691
43942SOL    HW131852   8.689   6.119   0.695
43942SOL    HW231853   8.763   6.004   0.784
43943SOL     OW31854   9.041   5.807   0.882
43943SOL    HW131855   8.957   5.806   0.936
43943SOL    HW231856   9.043   5.890   0.826
43944SOL     OW31857   7.487   6.663   0.300
43944SOL    HW131858   7.586   6.652   0.291
43944SOL    HW231859   7.447   6.577   0.332
43945SOL     OW31860   8.323   7.232   0.337
43945SOL    HW131861   8.246   7.197   0.283
43945SOL    HW231862   8.291   7.303   0.399
43946SOL     OW31863   7.678   6.214   1.975
43946SOL    HW131864   7.585   6.212   2.012
43946SOL    HW231865   7.679   6.175   1.883
43947SOL     OW31866   7.673   5.861   2.858
43947SOL    HW131867   7.708   5.844   2.950
43947SOL    HW231868   7.585   5.816   2.846
43948SOL     OW31869   7.467   5.954   2.509
43948SOL    HW131870   7.385   5.997   2.548
43948SOL    HW231871   7.439   5.881   2.446
43949SOL     OW31872   8.017   6.861   3.027
43949SOL    HW131873   7.924   6.854   2.990
43949SOL    HW231874   8.028   6.950   3.071
43950SOL     OW31875   9.003   7.097   2.565
43950SOL    HW131876   8.946   7.081   2.646
43950SOL    HW231877   8.944   7.107   2.485
43951SOL     OW31878   8.583   6.289   2.579
43951SOL    HW131879   8.640   6.367   2.554
43951SOL    HW231880   8.523   6.315   2.655
43952SOL     OW31881   9.203   6.193   2.093
43952SOL    HW131882   9.191   6.180   1.994
43952SOL    HW231883   9.173   6.112   2.142
43953SOL     OW31884   8.216   6.730   2.885
43953SOL    HW131885   8.138   6.747   2.945
43953SOL    HW231886   8.250   6.817   2.849
43954SOL     OW31887   8.298   6.384   3.685
43954SOL    HW131888   8.294   6.460   3.750
43954SOL    HW231889   8.320   6.420   3.594
43955SOL     OW31890   8.133   6.598   2.527
43955SOL    HW131891   8.202   6.582   2.597
43955SOL    HW231892   8.060   6.655   2.565
43956SOL     OW31893   8.134   6.747   3.665
43956SOL    HW131894   8.194   6.826   3.679
43956SOL    HW231895   8.048   6.778   3.624
43957SOL     OW31896   7.783   7.021   2.923
43957SOL    HW131897   7.705   6.990   2.870
43957SOL    HW231898   7.841   7.079   2.866
43958SOL     OW31899   8.908   7.091   3.201
43958SOL    HW131900   8.932   7.185   3.227
43958SOL    HW231901   8.892   7.037   3.283
43959SOL     OW31902   7.886   5.978   3.361
43959SOL    HW131903   7.968   5.922   3.370
43959SOL    HW231904   7.805   5.920   3.365
43960SOL     OW31905   9.051   6.033   2.599
43960SOL    HW131906   8.977   6.079   2.549
43960SOL    HW231907   9.102   6.101   2.652
43961SOL     OW31908   7.679   7.299   2.345
43961SOL    HW131909   7.713   7.376   2.399
43961SOL    HW231910   7.723   7.299   2.255
43962SOL     OW31911   8.575   6.927   3.552
43962SOL    HW131912   8.622   6.927   3.640
43962SOL    HW231913   8.527   6.840   3.541
43963SOL     OW31914   7.678   7.020   2.400
43963SOL    HW131915   7.652   7.116   2.400
43963SOL    HW231916   7.607   6.966   2.445
43964SOL     OW31917   7.688   6.677   2.748
43964SOL    HW131918   7.702   6.593   2.800
43964SOL    HW231919   7.633   6.741   2.803
43965SOL     OW31920   8.068   7.372   3.301
43965SOL    HW131921   7.976   7.355   3.336
43965SOL    HW231922   8.096   7.464   3.327
43966SOL     OW31923   8.054   6.550   1.985
43966SOL    HW131924   8.061   6.634   1.931
43966SOL    HW231925   8.100   6.563   2.073
43967SOL     OW31926   9.042   5.700   3.342
43967SOL    HW131927   9.024   5.767   3.270
43967SOL    HW231928   9.039   5.746   3.431
43968SOL     OW31929   7.570   6.229   2.425
43968SOL    HW131930   7.525   6.141   2.442
43968SOL    HW231931   7.569   6.283   2.509
43969SOL     OW31932   9.290   7.353   2.221
43969SOL    HW131933   9.344   7.324   2.301
43969SOL    HW231934   9.320   7.443   2.192
43970SOL     OW31935   7.475   7.182   1.979
43970SOL    HW131936   7.456   7.086   2.000
43970SOL    HW231937   7.442   7.240   2.054
43971SOL     OW31938   9.137   6.508   2.474
43971SOL    HW131939   9.232   6.479   2.482
43971SOL    HW231940   9.129   6.573   2.399
43972SOL     OW31941   9.089   6.694   2.294
43972SOL    HW131942   9.175   6.696   2.242
43972SOL    HW231943   9.103   6.741   2.382
43973SOL     OW31944   7.561   6.323   3.459
43973SOL    HW131945   7.649   6.310   3.504
43973SOL    HW231946   7.548   6.420   3.437
43974SOL     OW31947   8.061   6.951   2.588
43974SOL    HW131948   8.012   6.864   2.597
43974SOL    HW231949   8.038   6.994   2.501
43975SOL     OW31950   8.741   6.814   3.285
43975SOL    HW131951   8.778   6.741   3.227
43975SOL    HW231952   8.793   6.819   3.370
43976SOL     OW31953   8.257   5.590   2.364
43976SOL    HW131954   8.297   5.681   2.355
43976SOL    HW231955   8.157   5.598   2.370
43977SOL     OW31956   7.645   6.562   3.126
43977SOL    HW131957   7.734   6.517   3.112
43977SOL    HW231958   7.572   6.497   3.107
43978SOL     OW31959   8.973   6.585   2.052
43978SOL    HW131960   8.910   6.509   2.065
43978SOL    HW231961   9.021   6.603   2.138
43979SOL     OW31962   8.635   7.378   3.478
43979SOL    HW131963   8.659   7.438   3.402
43979SOL    HW231964   8.642   7.283   3.448
43980SOL     OW31965   7.765   5.837   3.663
43980SOL    HW131966   7.836   5.908   3.669
43980SOL    HW231967   7.677   5.876   3.691
43981SOL     OW31968   8.914   7.003   2.815
43981SOL    HW131969   8.855   7.009   2.895
43981SOL    HW231970   8.899   6.915   2.769
43982SOL     OW31971   9.115   7.300   2.434
43982SOL    HW131972   9.074   7.277   2.346
43982SOL    HW231973   9.097   7.226   2.499
43983SOL     OW31974   8.046   6.315   2.132
43983SOL    HW131975   8.070   6.384   2.064
43983SOL    HW231976   7.968   6.348   2.186
43984SOL     OW31977   8.729   5.931   2.806
43984SOL    HW131978   8.643   5.881   2.793
43984SOL    HW231979   8.791   5.877   2.862
43985SOL     OW31980   9.024   7.248   2.169
43985SOL    HW131981   9.113   7.294   2.172
43985SOL    HW231982   9.003   7.224   2.074
43986SOL     OW31983   8.255   6.191   3.327
43986SOL    HW131984   8.208   6.188   3.416
43986SOL    HW231985   8.204   6.136   3.261
43987SOL     OW31986   8.842   6.055   3.536
43987SOL    HW131987   8.822   6.098   3.624
43987SOL    HW231988   8.920   5.993   3.545
43988SOL     OW31989   8.421   6.476   3.434
43988SOL    HW131990   8.467   6.392   3.405
43988SOL    HW231991   8.365   6.510   3.359
43989SOL     OW31992   8.439   5.996   3.104
43989SOL    HW131993   8.362   6.030   3.158
43989SOL    HW231994   8.405   5.945   3.025
43990SOL     OW31995   8.489   6.287   2.291
43990SOL    HW131996   8.515   6.283   2.387
43990SOL    HW231997   8.404   6.236   2.277
43991SOL     OW31998   7.524   6.397   2.651
43991SOL    HW131999   7.623   6.385   2.660
43991SOL    HW232000   7.500   6.492   2.672
43992SOL     OW32001   7.578   7.407   3.433
43992SOL    HW132002   7.568   7.392   3.532
43992SOL    HW232003   7.492   7.443   3.397
43993SOL     OW32004   8.313   5.934   2.057
43993SOL    HW132005   8.372   5.997   2.008
43993SOL    HW232006   8.332   5.840   2.028
43994SOL     OW32007   9.167   6.171   3.693
43994SOL    HW132008   9.141   6.260   3.657
43994SOL    HW232009   9.165   6.103   3.620
43995SOL     OW32010   8.810   6.730   2.407
43995SOL    HW132011   8.893   6.701   2.359
43995SOL    HW232012   8.761   6.797   2.351
43996SOL     OW32013   7.998   5.782   2.747
43996SOL    HW132014   7.993   5.777   2.847
43996SOL    HW232015   8.000   5.878   2.718
43997SOL     OW32016   8.456   7.042   2.339
43997SOL    HW132017   8.410   7.114   2.287
43997SOL    HW232018   8.452   7.062   2.437
43998SOL     OW32019   7.799   7.387   2.715
43998SOL    HW132020   7.849   7.301   2.721
43998SOL    HW232021   7.864   7.464   2.712
43999SOL     OW32022   9.243   6.652   2.735
43999SOL    HW132023   9.181   6.637   2.659
43999SOL    HW232024   9.191   6.663   2.820
44000SOL     OW32025   8.675   7.136   3.368
44000SOL    HW132026   8.681   7.059   3.432
44000SOL    HW232027   8.623   7.110   3.288
44001SOL     OW32028   7.769   6.529   2.104
44001SOL    HW132029   7.851   6.568   2.062
44001SOL    HW232030   7.742   6.447   2.055
44002SOL     OW32031   8.906   6.321   2.590
44002SOL    HW132032   8.901   6.256   2.665
44002SOL    HW232033   8.986   6.380   2.603
44003SOL     OW32034   7.909   6.852   3.589
44003SOL    HW132035   7.859   6.853   3.503
44003SOL    HW232036   7.846   6.834   3.665
44004SOL     OW32037   8.559   7.362   2.099
44004SOL    HW132038   8.499   7.300   2.149
44004SOL    HW232039   8.590   7.318   2.014
44005SOL     OW32040   7.650   5.871   3.360
44005SOL    HW132041   7.570   5.931   3.347
44005SOL    HW232042   7.640   5.822   3.446
44006SOL     OW32043   9.080   6.963   1.943
44006SOL    HW132044   9.048   7.057   1.933
44006SOL    HW232045   9.004   6.900   1.931
44007SOL     OW32046   7.912   7.329   2.185
44007SOL    HW132047   7.945   7.368   2.271
44007SOL    HW232048   7.988   7.322   2.120
44008SOL     OW32049   8.848   5.693   2.288
44008SOL    HW132050   8.824   5.656   2.198
44008SOL    HW232051   8.947   5.709   2.292
44009SOL     OW32052   7.697   7.371   3.103
44009SOL    HW132053   7.754   7.306   3.153
44009SOL    HW232054   7.681   7.338   3.010
44010SOL     OW32055   8.388   7.284   2.766
44010SOL    HW132056   8.468   7.227   2.787
44010SOL    HW232057   8.339   7.244   2.689
44011SOL     OW32058   7.830   6.286   2.342
44011SOL    HW132059   7.875   6.196   2.339
44011SOL    HW232060   7.736   6.275   2.375
44012SOL     OW32061   8.995   5.808   3.591
44012SOL    HW132062   8.990   5.845   3.683
44012SOL    HW232063   8.923   5.739   3.579
44013SOL     OW32064   8.062   5.708   1.979
44013SOL    HW132065   8.160   5.686   1.986
44013SOL    HW232066   8.031   5.691   1.886
44014SOL     OW32067   8.229   5.850   3.611
44014SOL    HW132068   8.296   5.789   3.654
44014SOL    HW232069   8.156   5.869   3.676
44015SOL     OW32070   8.336   7.100   3.057
44015SOL    HW132071   8.313   7.075   2.963
44015SOL    HW232072   8.397   7.031   3.096
44016SOL     OW32073   8.799   6.176   3.295
44016SOL    HW132074   8.827   6.133   3.380
44016SOL    HW232075   8.824   6.272   3.296
44017SOL     OW32076   8.251   6.988   2.786
44017SOL    HW132077   8.341   7.002   2.744
44017SOL    HW232078   8.180   6.990   2.715
44018SOL     OW32079   8.370   6.089   2.761
44018SOL    HW132080   8.345   6.080   2.665
44018SOL    HW232081   8.418   6.007   2.792
44019SOL     OW32082   7.987   5.650   2.374
44019SOL    HW132083   7.906   5.651   2.432
44019SOL    HW232084   7.990   5.733   2.319
44020SOL     OW32085   8.882   6.774   1.903
44020SOL    HW132086   8.914   6.698   1.960
44020SOL    HW232087   8.790   6.801   1.933
44021SOL     OW32088   7.745   5.621   2.033
44021SOL    HW132089   7.794   5.705   2.012
44021SOL    HW232090   7.807   5.556   2.078
44022SOL     OW32091   8.383   5.822   2.342
44022SOL    HW132092   8.335   5.863   2.264
44022SOL    HW232093   8.482   5.820   2.323
44023SOL     OW32094   8.675   7.156   2.655
44023SOL    HW132095   8.696   7.230   2.590
44023SOL    HW232096   8.743   7.156   2.728
44024SOL     OW32097   7.907   6.738   2.603
44024SOL    HW132098   7.836   6.711   2.668
44024SOL    HW232099   7.881   6.710   2.510
44025SOL     OW32100   8.719   7.383   2.453
44025SOL    HW132101   8.763   7.447   2.389
44025SOL    HW232102   8.669   7.435   2.523
44026SOL     OW32103   8.480   6.135   1.878
44026SOL    HW132104   8.439   6.217   1.839
44026SOL    HW232105   8.544   6.161   1.951
44027SOL     OW32106   7.526   6.142   3.248
44027SOL    HW132107   7.618   6.141   3.207
44027SOL    HW232108   7.520   6.216   3.315
44028SOL     OW32109   8.009   5.808   3.009
44028SOL    HW132110   8.047   5.724   3.046
44028SOL    HW232111   7.921   5.827   3.053
44029SOL     OW32112   8.314   6.040   2.504
44029SOL    HW132113   8.282   6.112   2.442
44029SOL    HW232114   8.338   5.959   2.451
44030SOL     OW32115   8.465   5.625   2.615
44030SOL    HW132116   8.393   5.630   2.546
44030SOL    HW232117   8.441   5.556   2.684
44031SOL     OW32118   8.877   6.759   2.729
44031SOL    HW132119   8.822   6.675   2.722
44031SOL    HW232120   8.903   6.788   2.637
44032SOL     OW32121   8.914   6.176   2.854
44032SOL    HW132122   8.884   6.081   2.861
44032SOL    HW232123   8.987   6.192   2.920
44033SOL     OW32124   9.305   6.419   2.239
44033SOL    HW132125   9.347   6.355   2.303
44033SOL    HW232126   9.267   6.368   2.161
44034SOL     OW32127   7.936   6.971   2.036
44034SOL    HW132128   7.849   6.956   2.083
44034SOL    HW232129   7.919   6.997   1.941
44035SOL     OW32130   9.112   6.866   2.519
44035SOL    HW132131   9.211   6.874   2.533
44035SOL    HW232132   9.067   6.950   2.550
44036SOL     OW32133   8.838   6.161   1.940
44036SOL    HW132134   8.784   6.140   2.021
44036SOL    HW232135   8.929   6.120   1.949
44037SOL     OW32136   7.975   5.842   2.190
44037SOL    HW132137   8.002   5.783   2.115
44037SOL    HW232138   7.975   5.937   2.159
44038SOL     OW32139   9.202   6.809   3.450
44038SOL    HW132140   9.293   6.770   3.437
44038SOL    HW232141   9.210   6.905   3.474
44039SOL     OW32142   8.512   6.933   3.202
44039SOL    HW132143   8.432   6.910   3.257
44039SOL    HW232144   8.595   6.907   3.251
44040SOL     OW32145   9.040   7.215   3.487
44040SOL    HW132146   9.067   7.249   3.397
44040SOL    HW232147   9.119   7.177   3.533
44041SOL     OW32148   8.559   6.781   2.962
44041SOL    HW132149   8.519   6.825   3.043
44041SOL    HW232150   8.518   6.818   2.879
44042SOL     OW32151   9.086   6.685   2.941
44042SOL    HW132152   9.091   6.766   3.000
44042SOL    HW232153   9.000   6.687   2.890
44043SOL     OW32154   8.363   5.675   3.264
44043SOL    HW132155   8.388   5.655   3.169
44043SOL    HW232156   8.435   5.731   3.306
44044SOL     OW32157   8.428   6.702   3.581
44044SOL    HW132158   8.329   6.708   3.591
44044SOL    HW232159   8.451   6.622   3.525
44045SOL     OW32160   8.153   6.636   2.230
44045SOL    HW132161   8.139   6.643   2.329
44045SOL    HW232162   8.237   6.585   2.212
44046SOL     OW32163   7.858   6.399   3.113
44046SOL    HW132164   7.944   6.411   3.163
44046SOL    HW232165   7.816   6.312   3.140
44047SOL     OW32166   8.722   5.972   3.124
44047SOL    HW132167   8.743   6.046   3.188
44047SOL    HW232168   8.633   5.989   3.081
44048SOL     OW32169   7.512   7.150   3.193
44048SOL    HW132170   7.466   7.232   3.159
44048SOL    HW232171   7.610   7.169   3.202
44049SOL     OW32172   7.815   6.686   2.363
44049SOL    HW132173   7.808   6.769   2.307
44049SOL    HW232174   7.819   6.606   2.303
44050SOL     OW32175   8.014   6.123   2.727
44050SOL    HW132176   8.026   6.189   2.653
44050SOL    HW232177   8.060   6.157   2.810
44051SOL     OW32178   8.700   6.934   2.250
44051SOL    HW132179   8.750   7.011   2.290
44051SOL    HW232180   8.605   6.936   2.282
44052SOL     OW32181   8.720   7.031   3.004
44052SOL    HW132182   8.767   7.044   3.091
44052SOL    HW232183   8.654   6.957   3.013
44053SOL     OW32184   9.030   6.225   2.334
44053SOL    HW132185   8.999   6.286   2.407
44053SOL    HW232186   9.080   6.277   2.265
44054SOL     OW32187   7.802   7.096   3.191
44054SOL    HW132188   7.781   7.052   3.104
44054SOL    HW232189   7.899   7.122   3.194
44055SOL     OW32190   7.850   6.337   3.460
44055SOL    HW132191   7.918   6.392   3.413
44055SOL    HW232192   7.890   6.249   3.487
44056SOL     OW32193   9.035   6.365   3.532
44056SOL    HW132194   8.943   6.403   3.527
44056SOL    HW232195   9.095   6.412   3.467
44057SOL     OW32196   8.461   5.691   3.632
44057SOL    HW132197   8.467   5.776   3.580
44057SOL    HW232198   8.493   5.615   3.575
44058SOL     OW32199   7.952   5.636   3.602
44058SOL    HW132200   7.910   5.579   3.532
44058SOL    HW232201   7.886   5.705   3.634
44059SOL     OW32202   8.021   6.456   2.891
44059SOL    HW132203   8.065   6.545   2.882
44059SOL    HW232204   7.958   6.456   2.968
44060SOL     OW32205   8.808   6.448   2.907
44060SOL    HW132206   8.733   6.448   2.841
44060SOL    HW232207   8.845   6.356   2.916
44061SOL     OW32208   8.657   6.111   2.137
44061SOL    HW132209   8.670   6.027   2.191
44061SOL    HW232210   8.628   6.185   2.197
44062SOL     OW32211   7.755   5.799   3.093
44062SOL    HW132212   7.732   5.836   3.183
44062SOL    HW232213   7.725   5.704   3.087
44063SOL     OW32214   7.485   6.896   3.144
44063SOL    HW132215   7.538   6.847   3.212
44063SOL    HW232216   7.507   6.994   3.149
44064SOL     OW32217   8.180   6.220   2.926
44064SOL    HW132218   8.239   6.194   2.850
44064SOL    HW232219   8.152   6.316   2.915
44065SOL     OW32220   9.176   6.521   3.716
44065SOL    HW132221   9.130   6.514   3.627
44065SOL    HW232222   9.114   6.565   3.782
44066SOL     OW32223   7.755   5.649   2.480
44066SOL    HW132224   7.744   5.743   2.513
44066SOL    HW232225   7.750   5.586   2.557
44067SOL     OW32226   9.070   5.953   2.236
44067SOL    HW132227   9.072   5.877   2.300
44067SOL    HW232228   9.022   6.030   2.276
44068SOL     OW32229   8.471   6.352   2.828
44068SOL    HW132230   8.486   6.373   2.924
44068SOL    HW232231   8.441   6.257   2.819
44069SOL     OW32232   8.428   7.159   3.562
44069SOL    HW132233   8.408   7.203   3.474
44069SOL    HW232234   8.467   7.068   3.546
44070SOL     OW32235   9.307   7.104   3.467
44070SOL    HW132236   9.321   7.131   3.372
44070SOL    HW232237   9.390   7.126   3.520
44071SOL     OW32238   7.798   6.484   3.666
44071SOL    HW132239   7.874   6.528   3.714
44071SOL    HW232240   7.833   6.437   3.584
44072SOL     OW32241   8.988   5.860   1.987
44072SOL    HW132242   8.927   5.785   2.010
44072SOL    HW232243   9.010   5.912   2.070
44073SOL     OW32244   8.751   6.424   1.904
44073SOL    HW132245   8.785   6.331   1.919
44073SOL    HW232246   8.769   6.451   1.809
44074SOL     OW32247   8.516   6.919   2.711
44074SOL    HW132248   8.523   6.835   2.656
44074SOL    HW232249   8.578   6.988   2.675
44075SOL     OW32250   7.767   6.396   2.811
44075SOL    HW132251   7.860   6.432   2.816
44075SOL    HW232252   7.761   6.311   2.863
44076SOL     OW32253   7.787   6.095   2.868
44076SOL    HW132254   7.735   6.012   2.851
44076SOL    HW232255   7.864   6.100   2.804
44077SOL     OW32256   8.586   5.966   3.540
44077SOL    HW132257   8.541   6.029   3.604
44077SOL    HW232258   8.679   5.997   3.523
44078SOL     OW32259   8.608   5.793   3.339
44078SOL    HW132260   8.608   5.857   3.416
44078SOL    HW232261   8.636   5.841   3.256
44079SOL     OW32262   7.456   6.912   2.062
44079SOL    HW132263   7.363   6.933   2.031
44079SOL    HW232264   7.466   6.813   2.075
44080SOL     OW32265   7.536   7.387   2.789
44080SOL    HW132266   7.494   7.301   2.762
44080SOL    HW232267   7.630   7.390   2.755
44081SOL     OW32268   7.952   7.154   2.772
44081SOL    HW132269   8.018   7.228   2.781
44081SOL    HW232270   7.996   7.075   2.730
44082SOL     OW32271   8.450   6.382   3.100
44082SOL    HW132272   8.491   6.350   3.186
44082SOL    HW232273   8.354   6.355   3.097
44083SOL     OW32274   7.488   6.130   2.976
44083SOL    HW132275   7.573   6.097   2.935
44083SOL    HW232276   7.501   6.145   3.074
44084SOL     OW32277   7.637   6.106   3.584
44084SOL    HW132278   7.696   6.066   3.514
44084SOL    HW232279   7.579   6.177   3.543
44085SOL     OW32280   8.817   6.536   3.522
44085SOL    HW132281   8.856   6.625   3.542
44085SOL    HW232282   8.827   6.516   3.425
44086SOL     OW32283   8.263   6.158   2.187
44086SOL    HW132284   8.270   6.069   2.141
44086SOL    HW232285   8.169   6.192   2.179
44087SOL     OW32286   9.105   6.190   3.068
44087SOL    HW132287   9.067   6.121   3.130
44087SOL    HW232288   9.187   6.154   3.024
44088SOL     OW32289   7.700   7.150   3.606
44088SOL    HW132290   7.670   7.207   3.682
44088SOL    HW232291   7.693   7.053   3.632
44089SOL     OW32292   8.119   6.050   3.131
44089SOL    HW132293   8.085   5.961   3.101
44089SOL    HW232294   8.145   6.104   3.051
44090SOL     OW32295   8.378   7.264   3.327
44090SOL    HW132296   8.354   7.246   3.232
44090SOL    HW232297   8.408   7.358   3.337
44091SOL     OW32298   7.921   6.086   2.053
44091SOL    HW132299   7.982   6.166   2.057
44091SOL    HW232300   7.826   6.117   2.060
44092SOL     OW32301   7.607   6.723   3.328
44092SOL    HW132302   7.629   6.662   3.404
44092SOL    HW232303   7.617   6.674   3.242
44093SOL     OW32304   8.795   6.645   3.096
44093SOL    HW132305   8.819   6.582   3.022
44093SOL    HW232306   8.705   6.685   3.078
44094SOL     OW32307   8.750   6.441   2.171
44094SOL    HW132308   8.664   6.410   2.213
44094SOL    HW232309   8.746   6.427   2.072
44095SOL     OW32310   9.207   7.333   3.016
44095SOL    HW132311   9.268   7.363   2.943
44095SOL    HW232312   9.169   7.244   2.994
44096SOL     OW32313   8.700   7.317   2.990
44096SOL    HW132314   8.784   7.322   2.936
44096SOL    HW232315   8.677   7.221   3.008
44097SOL     OW32316   7.531   6.844   2.884
44097SOL    HW132317   7.526   6.843   2.984
44097SOL    HW232318   7.448   6.803   2.846
44098SOL     OW32319   8.136   7.248   3.578
44098SOL    HW132320   8.080   7.329   3.587
44098SOL    HW232321   8.188   7.252   3.492
44099SOL     OW32322   9.174   5.721   2.385
44099SOL    HW132323   9.247   5.704   2.318
44099SOL    HW232324   9.143   5.634   2.423
44100SOL     OW32325   8.836   7.159   2.339
44100SOL    HW132326   8.903   7.171   2.265
44100SOL    HW232327   8.796   7.248   2.362
44101SOL     OW32328   7.578   7.380   3.713
44101SOL    HW132329   7.537   7.306   3.766
44101SOL    HW232330   7.642   7.431   3.771
44102SOL     OW32331   8.728   6.513   2.534
44102SOL    HW132332   8.788   6.432   2.536
44102SOL    HW232333   8.768   6.582   2.474
44103SOL     OW32334   8.278   6.859   3.284
44103SOL    HW132335   8.273   6.892   3.379
44103SOL    HW232336   8.192   6.878   3.238
44104SOL     OW32337   8.120   7.202   2.016
44104SOL    HW132338   8.129   7.212   1.917
44104SOL    HW232339   8.080   7.113   2.037
44105SOL     OW32340   9.098   7.306   3.256
44105SOL    HW132341   9.151   7.316   3.172
44105SOL    HW232342   9.071   7.396   3.290
44106SOL     OW32343   9.289   5.761   2.825
44106SOL    HW132344   9.328   5.676   2.789
44106SOL    HW232345   9.191   5.763   2.806
44107SOL     OW32346   7.711   5.912   2.582
44107SOL    HW132347   7.632   5.963   2.548
44107SOL    HW232348   7.702   5.897   2.680
44108SOL     OW32349   8.642   7.198   1.893
44108SOL    HW132350   8.648   7.105   1.930
44108SOL    HW232351   8.583   7.198   1.813
44109SOL     OW32352   8.270   6.588   3.234
44109SOL    HW132353   8.310   6.587   3.142
44109SOL    HW232354   8.280   6.680   3.274
44110SOL     OW32355   8.364   6.496   2.153
44110SOL    HW132356   8.427   6.534   2.085
44110SOL    HW232357   8.404   6.413   2.192
44111SOL     OW32358   8.952   7.193   1.906
44111SOL    HW132359   8.860   7.230   1.913
44111SOL    HW232360   8.990   7.213   1.816
44112SOL     OW32361   7.820   6.874   3.352
44112SOL    HW132362   7.807   6.967   3.318
44112SOL    HW232363   7.736   6.822   3.339
44113SOL     OW32364   9.062   6.878   3.151
44113SOL    HW132365   9.122   6.881   3.231
44113SOL    HW232366   8.987   6.942   3.164
44114SOL     OW32367   8.487   6.684   2.558
44114SOL    HW132368   8.417   6.637   2.612
44114SOL    HW232369   8.546   6.616   2.515
44115SOL     OW32370   8.462   5.822   2.833
44115SOL    HW132371   8.454   5.786   2.740
44115SOL    HW232372   8.460   5.746   2.898
44116SOL     OW32373   8.038   7.073   2.353
44116SOL    HW132374   8.080   7.015   2.283
44116SOL    HW232375   7.994   7.152   2.309
44117SOL     OW32376   9.157   5.971   3.243
44117SOL    HW132377   9.230   6.040   3.247
44117SOL    HW232378   9.185   5.896   3.184
44118SOL     OW32379   7.703   6.934   2.152
44118SOL    HW132380   7.607   6.935   2.125
44118SOL    HW232381   7.715   6.987   2.236
44119SOL     OW32382   7.553   6.599   3.588
44119SOL    HW132383   7.476   6.566   3.642
44119SOL    HW232384   7.638   6.569   3.630
44120SOL     OW32385   8.120   5.789   3.351
44120SOL    HW132386   8.210   5.773   3.311
44120SOL    HW232387   8.128   5.794   3.450
44121SOL     OW32388   7.523   5.931   1.895
44121SOL    HW132389   7.431   5.903   1.866
44121SOL    HW232390   7.554   6.008   1.839
44122SOL     OW32391   8.888   6.442   3.260
44122SOL    HW132392   8.831   6.494   3.197
44122SOL    HW232393   8.984   6.454   3.236
44123SOL     OW32394   7.520   5.752   2.180
44123SOL    HW132395   7.503   5.835   2.126
44123SOL    HW232396   7.610   5.715   2.158
44124SOL     OW32397   8.631   6.921   1.981
44124SOL    HW132398   8.532   6.910   1.983
44124SOL    HW232399   8.665   6.936   2.074
44125SOL     OW32400   8.061   6.428   3.293
44125SOL    HW132401   8.117   6.509   3.276
44125SOL    HW232402   8.120   6.348   3.296
44126SOL     OW32403   8.941   7.353   2.821
44126SOL    HW132404   8.974   7.417   2.752
44126SOL    HW232405   9.007   7.347   2.896
44127SOL     OW32406   8.164   6.151   3.570
44127SOL    HW132407   8.183   6.216   3.644
44127SOL    HW232408   8.224   6.071   3.579
44128SOL     OW32409   8.898   6.806   3.495
44128SOL    HW132410   8.889   6.796   3.594
44128SOL    HW232411   8.994   6.799   3.469
44129SOL     OW32412   7.838   7.327   3.422
44129SOL    HW132413   7.747   7.368   3.420
44129SOL    HW232414   7.831   7.233   3.454
44130SOL     OW32415   9.122   6.469   3.116
44130SOL    HW132416   9.095   6.380   3.079
44130SOL    HW232417   9.123   6.537   3.043
44131SOL     OW32418   8.673   5.911   2.311
44131SOL    HW132419   8.738   5.837   2.300
44131SOL    HW232420   8.693   5.961   2.395
44132SOL     OW32421   8.042   6.331   2.514
44132SOL    HW132422   8.092   6.416   2.495
44132SOL    HW232423   7.954   6.333   2.466
44133SOL     OW32424   9.225   5.928   3.504
44133SOL    HW132425   9.208   5.959   3.410
44133SOL    HW232426   9.141   5.891   3.542
44134SOL     OW32427   9.178   6.520   3.379
44134SOL    HW132428   9.216   6.611   3.394
44134SOL    HW232429   9.170   6.503   3.280
44135SOL     OW32430   8.307   6.960   1.878
44135SOL    HW132431   8.261   6.975   1.966
44135SOL    HW232432   8.351   7.045   1.848
44136SOL     OW32433   8.109   7.376   2.815
44136SOL    HW132434   8.063   7.464   2.802
44136SOL    HW232435   8.208   7.388   2.808
44137SOL     OW32436   8.307   6.542   2.723
44137SOL    HW132437   8.361   6.473   2.771
44137SOL    HW232438   8.275   6.611   2.789
44138SOL     OW32439   8.531   6.570   1.949
44138SOL    HW132440   8.508   6.623   1.867
44138SOL    HW232441   8.612   6.514   1.930
44139SOL     OW32442   9.309   7.155   2.713
44139SOL    HW132443   9.238   7.143   2.643
44139SOL    HW232444   9.310   7.076   2.773
44140SOL     OW32445   7.669   6.900   3.706
44140SOL    HW132446   7.604   6.827   3.685
44140SOL    HW232447   7.673   6.914   3.804
44141SOL     OW32448   7.527   6.826   2.515
44141SOL    HW132449   7.526   6.779   2.603
44141SOL    HW232450   7.609   6.798   2.464
44142SOL     OW32451   8.120   6.977   3.486
44142SOL    HW132452   8.042   6.927   3.524
44142SOL    HW232453   8.117   7.072   3.517
44143SOL     OW32454   9.272   5.778   3.089
44143SOL    HW132455   9.268   5.688   3.133
44143SOL    HW232456   9.275   5.767   2.990
44144SOL     OW32457   7.876   6.010   2.382
44144SOL    HW132458   7.906   5.938   2.320
44144SOL    HW232459   7.837   5.970   2.465
44145SOL     OW32460   9.153   7.073   2.966
44145SOL    HW132461   9.060   7.048   2.939
44145SOL    HW232462   9.179   7.023   3.048
44146SOL     OW32463   7.765   6.133   3.142
44146SOL    HW132464   7.803   6.074   3.214
44146SOL    HW232465   7.805   6.107   3.054
44147SOL     OW32466   8.260   7.172   2.549
44147SOL    HW132467   8.292   7.182   2.455
44147SOL    HW232468   8.181   7.110   2.551
44148SOL     OW32469   8.872   5.800   2.974
44148SOL    HW132470   8.924   5.735   3.029
44148SOL    HW232471   8.823   5.863   3.035
44149SOL     OW32472   8.449   5.620   3.016
44149SOL    HW132473   8.386   5.548   2.985
44149SOL    HW232474   8.542   5.584   3.016
44150SOL     OW32475   8.218   6.916   2.163
44150SOL    HW132476   8.172   6.829   2.180
44150SOL    HW232477   8.309   6.913   2.204
44151SOL     OW32478   8.066   7.153   3.146
44151SOL    HW132479   8.061   7.235   3.203
44151SOL    HW232480   8.155   7.150   3.101
44152SOL     OW32481   8.800   5.638   2.030
44152SOL    HW132482   8.835   5.597   1.946
44152SOL    HW232483   8.710   5.600   2.050
44153SOL     OW32484   8.748   6.039   2.553
44153SOL    HW132485   8.689   6.119   2.557
44153SOL    HW232486   8.763   6.004   2.646
44154SOL     OW32487   9.041   5.807   2.744
44154SOL    HW132488   8.957   5.806   2.798
44154SOL    HW232489   9.043   5.890   2.688
44155SOL     OW32490   7.487   6.663   2.162
44155SOL    HW132491   7.586   6.652   2.153
44155SOL    HW232492   7.447   6.577   2.194
44156SOL     OW32493   8.323   7.232   2.199
44156SOL    HW132494   8.246   7.197   2.145
44156SOL    HW232495   8.291   7.303   2.261
44157SOL     OW32496   7.678   6.214   3.837
44157SOL    HW132497   7.585   6.212   3.874
44157SOL    HW232498   7.679   6.175   3.745
44158SOL     OW32499   7.673   5.861   4.720
44158SOL    HW132500   7.708   5.844   4.812
44158SOL    HW232501   7.585   5.816   4.708
44159SOL     OW32502   7.467   5.954   4.371
44159SOL    HW132503   7.385   5.997   4.410
44159SOL    HW232504   7.439   5.881   4.308
44160SOL     OW32505   8.017   6.861   4.889
44160SOL    HW132506   7.924   6.854   4.852
44160SOL    HW232507   8.028   6.950   4.933
44161SOL     OW32508   9.003   7.097   4.427
44161SOL    HW132509   8.946   7.081   4.508
44161SOL    HW232510   8.944   7.107   4.347
44162SOL     OW32511   8.583   6.289   4.441
44162SOL    HW132512   8.640   6.367   4.416
44162SOL    HW232513   8.523   6.315   4.517
44163SOL     OW32514   9.203   6.193   3.955
44163SOL    HW132515   9.191   6.180   3.856
44163SOL    HW232516   9.173   6.112   4.004
44164SOL     OW32517   8.216   6.730   4.747
44164SOL    HW132518   8.138   6.747   4.807
44164SOL    HW232519   8.250   6.817   4.711
44165SOL     OW32520   8.298   6.384   5.547
44165SOL    HW132521   8.294   6.460   5.612
44165SOL    HW232522   8.320   6.420   5.456
44166SOL     OW32523   8.133   6.598   4.389
44166SOL    HW132524   8.202   6.582   4.459
44166SOL    HW232525   8.060   6.655   4.427
44167SOL     OW32526   8.134   6.747   5.527
44167SOL    HW132527   8.194   6.826   5.541
44167SOL    HW232528   8.048   6.778   5.486
44168SOL     OW32529   7.783   7.021   4.785
44168SOL    HW132530   7.705   6.990   4.732
44168SOL    HW232531   7.841   7.079   4.728
44169SOL     OW32532   8.908   7.091   5.063
44169SOL    HW132533   8.932   7.185   5.089
44169SOL    HW232534   8.892   7.037   5.145
44170SOL     OW32535   7.886   5.978   5.223
44170SOL    HW132536   7.968   5.922   5.232
44170SOL    HW232537   7.805   5.920   5.227
44171SOL     OW32538   9.051   6.033   4.461
44171SOL    HW132539   8.977   6.079   4.411
44171SOL    HW232540   9.102   6.101   4.514
44172SOL     OW32541   7.679   7.299   4.207
44172SOL    HW132542   7.713   7.376   4.261
44172SOL    HW232543   7.723   7.299   4.117
44173SOL     OW32544   8.575   6.927   5.414
44173SOL    HW132545   8.622   6.927   5.502
44173SOL    HW232546   8.527   6.840   5.403
44174SOL     OW32547   7.678   7.020   4.262
44174SOL    HW132548   7.652   7.116   4.262
44174SOL    HW232549   7.607   6.966   4.307
44175SOL     OW32550   7.688   6.677   4.610
44175SOL    HW132551   7.702   6.593   4.662
44175SOL    HW232552   7.633   6.741   4.665
44176SOL     OW32553   8.068   7.372   5.163
44176SOL    HW132554   7.976   7.355   5.198
44176SOL    HW232555   8.096   7.464   5.189
44177SOL     OW32556   8.054   6.550   3.847
44177SOL    HW132557   8.061   6.634   3.793
44177SOL    HW232558   8.100   6.563   3.935
44178SOL     OW32559   9.042   5.700   5.204
44178SOL    HW132560   9.024   5.767   5.132
44178SOL    HW232561   9.039   5.746   5.293
44179SOL     OW32562   7.570   6.229   4.287
44179SOL    HW132563   7.525   6.141   4.304
44179SOL    HW232564   7.569   6.283   4.371
44180SOL     OW32565   9.290   7.353   4.083
44180SOL    HW132566   9.344   7.324   4.163
44180SOL    HW232567   9.320   7.443   4.054
44181SOL     OW32568   7.475   7.182   3.841
44181SOL    HW132569   7.456   7.086   3.862
44181SOL    HW232570   7.442   7.240   3.916
44182SOL     OW32571   9.137   6.508   4.336
44182SOL    HW132572   9.232   6.479   4.344
44182SOL    HW232573   9.129   6.573   4.261
44183SOL     OW32574   9.089   6.694   4.156
44183SOL    HW132575   9.175   6.696   4.104
44183SOL    HW232576   9.103   6.741   4.244
44184SOL     OW32577   7.561   6.323   5.321
44184SOL    HW132578   7.649   6.310   5.366
44184SOL    HW232579   7.548   6.420   5.299
44185SOL     OW32580   8.061   6.951   4.450
44185SOL    HW132581   8.012   6.864   4.459
44185SOL    HW232582   8.038   6.994   4.363
44186SOL     OW32583   8.741   6.814   5.147
44186SOL    HW132584   8.778   6.741   5.089
44186SOL    HW232585   8.793   6.819   5.232
44187SOL     OW32586   8.257   5.590   4.226
44187SOL    HW132587   8.297   5.681   4.217
44187SOL    HW232588   8.157   5.598   4.232
44188SOL     OW32589   7.645   6.562   4.988
44188SOL    HW132590   7.734   6.517   4.974
44188SOL    HW232591   7.572   6.497   4.969
44189SOL     OW32592   8.973   6.585   3.914
44189SOL    HW132593   8.910   6.509   3.927
44189SOL    HW232594   9.021   6.603   4.000
44190SOL     OW32595   8.635   7.378   5.340
44190SOL    HW132596   8.659   7.438   5.264
44190SOL    HW232597   8.642   7.283   5.310
44191SOL     OW32598   7.765   5.837   5.525
44191SOL    HW132599   7.836   5.908   5.531
44191SOL    HW232600   7.677   5.876   5.553
44192SOL     OW32601   8.914   7.003   4.677
44192SOL    HW132602   8.855   7.009   4.757
44192SOL    HW232603   8.899   6.915   4.631
44193SOL     OW32604   9.115   7.300   4.296
44193SOL    HW132605   9.074   7.277   4.208
44193SOL    HW232606   9.097   7.226   4.361
44194SOL     OW32607   8.046   6.315   3.994
44194SOL    HW132608   8.070   6.384   3.926
44194SOL    HW232609   7.968   6.348   4.048
44195SOL     OW32610   8.729   5.931   4.668
44195SOL    HW132611   8.643   5.881   4.655
44195SOL    HW232612   8.791   5.877   4.724
44196SOL     OW32613   9.024   7.248   4.031
44196SOL    HW132614   9.113   7.294   4.034
44196SOL    HW232615   9.003   7.224   3.936
44197SOL     OW32616   8.255   6.191   5.189
44197SOL    HW132617   8.208   6.188   5.278
44197SOL    HW232618   8.204   6.136   5.123
44198SOL     OW32619   8.842   6.055   5.398
44198SOL    HW132620   8.822   6.098   5.486
44198SOL    HW232621   8.920   5.993   5.407
44199SOL     OW32622   8.421   6.476   5.296
44199SOL    HW132623   8.467   6.392   5.267
44199SOL    HW232624   8.365   6.510   5.221
44200SOL     OW32625   8.439   5.996   4.966
44200SOL    HW132626   8.362   6.030   5.020
44200SOL    HW232627   8.405   5.945   4.887
44201SOL     OW32628   8.489   6.287   4.153
44201SOL    HW132629   8.515   6.283   4.249
44201SOL    HW232630   8.404   6.236   4.139
44202SOL     OW32631   7.524   6.397   4.513
44202SOL    HW132632   7.623   6.385   4.522
44202SOL    HW232633   7.500   6.492   4.534
44203SOL     OW32634   7.578   7.407   5.295
44203SOL    HW132635   7.568   7.392   5.394
44203SOL    HW232636   7.492   7.443   5.259
44204SOL     OW32637   8.313   5.934   3.919
44204SOL    HW132638   8.372   5.997   3.870
44204SOL    HW232639   8.332   5.840   3.890
44205SOL     OW32640   9.167   6.171   5.555
44205SOL    HW132641   9.141   6.260   5.519
44205SOL    HW232642   9.165   6.103   5.482
44206SOL     OW32643   8.810   6.730   4.269
44206SOL    HW132644   8.893   6.701   4.221
44206SOL    HW232645   8.761   6.797   4.213
44207SOL     OW32646   7.998   5.782   4.609
44207SOL    HW132647   7.993   5.777   4.709
44207SOL    HW232648   8.000   5.878   4.580
44208SOL     OW32649   8.456   7.042   4.201
44208SOL    HW132650   8.410   7.114   4.149
44208SOL    HW232651   8.452   7.062   4.299
44209SOL     OW32652   7.799   7.387   4.577
44209SOL    HW132653   7.849   7.301   4.583
44209SOL    HW232654   7.864   7.464   4.574
44210SOL     OW32655   9.243   6.652   4.597
44210SOL    HW132656   9.181   6.637   4.521
44210SOL    HW232657   9.191   6.663   4.682
44211SOL     OW32658   8.675   7.136   5.230
44211SOL    HW132659   8.681   7.059   5.294
44211SOL    HW232660   8.623   7.110   5.150
44212SOL     OW32661   7.769   6.529   3.966
44212SOL    HW132662   7.851   6.568   3.924
44212SOL    HW232663   7.742   6.447   3.917
44213SOL     OW32664   8.906   6.321   4.452
44213SOL    HW132665   8.901   6.256   4.527
44213SOL    HW232666   8.986   6.380   4.465
44214SOL     OW32667   7.909   6.852   5.451
44214SOL    HW132668   7.859   6.853   5.365
44214SOL    HW232669   7.846   6.834   5.527
44215SOL     OW32670   8.559   7.362   3.961
44215SOL    HW132671   8.499   7.300   4.011
44215SOL    HW232672   8.590   7.318   3.876
44216SOL     OW32673   7.650   5.871   5.222
44216SOL    HW132674   7.570   5.931   5.209
44216SOL    HW232675   7.640   5.822   5.308
44217SOL     OW32676   9.080   6.963   3.805
44217SOL    HW132677   9.048   7.057   3.795
44217SOL    HW232678   9.004   6.900   3.793
44218SOL     OW32679   7.912   7.329   4.047
44218SOL    HW132680   7.945   7.368   4.133
44218SOL    HW232681   7.988   7.322   3.982
44219SOL     OW32682   8.848   5.693   4.150
44219SOL    HW132683   8.824   5.656   4.060
44219SOL    HW232684   8.947   5.709   4.154
44220SOL     OW32685   7.697   7.371   4.965
44220SOL    HW132686   7.754   7.306   5.015
44220SOL    HW232687   7.681   7.338   4.872
44221SOL     OW32688   8.388   7.284   4.628
44221SOL    HW132689   8.468   7.227   4.649
44221SOL    HW232690   8.339   7.244   4.551
44222SOL     OW32691   7.830   6.286   4.204
44222SOL    HW132692   7.875   6.196   4.201
44222SOL    HW232693   7.736   6.275   4.237
44223SOL     OW32694   8.995   5.808   5.453
44223SOL    HW132695   8.990   5.845   5.545
44223SOL    HW232696   8.923   5.739   5.441
44224SOL     OW32697   8.062   5.708   3.841
44224SOL    HW132698   8.160   5.686   3.848
44224SOL    HW232699   8.031   5.691   3.748
44225SOL     OW32700   8.229   5.850   5.473
44225SOL    HW132701   8.296   5.789   5.516
44225SOL    HW232702   8.156   5.869   5.538
44226SOL     OW32703   8.336   7.100   4.919
44226SOL    HW132704   8.313   7.075   4.825
44226SOL    HW232705   8.397   7.031   4.958
44227SOL     OW32706   8.799   6.176   5.157
44227SOL    HW132707   8.827   6.133   5.242
44227SOL    HW232708   8.824   6.272   5.158
44228SOL     OW32709   8.251   6.988   4.648
44228SOL    HW132710   8.341   7.002   4.606
44228SOL    HW232711   8.180   6.990   4.577
44229SOL     OW32712   8.370   6.089   4.623
44229SOL    HW132713   8.345   6.080   4.527
44229SOL    HW232714   8.418   6.007   4.654
44230SOL     OW32715   7.987   5.650   4.236
44230SOL    HW132716   7.906   5.651   4.294
44230SOL    HW232717   7.990   5.733   4.181
44231SOL     OW32718   8.882   6.774   3.765
44231SOL    HW132719   8.914   6.698   3.822
44231SOL    HW232720   8.790   6.801   3.795
44232SOL     OW32721   7.745   5.621   3.895
44232SOL    HW132722   7.794   5.705   3.874
44232SOL    HW232723   7.807   5.556   3.940
44233SOL     OW32724   8.383   5.822   4.204
44233SOL    HW132725   8.335   5.863   4.126
44233SOL    HW232726   8.482   5.820   4.185
44234SOL     OW32727   8.524   6.269   5.188
44234SOL    HW132728   8.444   6.208   5.191
44234SOL    HW232729   8.605   6.216   5.164
44235SOL     OW32730   8.675   7.156   4.517
44235SOL    HW132731   8.696   7.230   4.452
44235SOL    HW232732   8.743   7.156   4.590
44236SOL     OW32733   7.907   6.738   4.465
44236SOL    HW132734   7.836   6.711   4.530
44236SOL    HW232735   7.881   6.710   4.372
44237SOL     OW32736   8.719   7.383   4.315
44237SOL    HW132737   8.763   7.447   4.251
44237SOL    HW232738   8.669   7.435   4.385
44238SOL     OW32739   8.480   6.135   3.740
44238SOL    HW132740   8.439   6.217   3.701
44238SOL    HW232741   8.544   6.161   3.813
44239SOL     OW32742   7.526   6.142   5.110
44239SOL    HW132743   7.618   6.141   5.069
44239SOL    HW232744   7.520   6.216   5.177
44240SOL     OW32745   8.009   5.808   4.871
44240SOL    HW132746   8.047   5.724   4.908
44240SOL    HW232747   7.921   5.827   4.915
44241SOL     OW32748   8.314   6.040   4.366
44241SOL    HW132749   8.282   6.112   4.304
44241SOL    HW232750   8.338   5.959   4.313
44242SOL     OW32751   8.465   5.625   4.477
44242SOL    HW132752   8.393   5.630   4.408
44242SOL    HW232753   8.441   5.556   4.546
44243SOL     OW32754   8.877   6.759   4.591
44243SOL    HW132755   8.822   6.675   4.584
44243SOL    HW232756   8.903   6.788   4.499
44244SOL     OW32757   8.914   6.176   4.716
44244SOL    HW132758   8.884   6.081   4.723
44244SOL    HW232759   8.987   6.192   4.782
44245SOL     OW32760   9.305   6.419   4.101
44245SOL    HW132761   9.347   6.355   4.165
44245SOL    HW232762   9.267   6.368   4.023
44246SOL     OW32763   7.936   6.971   3.898
44246SOL    HW132764   7.849   6.956   3.945
44246SOL    HW232765   7.919   6.997   3.803
44247SOL     OW32766   9.112   6.866   4.381
44247SOL    HW132767   9.211   6.874   4.395
44247SOL    HW232768   9.067   6.950   4.412
44248SOL     OW32769   8.838   6.161   3.802
44248SOL    HW132770   8.784   6.140   3.883
44248SOL    HW232771   8.929   6.120   3.811
44249SOL     OW32772   7.975   5.842   4.052
44249SOL    HW132773   8.002   5.783   3.977
44249SOL    HW232774   7.975   5.937   4.021
44250SOL     OW32775   9.202   6.809   5.312
44250SOL    HW132776   9.293   6.770   5.299
44250SOL    HW232777   9.210   6.905   5.336
44251SOL     OW32778   8.512   6.933   5.064
44251SOL    HW132779   8.432   6.910   5.119
44251SOL    HW232780   8.595   6.907   5.113
44252SOL     OW32781   9.040   7.215   5.349
44252SOL    HW132782   9.067   7.249   5.259
44252SOL    HW232783   9.119   7.177   5.395
44253SOL     OW32784   8.559   6.781   4.824
44253SOL    HW132785   8.519   6.825   4.905
44253SOL    HW232786   8.518   6.818   4.741
44254SOL     OW32787   9.086   6.685   4.803
44254SOL    HW132788   9.091   6.766   4.862
44254SOL    HW232789   9.000   6.687   4.752
44255SOL     OW32790   8.363   5.675   5.126
44255SOL    HW132791   8.388   5.655   5.031
44255SOL    HW232792   8.435   5.731   5.168
44256SOL     OW32793   8.428   6.702   5.443
44256SOL    HW132794   8.329   6.708   5.453
44256SOL    HW232795   8.451   6.622   5.387
44257SOL     OW32796   8.153   6.636   4.092
44257SOL    HW132797   8.139   6.643   4.191
44257SOL    HW232798   8.237   6.585   4.074
44258SOL     OW32799   7.858   6.399   4.975
44258SOL    HW132800   7.944   6.411   5.025
44258SOL    HW232801   7.816   6.312   5.002
44259SOL     OW32802   8.722   5.972   4.986
44259SOL    HW132803   8.743   6.046   5.050
44259SOL    HW232804   8.633   5.989   4.943
44260SOL     OW32805   7.512   7.150   5.055
44260SOL    HW132806   7.466   7.232   5.021
44260SOL    HW232807   7.610   7.169   5.064
44261SOL     OW32808   7.815   6.686   4.225
44261SOL    HW132809   7.808   6.769   4.169
44261SOL    HW232810   7.819   6.606   4.165
44262SOL     OW32811   8.014   6.123   4.589
44262SOL    HW132812   8.026   6.189   4.515
44262SOL    HW232813   8.060   6.157   4.672
44263SOL     OW32814   8.700   6.934   4.112
44263SOL    HW132815   8.750   7.011   4.152
44263SOL    HW232816   8.605   6.936   4.144
44264SOL     OW32817   8.720   7.031   4.866
44264SOL    HW132818   8.767   7.044   4.953
44264SOL    HW232819   8.654   6.957   4.875
44265SOL     OW32820   9.030   6.225   4.196
44265SOL    HW132821   8.999   6.286   4.269
44265SOL    HW232822   9.080   6.277   4.127
44266SOL     OW32823   7.802   7.096   5.053
44266SOL    HW132824   7.781   7.052   4.966
44266SOL    HW232825   7.899   7.122   5.056
44267SOL     OW32826   7.850   6.337   5.322
44267SOL    HW132827   7.918   6.392   5.275
44267SOL    HW232828   7.890   6.249   5.349
44268SOL     OW32829   9.035   6.365   5.394
44268SOL    HW132830   8.943   6.403   5.389
44268SOL    HW232831   9.095   6.412   5.329
44269SOL     OW32832   8.461   5.691   5.494
44269SOL    HW132833   8.467   5.776   5.442
44269SOL    HW232834   8.493   5.615   5.437
44270SOL     OW32835   7.952   5.636   5.464
44270SOL    HW132836   7.910   5.579   5.394
44270SOL    HW232837   7.886   5.705   5.496
44271SOL     OW32838   8.021   6.456   4.753
44271SOL    HW132839   8.065   6.545   4.744
44271SOL    HW232840   7.958   6.456   4.830
44272SOL     OW32841   8.808   6.448   4.769
44272SOL    HW132842   8.733   6.448   4.703
44272SOL    HW232843   8.845   6.356   4.778
44273SOL     OW32844   8.657   6.111   3.999
44273SOL    HW132845   8.670   6.027   4.053
44273SOL    HW232846   8.628   6.185   4.059
44274SOL     OW32847   7.755   5.799   4.955
44274SOL    HW132848   7.732   5.836   5.045
44274SOL    HW232849   7.725   5.704   4.949
44275SOL     OW32850   7.485   6.896   5.006
44275SOL    HW132851   7.538   6.847   5.074
44275SOL    HW232852   7.507   6.994   5.011
44276SOL     OW32853   8.180   6.220   4.788
44276SOL    HW132854   8.239   6.194   4.712
44276SOL    HW232855   8.152   6.316   4.777
44277SOL     OW32856   9.176   6.521   5.578
44277SOL    HW132857   9.130   6.514   5.489
44277SOL    HW232858   9.114   6.565   5.644
44278SOL     OW32859   7.755   5.649   4.342
44278SOL    HW132860   7.744   5.743   4.375
44278SOL    HW232861   7.750   5.586   4.419
44279SOL     OW32862   9.070   5.953   4.098
44279SOL    HW132863   9.072   5.877   4.162
44279SOL    HW232864   9.022   6.030   4.138
44280SOL     OW32865   8.471   6.352   4.690
44280SOL    HW132866   8.486   6.373   4.786
44280SOL    HW232867   8.441   6.257   4.681
44281SOL     OW32868   8.428   7.159   5.424
44281SOL    HW132869   8.408   7.203   5.336
44281SOL    HW232870   8.467   7.068   5.408
44282SOL     OW32871   9.307   7.104   5.329
44282SOL    HW132872   9.321   7.131   5.234
44282SOL    HW232873   9.390   7.126   5.382
44283SOL     OW32874   7.798   6.484   5.528
44283SOL    HW132875   7.874   6.528   5.576
44283SOL    HW232876   7.833   6.437   5.446
44284SOL     OW32877   8.988   5.860   3.849
44284SOL    HW132878   8.927   5.785   3.872
44284SOL    HW232879   9.010   5.912   3.932
44285SOL     OW32880   8.751   6.424   3.766
44285SOL    HW132881   8.785   6.331   3.781
44285SOL    HW232882   8.769   6.451   3.671
44286SOL     OW32883   8.516   6.919   4.573
44286SOL    HW132884   8.523   6.835   4.518
44286SOL    HW232885   8.578   6.988   4.537
44287SOL     OW32886   7.767   6.396   4.673
44287SOL    HW132887   7.860   6.432   4.678
44287SOL    HW232888   7.761   6.311   4.725
44288SOL     OW32889   7.787   6.095   4.730
44288SOL    HW132890   7.735   6.012   4.713
44288SOL    HW232891   7.864   6.100   4.666
44289SOL     OW32892   8.586   5.966   5.402
44289SOL    HW132893   8.541   6.029   5.466
44289SOL    HW232894   8.679   5.997   5.385
44290SOL     OW32895   8.608   5.793   5.201
44290SOL    HW132896   8.608   5.857   5.278
44290SOL    HW232897   8.636   5.841   5.118
44291SOL     OW32898   7.456   6.912   3.924
44291SOL    HW132899   7.363   6.933   3.893
44291SOL    HW232900   7.466   6.813   3.937
44292SOL     OW32901   7.536   7.387   4.651
44292SOL    HW132902   7.494   7.301   4.624
44292SOL    HW232903   7.630   7.390   4.617
44293SOL     OW32904   7.952   7.154   4.634
44293SOL    HW132905   8.018   7.228   4.643
44293SOL    HW232906   7.996   7.075   4.592
44294SOL     OW32907   8.450   6.382   4.962
44294SOL    HW132908   8.491   6.350   5.048
44294SOL    HW232909   8.354   6.355   4.959
44295SOL     OW32910   7.488   6.130   4.838
44295SOL    HW132911   7.573   6.097   4.797
44295SOL    HW232912   7.501   6.145   4.936
44296SOL     OW32913   7.637   6.106   5.446
44296SOL    HW132914   7.696   6.066   5.376
44296SOL    HW232915   7.579   6.177   5.405
44297SOL     OW32916   8.817   6.536   5.384
44297SOL    HW132917   8.856   6.625   5.404
44297SOL    HW232918   8.827   6.516   5.287
44298SOL     OW32919   8.263   6.158   4.049
44298SOL    HW132920   8.270   6.069   4.003
44298SOL    HW232921   8.169   6.192   4.041
44299SOL     OW32922   9.105   6.190   4.930
44299SOL    HW132923   9.067   6.121   4.992
44299SOL    HW232924   9.187   6.154   4.886
44300SOL     OW32925   7.700   7.150   5.468
44300SOL    HW132926   7.670   7.207   5.544
44300SOL    HW232927   7.693   7.053   5.494
44301SOL     OW32928   8.119   6.050   4.993
44301SOL    HW132929   8.085   5.961   4.963
44301SOL    HW232930   8.145   6.104   4.913
44302SOL     OW32931   8.378   7.264   5.189
44302SOL    HW132932   8.354   7.246   5.094
44302SOL    HW232933   8.408   7.358   5.199
44303SOL     OW32934   7.921   6.086   3.915
44303SOL    HW132935   7.982   6.166   3.919
44303SOL    HW232936   7.826   6.117   3.922
44304SOL     OW32937   7.607   6.723   5.190
44304SOL    HW132938   7.629   6.662   5.266
44304SOL    HW232939   7.617   6.674   5.104
44305SOL     OW32940   8.750   6.441   4.033
44305SOL    HW132941   8.664   6.410   4.075
44305SOL    HW232942   8.746   6.427   3.934
44306SOL     OW32943   9.207   7.333   4.878
44306SOL    HW132944   9.268   7.363   4.805
44306SOL    HW232945   9.169   7.244   4.856
44307SOL     OW32946   8.700   7.317   4.852
44307SOL    HW132947   8.784   7.322   4.798
44307SOL    HW232948   8.677   7.221   4.870
44308SOL     OW32949   7.531   6.844   4.746
44308SOL    HW132950   7.526   6.843   4.846
44308SOL    HW232951   7.448   6.803   4.708
44309SOL     OW32952   8.136   7.248   5.440
44309SOL    HW132953   8.080   7.329   5.449
44309SOL    HW232954   8.188   7.252   5.354
44310SOL     OW32955   9.174   5.721   4.247
44310SOL    HW132956   9.247   5.704   4.180
44310SOL    HW232957   9.143   5.634   4.285
44311SOL     OW32958   8.836   7.159   4.201
44311SOL    HW132959   8.903   7.171   4.127
44311SOL    HW232960   8.796   7.248   4.224
44312SOL     OW32961   7.578   7.380   5.575
44312SOL    HW132962   7.537   7.306   5.628
44312SOL    HW232963   7.642   7.431   5.633
44313SOL     OW32964   8.728   6.513   4.396
44313SOL    HW132965   8.788   6.432   4.398
44313SOL    HW232966   8.768   6.582   4.336
44314SOL     OW32967   8.278   6.859   5.146
44314SOL    HW132968   8.273   6.892   5.241
44314SOL    HW232969   8.192   6.878   5.100
44315SOL     OW32970   8.120   7.202   3.878
44315SOL    HW132971   8.129   7.212   3.779
44315SOL    HW232972   8.080   7.113   3.899
44316SOL     OW32973   9.098   7.306   5.118
44316SOL    HW132974   9.151   7.316   5.034
44316SOL    HW232975   9.071   7.396   5.152
44317SOL     OW32976   9.289   5.761   4.687
44317SOL    HW132977   9.328   5.676   4.651
44317SOL    HW232978   9.191   5.763   4.668
44318SOL     OW32979   7.711   5.912   4.444
44318SOL    HW132980   7.632   5.963   4.410
44318SOL    HW232981   7.702   5.897   4.542
44319SOL     OW32982   8.642   7.198   3.755
44319SOL    HW132983   8.648   7.105   3.792
44319SOL    HW232984   8.583   7.198   3.675
44320SOL     OW32985   8.270   6.588   5.096
44320SOL    HW132986   8.310   6.587   5.004
44320SOL    HW232987   8.280   6.680   5.136
44321SOL     OW32988   8.364   6.496   4.015
44321SOL    HW132989   8.427   6.534   3.947
44321SOL    HW232990   8.404   6.413   4.054
44322SOL     OW32991   8.952   7.193   3.768
44322SOL    HW132992   8.860   7.230   3.775
44322SOL    HW232993   8.990   7.213   3.678
44323SOL     OW32994   7.820   6.874   5.214
44323SOL    HW132995   7.807   6.967   5.180
44323SOL    HW232996   7.736   6.822   5.201
44324SOL     OW32997   9.062   6.878   5.013
44324SOL    HW132998   9.122   6.881   5.093
44324SOL    HW232999   8.987   6.942   5.026
44325SOL     OW33000   8.487   6.684   4.420
44325SOL    HW133001   8.417   6.637   4.474
44325SOL    HW233002   8.546   6.616   4.377
44326SOL     OW33003   8.462   5.822   4.695
44326SOL    HW133004   8.454   5.786   4.602
44326SOL    HW233005   8.460   5.746   4.760
44327SOL     OW33006   8.038   7.073   4.215
44327SOL    HW133007   8.080   7.015   4.145
44327SOL    HW233008   7.994   7.152   4.171
44328SOL     OW33009   9.157   5.971   5.105
44328SOL    HW133010   9.230   6.040   5.109
44328SOL    HW233011   9.185   5.896   5.046
44329SOL     OW33012   7.703   6.934   4.014
44329SOL    HW133013   7.607   6.935   3.987
44329SOL    HW233014   7.715   6.987   4.098
44330SOL     OW33015   7.553   6.599   5.450
44330SOL    HW133016   7.476   6.566   5.504
44330SOL    HW233017   7.638   6.569   5.492
44331SOL     OW33018   8.120   5.789   5.213
44331SOL    HW133019   8.210   5.773   5.173
44331SOL    HW233020   8.128   5.794   5.312
44332SOL     OW33021   7.523   5.931   3.757
44332SOL    HW133022   7.431   5.903   3.728
44332SOL    HW233023   7.554   6.008   3.701
44333SOL     OW33024   8.888   6.442   5.122
44333SOL    HW133025   8.831   6.494   5.059
44333SOL    HW233026   8.984   6.454   5.098
44334SOL     OW33027   7.520   5.752   4.042
44334SOL    HW133028   7.503   5.835   3.988
44334SOL    HW233029   7.610   5.715   4.020
44335SOL     OW33030   8.631   6.921   3.843
44335SOL    HW133031   8.532   6.910   3.845
44335SOL    HW233032   8.665   6.936   3.936
44336SOL     OW33033   8.061   6.428   5.155
44336SOL    HW133034   8.117   6.509   5.138
44336SOL    HW233035   8.120   6.348   5.158
44337SOL     OW33036   8.941   7.353   4.683
44337SOL    HW133037   8.974   7.417   4.614
44337SOL    HW233038   9.007   7.347   4.758
44338SOL     OW33039   8.164   6.151   5.432
44338SOL    HW133040   8.183   6.216   5.506
44338SOL    HW233041   8.224   6.071   5.441
44339SOL     OW33042   8.898   6.806   5.357
44339SOL    HW133043   8.889   6.796   5.456
44339SOL    HW233044   8.994   6.799   5.331
44340SOL     OW33045   7.838   7.327   5.284
44340SOL    HW133046   7.747   7.368   5.282
44340SOL    HW233047   7.831   7.233   5.316
44341SOL     OW33048   9.122   6.469   4.978
44341SOL    HW133049   9.095   6.380   4.941
44341SOL    HW233050   9.123   6.537   4.905
44342SOL     OW33051   8.673   5.911   4.173
44342SOL    HW133052   8.738   5.837   4.162
44342SOL    HW233053   8.693   5.961   4.257
44343SOL     OW33054   8.042   6.331   4.376
44343SOL    HW133055   8.092   6.416   4.357
44343SOL    HW233056   7.954   6.333   4.328
44344SOL     OW33057   9.225   5.928   5.366
44344SOL    HW133058   9.208   5.959   5.272
44344SOL    HW233059   9.141   5.891   5.404
44345SOL     OW33060   9.178   6.520   5.241
44345SOL    HW133061   9.216   6.611   5.256
44345SOL    HW233062   9.170   6.503   5.142
44346SOL     OW33063   8.307   6.960   3.740
44346SOL    HW133064   8.261   6.975   3.828
44346SOL    HW233065   8.351   7.045   3.710
44347SOL     OW33066   8.109   7.376   4.677
44347SOL    HW133067   8.063   7.464   4.664
44347SOL    HW233068   8.208   7.388   4.670
44348SOL     OW33069   8.307   6.542   4.585
44348SOL    HW133070   8.361   6.473   4.633
44348SOL    HW233071   8.275   6.611   4.651
44349SOL     OW33072   8.531   6.570   3.811
44349SOL    HW133073   8.508   6.623   3.729
44349SOL    HW233074   8.612   6.514   3.792
44350SOL     OW33075   9.309   7.155   4.575
44350SOL    HW133076   9.238   7.143   4.505
44350SOL    HW233077   9.310   7.076   4.635
44351SOL     OW33078   7.669   6.900   5.568
44351SOL    HW133079   7.604   6.827   5.547
44351SOL    HW233080   7.673   6.914   5.666
44352SOL     OW33081   7.527   6.826   4.377
44352SOL    HW133082   7.526   6.779   4.465
44352SOL    HW233083   7.609   6.798   4.326
44353SOL     OW33084   8.120   6.977   5.348
44353SOL    HW133085   8.042   6.927   5.386
44353SOL    HW233086   8.117   7.072   5.379
44354SOL     OW33087   9.272   5.778   4.951
44354SOL    HW133088   9.268   5.688   4.995
44354SOL    HW233089   9.275   5.767   4.852
44355SOL     OW33090   7.876   6.010   4.244
44355SOL    HW133091   7.906   5.938   4.182
44355SOL    HW233092   7.837   5.970   4.327
44356SOL     OW33093   9.153   7.073   4.828
44356SOL    HW133094   9.060   7.048   4.801
44356SOL    HW233095   9.179   7.023   4.910
44357SOL     OW33096   7.765   6.133   5.004
44357SOL    HW133097   7.803   6.074   5.076
44357SOL    HW233098   7.805   6.107   4.916
44358SOL     OW33099   8.260   7.172   4.411
44358SOL    HW133100   8.292   7.182   4.317
44358SOL    HW233101   8.181   7.110   4.413
44359SOL     OW33102   8.872   5.800   4.836
44359SOL    HW133103   8.924   5.735   4.891
44359SOL    HW233104   8.823   5.863   4.897
44360SOL     OW33105   8.449   5.620   4.878
44360SOL    HW133106   8.386   5.548   4.847
44360SOL    HW233107   8.542   5.584   4.878
44361SOL     OW33108   8.218   6.916   4.025
44361SOL    HW133109   8.172   6.829   4.042
44361SOL    HW233110   8.309   6.913   4.066
44362SOL     OW33111   8.066   7.153   5.008
44362SOL    HW133112   8.061   7.235   5.065
44362SOL    HW233113   8.155   7.150   4.963
44363SOL     OW33114   8.800   5.638   3.892
44363SOL    HW133115   8.835   5.597   3.808
44363SOL    HW233116   8.710   5.600   3.912
44364SOL     OW33117   8.748   6.039   4.415
44364SOL    HW133118   8.689   6.119   4.419
44364SOL    HW233119   8.763   6.004   4.508
44365SOL     OW33120   9.041   5.807   4.606
44365SOL    HW133121   8.957   5.806   4.660
44365SOL    HW233122   9.043   5.890   4.550
44366SOL     OW33123   7.487   6.663   4.024
44366SOL    HW133124   7.586   6.652   4.015
44366SOL    HW233125   7.447   6.577   4.056
44367SOL     OW33126   8.323   7.232   4.061
44367SOL    HW133127   8.246   7.197   4.007
44367SOL    HW233128   8.291   7.303   4.123
44368SOL     OW33129   7.678   6.214   5.699
44368SOL    HW133130   7.585   6.212   5.736
44368SOL    HW233131   7.679   6.175   5.607
44369SOL     OW33132   7.673   5.861   6.582
44369SOL    HW133133   7.708   5.844   6.674
44369SOL    HW233134   7.585   5.816   6.570
44370SOL     OW33135   7.467   5.954   6.233
44370SOL    HW133136   7.385   5.997   6.272
44370SOL    HW233137   7.439   5.881   6.170
44371SOL     OW33138   8.017   6.861   6.751
44371SOL    HW133139   7.924   6.854   6.714
44371SOL    HW233140   8.028   6.950   6.795
44372SOL     OW33141   9.003   7.097   6.289
44372SOL    HW133142   8.946   7.081   6.370
44372SOL    HW233143   8.944   7.107   6.209
44373SOL     OW33144   8.583   6.289   6.303
44373SOL    HW133145   8.640   6.367   6.278
44373SOL    HW233146   8.523   6.315   6.379
44374SOL     OW33147   9.203   6.193   5.817
44374SOL    HW133148   9.191   6.180   5.718
44374SOL    HW233149   9.173   6.112   5.866
44375SOL     OW33150   8.216   6.730   6.609
44375SOL    HW133151   8.138   6.747   6.669
44375SOL    HW233152   8.250   6.817   6.573
44376SOL     OW33153   8.298   6.384   7.409
44376SOL    HW133154   8.294   6.460   7.474
44376SOL    HW233155   8.320   6.420   7.318
44377SOL     OW33156   8.133   6.598   6.251
44377SOL    HW133157   8.202   6.582   6.321
44377SOL    HW233158   8.060   6.655   6.289
44378SOL     OW33159   8.134   6.747   7.389
44378SOL    HW133160   8.194   6.826   7.403
44378SOL    HW233161   8.048   6.778   7.348
44379SOL     OW33162   7.783   7.021   6.647
44379SOL    HW133163   7.705   6.990   6.594
44379SOL    HW233164   7.841   7.079   6.590
44380SOL     OW33165   8.908   7.091   6.925
44380SOL    HW133166   8.932   7.185   6.951
44380SOL    HW233167   8.892   7.037   7.007
44381SOL     OW33168   7.886   5.978   7.085
44381SOL    HW133169   7.968   5.922   7.094
44381SOL    HW233170   7.805   5.920   7.089
44382SOL     OW33171   9.051   6.033   6.323
44382SOL    HW133172   8.977   6.079   6.273
44382SOL    HW233173   9.102   6.101   6.376
44383SOL     OW33174   7.679   7.299   6.069
44383SOL    HW133175   7.713   7.376   6.123
44383SOL    HW233176   7.723   7.299   5.979
44384SOL     OW33177   8.575   6.927   7.276
44384SOL    HW133178   8.622   6.927   7.364
44384SOL    HW233179   8.527   6.840   7.265
44385SOL     OW33180   7.678   7.020   6.124
44385SOL    HW133181   7.652   7.116   6.124
44385SOL    HW233182   7.607   6.966   6.169
44386SOL     OW33183   7.688   6.677   6.472
44386SOL    HW133184   7.702   6.593   6.524
44386SOL    HW233185   7.633   6.741   6.527
44387SOL     OW33186   8.068   7.372   7.025
44387SOL    HW133187   7.976   7.355   7.060
44387SOL    HW233188   8.096   7.464   7.051
44388SOL     OW33189   8.054   6.550   5.709
44388SOL    HW133190   8.061   6.634   5.655
44388SOL    HW233191   8.100   6.563   5.797
44389SOL     OW33192   9.042   5.700   7.066
44389SOL    HW133193   9.024   5.767   6.994
44389SOL    HW233194   9.039   5.746   7.155
44390SOL     OW33195   7.570   6.229   6.149
44390SOL    HW133196   7.525   6.141   6.166
44390SOL    HW233197   7.569   6.283   6.233
44391SOL     OW33198   9.290   7.353   5.945
44391SOL    HW133199   9.344   7.324   6.025
44391SOL    HW233200   9.320   7.443   5.916
44392SOL     OW33201   7.475   7.182   5.703
44392SOL    HW133202   7.456   7.086   5.724
44392SOL    HW233203   7.442   7.240   5.778
44393SOL     OW33204   9.137   6.508   6.198
44393SOL    HW133205   9.232   6.479   6.206
44393SOL    HW233206   9.129   6.573   6.123
44394SOL     OW33207   9.089   6.694   6.018
44394SOL    HW133208   9.175   6.696   5.966
44394SOL    HW233209   9.103   6.741   6.106
44395SOL     OW33210   7.561   6.323   7.183
44395SOL    HW133211   7.649   6.310   7.228
44395SOL    HW233212   7.548   6.420   7.161
44396SOL     OW33213   8.061   6.951   6.312
44396SOL    HW133214   8.012   6.864   6.321
44396SOL    HW233215   8.038   6.994   6.225
44397SOL     OW33216   8.741   6.814   7.009
44397SOL    HW133217   8.778   6.741   6.951
44397SOL    HW233218   8.793   6.819   7.094
44398SOL     OW33219   8.257   5.590   6.088
44398SOL    HW133220   8.297   5.681   6.079
44398SOL    HW233221   8.157   5.598   6.094
44399SOL     OW33222   7.645   6.562   6.850
44399SOL    HW133223   7.734   6.517   6.836
44399SOL    HW233224   7.572   6.497   6.831
44400SOL     OW33225   8.973   6.585   5.776
44400SOL    HW133226   8.910   6.509   5.789
44400SOL    HW233227   9.021   6.603   5.862
44401SOL     OW33228   8.635   7.378   7.202
44401SOL    HW133229   8.659   7.438   7.126
44401SOL    HW233230   8.642   7.283   7.172
44402SOL     OW33231   7.765   5.837   7.387
44402SOL    HW133232   7.836   5.908   7.393
44402SOL    HW233233   7.677   5.876   7.415
44403SOL     OW33234   8.914   7.003   6.539
44403SOL    HW133235   8.855   7.009   6.619
44403SOL    HW233236   8.899   6.915   6.493
44404SOL     OW33237   9.115   7.300   6.158
44404SOL    HW133238   9.074   7.277   6.070
44404SOL    HW233239   9.097   7.226   6.223
44405SOL     OW33240   8.046   6.315   5.856
44405SOL    HW133241   8.070   6.384   5.788
44405SOL    HW233242   7.968   6.348   5.910
44406SOL     OW33243   8.729   5.931   6.530
44406SOL    HW133244   8.643   5.881   6.517
44406SOL    HW233245   8.791   5.877   6.586
44407SOL     OW33246   9.024   7.248   5.893
44407SOL    HW133247   9.113   7.294   5.896
44407SOL    HW233248   9.003   7.224   5.798
44408SOL     OW33249   8.255   6.191   7.051
44408SOL    HW133250   8.208   6.188   7.140
44408SOL    HW233251   8.204   6.136   6.985
44409SOL     OW33252   8.842   6.055   7.260
44409SOL    HW133253   8.822   6.098   7.348
44409SOL    HW233254   8.920   5.993   7.269
44410SOL     OW33255   8.421   6.476   7.158
44410SOL    HW133256   8.467   6.392   7.129
44410SOL    HW233257   8.365   6.510   7.083
44411SOL     OW33258   8.439   5.996   6.828
44411SOL    HW133259   8.362   6.030   6.882
44411SOL    HW233260   8.405   5.945   6.749
44412SOL     OW33261   8.489   6.287   6.015
44412SOL    HW133262   8.515   6.283   6.111
44412SOL    HW233263   8.404   6.236   6.001
44413SOL     OW33264   7.524   6.397   6.375
44413SOL    HW133265   7.623   6.385   6.384
44413SOL    HW233266   7.500   6.492   6.396
44414SOL     OW33267   7.578   7.407   7.157
44414SOL    HW133268   7.568   7.392   7.256
44414SOL    HW233269   7.492   7.443   7.121
44415SOL     OW33270   8.313   5.934   5.781
44415SOL    HW133271   8.372   5.997   5.732
44415SOL    HW233272   8.332   5.840   5.752
44416SOL     OW33273   9.167   6.171   7.417
44416SOL    HW133274   9.141   6.260   7.381
44416SOL    HW233275   9.165   6.103   7.344
44417SOL     OW33276   8.810   6.730   6.131
44417SOL    HW133277   8.893   6.701   6.083
44417SOL    HW233278   8.761   6.797   6.075
44418SOL     OW33279   7.998   5.782   6.471
44418SOL    HW133280   7.993   5.777   6.571
44418SOL    HW233281   8.000   5.878   6.442
44419SOL     OW33282   8.456   7.042   6.063
44419SOL    HW133283   8.410   7.114   6.011
44419SOL    HW233284   8.452   7.062   6.161
44420SOL     OW33285   7.799   7.387   6.439
44420SOL    HW133286   7.849   7.301   6.445
44420SOL    HW233287   7.864   7.464   6.436
44421SOL     OW33288   9.243   6.652   6.459
44421SOL    HW133289   9.181   6.637   6.383
44421SOL    HW233290   9.191   6.663   6.544
44422SOL     OW33291   8.675   7.136   7.092
44422SOL    HW133292   8.681   7.059   7.156
44422SOL    HW233293   8.623   7.110   7.012
44423SOL     OW33294   7.769   6.529   5.828
44423SOL    HW133295   7.851   6.568   5.786
44423SOL    HW233296   7.742   6.447   5.779
44424SOL     OW33297   8.906   6.321   6.314
44424SOL    HW133298   8.901   6.256   6.389
44424SOL    HW233299   8.986   6.380   6.327
44425SOL     OW33300   7.909   6.852   7.313
44425SOL    HW133301   7.859   6.853   7.227
44425SOL    HW233302   7.846   6.834   7.389
44426SOL     OW33303   8.559   7.362   5.823
44426SOL    HW133304   8.499   7.300   5.873
44426SOL    HW233305   8.590   7.318   5.738
44427SOL     OW33306   7.650   5.871   7.084
44427SOL    HW133307   7.570   5.931   7.071
44427SOL    HW233308   7.640   5.822   7.170
44428SOL     OW33309   9.080   6.963   5.667
44428SOL    HW133310   9.048   7.057   5.657
44428SOL    HW233311   9.004   6.900   5.655
44429SOL     OW33312   7.912   7.329   5.909
44429SOL    HW133313   7.945   7.368   5.995
44429SOL    HW233314   7.988   7.322   5.844
44430SOL     OW33315   8.848   5.693   6.012
44430SOL    HW133316   8.824   5.656   5.922
44430SOL    HW233317   8.947   5.709   6.016
44431SOL     OW33318   7.697   7.371   6.827
44431SOL    HW133319   7.754   7.306   6.877
44431SOL    HW233320   7.681   7.338   6.734
44432SOL     OW33321   8.388   7.284   6.490
44432SOL    HW133322   8.468   7.227   6.511
44432SOL    HW233323   8.339   7.244   6.413
44433SOL     OW33324   7.830   6.286   6.066
44433SOL    HW133325   7.875   6.196   6.063
44433SOL    HW233326   7.736   6.275   6.099
44434SOL     OW33327   8.995   5.808   7.315
44434SOL    HW133328   8.990   5.845   7.407
44434SOL    HW233329   8.923   5.739   7.303
44435SOL     OW33330   8.062   5.708   5.703
44435SOL    HW133331   8.160   5.686   5.710
44435SOL    HW233332   8.031   5.691   5.610
44436SOL     OW33333   8.229   5.850   7.335
44436SOL    HW133334   8.296   5.789   7.378
44436SOL    HW233335   8.156   5.869   7.400
44437SOL     OW33336   8.336   7.100   6.781
44437SOL    HW133337   8.313   7.075   6.687
44437SOL    HW233338   8.397   7.031   6.820
44438SOL     OW33339   8.799   6.176   7.019
44438SOL    HW133340   8.827   6.133   7.104
44438SOL    HW233341   8.824   6.272   7.020
44439SOL     OW33342   8.251   6.988   6.510
44439SOL    HW133343   8.341   7.002   6.468
44439SOL    HW233344   8.180   6.990   6.439
44440SOL     OW33345   8.370   6.089   6.485
44440SOL    HW133346   8.345   6.080   6.389
44440SOL    HW233347   8.418   6.007   6.516
44441SOL     OW33348   7.987   5.650   6.098
44441SOL    HW133349   7.906   5.651   6.156
44441SOL    HW233350   7.990   5.733   6.043
44442SOL     OW33351   8.882   6.774   5.627
44442SOL    HW133352   8.914   6.698   5.684
44442SOL    HW233353   8.790   6.801   5.657
44443SOL     OW33354   7.745   5.621   5.757
44443SOL    HW133355   7.794   5.705   5.736
44443SOL    HW233356   7.807   5.556   5.802
44444SOL     OW33357   8.383   5.822   6.066
44444SOL    HW133358   8.335   5.863   5.988
44444SOL    HW233359   8.482   5.820   6.047
44445SOL     OW33360   8.524   6.269   7.050
44445SOL    HW133361   8.444   6.208   7.053
44445SOL    HW233362   8.605   6.216   7.026
44446SOL     OW33363   8.675   7.156   6.379
44446SOL    HW133364   8.696   7.230   6.314
44446SOL    HW233365   8.743   7.156   6.452
44447SOL     OW33366   7.907   6.738   6.327
44447SOL    HW133367   7.836   6.711   6.392
44447SOL    HW233368   7.881   6.710   6.234
44448SOL     OW33369   8.719   7.383   6.177
44448SOL    HW133370   8.763   7.447   6.113
44448SOL    HW233371   8.669   7.435   6.247
44449SOL     OW33372   8.480   6.135   5.602
44449SOL    HW133373   8.439   6.217   5.563
44449SOL    HW233374   8.544   6.161   5.675
44450SOL     OW33375   7.526   6.142   6.972
44450SOL    HW133376   7.618   6.141   6.931
44450SOL    HW233377   7.520   6.216   7.039
44451SOL     OW33378   8.009   5.808   6.733
44451SOL    HW133379   8.047   5.724   6.770
44451SOL    HW233380   7.921   5.827   6.777
44452SOL     OW33381   8.314   6.040   6.228
44452SOL    HW133382   8.282   6.112   6.166
44452SOL    HW233383   8.338   5.959   6.175
44453SOL     OW33384   8.465   5.625   6.339
44453SOL    HW133385   8.393   5.630   6.270
44453SOL    HW233386   8.441   5.556   6.408
44454SOL     OW33387   8.877   6.759   6.453
44454SOL    HW133388   8.822   6.675   6.446
44454SOL    HW233389   8.903   6.788   6.361
44455SOL     OW33390   8.914   6.176   6.578
44455SOL    HW133391   8.884   6.081   6.585
44455SOL    HW233392   8.987   6.192   6.644
44456SOL     OW33393   9.305   6.419   5.963
44456SOL    HW133394   9.347   6.355   6.027
44456SOL    HW233395   9.267   6.368   5.885
44457SOL     OW33396   7.936   6.971   5.760
44457SOL    HW133397   7.849   6.956   5.807
44457SOL    HW233398   7.919   6.997   5.665
44458SOL     OW33399   9.112   6.866   6.243
44458SOL    HW133400   9.211   6.874   6.257
44458SOL    HW233401   9.067   6.950   6.274
44459SOL     OW33402   8.838   6.161   5.664
44459SOL    HW133403   8.784   6.140   5.745
44459SOL    HW233404   8.929   6.120   5.673
44460SOL     OW33405   7.975   5.842   5.914
44460SOL    HW133406   8.002   5.783   5.839
44460SOL    HW233407   7.975   5.937   5.883
44461SOL     OW33408   9.202   6.809   7.174
44461SOL    HW133409   9.293   6.770   7.161
44461SOL    HW233410   9.210   6.905   7.198
44462SOL     OW33411   8.512   6.933   6.926
44462SOL    HW133412   8.432   6.910   6.981
44462SOL    HW233413   8.595   6.907   6.975
44463SOL     OW33414   9.040   7.215   7.211
44463SOL    HW133415   9.067   7.249   7.121
44463SOL    HW233416   9.119   7.177   7.257
44464SOL     OW33417   8.559   6.781   6.686
44464SOL    HW133418   8.519   6.825   6.767
44464SOL    HW233419   8.518   6.818   6.603
44465SOL     OW33420   9.086   6.685   6.665
44465SOL    HW133421   9.091   6.766   6.724
44465SOL    HW233422   9.000   6.687   6.614
44466SOL     OW33423   8.363   5.675   6.988
44466SOL    HW133424   8.388   5.655   6.893
44466SOL    HW233425   8.435   5.731   7.030
44467SOL     OW33426   8.428   6.702   7.305
44467SOL    HW133427   8.329   6.708   7.315
44467SOL    HW233428   8.451   6.622   7.249
44468SOL     OW33429   8.153   6.636   5.954
44468SOL    HW133430   8.139   6.643   6.053
44468SOL    HW233431   8.237   6.585   5.936
44469SOL     OW33432   7.858   6.399   6.837
44469SOL    HW133433   7.944   6.411   6.887
44469SOL    HW233434   7.816   6.312   6.864
44470SOL     OW33435   8.722   5.972   6.848
44470SOL    HW133436   8.743   6.046   6.912
44470SOL    HW233437   8.633   5.989   6.805
44471SOL     OW33438   7.512   7.150   6.917
44471SOL    HW133439   7.466   7.232   6.883
44471SOL    HW233440   7.610   7.169   6.926
44472SOL     OW33441   7.815   6.686   6.087
44472SOL    HW133442   7.808   6.769   6.031
44472SOL    HW233443   7.819   6.606   6.027
44473SOL     OW33444   8.014   6.123   6.451
44473SOL    HW133445   8.026   6.189   6.377
44473SOL    HW233446   8.060   6.157   6.534
44474SOL     OW33447   8.700   6.934   5.974
44474SOL    HW133448   8.750   7.011   6.014
44474SOL    HW233449   8.605   6.936   6.006
44475SOL     OW33450   8.720   7.031   6.728
44475SOL    HW133451   8.767   7.044   6.815
44475SOL    HW233452   8.654   6.957   6.737
44476SOL     OW33453   9.030   6.225   6.058
44476SOL    HW133454   8.999   6.286   6.131
44476SOL    HW233455   9.080   6.277   5.989
44477SOL     OW33456   7.802   7.096   6.915
44477SOL    HW133457   7.781   7.052   6.828
44477SOL    HW233458   7.899   7.122   6.918
44478SOL     OW33459   7.850   6.337   7.184
44478SOL    HW133460   7.918   6.392   7.137
44478SOL    HW233461   7.890   6.249   7.211
44479SOL     OW33462   9.035   6.365   7.256
44479SOL    HW133463   8.943   6.403   7.251
44479SOL    HW233464   9.095   6.412   7.191
44480SOL     OW33465   8.461   5.691   7.356
44480SOL    HW133466   8.467   5.776   7.304
44480SOL    HW233467   8.493   5.615   7.299
44481SOL     OW33468   7.952   5.636   7.326
44481SOL    HW133469   7.910   5.579   7.256
44481SOL    HW233470   7.886   5.705   7.358
44482SOL     OW33471   8.021   6.456   6.615
44482SOL    HW133472   8.065   6.545   6.606
44482SOL    HW233473   7.958   6.456   6.692
44483SOL     OW33474   8.808   6.448   6.631
44483SOL    HW133475   8.733   6.448   6.565
44483SOL    HW233476   8.845   6.356   6.640
44484SOL     OW33477   8.657   6.111   5.861
44484SOL    HW133478   8.670   6.027   5.915
44484SOL    HW233479   8.628   6.185   5.921
44485SOL     OW33480   7.755   5.799   6.817
44485SOL    HW133481   7.732   5.836   6.907
44485SOL    HW233482   7.725   5.704   6.811
44486SOL     OW33483   7.485   6.896   6.868
44486SOL    HW133484   7.538   6.847   6.936
44486SOL    HW233485   7.507   6.994   6.873
44487SOL     OW33486   8.180   6.220   6.650
44487SOL    HW133487   8.239   6.194   6.574
44487SOL    HW233488   8.152   6.316   6.639
44488SOL     OW33489   9.176   6.521   7.440
44488SOL    HW133490   9.130   6.514   7.351
44488SOL    HW233491   9.114   6.565   7.506
44489SOL     OW33492   7.755   5.649   6.204
44489SOL    HW133493   7.744   5.743   6.237
44489SOL    HW233494   7.750   5.586   6.281
44490SOL     OW33495   9.070   5.953   5.960
44490SOL    HW133496   9.072   5.877   6.024
44490SOL    HW233497   9.022   6.030   6.000
44491SOL     OW33498   8.471   6.352   6.552
44491SOL    HW133499   8.486   6.373   6.648
44491SOL    HW233500   8.441   6.257   6.543
44492SOL     OW33501   8.428   7.159   7.286
44492SOL    HW133502   8.408   7.203   7.198
44492SOL    HW233503   8.467   7.068   7.270
44493SOL     OW33504   9.307   7.104   7.191
44493SOL    HW133505   9.321   7.131   7.096
44493SOL    HW233506   9.390   7.126   7.244
44494SOL     OW33507   7.798   6.484   7.390
44494SOL    HW133508   7.874   6.528   7.438
44494SOL    HW233509   7.833   6.437   7.308
44495SOL     OW33510   8.988   5.860   5.711
44495SOL    HW133511   8.927   5.785   5.734
44495SOL    HW233512   9.010   5.912   5.794
44496SOL     OW33513   8.751   6.424   5.628
44496SOL    HW133514   8.785   6.331   5.643
44496SOL    HW233515   8.769   6.451   5.533
44497SOL     OW33516   8.516   6.919   6.435
44497SOL    HW133517   8.523   6.835   6.380
44497SOL    HW233518   8.578   6.988   6.399
44498SOL     OW33519   7.767   6.396   6.535
44498SOL    HW133520   7.860   6.432   6.540
44498SOL    HW233521   7.761   6.311   6.587
44499SOL     OW33522   7.787   6.095   6.592
44499SOL    HW133523   7.735   6.012   6.575
44499SOL    HW233524   7.864   6.100   6.528
44500SOL     OW33525   8.586   5.966   7.264
44500SOL    HW133526   8.541   6.029   7.328
44500SOL    HW233527   8.679   5.997   7.247
44501SOL     OW33528   8.608   5.793   7.063
44501SOL    HW133529   8.608   5.857   7.140
44501SOL    HW233530   8.636   5.841   6.980
44502SOL     OW33531   7.456   6.912   5.786
44502SOL    HW133532   7.363   6.933   5.755
44502SOL    HW233533   7.466   6.813   5.799
44503SOL     OW33534   7.536   7.387   6.513
44503SOL    HW133535   7.494   7.301   6.486
44503SOL    HW233536   7.630   7.390   6.479
44504SOL     OW33537   7.952   7.154   6.496
44504SOL    HW133538   8.018   7.228   6.505
44504SOL    HW233539   7.996   7.075   6.454
44505SOL     OW33540   8.450   6.382   6.824
44505SOL    HW133541   8.491   6.350   6.910
44505SOL    HW233542   8.354   6.355   6.821
44506SOL     OW33543   7.488   6.130   6.700
44506SOL    HW133544   7.573   6.097   6.659
44506SOL    HW233545   7.501   6.145   6.798
44507SOL     OW33546   7.637   6.106   7.308
44507SOL    HW133547   7.696   6.066   7.238
44507SOL    HW233548   7.579   6.177   7.267
44508SOL     OW33549   8.817   6.536   7.246
44508SOL    HW133550   8.856   6.625   7.266
44508SOL    HW233551   8.827   6.516   7.149
44509SOL     OW33552   8.263   6.158   5.911
44509SOL    HW133553   8.270   6.069   5.865
44509SOL    HW233554   8.169   6.192   5.903
44510SOL     OW33555   9.105   6.190   6.792
44510SOL    HW133556   9.067   6.121   6.854
44510SOL    HW233557   9.187   6.154   6.748
44511SOL     OW33558   7.700   7.150   7.330
44511SOL    HW133559   7.670   7.207   7.406
44511SOL    HW233560   7.693   7.053   7.356
44512SOL     OW33561   8.119   6.050   6.855
44512SOL    HW133562   8.085   5.961   6.825
44512SOL    HW233563   8.145   6.104   6.775
44513SOL     OW33564   8.378   7.264   7.051
44513SOL    HW133565   8.354   7.246   6.956
44513SOL    HW233566   8.408   7.358   7.061
44514SOL     OW33567   7.921   6.086   5.777
44514SOL    HW133568   7.982   6.166   5.781
44514SOL    HW233569   7.826   6.117   5.784
44515SOL     OW33570   7.607   6.723   7.052
44515SOL    HW133571   7.629   6.662   7.128
44515SOL    HW233572   7.617   6.674   6.966
44516SOL     OW33573   8.795   6.645   6.820
44516SOL    HW133574   8.819   6.582   6.746
44516SOL    HW233575   8.705   6.685   6.802
44517SOL     OW33576   8.750   6.441   5.895
44517SOL    HW133577   8.664   6.410   5.937
44517SOL    HW233578   8.746   6.427   5.796
44518SOL     OW33579   9.207   7.333   6.740
44518SOL    HW133580   9.268   7.363   6.667
44518SOL    HW233581   9.169   7.244   6.718
44519SOL     OW33582   8.700   7.317   6.714
44519SOL    HW133583   8.784   7.322   6.660
44519SOL    HW233584   8.677   7.221   6.732
44520SOL     OW33585   7.531   6.844   6.608
44520SOL    HW133586   7.526   6.843   6.708
44520SOL    HW233587   7.448   6.803   6.570
44521SOL     OW33588   8.136   7.248   7.302
44521SOL    HW133589   8.080   7.329   7.311
44521SOL    HW233590   8.188   7.252   7.216
44522SOL     OW33591   9.174   5.721   6.109
44522SOL    HW133592   9.247   5.704   6.042
44522SOL    HW233593   9.143   5.634   6.147
44523SOL     OW33594   8.836   7.159   6.063
44523SOL    HW133595   8.903   7.171   5.989
44523SOL    HW233596   8.796   7.248   6.086
44524SOL     OW33597   7.578   7.380   7.437
44524SOL    HW133598   7.537   7.306   7.490
44524SOL    HW233599   7.642   7.431   7.495
44525SOL     OW33600   8.728   6.513   6.258
44525SOL    HW133601   8.788   6.432   6.260
44525SOL    HW233602   8.768   6.582   6.198
44526SOL     OW33603   8.278   6.859   7.008
44526SOL    HW133604   8.273   6.892   7.103
44526SOL    HW233605   8.192   6.878   6.962
44527SOL     OW33606   8.120   7.202   5.740
44527SOL    HW133607   8.129   7.212   5.641
44527SOL    HW233608   8.080   7.113   5.761
44528SOL     OW33609   9.098   7.306   6.980
44528SOL    HW133610   9.151   7.316   6.896
44528SOL    HW233611   9.071   7.396   7.014
44529SOL     OW33612   9.289   5.761   6.549
44529SOL    HW133613   9.328   5.676   6.513
44529SOL    HW233614   9.191   5.763   6.530
44530SOL     OW33615   7.711   5.912   6.306
44530SOL    HW133616   7.632   5.963   6.272
44530SOL    HW233617   7.702   5.897   6.404
44531SOL     OW33618   8.642   7.198   5.617
44531SOL    HW133619   8.648   7.105   5.654
44531SOL    HW233620   8.583   7.198   5.537
44532SOL     OW33621   8.270   6.588   6.958
44532SOL    HW133622   8.310   6.587   6.866
44532SOL    HW233623   8.280   6.680   6.998
44533SOL     OW33624   8.364   6.496   5.877
44533SOL    HW133625   8.427   6.534   5.809
44533SOL    HW233626   8.404   6.413   5.916
44534SOL     OW33627   8.952   7.193   5.630
44534SOL    HW133628   8.860   7.230   5.637
44534SOL    HW233629   8.990   7.213   5.540
44535SOL     OW33630   7.820   6.874   7.076
44535SOL    HW133631   7.807   6.967   7.042
44535SOL    HW233632   7.736   6.822   7.063
44536SOL     OW33633   9.062   6.878   6.875
44536SOL    HW133634   9.122   6.881   6.955
44536SOL    HW233635   8.987   6.942   6.888
44537SOL     OW33636   8.487   6.684   6.282
44537SOL    HW133637   8.417   6.637   6.336
44537SOL    HW233638   8.546   6.616   6.239
44538SOL     OW33639   8.462   5.822   6.557
44538SOL    HW133640   8.454   5.786   6.464
44538SOL    HW233641   8.460   5.746   6.622
44539SOL     OW33642   8.038   7.073   6.077
44539SOL    HW133643   8.080   7.015   6.007
44539SOL    HW233644   7.994   7.152   6.033
44540SOL     OW33645   9.157   5.971   6.967
44540SOL    HW133646   9.230   6.040   6.971
44540SOL    HW233647   9.185   5.896   6.908
44541SOL     OW33648   7.703   6.934   5.876
44541SOL    HW133649   7.607   6.935   5.849
44541SOL    HW233650   7.715   6.987   5.960
44542SOL     OW33651   7.553   6.599   7.312
44542SOL    HW133652   7.476   6.566   7.366
44542SOL    HW233653   7.638   6.569   7.354
44543SOL     OW33654   8.120   5.789   7.075
44543SOL    HW133655   8.210   5.773   7.035
44543SOL    HW233656   8.128   5.794   7.174
44544SOL     OW33657   7.523   5.931   5.619
44544SOL    HW133658   7.431   5.903   5.590
44544SOL    HW233659   7.554   6.008   5.563
44545SOL     OW33660   8.888   6.442   6.984
44545SOL    HW133661   8.831   6.494   6.921
44545SOL    HW233662   8.984   6.454   6.960
44546SOL     OW33663   7.520   5.752   5.904
44546SOL    HW133664   7.503   5.835   5.850
44546SOL    HW233665   7.610   5.715   5.882
44547SOL     OW33666   8.631   6.921   5.705
44547SOL    HW133667   8.532   6.910   5.707
44547SOL    HW233668   8.665   6.936   5.798
44548SOL     OW33669   8.061   6.428   7.017
44548SOL    HW133670   8.117   6.509   7.000
44548SOL    HW233671   8.120   6.348   7.020
44549SOL     OW33672   8.941   7.353   6.545
44549SOL    HW133673   8.974   7.417   6.476
44549SOL    HW233674   9.007   7.347   6.620
44550SOL     OW33675   8.164   6.151   7.294
44550SOL    HW133676   8.183   6.216   7.368
44550SOL    HW233677   8.224   6.071   7.303
44551SOL     OW33678   8.898   6.806   7.219
44551SOL    HW133679   8.889   6.796   7.318
44551SOL    HW233680   8.994   6.799   7.193
44552SOL     OW33681   7.838   7.327   7.146
44552SOL    HW133682   7.747   7.368   7.144
44552SOL    HW233683   7.831   7.233   7.178
44553SOL     OW33684   9.122   6.469   6.840
44553SOL    HW133685   9.095   6.380   6.803
44553SOL    HW233686   9.123   6.537   6.767
44554SOL     OW33687   8.673   5.911   6.035
44554SOL    HW133688   8.738   5.837   6.024
44554SOL    HW233689   8.693   5.961   6.119
44555SOL     OW33690   8.042   6.331   6.238
44555SOL    HW133691   8.092   6.416   6.219
44555SOL    HW233692   7.954   6.333   6.190
44556SOL     OW33693   9.225   5.928   7.228
44556SOL    HW133694   9.208   5.959   7.134
44556SOL    HW233695   9.141   5.891   7.266
44557SOL     OW33696   9.178   6.520   7.103
44557SOL    HW133697   9.216   6.611   7.118
44557SOL    HW233698   9.170   6.503   7.004
44558SOL     OW33699   8.307   6.960   5.602
44558SOL    HW133700   8.261   6.975   5.690
44558SOL    HW233701   8.351   7.045   5.572
44559SOL     OW33702   8.109   7.376   6.539
44559SOL    HW133703   8.063   7.464   6.526
44559SOL    HW233704   8.208   7.388   6.532
44560SOL     OW33705   8.307   6.542   6.447
44560SOL    HW133706   8.361   6.473   6.495
44560SOL    HW233707   8.275   6.611   6.513
44561SOL     OW33708   8.531   6.570   5.673
44561SOL    HW133709   8.508   6.623   5.591
44561SOL    HW233710   8.612   6.514   5.654
44562SOL     OW33711   9.309   7.155   6.437
44562SOL    HW133712   9.238   7.143   6.367
44562SOL    HW233713   9.310   7.076   6.497
44563SOL     OW33714   7.669   6.900   7.430
44563SOL    HW133715   7.604   6.827   7.409
44563SOL    HW233716   7.673   6.914   7.528
44564SOL     OW33717   7.527   6.826   6.239
44564SOL    HW133718   7.526   6.779   6.327
44564SOL    HW233719   7.609   6.798   6.188
44565SOL     OW33720   8.120   6.977   7.210
44565SOL    HW133721   8.042   6.927   7.248
44565SOL    HW233722   8.117   7.072   7.241
44566SOL     OW33723   9.272   5.778   6.813
44566SOL    HW133724   9.268   5.688   6.857
44566SOL    HW233725   9.275   5.767   6.714
44567SOL     OW33726   7.876   6.010   6.106
44567SOL    HW133727   7.906   5.938   6.044
44567SOL    HW233728   7.837   5.970   6.189
44568SOL     OW33729   9.153   7.073   6.690
44568SOL    HW133730   9.060   7.048   6.663
44568SOL    HW233731   9.179   7.023   6.772
44569SOL     OW33732   7.765   6.133   6.866
44569SOL    HW133733   7.803   6.074   6.938
44569SOL    HW233734   7.805   6.107   6.778
44570SOL     OW33735   8.260   7.172   6.273
44570SOL    HW133736   8.292   7.182   6.179
44570SOL    HW233737   8.181   7.110   6.275
44571SOL     OW33738   8.872   5.800   6.698
44571SOL    HW133739   8.924   5.735   6.753
44571SOL    HW233740   8.823   5.863   6.759
44572SOL     OW33741   8.449   5.620   6.740
44572SOL    HW133742   8.386   5.548   6.709
44572SOL    HW233743   8.542   5.584   6.740
44573SOL     OW33744   8.218   6.916   5.887
44573SOL    HW133745   8.172   6.829   5.904
44573SOL    HW233746   8.309   6.913   5.928
44574SOL     OW33747   8.066   7.153   6.870
44574SOL    HW133748   8.061   7.235   6.927
44574SOL    HW233749   8.155   7.150   6.825
44575SOL     OW33750   8.800   5.638   5.754
44575SOL    HW133751   8.835   5.597   5.670
44575SOL    HW233752   8.710   5.600   5.774
44576SOL     OW33753   8.748   6.039   6.277
44576SOL    HW133754   8.689   6.119   6.281
44576SOL    HW233755   8.763   6.004   6.370
44577SOL     OW33756   9.041   5.807   6.468
44577SOL    HW133757   8.957   5.806   6.522
44577SOL    HW233758   9.043   5.890   6.412
44578SOL     OW33759   7.487   6.663   5.886
44578SOL    HW133760   7.586   6.652   5.877
44578SOL    HW233761   7.447   6.577   5.918
44579SOL     OW33762   8.323   7.232   5.923
44579SOL    HW133763   8.246   7.197   5.869
44579SOL    HW233764   8.291   7.303   5.985
44580SOL     OW33765   7.678   6.214   7.561
44580SOL    HW133766   7.585   6.212   7.598
44580SOL    HW233767   7.679   6.175   7.469
44581SOL     OW33768   7.673   5.861   8.444
44581SOL    HW133769   7.708   5.844   8.536
44581SOL    HW233770   7.585   5.816   8.432
44582SOL     OW33771   7.467   5.954   8.095
44582SOL    HW133772   7.385   5.997   8.134
44582SOL    HW233773   7.439   5.881   8.032
44583SOL     OW33774   8.017   6.861   8.613
44583SOL    HW133775   7.924   6.854   8.576
44583SOL    HW233776   8.028   6.950   8.657
44584SOL     OW33777   9.003   7.097   8.151
44584SOL    HW133778   8.946   7.081   8.232
44584SOL    HW233779   8.944   7.107   8.071
44585SOL     OW33780   8.583   6.289   8.165
44585SOL    HW133781   8.640   6.367   8.140
44585SOL    HW233782   8.523   6.315   8.241
44586SOL     OW33783   9.203   6.193   7.679
44586SOL    HW133784   9.191   6.180   7.580
44586SOL    HW233785   9.173   6.112   7.728
44587SOL     OW33786   8.216   6.730   8.471
44587SOL    HW133787   8.138   6.747   8.531
44587SOL    HW233788   8.250   6.817   8.435
44588SOL     OW33789   8.298   6.384   9.271
44588SOL    HW133790   8.294   6.460   9.336
44588SOL    HW233791   8.320   6.420   9.180
44589SOL     OW33792   8.133   6.598   8.113
44589SOL    HW133793   8.202   6.582   8.183
44589SOL    HW233794   8.060   6.655   8.151
44590SOL     OW33795   8.134   6.747   9.251
44590SOL    HW133796   8.194   6.826   9.265
44590SOL    HW233797   8.048   6.778   9.210
44591SOL     OW33798   7.783   7.021   8.509
44591SOL    HW133799   7.705   6.990   8.456
44591SOL    HW233800   7.841   7.079   8.452
44592SOL     OW33801   8.908   7.091   8.787
44592SOL    HW133802   8.932   7.185   8.813
44592SOL    HW233803   8.892   7.037   8.869
44593SOL     OW33804   7.886   5.978   8.947
44593SOL    HW133805   7.968   5.922   8.956
44593SOL    HW233806   7.805   5.920   8.951
44594SOL     OW33807   9.051   6.033   8.185
44594SOL    HW133808   8.977   6.079   8.135
44594SOL    HW233809   9.102   6.101   8.238
44595SOL     OW33810   7.679   7.299   7.931
44595SOL    HW133811   7.713   7.376   7.985
44595SOL    HW233812   7.723   7.299   7.841
44596SOL     OW33813   8.575   6.927   9.138
44596SOL    HW133814   8.622   6.927   9.226
44596SOL    HW233815   8.527   6.840   9.127
44597SOL     OW33816   7.678   7.020   7.986
44597SOL    HW133817   7.652   7.116   7.986
44597SOL    HW233818   7.607   6.966   8.031
44598SOL     OW33819   7.688   6.677   8.334
44598SOL    HW133820   7.702   6.593   8.386
44598SOL    HW233821   7.633   6.741   8.389
44599SOL     OW33822   8.068   7.372   8.887
44599SOL    HW133823   7.976   7.355   8.922
44599SOL    HW233824   8.096   7.464   8.913
44600SOL     OW33825   8.054   6.550   7.571
44600SOL    HW133826   8.061   6.634   7.517
44600SOL    HW233827   8.100   6.563   7.659
44601SOL     OW33828   9.042   5.700   8.928
44601SOL    HW133829   9.024   5.767   8.856
44601SOL    HW233830   9.039   5.746   9.017
44602SOL     OW33831   7.570   6.229   8.011
44602SOL    HW133832   7.525   6.141   8.028
44602SOL    HW233833   7.569   6.283   8.095
44603SOL     OW33834   9.290   7.353   7.807
44603SOL    HW133835   9.344   7.324   7.887
44603SOL    HW233836   9.320   7.443   7.778
44604SOL     OW33837   7.475   7.182   7.565
44604SOL    HW133838   7.456   7.086   7.586
44604SOL    HW233839   7.442   7.240   7.640
44605SOL     OW33840   9.137   6.508   8.060
44605SOL    HW133841   9.232   6.479   8.068
44605SOL    HW233842   9.129   6.573   7.985
44606SOL     OW33843   9.089   6.694   7.880
44606SOL    HW133844   9.175   6.696   7.828
44606SOL    HW233845   9.103   6.741   7.968
44607SOL     OW33846   7.561   6.323   9.045
44607SOL    HW133847   7.649   6.310   9.090
44607SOL    HW233848   7.548   6.420   9.023
44608SOL     OW33849   8.061   6.951   8.174
44608SOL    HW133850   8.012   6.864   8.183
44608SOL    HW233851   8.038   6.994   8.087
44609SOL     OW33852   8.741   6.814   8.871
44609SOL    HW133853   8.778   6.741   8.813
44609SOL    HW233854   8.793   6.819   8.956
44610SOL     OW33855   8.257   5.590   7.950
44610SOL    HW133856   8.297   5.681   7.941
44610SOL    HW233857   8.157   5.598   7.956
44611SOL     OW33858   7.645   6.562   8.712
44611SOL    HW133859   7.734   6.517   8.698
44611SOL    HW233860   7.572   6.497   8.693
44612SOL     OW33861   8.973   6.585   7.638
44612SOL    HW133862   8.910   6.509   7.651
44612SOL    HW233863   9.021   6.603   7.724
44613SOL     OW33864   8.635   7.378   9.064
44613SOL    HW133865   8.659   7.438   8.988
44613SOL    HW233866   8.642   7.283   9.034
44614SOL     OW33867   7.765   5.837   9.249
44614SOL    HW133868   7.836   5.908   9.255
44614SOL    HW233869   7.677   5.876   9.277
44615SOL     OW33870   8.914   7.003   8.401
44615SOL    HW133871   8.855   7.009   8.481
44615SOL    HW233872   8.899   6.915   8.355
44616SOL     OW33873   9.115   7.300   8.020
44616SOL    HW133874   9.074   7.277   7.932
44616SOL    HW233875   9.097   7.226   8.085
44617SOL     OW33876   8.729   5.931   8.392
44617SOL    HW133877   8.643   5.881   8.379
44617SOL    HW233878   8.791   5.877   8.448
44618SOL     OW33879   9.024   7.248   7.755
44618SOL    HW133880   9.113   7.294   7.758
44618SOL    HW233881   9.003   7.224   7.660
44619SOL     OW33882   8.255   6.191   8.913
44619SOL    HW133883   8.208   6.188   9.002
44619SOL    HW233884   8.204   6.136   8.847
44620SOL     OW33885   8.842   6.055   9.122
44620SOL    HW133886   8.822   6.098   9.210
44620SOL    HW233887   8.920   5.993   9.131
44621SOL     OW33888   8.421   6.476   9.020
44621SOL    HW133889   8.467   6.392   8.991
44621SOL    HW233890   8.365   6.510   8.945
44622SOL     OW33891   8.439   5.996   8.690
44622SOL    HW133892   8.362   6.030   8.744
44622SOL    HW233893   8.405   5.945   8.611
44623SOL     OW33894   8.489   6.287   7.877
44623SOL    HW133895   8.515   6.283   7.973
44623SOL    HW233896   8.404   6.236   7.863
44624SOL     OW33897   7.524   6.397   8.237
44624SOL    HW133898   7.623   6.385   8.246
44624SOL    HW233899   7.500   6.492   8.258
44625SOL     OW33900   7.578   7.407   9.019
44625SOL    HW133901   7.568   7.392   9.118
44625SOL    HW233902   7.492   7.443   8.983
44626SOL     OW33903   8.313   5.934   7.643
44626SOL    HW133904   8.372   5.997   7.594
44626SOL    HW233905   8.332   5.840   7.614
44627SOL     OW33906   9.167   6.171   9.279
44627SOL    HW133907   9.141   6.260   9.243
44627SOL    HW233908   9.165   6.103   9.206
44628SOL     OW33909   8.810   6.730   7.993
44628SOL    HW133910   8.893   6.701   7.945
44628SOL    HW233911   8.761   6.797   7.937
44629SOL     OW33912   7.998   5.782   8.333
44629SOL    HW133913   7.993   5.777   8.433
44629SOL    HW233914   8.000   5.878   8.304
44630SOL     OW33915   8.456   7.042   7.925
44630SOL    HW133916   8.410   7.114   7.873
44630SOL    HW233917   8.452   7.062   8.023
44631SOL     OW33918   7.799   7.387   8.301
44631SOL    HW133919   7.849   7.301   8.307
44631SOL    HW233920   7.864   7.464   8.298
44632SOL     OW33921   9.243   6.652   8.321
44632SOL    HW133922   9.181   6.637   8.245
44632SOL    HW233923   9.191   6.663   8.406
44633SOL     OW33924   8.675   7.136   8.954
44633SOL    HW133925   8.681   7.059   9.018
44633SOL    HW233926   8.623   7.110   8.874
44634SOL     OW33927   7.769   6.529   7.690
44634SOL    HW133928   7.851   6.568   7.648
44634SOL    HW233929   7.742   6.447   7.641
44635SOL     OW33930   8.906   6.321   8.176
44635SOL    HW133931   8.901   6.256   8.251
44635SOL    HW233932   8.986   6.380   8.189
44636SOL     OW33933   7.909   6.852   9.175
44636SOL    HW133934   7.859   6.853   9.089
44636SOL    HW233935   7.846   6.834   9.251
44637SOL     OW33936   8.559   7.362   7.685
44637SOL    HW133937   8.499   7.300   7.735
44637SOL    HW233938   8.590   7.318   7.600
44638SOL     OW33939   7.650   5.871   8.946
44638SOL    HW133940   7.570   5.931   8.933
44638SOL    HW233941   7.640   5.822   9.032
44639SOL     OW33942   9.080   6.963   7.529
44639SOL    HW133943   9.048   7.057   7.519
44639SOL    HW233944   9.004   6.900   7.517
44640SOL     OW33945   7.912   7.329   7.771
44640SOL    HW133946   7.945   7.368   7.857
44640SOL    HW233947   7.988   7.322   7.706
44641SOL     OW33948   8.848   5.693   7.874
44641SOL    HW133949   8.824   5.656   7.784
44641SOL    HW233950   8.947   5.709   7.878
44642SOL     OW33951   7.697   7.371   8.689
44642SOL    HW133952   7.754   7.306   8.739
44642SOL    HW233953   7.681   7.338   8.596
44643SOL     OW33954   8.388   7.284   8.352
44643SOL    HW133955   8.468   7.227   8.373
44643SOL    HW233956   8.339   7.244   8.275
44644SOL     OW33957   7.830   6.286   7.928
44644SOL    HW133958   7.875   6.196   7.925
44644SOL    HW233959   7.736   6.275   7.961
44645SOL     OW33960   8.995   5.808   9.177
44645SOL    HW133961   8.990   5.845   9.269
44645SOL    HW233962   8.923   5.739   9.165
44646SOL     OW33963   8.062   5.708   7.565
44646SOL    HW133964   8.160   5.686   7.572
44646SOL    HW233965   8.031   5.691   7.472
44647SOL     OW33966   8.229   5.850   9.197
44647SOL    HW133967   8.296   5.789   9.240
44647SOL    HW233968   8.156   5.869   9.262
44648SOL     OW33969   8.336   7.100   8.643
44648SOL    HW133970   8.313   7.075   8.549
44648SOL    HW233971   8.397   7.031   8.682
44649SOL     OW33972   8.799   6.176   8.881
44649SOL    HW133973   8.827   6.133   8.966
44649SOL    HW233974   8.824   6.272   8.882
44650SOL     OW33975   8.251   6.988   8.372
44650SOL    HW133976   8.341   7.002   8.330
44650SOL    HW233977   8.180   6.990   8.301
44651SOL     OW33978   8.370   6.089   8.347
44651SOL    HW133979   8.345   6.080   8.251
44651SOL    HW233980   8.418   6.007   8.378
44652SOL     OW33981   7.987   5.650   7.960
44652SOL    HW133982   7.906   5.651   8.018
44652SOL    HW233983   7.990   5.733   7.905
44653SOL     OW33984   8.882   6.774   7.489
44653SOL    HW133985   8.914   6.698   7.546
44653SOL    HW233986   8.790   6.801   7.519
44654SOL     OW33987   7.745   5.621   7.619
44654SOL    HW133988   7.794   5.705   7.598
44654SOL    HW233989   7.807   5.556   7.664
44655SOL     OW33990   8.383   5.822   7.928
44655SOL    HW133991   8.335   5.863   7.850
44655SOL    HW233992   8.482   5.820   7.909
44656SOL     OW33993   8.524   6.269   8.912
44656SOL    HW133994   8.444   6.208   8.915
44656SOL    HW233995   8.605   6.216   8.888
44657SOL     OW33996   8.675   7.156   8.241
44657SOL    HW133997   8.696   7.230   8.176
44657SOL    HW233998   8.743   7.156   8.314
44658SOL     OW33999   7.907   6.738   8.189
44658SOL    HW134000   7.836   6.711   8.254
44658SOL    HW234001   7.881   6.710   8.096
44659SOL     OW34002   8.719   7.383   8.039
44659SOL    HW134003   8.763   7.447   7.975
44659SOL    HW234004   8.669   7.435   8.109
44660SOL     OW34005   8.480   6.135   7.464
44660SOL    HW134006   8.439   6.217   7.425
44660SOL    HW234007   8.544   6.161   7.537
44661SOL     OW34008   7.526   6.142   8.834
44661SOL    HW134009   7.618   6.141   8.793
44661SOL    HW234010   7.520   6.216   8.901
44662SOL     OW34011   8.009   5.808   8.595
44662SOL    HW134012   8.047   5.724   8.632
44662SOL    HW234013   7.921   5.827   8.639
44663SOL     OW34014   8.314   6.040   8.090
44663SOL    HW134015   8.282   6.112   8.028
44663SOL    HW234016   8.338   5.959   8.037
44664SOL     OW34017   8.465   5.625   8.201
44664SOL    HW134018   8.393   5.630   8.132
44664SOL    HW234019   8.441   5.556   8.270
44665SOL     OW34020   8.877   6.759   8.315
44665SOL    HW134021   8.822   6.675   8.308
44665SOL    HW234022   8.903   6.788   8.223
44666SOL     OW34023   8.914   6.176   8.440
44666SOL    HW134024   8.884   6.081   8.447
44666SOL    HW234025   8.987   6.192   8.506
44667SOL     OW34026   9.305   6.419   7.825
44667SOL    HW134027   9.347   6.355   7.889
44667SOL    HW234028   9.267   6.368   7.747
44668SOL     OW34029   7.936   6.971   7.622
44668SOL    HW134030   7.849   6.956   7.669
44668SOL    HW234031   7.919   6.997   7.527
44669SOL     OW34032   9.112   6.866   8.105
44669SOL    HW134033   9.211   6.874   8.119
44669SOL    HW234034   9.067   6.950   8.136
44670SOL     OW34035   8.838   6.161   7.526
44670SOL    HW134036   8.784   6.140   7.607
44670SOL    HW234037   8.929   6.120   7.535
44671SOL     OW34038   7.975   5.842   7.776
44671SOL    HW134039   8.002   5.783   7.701
44671SOL    HW234040   7.975   5.937   7.745
44672SOL     OW34041   9.202   6.809   9.036
44672SOL    HW134042   9.293   6.770   9.023
44672SOL    HW234043   9.210   6.905   9.060
44673SOL     OW34044   8.512   6.933   8.788
44673SOL    HW134045   8.432   6.910   8.843
44673SOL    HW234046   8.595   6.907   8.837
44674SOL     OW34047   9.040   7.215   9.073
44674SOL    HW134048   9.067   7.249   8.983
44674SOL    HW234049   9.119   7.177   9.119
44675SOL     OW34050   8.559   6.781   8.548
44675SOL    HW134051   8.519   6.825   8.629
44675SOL    HW234052   8.518   6.818   8.465
44676SOL     OW34053   9.086   6.685   8.527
44676SOL    HW134054   9.091   6.766   8.586
44676SOL    HW234055   9.000   6.687   8.476
44677SOL     OW34056   8.363   5.675   8.850
44677SOL    HW134057   8.388   5.655   8.755
44677SOL    HW234058   8.435   5.731   8.892
44678SOL     OW34059   8.428   6.702   9.167
44678SOL    HW134060   8.329   6.708   9.177
44678SOL    HW234061   8.451   6.622   9.111
44679SOL     OW34062   8.153   6.636   7.816
44679SOL    HW134063   8.139   6.643   7.915
44679SOL    HW234064   8.237   6.585   7.798
44680SOL     OW34065   7.858   6.399   8.699
44680SOL    HW134066   7.944   6.411   8.749
44680SOL    HW234067   7.816   6.312   8.726
44681SOL     OW34068   8.722   5.972   8.710
44681SOL    HW134069   8.743   6.046   8.774
44681SOL    HW234070   8.633   5.989   8.667
44682SOL     OW34071   7.512   7.150   8.779
44682SOL    HW134072   7.466   7.232   8.745
44682SOL    HW234073   7.610   7.169   8.788
44683SOL     OW34074   7.815   6.686   7.949
44683SOL    HW134075   7.808   6.769   7.893
44683SOL    HW234076   7.819   6.606   7.889
44684SOL     OW34077   8.014   6.123   8.313
44684SOL    HW134078   8.026   6.189   8.239
44684SOL    HW234079   8.060   6.157   8.396
44685SOL     OW34080   8.700   6.934   7.836
44685SOL    HW134081   8.750   7.011   7.876
44685SOL    HW234082   8.605   6.936   7.868
44686SOL     OW34083   8.720   7.031   8.590
44686SOL    HW134084   8.767   7.044   8.677
44686SOL    HW234085   8.654   6.957   8.599
44687SOL     OW34086   9.030   6.225   7.920
44687SOL    HW134087   8.999   6.286   7.993
44687SOL    HW234088   9.080   6.277   7.851
44688SOL     OW34089   7.802   7.096   8.777
44688SOL    HW134090   7.781   7.052   8.690
44688SOL    HW234091   7.899   7.122   8.780
44689SOL     OW34092   7.850   6.337   9.046
44689SOL    HW134093   7.918   6.392   8.999
44689SOL    HW234094   7.890   6.249   9.073
44690SOL     OW34095   9.035   6.365   9.118
44690SOL    HW134096   8.943   6.403   9.113
44690SOL    HW234097   9.095   6.412   9.053
44691SOL     OW34098   8.461   5.691   9.218
44691SOL    HW134099   8.467   5.776   9.166
44691SOL    HW234100   8.493   5.615   9.161
44692SOL     OW34101   7.952   5.636   9.188
44692SOL    HW134102   7.910   5.579   9.118
44692SOL    HW234103   7.886   5.705   9.220
44693SOL     OW34104   8.021   6.456   8.477
44693SOL    HW134105   8.065   6.545   8.468
44693SOL    HW234106   7.958   6.456   8.554
44694SOL     OW34107   8.808   6.448   8.493
44694SOL    HW134108   8.733   6.448   8.427
44694SOL    HW234109   8.845   6.356   8.502
44695SOL     OW34110   8.657   6.111   7.723
44695SOL    HW134111   8.670   6.027   7.777
44695SOL    HW234112   8.628   6.185   7.783
44696SOL     OW34113   7.755   5.799   8.679
44696SOL    HW134114   7.732   5.836   8.769
44696SOL    HW234115   7.725   5.704   8.673
44697SOL     OW34116   7.485   6.896   8.730
44697SOL    HW134117   7.538   6.847   8.798
44697SOL    HW234118   7.507   6.994   8.735
44698SOL     OW34119   8.180   6.220   8.512
44698SOL    HW134120   8.239   6.194   8.436
44698SOL    HW234121   8.152   6.316   8.501
44699SOL     OW34122   9.176   6.521   9.302
44699SOL    HW134123   9.130   6.514   9.213
44699SOL    HW234124   9.114   6.565   9.368
44700SOL     OW34125   7.755   5.649   8.066
44700SOL    HW134126   7.744   5.743   8.099
44700SOL    HW234127   7.750   5.586   8.143
44701SOL     OW34128   9.070   5.953   7.822
44701SOL    HW134129   9.072   5.877   7.886
44701SOL    HW234130   9.022   6.030   7.862
44702SOL     OW34131   8.471   6.352   8.414
44702SOL    HW134132   8.486   6.373   8.510
44702SOL    HW234133   8.441   6.257   8.405
44703SOL     OW34134   8.428   7.159   9.148
44703SOL    HW134135   8.408   7.203   9.060
44703SOL    HW234136   8.467   7.068   9.132
44704SOL     OW34137   9.307   7.104   9.053
44704SOL    HW134138   9.321   7.131   8.958
44704SOL    HW234139   9.390   7.126   9.106
44705SOL     OW34140   7.798   6.484   9.252
44705SOL    HW134141   7.874   6.528   9.300
44705SOL    HW234142   7.833   6.437   9.170
44706SOL     OW34143   8.988   5.860   7.573
44706SOL    HW134144   8.927   5.785   7.596
44706SOL    HW234145   9.010   5.912   7.656
44707SOL     OW34146   8.751   6.424   7.490
44707SOL    HW134147   8.785   6.331   7.505
44707SOL    HW234148   8.769   6.451   7.395
44708SOL     OW34149   8.516   6.919   8.297
44708SOL    HW134150   8.523   6.835   8.242
44708SOL    HW234151   8.578   6.988   8.261
44709SOL     OW34152   7.767   6.396   8.397
44709SOL    HW134153   7.860   6.432   8.402
44709SOL    HW234154   7.761   6.311   8.449
44710SOL     OW34155   7.787   6.095   8.454
44710SOL    HW134156   7.735   6.012   8.437
44710SOL    HW234157   7.864   6.100   8.390
44711SOL     OW34158   8.586   5.966   9.126
44711SOL    HW134159   8.541   6.029   9.190
44711SOL    HW234160   8.679   5.997   9.109
44712SOL     OW34161   8.608   5.793   8.925
44712SOL    HW134162   8.608   5.857   9.002
44712SOL    HW234163   8.636   5.841   8.842
44713SOL     OW34164   7.456   6.912   7.648
44713SOL    HW134165   7.363   6.933   7.617
44713SOL    HW234166   7.466   6.813   7.661
44714SOL     OW34167   7.536   7.387   8.375
44714SOL    HW134168   7.494   7.301   8.348
44714SOL    HW234169   7.630   7.390   8.341
44715SOL     OW34170   7.952   7.154   8.358
44715SOL    HW134171   8.018   7.228   8.367
44715SOL    HW234172   7.996   7.075   8.316
44716SOL     OW34173   8.450   6.382   8.686
44716SOL    HW134174   8.491   6.350   8.772
44716SOL    HW234175   8.354   6.355   8.683
44717SOL     OW34176   7.488   6.130   8.562
44717SOL    HW134177   7.573   6.097   8.521
44717SOL    HW234178   7.501   6.145   8.660
44718SOL     OW34179   7.637   6.106   9.170
44718SOL    HW134180   7.696   6.066   9.100
44718SOL    HW234181   7.579   6.177   9.129
44719SOL     OW34182   8.817   6.536   9.108
44719SOL    HW134183   8.856   6.625   9.128
44719SOL    HW234184   8.827   6.516   9.011
44720SOL     OW34185   8.263   6.158   7.773
44720SOL    HW134186   8.270   6.069   7.727
44720SOL    HW234187   8.169   6.192   7.765
44721SOL     OW34188   9.105   6.190   8.654
44721SOL    HW134189   9.067   6.121   8.716
44721SOL    HW234190   9.187   6.154   8.610
44722SOL     OW34191   7.700   7.150   9.192
44722SOL    HW134192   7.670   7.207   9.268
44722SOL    HW234193   7.693   7.053   9.218
44723SOL     OW34194   8.119   6.050   8.717
44723SOL    HW134195   8.085   5.961   8.687
44723SOL    HW234196   8.145   6.104   8.637
44724SOL     OW34197   8.378   7.264   8.913
44724SOL    HW134198   8.354   7.246   8.818
44724SOL    HW234199   8.408   7.358   8.923
44725SOL     OW34200   7.921   6.086   7.639
44725SOL    HW134201   7.982   6.166   7.643
44725SOL    HW234202   7.826   6.117   7.646
44726SOL     OW34203   7.607   6.723   8.914
44726SOL    HW134204   7.629   6.662   8.990
44726SOL    HW234205   7.617   6.674   8.828
44727SOL     OW34206   8.795   6.645   8.682
44727SOL    HW134207   8.819   6.582   8.608
44727SOL    HW234208   8.705   6.685   8.664
44728SOL     OW34209   8.750   6.441   7.757
44728SOL    HW134210   8.664   6.410   7.799
44728SOL    HW234211   8.746   6.427   7.658
44729SOL     OW34212   9.207   7.333   8.602
44729SOL    HW134213   9.268   7.363   8.529
44729SOL    HW234214   9.169   7.244   8.580
44730SOL     OW34215   8.700   7.317   8.576
44730SOL    HW134216   8.784   7.322   8.522
44730SOL    HW234217   8.677   7.221   8.594
44731SOL     OW34218   7.531   6.844   8.470
44731SOL    HW134219   7.526   6.843   8.570
44731SOL    HW234220   7.448   6.803   8.432
44732SOL     OW34221   8.136   7.248   9.164
44732SOL    HW134222   8.080   7.329   9.173
44732SOL    HW234223   8.188   7.252   9.078
44733SOL     OW34224   9.174   5.721   7.971
44733SOL    HW134225   9.247   5.704   7.904
44733SOL    HW234226   9.143   5.634   8.009
44734SOL     OW34227   8.836   7.159   7.925
44734SOL    HW134228   8.903   7.171   7.851
44734SOL    HW234229   8.796   7.248   7.948
44735SOL     OW34230   7.578   7.380   9.299
44735SOL    HW134231   7.537   7.306   9.352
44735SOL    HW234232   7.642   7.431   9.357
44736SOL     OW34233   8.728   6.513   8.120
44736SOL    HW134234   8.788   6.432   8.122
44736SOL    HW234235   8.768   6.582   8.060
44737SOL     OW34236   8.278   6.859   8.870
44737SOL    HW134237   8.273   6.892   8.965
44737SOL    HW234238   8.192   6.878   8.824
44738SOL     OW34239   8.120   7.202   7.602
44738SOL    HW134240   8.129   7.212   7.503
44738SOL    HW234241   8.080   7.113   7.623
44739SOL     OW34242   9.098   7.306   8.842
44739SOL    HW134243   9.151   7.316   8.758
44739SOL    HW234244   9.071   7.396   8.876
44740SOL     OW34245   9.289   5.761   8.411
44740SOL    HW134246   9.328   5.676   8.375
44740SOL    HW234247   9.191   5.763   8.392
44741SOL     OW34248   7.711   5.912   8.168
44741SOL    HW134249   7.632   5.963   8.134
44741SOL    HW234250   7.702   5.897   8.266
44742SOL     OW34251   8.642   7.198   7.479
44742SOL    HW134252   8.648   7.105   7.516
44742SOL    HW234253   8.583   7.198   7.399
44743SOL     OW34254   8.270   6.588   8.820
44743SOL    HW134255   8.310   6.587   8.728
44743SOL    HW234256   8.280   6.680   8.860
44744SOL     OW34257   8.364   6.496   7.739
44744SOL    HW134258   8.427   6.534   7.671
44744SOL    HW234259   8.404   6.413   7.778
44745SOL     OW34260   8.952   7.193   7.492
44745SOL    HW134261   8.860   7.230   7.499
44745SOL    HW234262   8.990   7.213   7.402
44746SOL     OW34263   7.820   6.874   8.938
44746SOL    HW134264   7.807   6.967   8.904
44746SOL    HW234265   7.736   6.822   8.925
44747SOL     OW34266   9.062   6.878   8.737
44747SOL    HW134267   9.122   6.881   8.817
44747SOL    HW234268   8.987   6.942   8.750
44748SOL     OW34269   8.487   6.684   8.144
44748SOL    HW134270   8.417   6.637   8.198
44748SOL    HW234271   8.546   6.616   8.101
44749SOL     OW34272   8.462   5.822   8.419
44749SOL    HW134273   8.454   5.786   8.326
44749SOL    HW234274   8.460   5.746   8.484
44750SOL     OW34275   8.038   7.073   7.939
44750SOL    HW134276   8.080   7.015   7.869
44750SOL    HW234277   7.994   7.152   7.895
44751SOL     OW34278   9.157   5.971   8.829
44751SOL    HW134279   9.230   6.040   8.833
44751SOL    HW234280   9.185   5.896   8.770
44752SOL     OW34281   7.703   6.934   7.738
44752SOL    HW134282   7.607   6.935   7.711
44752SOL    HW234283   7.715   6.987   7.822
44753SOL     OW34284   7.553   6.599   9.174
44753SOL    HW134285   7.476   6.566   9.228
44753SOL    HW234286   7.638   6.569   9.216
44754SOL     OW34287   8.120   5.789   8.937
44754SOL    HW134288   8.210   5.773   8.897
44754SOL    HW234289   8.128   5.794   9.036
44755SOL     OW34290   7.523   5.931   7.481
44755SOL    HW134291   7.431   5.903   7.452
44755SOL    HW234292   7.554   6.008   7.425
44756SOL     OW34293   8.888   6.442   8.846
44756SOL    HW134294   8.831   6.494   8.783
44756SOL    HW234295   8.984   6.454   8.822
44757SOL     OW34296   7.520   5.752   7.766
44757SOL    HW134297   7.503   5.835   7.712
44757SOL    HW234298   7.610   5.715   7.744
44758SOL     OW34299   8.631   6.921   7.567
44758SOL    HW134300   8.532   6.910   7.569
44758SOL    HW234301   8.665   6.936   7.660
44759SOL     OW34302   8.061   6.428   8.879
44759SOL    HW134303   8.117   6.509   8.862
44759SOL    HW234304   8.120   6.348   8.882
44760SOL     OW34305   8.941   7.353   8.407
44760SOL    HW134306   8.974   7.417   8.338
44760SOL    HW234307   9.007   7.347   8.482
44761SOL     OW34308   8.164   6.151   9.156
44761SOL    HW134309   8.183   6.216   9.230
44761SOL    HW234310   8.224   6.071   9.165
44762SOL     OW34311   8.898   6.806   9.081
44762SOL    HW134312   8.889   6.796   9.180
44762SOL    HW234313   8.994   6.799   9.055
44763SOL     OW34314   7.838   7.327   9.008
44763SOL    HW134315   7.747   7.368   9.006
44763SOL    HW234316   7.831   7.233   9.040
44764SOL     OW34317   9.122   6.469   8.702
44764SOL    HW134318   9.095   6.380   8.665
44764SOL    HW234319   9.123   6.537   8.629
44765SOL     OW34320   8.673   5.911   7.897
44765SOL    HW134321   8.738   5.837   7.886
44765SOL    HW234322   8.693   5.961   7.981
44766SOL     OW34323   8.042   6.331   8.100
44766SOL    HW134324   8.092   6.416   8.081
44766SOL    HW234325   7.954   6.333   8.052
44767SOL     OW34326   9.225   5.928   9.090
44767SOL    HW134327   9.208   5.959   8.996
44767SOL    HW234328   9.141   5.891   9.128
44768SOL     OW34329   9.178   6.520   8.965
44768SOL    HW134330   9.216   6.611   8.980
44768SOL    HW234331   9.170   6.503   8.866
44769SOL     OW34332   8.307   6.960   7.464
44769SOL    HW134333   8.261   6.975   7.552
44769SOL    HW234334   8.351   7.045   7.434
44770SOL     OW34335   8.109   7.376   8.401
44770SOL    HW134336   8.063   7.464   8.388
44770SOL    HW234337   8.208   7.388   8.394
44771SOL     OW34338   8.307   6.542   8.309
44771SOL    HW134339   8.361   6.473   8.357
44771SOL    HW234340   8.275   6.611   8.375
44772SOL     OW34341   8.531   6.570   7.535
44772SOL    HW134342   8.508   6.623   7.453
44772SOL    HW234343   8.612   6.514   7.516
44773SOL     OW34344   9.309   7.155   8.299
44773SOL    HW134345   9.238   7.143   8.229
44773SOL    HW234346   9.310   7.076   8.359
44774SOL     OW34347   7.669   6.900   9.292
44774SOL    HW134348   7.604   6.827   9.271
44774SOL    HW234349   7.673   6.914   9.390
44775SOL     OW34350   7.527   6.826   8.101
44775SOL    HW134351   7.526   6.779   8.189
44775SOL    HW234352   7.609   6.798   8.050
44776SOL     OW34353   8.120   6.977   9.072
44776SOL    HW134354   8.042   6.927   9.110
44776SOL    HW234355   8.117   7.072   9.103
44777SOL     OW34356   9.272   5.778   8.675
44777SOL    HW134357   9.268   5.688   8.719
44777SOL    HW234358   9.275   5.767   8.576
44778SOL     OW34359   7.876   6.010   7.968
44778SOL    HW134360   7.906   5.938   7.906
44778SOL    HW234361   7.837   5.970   8.051
44779SOL     OW34362   9.153   7.073   8.552
44779SOL    HW134363   9.060   7.048   8.525
44779SOL    HW234364   9.179   7.023   8.634
44780SOL     OW34365   8.260   7.172   8.135
44780SOL    HW134366   8.292   7.182   8.041
44780SOL    HW234367   8.181   7.110   8.137
44781SOL     OW34368   8.872   5.800   8.560
44781SOL    HW134369   8.924   5.735   8.615
44781SOL    HW234370   8.823   5.863   8.621
44782SOL     OW34371   8.449   5.620   8.602
44782SOL    HW134372   8.386   5.548   8.571
44782SOL    HW234373   8.542   5.584   8.602
44783SOL     OW34374   8.218   6.916   7.749
44783SOL    HW134375   8.172   6.829   7.766
44783SOL    HW234376   8.309   6.913   7.790
44784SOL     OW34377   8.066   7.153   8.732
44784SOL    HW134378   8.061   7.235   8.789
44784SOL    HW234379   8.155   7.150   8.687
44785SOL     OW34380   8.800   5.638   7.616
44785SOL    HW134381   8.835   5.597   7.532
44785SOL    HW234382   8.710   5.600   7.636
44786SOL     OW34383   8.748   6.039   8.139
44786SOL    HW134384   8.689   6.119   8.143
44786SOL    HW234385   8.763   6.004   8.232
44787SOL     OW34386   9.041   5.807   8.330
44787SOL    HW134387   8.957   5.806   8.384
44787SOL    HW234388   9.043   5.890   8.274
44788SOL     OW34389   7.487   6.663   7.748
44788SOL    HW134390   7.586   6.652   7.739
44788SOL    HW234391   7.447   6.577   7.780
44789SOL     OW34392   8.323   7.232   7.785
44789SOL    HW134393   8.246   7.197   7.731
44789SOL    HW234394   8.291   7.303   7.847
44790SOL     OW34395   7.678   6.214   9.423
44790SOL    HW134396   7.585   6.212   9.460
44790SOL    HW234397   7.679   6.175   9.331
44791SOL     OW34398   7.673   5.861  10.306
44791SOL    HW134399   7.708   5.844  10.398
44791SOL    HW234400   7.585   5.816  10.294
44792SOL     OW34401   7.467   5.954   9.957
44792SOL    HW134402   7.385   5.997   9.996
44792SOL    HW234403   7.439   5.881   9.894
44793SOL     OW34404   8.017   6.861  10.475
44793SOL    HW134405   7.924   6.854  10.438
44793SOL    HW234406   8.028   6.950  10.519
44794SOL     OW34407   9.003   7.097  10.013
44794SOL    HW134408   8.946   7.081  10.094
44794SOL    HW234409   8.944   7.107   9.933
44795SOL     OW34410   8.583   6.289  10.027
44795SOL    HW134411   8.640   6.367  10.002
44795SOL    HW234412   8.523   6.315  10.103
44796SOL     OW34413   9.203   6.193   9.541
44796SOL    HW134414   9.191   6.180   9.442
44796SOL    HW234415   9.173   6.112   9.590
44797SOL     OW34416   8.216   6.730  10.333
44797SOL    HW134417   8.138   6.747  10.393
44797SOL    HW234418   8.250   6.817  10.297
44798SOL     OW34419   8.298   6.384  11.133
44798SOL    HW134420   8.294   6.460  11.198
44798SOL    HW234421   8.320   6.420  11.042
44799SOL     OW34422   8.133   6.598   9.975
44799SOL    HW134423   8.202   6.582  10.045
44799SOL    HW234424   8.060   6.655  10.013
44800SOL     OW34425   8.134   6.747  11.113
44800SOL    HW134426   8.194   6.826  11.127
44800SOL    HW234427   8.048   6.778  11.072
44801SOL     OW34428   7.783   7.021  10.371
44801SOL    HW134429   7.705   6.990  10.318
44801SOL    HW234430   7.841   7.079  10.314
44802SOL     OW34431   8.908   7.091  10.649
44802SOL    HW134432   8.932   7.185  10.675
44802SOL    HW234433   8.892   7.037  10.731
44803SOL     OW34434   7.886   5.978  10.809
44803SOL    HW134435   7.968   5.922  10.818
44803SOL    HW234436   7.805   5.920  10.813
44804SOL     OW34437   9.051   6.033  10.047
44804SOL    HW134438   8.977   6.079   9.997
44804SOL    HW234439   9.102   6.101  10.100
44805SOL     OW34440   7.679   7.299   9.793
44805SOL    HW134441   7.713   7.376   9.847
44805SOL    HW234442   7.723   7.299   9.703
44806SOL     OW34443   8.575   6.927  11.000
44806SOL    HW134444   8.622   6.927  11.088
44806SOL    HW234445   8.527   6.840  10.989
44807SOL     OW34446   7.678   7.020   9.848
44807SOL    HW134447   7.652   7.116   9.848
44807SOL    HW234448   7.607   6.966   9.893
44808SOL     OW34449   7.688   6.677  10.196
44808SOL    HW134450   7.702   6.593  10.248
44808SOL    HW234451   7.633   6.741  10.251
44809SOL     OW34452   8.068   7.372  10.749
44809SOL    HW134453   7.976   7.355  10.784
44809SOL    HW234454   8.096   7.464  10.775
44810SOL     OW34455   8.054   6.550   9.433
44810SOL    HW134456   8.061   6.634   9.379
44810SOL    HW234457   8.100   6.563   9.521
44811SOL     OW34458   9.042   5.700  10.790
44811SOL    HW134459   9.024   5.767  10.718
44811SOL    HW234460   9.039   5.746  10.879
44812SOL     OW34461   7.570   6.229   9.873
44812SOL    HW134462   7.525   6.141   9.890
44812SOL    HW234463   7.569   6.283   9.957
44813SOL     OW34464   9.290   7.353   9.669
44813SOL    HW134465   9.344   7.324   9.749
44813SOL    HW234466   9.320   7.443   9.640
44814SOL     OW34467   7.475   7.182   9.427
44814SOL    HW134468   7.456   7.086   9.448
44814SOL    HW234469   7.442   7.240   9.502
44815SOL     OW34470   9.137   6.508   9.922
44815SOL    HW134471   9.232   6.479   9.930
44815SOL    HW234472   9.129   6.573   9.847
44816SOL     OW34473   9.089   6.694   9.742
44816SOL    HW134474   9.175   6.696   9.690
44816SOL    HW234475   9.103   6.741   9.830
44817SOL     OW34476   7.561   6.323  10.907
44817SOL    HW134477   7.649   6.310  10.952
44817SOL    HW234478   7.548   6.420  10.885
44818SOL     OW34479   8.061   6.951  10.036
44818SOL    HW134480   8.012   6.864  10.045
44818SOL    HW234481   8.038   6.994   9.949
44819SOL     OW34482   8.741   6.814  10.733
44819SOL    HW134483   8.778   6.741  10.675
44819SOL    HW234484   8.793   6.819  10.818
44820SOL     OW34485   8.257   5.590   9.812
44820SOL    HW134486   8.297   5.681   9.803
44820SOL    HW234487   8.157   5.598   9.818
44821SOL     OW34488   7.645   6.562  10.574
44821SOL    HW134489   7.734   6.517  10.560
44821SOL    HW234490   7.572   6.497  10.555
44822SOL     OW34491   8.973   6.585   9.500
44822SOL    HW134492   8.910   6.509   9.513
44822SOL    HW234493   9.021   6.603   9.586
44823SOL     OW34494   8.635   7.378  10.926
44823SOL    HW134495   8.659   7.438  10.850
44823SOL    HW234496   8.642   7.283  10.896
44824SOL     OW34497   7.765   5.837  11.111
44824SOL    HW134498   7.836   5.908  11.117
44824SOL    HW234499   7.677   5.876  11.139
44825SOL     OW34500   8.914   7.003  10.263
44825SOL    HW134501   8.855   7.009  10.343
44825SOL    HW234502   8.899   6.915  10.217
44826SOL     OW34503   9.115   7.300   9.882
44826SOL    HW134504   9.074   7.277   9.794
44826SOL    HW234505   9.097   7.226   9.947
44827SOL     OW34506   8.046   6.315   9.580
44827SOL    HW134507   8.070   6.384   9.512
44827SOL    HW234508   7.968   6.348   9.634
44828SOL     OW34509   8.729   5.931  10.254
44828SOL    HW134510   8.643   5.881  10.241
44828SOL    HW234511   8.791   5.877  10.310
44829SOL     OW34512   9.024   7.248   9.617
44829SOL    HW134513   9.113   7.294   9.620
44829SOL    HW234514   9.003   7.224   9.522
44830SOL     OW34515   8.255   6.191  10.775
44830SOL    HW134516   8.208   6.188  10.864
44830SOL    HW234517   8.204   6.136  10.709
44831SOL     OW34518   8.842   6.055  10.984
44831SOL    HW134519   8.822   6.098  11.072
44831SOL    HW234520   8.920   5.993  10.993
44832SOL     OW34521   8.421   6.476  10.882
44832SOL    HW134522   8.467   6.392  10.853
44832SOL    HW234523   8.365   6.510  10.807
44833SOL     OW34524   8.439   5.996  10.552
44833SOL    HW134525   8.362   6.030  10.606
44833SOL    HW234526   8.405   5.945  10.473
44834SOL     OW34527   8.489   6.287   9.739
44834SOL    HW134528   8.515   6.283   9.835
44834SOL    HW234529   8.404   6.236   9.725
44835SOL     OW34530   7.524   6.397  10.099
44835SOL    HW134531   7.623   6.385  10.108
44835SOL    HW234532   7.500   6.492  10.120
44836SOL     OW34533   7.578   7.407  10.881
44836SOL    HW134534   7.568   7.392  10.980
44836SOL    HW234535   7.492   7.443  10.845
44837SOL     OW34536   8.313   5.934   9.505
44837SOL    HW134537   8.372   5.997   9.456
44837SOL    HW234538   8.332   5.840   9.476
44838SOL     OW34539   9.167   6.171  11.141
44838SOL    HW134540   9.141   6.260  11.105
44838SOL    HW234541   9.165   6.103  11.068
44839SOL     OW34542   8.810   6.730   9.855
44839SOL    HW134543   8.893   6.701   9.807
44839SOL    HW234544   8.761   6.797   9.799
44840SOL     OW34545   7.998   5.782  10.195
44840SOL    HW134546   7.993   5.777  10.295
44840SOL    HW234547   8.000   5.878  10.166
44841SOL     OW34548   8.456   7.042   9.787
44841SOL    HW134549   8.410   7.114   9.735
44841SOL    HW234550   8.452   7.062   9.885
44842SOL     OW34551   7.799   7.387  10.163
44842SOL    HW134552   7.849   7.301  10.169
44842SOL    HW234553   7.864   7.464  10.160
44843SOL     OW34554   9.243   6.652  10.183
44843SOL    HW134555   9.181   6.637  10.107
44843SOL    HW234556   9.191   6.663  10.268
44844SOL     OW34557   8.675   7.136  10.816
44844SOL    HW134558   8.681   7.059  10.880
44844SOL    HW234559   8.623   7.110  10.736
44845SOL     OW34560   7.769   6.529   9.552
44845SOL    HW134561   7.851   6.568   9.510
44845SOL    HW234562   7.742   6.447   9.503
44846SOL     OW34563   8.906   6.321  10.038
44846SOL    HW134564   8.901   6.256  10.113
44846SOL    HW234565   8.986   6.380  10.051
44847SOL     OW34566   7.909   6.852  11.037
44847SOL    HW134567   7.859   6.853  10.951
44847SOL    HW234568   7.846   6.834  11.113
44848SOL     OW34569   8.559   7.362   9.547
44848SOL    HW134570   8.499   7.300   9.597
44848SOL    HW234571   8.590   7.318   9.462
44849SOL     OW34572   7.650   5.871  10.808
44849SOL    HW134573   7.570   5.931  10.795
44849SOL    HW234574   7.640   5.822  10.894
44850SOL     OW34575   9.080   6.963   9.391
44850SOL    HW134576   9.048   7.057   9.381
44850SOL    HW234577   9.004   6.900   9.379
44851SOL     OW34578   7.912   7.329   9.633
44851SOL    HW134579   7.945   7.368   9.719
44851SOL    HW234580   7.988   7.322   9.568
44852SOL     OW34581   8.848   5.693   9.736
44852SOL    HW134582   8.824   5.656   9.646
44852SOL    HW234583   8.947   5.709   9.740
44853SOL     OW34584   7.697   7.371  10.551
44853SOL    HW134585   7.754   7.306  10.601
44853SOL    HW234586   7.681   7.338  10.458
44854SOL     OW34587   8.388   7.284  10.214
44854SOL    HW134588   8.468   7.227  10.235
44854SOL    HW234589   8.339   7.244  10.137
44855SOL     OW34590   7.830   6.286   9.790
44855SOL    HW134591   7.875   6.196   9.787
44855SOL    HW234592   7.736   6.275   9.823
44856SOL     OW34593   8.995   5.808  11.039
44856SOL    HW134594   8.990   5.845  11.131
44856SOL    HW234595   8.923   5.739  11.027
44857SOL     OW34596   8.062   5.708   9.427
44857SOL    HW134597   8.160   5.686   9.434
44857SOL    HW234598   8.031   5.691   9.334
44858SOL     OW34599   8.229   5.850  11.059
44858SOL    HW134600   8.296   5.789  11.102
44858SOL    HW234601   8.156   5.869  11.124
44859SOL     OW34602   8.336   7.100  10.505
44859SOL    HW134603   8.313   7.075  10.411
44859SOL    HW234604   8.397   7.031  10.544
44860SOL     OW34605   8.799   6.176  10.743
44860SOL    HW134606   8.827   6.133  10.828
44860SOL    HW234607   8.824   6.272  10.744
44861SOL     OW34608   8.251   6.988  10.234
44861SOL    HW134609   8.341   7.002  10.192
44861SOL    HW234610   8.180   6.990  10.163
44862SOL     OW34611   8.370   6.089  10.209
44862SOL    HW134612   8.345   6.080  10.113
44862SOL    HW234613   8.418   6.007  10.240
44863SOL     OW34614   7.987   5.650   9.822
44863SOL    HW134615   7.906   5.651   9.880
44863SOL    HW234616   7.990   5.733   9.767
44864SOL     OW34617   8.882   6.774   9.351
44864SOL    HW134618   8.914   6.698   9.408
44864SOL    HW234619   8.790   6.801   9.381
44865SOL     OW34620   7.745   5.621   9.481
44865SOL    HW134621   7.794   5.705   9.460
44865SOL    HW234622   7.807   5.556   9.526
44866SOL     OW34623   8.383   5.822   9.790
44866SOL    HW134624   8.335   5.863   9.712
44866SOL    HW234625   8.482   5.820   9.771
44867SOL     OW34626   8.524   6.269  10.774
44867SOL    HW134627   8.444   6.208  10.777
44867SOL    HW234628   8.605   6.216  10.750
44868SOL     OW34629   8.675   7.156  10.103
44868SOL    HW134630   8.696   7.230  10.038
44868SOL    HW234631   8.743   7.156  10.176
44869SOL     OW34632   7.907   6.738  10.051
44869SOL    HW134633   7.836   6.711  10.116
44869SOL    HW234634   7.881   6.710   9.958
44870SOL     OW34635   8.719   7.383   9.901
44870SOL    HW134636   8.763   7.447   9.837
44870SOL    HW234637   8.669   7.435   9.971
44871SOL     OW34638   8.480   6.135   9.326
44871SOL    HW134639   8.439   6.217   9.287
44871SOL    HW234640   8.544   6.161   9.399
44872SOL     OW34641   7.526   6.142  10.696
44872SOL    HW134642   7.618   6.141  10.655
44872SOL    HW234643   7.520   6.216  10.763
44873SOL     OW34644   8.009   5.808  10.457
44873SOL    HW134645   8.047   5.724  10.494
44873SOL    HW234646   7.921   5.827  10.501
44874SOL     OW34647   8.314   6.040   9.952
44874SOL    HW134648   8.282   6.112   9.890
44874SOL    HW234649   8.338   5.959   9.899
44875SOL     OW34650   8.465   5.625  10.063
44875SOL    HW134651   8.393   5.630   9.994
44875SOL    HW234652   8.441   5.556  10.132
44876SOL     OW34653   8.877   6.759  10.177
44876SOL    HW134654   8.822   6.675  10.170
44876SOL    HW234655   8.903   6.788  10.085
44877SOL     OW34656   8.914   6.176  10.302
44877SOL    HW134657   8.884   6.081  10.309
44877SOL    HW234658   8.987   6.192  10.368
44878SOL     OW34659   9.305   6.419   9.687
44878SOL    HW134660   9.347   6.355   9.751
44878SOL    HW234661   9.267   6.368   9.609
44879SOL     OW34662   7.936   6.971   9.484
44879SOL    HW134663   7.849   6.956   9.531
44879SOL    HW234664   7.919   6.997   9.389
44880SOL     OW34665   9.112   6.866   9.967
44880SOL    HW134666   9.211   6.874   9.981
44880SOL    HW234667   9.067   6.950   9.998
44881SOL     OW34668   8.838   6.161   9.388
44881SOL    HW134669   8.784   6.140   9.469
44881SOL    HW234670   8.929   6.120   9.397
44882SOL     OW34671   7.975   5.842   9.638
44882SOL    HW134672   8.002   5.783   9.563
44882SOL    HW234673   7.975   5.937   9.607
44883SOL     OW34674   9.202   6.809  10.898
44883SOL    HW134675   9.293   6.770  10.885
44883SOL    HW234676   9.210   6.905  10.922
44884SOL     OW34677   8.512   6.933  10.650
44884SOL    HW134678   8.432   6.910  10.705
44884SOL    HW234679   8.595   6.907  10.699
44885SOL     OW34680   9.040   7.215  10.935
44885SOL    HW134681   9.067   7.249  10.845
44885SOL    HW234682   9.119   7.177  10.981
44886SOL     OW34683   8.559   6.781  10.410
44886SOL    HW134684   8.519   6.825  10.491
44886SOL    HW234685   8.518   6.818  10.327
44887SOL     OW34686   9.086   6.685  10.389
44887SOL    HW134687   9.091   6.766  10.448
44887SOL    HW234688   9.000   6.687  10.338
44888SOL     OW34689   8.363   5.675  10.712
44888SOL    HW134690   8.388   5.655  10.617
44888SOL    HW234691   8.435   5.731  10.754
44889SOL     OW34692   8.428   6.702  11.029
44889SOL    HW134693   8.329   6.708  11.039
44889SOL    HW234694   8.451   6.622  10.973
44890SOL     OW34695   8.153   6.636   9.678
44890SOL    HW134696   8.139   6.643   9.777
44890SOL    HW234697   8.237   6.585   9.660
44891SOL     OW34698   7.858   6.399  10.561
44891SOL    HW134699   7.944   6.411  10.611
44891SOL    HW234700   7.816   6.312  10.588
44892SOL     OW34701   8.722   5.972  10.572
44892SOL    HW134702   8.743   6.046  10.636
44892SOL    HW234703   8.633   5.989  10.529
44893SOL     OW34704   7.512   7.150  10.641
44893SOL    HW134705   7.466   7.232  10.607
44893SOL    HW234706   7.610   7.169  10.650
44894SOL     OW34707   7.815   6.686   9.811
44894SOL    HW134708   7.808   6.769   9.755
44894SOL    HW234709   7.819   6.606   9.751
44895SOL     OW34710   8.014   6.123  10.175
44895SOL    HW134711   8.026   6.189  10.101
44895SOL    HW234712   8.060   6.157  10.258
44896SOL     OW34713   8.700   6.934   9.698
44896SOL    HW134714   8.750   7.011   9.738
44896SOL    HW234715   8.605   6.936   9.730
44897SOL     OW34716   8.720   7.031  10.452
44897SOL    HW134717   8.767   7.044  10.539
44897SOL    HW234718   8.654   6.957  10.461
44898SOL     OW34719   9.030   6.225   9.782
44898SOL    HW134720   8.999   6.286   9.855
44898SOL    HW234721   9.080   6.277   9.713
44899SOL     OW34722   7.802   7.096  10.639
44899SOL    HW134723   7.781   7.052  10.552
44899SOL    HW234724   7.899   7.122  10.642
44900SOL     OW34725   7.850   6.337  10.908
44900SOL    HW134726   7.918   6.392  10.861
44900SOL    HW234727   7.890   6.249  10.935
44901SOL     OW34728   9.035   6.365  10.980
44901SOL    HW134729   8.943   6.403  10.975
44901SOL    HW234730   9.095   6.412  10.915
44902SOL     OW34731   8.461   5.691  11.080
44902SOL    HW134732   8.467   5.776  11.028
44902SOL    HW234733   8.493   5.615  11.023
44903SOL     OW34734   7.952   5.636  11.050
44903SOL    HW134735   7.910   5.579  10.980
44903SOL    HW234736   7.886   5.705  11.082
44904SOL     OW34737   8.021   6.456  10.339
44904SOL    HW134738   8.065   6.545  10.330
44904SOL    HW234739   7.958   6.456  10.416
44905SOL     OW34740   8.808   6.448  10.355
44905SOL    HW134741   8.733   6.448  10.289
44905SOL    HW234742   8.845   6.356  10.364
44906SOL     OW34743   8.657   6.111   9.585
44906SOL    HW134744   8.670   6.027   9.639
44906SOL    HW234745   8.628   6.185   9.645
44907SOL     OW34746   7.755   5.799  10.541
44907SOL    HW134747   7.732   5.836  10.631
44907SOL    HW234748   7.725   5.704  10.535
44908SOL     OW34749   7.485   6.896  10.592
44908SOL    HW134750   7.538   6.847  10.660
44908SOL    HW234751   7.507   6.994  10.597
44909SOL     OW34752   8.180   6.220  10.374
44909SOL    HW134753   8.239   6.194  10.298
44909SOL    HW234754   8.152   6.316  10.363
44910SOL     OW34755   9.176   6.521  11.164
44910SOL    HW134756   9.130   6.514  11.075
44910SOL    HW234757   9.114   6.565  11.230
44911SOL     OW34758   7.755   5.649   9.928
44911SOL    HW134759   7.744   5.743   9.961
44911SOL    HW234760   7.750   5.586  10.005
44912SOL     OW34761   9.070   5.953   9.684
44912SOL    HW134762   9.072   5.877   9.748
44912SOL    HW234763   9.022   6.030   9.724
44913SOL     OW34764   8.471   6.352  10.276
44913SOL    HW134765   8.486   6.373  10.372
44913SOL    HW234766   8.441   6.257  10.267
44914SOL     OW34767   8.428   7.159  11.010
44914SOL    HW134768   8.408   7.203  10.922
44914SOL    HW234769   8.467   7.068  10.994
44915SOL     OW34770   9.307   7.104  10.915
44915SOL    HW134771   9.321   7.131  10.820
44915SOL    HW234772   9.390   7.126  10.968
44916SOL     OW34773   7.798   6.484  11.114
44916SOL    HW134774   7.874   6.528  11.162
44916SOL    HW234775   7.833   6.437  11.032
44917SOL     OW34776   8.988   5.860   9.435
44917SOL    HW134777   8.927   5.785   9.458
44917SOL    HW234778   9.010   5.912   9.518
44918SOL     OW34779   8.751   6.424   9.352
44918SOL    HW134780   8.785   6.331   9.367
44918SOL    HW234781   8.769   6.451   9.257
44919SOL     OW34782   8.516   6.919  10.159
44919SOL    HW134783   8.523   6.835  10.104
44919SOL    HW234784   8.578   6.988  10.123
44920SOL     OW34785   7.767   6.396  10.259
44920SOL    HW134786   7.860   6.432  10.264
44920SOL    HW234787   7.761   6.311  10.311
44921SOL     OW34788   7.787   6.095  10.316
44921SOL    HW134789   7.735   6.012  10.299
44921SOL    HW234790   7.864   6.100  10.252
44922SOL     OW34791   8.586   5.966  10.988
44922SOL    HW134792   8.541   6.029  11.052
44922SOL    HW234793   8.679   5.997  10.971
44923SOL     OW34794   8.608   5.793  10.787
44923SOL    HW134795   8.608   5.857  10.864
44923SOL    HW234796   8.636   5.841  10.704
44924SOL     OW34797   7.456   6.912   9.510
44924SOL    HW134798   7.363   6.933   9.479
44924SOL    HW234799   7.466   6.813   9.523
44925SOL     OW34800   7.536   7.387  10.237
44925SOL    HW134801   7.494   7.301  10.210
44925SOL    HW234802   7.630   7.390  10.203
44926SOL     OW34803   7.952   7.154  10.220
44926SOL    HW134804   8.018   7.228  10.229
44926SOL    HW234805   7.996   7.075  10.178
44927SOL     OW34806   8.450   6.382  10.548
44927SOL    HW134807   8.491   6.350  10.634
44927SOL    HW234808   8.354   6.355  10.545
44928SOL     OW34809   7.488   6.130  10.424
44928SOL    HW134810   7.573   6.097  10.383
44928SOL    HW234811   7.501   6.145  10.522
44929SOL     OW34812   7.637   6.106  11.032
44929SOL    HW134813   7.696   6.066  10.962
44929SOL    HW234814   7.579   6.177  10.991
44930SOL     OW34815   8.817   6.536  10.970
44930SOL    HW134816   8.856   6.625  10.990
44930SOL    HW234817   8.827   6.516  10.873
44931SOL     OW34818   8.263   6.158   9.635
44931SOL    HW134819   8.270   6.069   9.589
44931SOL    HW234820   8.169   6.192   9.627
44932SOL     OW34821   9.105   6.190  10.516
44932SOL    HW134822   9.067   6.121  10.578
44932SOL    HW234823   9.187   6.154  10.472
44933SOL     OW34824   7.700   7.150  11.054
44933SOL    HW134825   7.670   7.207  11.130
44933SOL    HW234826   7.693   7.053  11.080
44934SOL     OW34827   8.119   6.050  10.579
44934SOL    HW134828   8.085   5.961  10.549
44934SOL    HW234829   8.145   6.104  10.499
44935SOL     OW34830   8.378   7.264  10.775
44935SOL    HW134831   8.354   7.246  10.680
44935SOL    HW234832   8.408   7.358  10.785
44936SOL     OW34833   7.921   6.086   9.501
44936SOL    HW134834   7.982   6.166   9.505
44936SOL    HW234835   7.826   6.117   9.508
44937SOL     OW34836   7.607   6.723  10.776
44937SOL    HW134837   7.629   6.662  10.852
44937SOL    HW234838   7.617   6.674  10.690
44938SOL     OW34839   8.795   6.645  10.544
44938SOL    HW134840   8.819   6.582  10.470
44938SOL    HW234841   8.705   6.685  10.526
44939SOL     OW34842   8.750   6.441   9.619
44939SOL    HW134843   8.664   6.410   9.661
44939SOL    HW234844   8.746   6.427   9.520
44940SOL     OW34845   9.207   7.333  10.464
44940SOL    HW134846   9.268   7.363  10.391
44940SOL    HW234847   9.169   7.244  10.442
44941SOL     OW34848   8.700   7.317  10.438
44941SOL    HW134849   8.784   7.322  10.384
44941SOL    HW234850   8.677   7.221  10.456
44942SOL     OW34851   7.531   6.844  10.332
44942SOL    HW134852   7.526   6.843  10.432
44942SOL    HW234853   7.448   6.803  10.294
44943SOL     OW34854   8.136   7.248  11.026
44943SOL    HW134855   8.080   7.329  11.035
44943SOL    HW234856   8.188   7.252  10.940
44944SOL     OW34857   9.174   5.721   9.833
44944SOL    HW134858   9.247   5.704   9.766
44944SOL    HW234859   9.143   5.634   9.871
44945SOL     OW34860   8.836   7.159   9.787
44945SOL    HW134861   8.903   7.171   9.713
44945SOL    HW234862   8.796   7.248   9.810
44946SOL     OW34863   7.578   7.380  11.161
44946SOL    HW134864   7.537   7.306  11.214
44946SOL    HW234865   7.642   7.431  11.219
44947SOL     OW34866   8.728   6.513   9.982
44947SOL    HW134867   8.788   6.432   9.984
44947SOL    HW234868   8.768   6.582   9.922
44948SOL     OW34869   8.278   6.859  10.732
44948SOL    HW134870   8.273   6.892  10.827
44948SOL    HW234871   8.192   6.878  10.686
44949SOL     OW34872   8.120   7.202   9.464
44949SOL    HW134873   8.129   7.212   9.365
44949SOL    HW234874   8.080   7.113   9.485
44950SOL     OW34875   9.098   7.306  10.704
44950SOL    HW134876   9.151   7.316  10.620
44950SOL    HW234877   9.071   7.396  10.738
44951SOL     OW34878   9.289   5.761  10.273
44951SOL    HW134879   9.328   5.676  10.237
44951SOL    HW234880   9.191   5.763  10.254
44952SOL     OW34881   7.711   5.912  10.030
44952SOL    HW134882   7.632   5.963   9.996
44952SOL    HW234883   7.702   5.897  10.128
44953SOL     OW34884   8.642   7.198   9.341
44953SOL    HW134885   8.648   7.105   9.378
44953SOL    HW234886   8.583   7.198   9.261
44954SOL     OW34887   8.270   6.588  10.682
44954SOL    HW134888   8.310   6.587  10.590
44954SOL    HW234889   8.280   6.680  10.722
44955SOL     OW34890   8.952   7.193   9.354
44955SOL    HW134891   8.860   7.230   9.361
44955SOL    HW234892   8.990   7.213   9.264
44956SOL     OW34893   7.820   6.874  10.800
44956SOL    HW134894   7.807   6.967  10.766
44956SOL    HW234895   7.736   6.822  10.787
44957SOL     OW34896   9.062   6.878  10.599
44957SOL    HW134897   9.122   6.881  10.679
44957SOL    HW234898   8.987   6.942  10.612
44958SOL     OW34899   8.487   6.684  10.006
44958SOL    HW134900   8.417   6.637  10.060
44958SOL    HW234901   8.546   6.616   9.963
44959SOL     OW34902   8.462   5.822  10.281
44959SOL    HW134903   8.454   5.786  10.188
44959SOL    HW234904   8.460   5.746  10.346
44960SOL     OW34905   8.038   7.073   9.801
44960SOL    HW134906   8.080   7.015   9.731
44960SOL    HW234907   7.994   7.152   9.757
44961SOL     OW34908   9.157   5.971  10.691
44961SOL    HW134909   9.230   6.040  10.695
44961SOL    HW234910   9.185   5.896  10.632
44962SOL     OW34911   7.703   6.934   9.600
44962SOL    HW134912   7.607   6.935   9.573
44962SOL    HW234913   7.715   6.987   9.684
44963SOL     OW34914   7.553   6.599  11.036
44963SOL    HW134915   7.476   6.566  11.090
44963SOL    HW234916   7.638   6.569  11.078
44964SOL     OW34917   8.120   5.789  10.799
44964SOL    HW134918   8.210   5.773  10.759
44964SOL    HW234919   8.128   5.794  10.898
44965SOL     OW34920   7.523   5.931   9.343
44965SOL    HW134921   7.431   5.903   9.314
44965SOL    HW234922   7.554   6.008   9.287
44966SOL     OW34923   8.888   6.442  10.708
44966SOL    HW134924   8.831   6.494  10.645
44966SOL    HW234925   8.984   6.454  10.684
44967SOL     OW34926   7.520   5.752   9.628
44967SOL    HW134927   7.503   5.835   9.574
44967SOL    HW234928   7.610   5.715   9.606
44968SOL     OW34929   8.631   6.921   9.429
44968SOL    HW134930   8.532   6.910   9.431
44968SOL    HW234931   8.665   6.936   9.522
44969SOL     OW34932   8.061   6.428  10.741
44969SOL    HW134933   8.117   6.509  10.724
44969SOL    HW234934   8.120   6.348  10.744
44970SOL     OW34935   8.941   7.353  10.269
44970SOL    HW134936   8.974   7.417  10.200
44970SOL    HW234937   9.007   7.347  10.344
44971SOL     OW34938   8.164   6.151  11.018
44971SOL    HW134939   8.183   6.216  11.092
44971SOL    HW234940   8.224   6.071  11.027
44972SOL     OW34941   8.898   6.806  10.943
44972SOL    HW134942   8.889   6.796  11.042
44972SOL    HW234943   8.994   6.799  10.917
44973SOL     OW34944   7.838   7.327  10.870
44973SOL    HW134945   7.747   7.368  10.868
44973SOL    HW234946   7.831   7.233  10.902
44974SOL     OW34947   9.122   6.469  10.564
44974SOL    HW134948   9.095   6.380  10.527
44974SOL    HW234949   9.123   6.537  10.491
44975SOL     OW34950   8.673   5.911   9.759
44975SOL    HW134951   8.738   5.837   9.748
44975SOL    HW234952   8.693   5.961   9.843
44976SOL     OW34953   8.042   6.331   9.962
44976SOL    HW134954   8.092   6.416   9.943
44976SOL    HW234955   7.954   6.333   9.914
44977SOL     OW34956   9.225   5.928  10.952
44977SOL    HW134957   9.208   5.959  10.858
44977SOL    HW234958   9.141   5.891  10.990
44978SOL     OW34959   9.178   6.520  10.827
44978SOL    HW134960   9.216   6.611  10.842
44978SOL    HW234961   9.170   6.503  10.728
44979SOL     OW34962   8.307   6.960   9.326
44979SOL    HW134963   8.261   6.975   9.414
44979SOL    HW234964   8.351   7.045   9.296
44980SOL     OW34965   8.109   7.376  10.263
44980SOL    HW134966   8.063   7.464  10.250
44980SOL    HW234967   8.208   7.388  10.256
44981SOL     OW34968   8.307   6.542  10.171
44981SOL    HW134969   8.361   6.473  10.219
44981SOL    HW234970   8.275   6.611  10.237
44982SOL     OW34971   8.531   6.570   9.397
44982SOL    HW134972   8.508   6.623   9.315
44982SOL    HW234973   8.612   6.514   9.378
44983SOL     OW34974   9.309   7.155  10.161
44983SOL    HW134975   9.238   7.143  10.091
44983SOL    HW234976   9.310   7.076  10.221
44984SOL     OW34977   7.527   6.826   9.963
44984SOL    HW134978   7.526   6.779  10.051
44984SOL    HW234979   7.609   6.798   9.912
44985SOL     OW34980   8.120   6.977  10.934
44985SOL    HW134981   8.042   6.927  10.972
44985SOL    HW234982   8.117   7.072  10.965
44986SOL     OW34983   9.272   5.778  10.537
44986SOL    HW134984   9.268   5.688  10.581
44986SOL    HW234985   9.275   5.767  10.438
44987SOL     OW34986   7.876   6.010   9.830
44987SOL    HW134987   7.906   5.938   9.768
44987SOL    HW234988   7.837   5.970   9.913
44988SOL     OW34989   9.153   7.073  10.414
44988SOL    HW134990   9.060   7.048  10.387
44988SOL    HW234991   9.179   7.023  10.496
44989SOL     OW34992   7.765   6.133  10.590
44989SOL    HW134993   7.803   6.074  10.662
44989SOL    HW234994   7.805   6.107  10.502
44990SOL     OW34995   8.260   7.172   9.997
44990SOL    HW134996   8.292   7.182   9.903
44990SOL    HW234997   8.181   7.110   9.999
44991SOL     OW34998   8.872   5.800  10.422
44991SOL    HW134999   8.924   5.735  10.477
44991SOL    HW235000   8.823   5.863  10.483
44992SOL     OW35001   8.449   5.620  10.464
44992SOL    HW135002   8.386   5.548  10.433
44992SOL    HW235003   8.542   5.584  10.464
44993SOL     OW35004   8.218   6.916   9.611
44993SOL    HW135005   8.172   6.829   9.628
44993SOL    HW235006   8.309   6.913   9.652
44994SOL     OW35007   8.066   7.153  10.594
44994SOL    HW135008   8.061   7.235  10.651
44994SOL    HW235009   8.155   7.150  10.549
44995SOL     OW35010   8.800   5.638   9.478
44995SOL    HW135011   8.835   5.597   9.394
44995SOL    HW235012   8.710   5.600   9.498
44996SOL     OW35013   8.748   6.039  10.001
44996SOL    HW135014   8.689   6.119  10.005
44996SOL    HW235015   8.763   6.004  10.094
44997SOL     OW35016   9.041   5.807  10.192
44997SOL    HW135017   8.957   5.806  10.246
44997SOL    HW235018   9.043   5.890  10.136
44998SOL     OW35019   7.487   6.663   9.610
44998SOL    HW135020   7.586   6.652   9.601
44998SOL    HW235021   7.447   6.577   9.642
44999SOL     OW35022   8.323   7.232   9.647
44999SOL    HW135023   8.246   7.197   9.593
44999SOL    HW235024   8.291   7.303   9.709
45000SOL     OW35025   7.678   6.214  11.285
45000SOL    HW135026   7.585   6.212  11.322
45000SOL    HW235027   7.679   6.175  11.193
45001SOL     OW35028   7.673   5.861  12.168
45001SOL    HW135029   7.708   5.844  12.260
45001SOL    HW235030   7.585   5.816  12.156
45002SOL     OW35031   7.467   5.954  11.819
45002SOL    HW135032   7.385   5.997  11.858
45002SOL    HW235033   7.439   5.881  11.756
45003SOL     OW35034   8.017   6.861  12.337
45003SOL    HW135035   7.924   6.854  12.300
45003SOL    HW235036   8.028   6.950  12.381
45004SOL     OW35037   9.003   7.097  11.875
45004SOL    HW135038   8.946   7.081  11.956
45004SOL    HW235039   8.944   7.107  11.795
45005SOL     OW35040   8.583   6.289  11.889
45005SOL    HW135041   8.640   6.367  11.864
45005SOL    HW235042   8.523   6.315  11.965
45006SOL     OW35043   9.203   6.193  11.403
45006SOL    HW135044   9.191   6.180  11.304
45006SOL    HW235045   9.173   6.112  11.452
45007SOL     OW35046   8.216   6.730  12.195
45007SOL    HW135047   8.138   6.747  12.255
45007SOL    HW235048   8.250   6.817  12.159
45008SOL     OW35049   8.133   6.598  11.837
45008SOL    HW135050   8.202   6.582  11.907
45008SOL    HW235051   8.060   6.655  11.875
45009SOL     OW35052   7.783   7.021  12.233
45009SOL    HW135053   7.705   6.990  12.180
45009SOL    HW235054   7.841   7.079  12.176
45010SOL     OW35055   8.908   7.091  12.511
45010SOL    HW135056   8.932   7.185  12.537
45010SOL    HW235057   8.892   7.037  12.593
45011SOL     OW35058   7.886   5.978  12.671
45011SOL    HW135059   7.968   5.922  12.680
45011SOL    HW235060   7.805   5.920  12.675
45012SOL     OW35061   9.051   6.033  11.909
45012SOL    HW135062   8.977   6.079  11.859
45012SOL    HW235063   9.102   6.101  11.962
45013SOL     OW35064   7.679   7.299  11.655
45013SOL    HW135065   7.713   7.376  11.709
45013SOL    HW235066   7.723   7.299  11.565
45014SOL     OW35067   7.678   7.020  11.710
45014SOL    HW135068   7.652   7.116  11.710
45014SOL    HW235069   7.607   6.966  11.755
45015SOL     OW35070   7.688   6.677  12.058
45015SOL    HW135071   7.702   6.593  12.110
45015SOL    HW235072   7.633   6.741  12.113
45016SOL     OW35073   8.068   7.372  12.611
45016SOL    HW135074   7.976   7.355  12.646
45016SOL    HW235075   8.096   7.464  12.637
45017SOL     OW35076   8.054   6.550  11.295
45017SOL    HW135077   8.061   6.634  11.241
45017SOL    HW235078   8.100   6.563  11.383
45018SOL     OW35079   9.042   5.700  12.652
45018SOL    HW135080   9.024   5.767  12.580
45018SOL    HW235081   9.039   5.746  12.741
45019SOL     OW35082   7.570   6.229  11.735
45019SOL    HW135083   7.525   6.141  11.752
45019SOL    HW235084   7.569   6.283  11.819
45020SOL     OW35085   9.290   7.353  11.531
45020SOL    HW135086   9.344   7.324  11.611
45020SOL    HW235087   9.320   7.443  11.502
45021SOL     OW35088   7.475   7.182  11.289
45021SOL    HW135089   7.456   7.086  11.310
45021SOL    HW235090   7.442   7.240  11.364
45022SOL     OW35091   9.137   6.508  11.784
45022SOL    HW135092   9.232   6.479  11.792
45022SOL    HW235093   9.129   6.573  11.709
45023SOL     OW35094   9.089   6.694  11.604
45023SOL    HW135095   9.175   6.696  11.552
45023SOL    HW235096   9.103   6.741  11.692
45024SOL     OW35097   8.061   6.951  11.898
45024SOL    HW135098   8.012   6.864  11.907
45024SOL    HW235099   8.038   6.994  11.811
45025SOL     OW35100   8.257   5.590  11.674
45025SOL    HW135101   8.297   5.681  11.665
45025SOL    HW235102   8.157   5.598  11.680
45026SOL     OW35103   7.645   6.562  12.436
45026SOL    HW135104   7.734   6.517  12.422
45026SOL    HW235105   7.572   6.497  12.417
45027SOL     OW35106   8.973   6.585  11.362
45027SOL    HW135107   8.910   6.509  11.375
45027SOL    HW235108   9.021   6.603  11.448
45028SOL     OW35109   7.765   5.837  12.973
45028SOL    HW135110   7.836   5.908  12.979
45028SOL    HW235111   7.677   5.876  13.001
45029SOL     OW35112   8.914   7.003  12.125
45029SOL    HW135113   8.855   7.009  12.205
45029SOL    HW235114   8.899   6.915  12.079
45030SOL     OW35115   9.115   7.300  11.744
45030SOL    HW135116   9.074   7.277  11.656
45030SOL    HW235117   9.097   7.226  11.809
45031SOL     OW35118   8.046   6.315  11.442
45031SOL    HW135119   8.070   6.384  11.374
45031SOL    HW235120   7.968   6.348  11.496
45032SOL     OW35121   8.729   5.931  12.116
45032SOL    HW135122   8.643   5.881  12.103
45032SOL    HW235123   8.791   5.877  12.172
45033SOL     OW35124   9.024   7.248  11.479
45033SOL    HW135125   9.113   7.294  11.482
45033SOL    HW235126   9.003   7.224  11.384
45034SOL     OW35127   8.255   6.191  12.637
45034SOL    HW135128   8.208   6.188  12.726
45034SOL    HW235129   8.204   6.136  12.571
45035SOL     OW35130   8.439   5.996  12.414
45035SOL    HW135131   8.362   6.030  12.468
45035SOL    HW235132   8.405   5.945  12.335
45036SOL     OW35133   8.489   6.287  11.601
45036SOL    HW135134   8.515   6.283  11.697
45036SOL    HW235135   8.404   6.236  11.587
45037SOL     OW35136   7.524   6.397  11.961
45037SOL    HW135137   7.623   6.385  11.970
45037SOL    HW235138   7.500   6.492  11.982
45038SOL     OW35139   7.578   7.407  12.743
45038SOL    HW135140   7.568   7.392  12.842
45038SOL    HW235141   7.492   7.443  12.707
45039SOL     OW35142   8.313   5.934  11.367
45039SOL    HW135143   8.372   5.997  11.318
45039SOL    HW235144   8.332   5.840  11.338
45040SOL     OW35145   8.810   6.730  11.717
45040SOL    HW135146   8.893   6.701  11.669
45040SOL    HW235147   8.761   6.797  11.661
45041SOL     OW35148   7.998   5.782  12.057
45041SOL    HW135149   7.993   5.777  12.157
45041SOL    HW235150   8.000   5.878  12.028
45042SOL     OW35151   8.456   7.042  11.649
45042SOL    HW135152   8.410   7.114  11.597
45042SOL    HW235153   8.452   7.062  11.747
45043SOL     OW35154   7.799   7.387  12.025
45043SOL    HW135155   7.849   7.301  12.031
45043SOL    HW235156   7.864   7.464  12.022
45044SOL     OW35157   9.243   6.652  12.045
45044SOL    HW135158   9.181   6.637  11.969
45044SOL    HW235159   9.191   6.663  12.130
45045SOL     OW35160   7.769   6.529  11.414
45045SOL    HW135161   7.851   6.568  11.372
45045SOL    HW235162   7.742   6.447  11.365
45046SOL     OW35163   8.906   6.321  11.900
45046SOL    HW135164   8.901   6.256  11.975
45046SOL    HW235165   8.986   6.380  11.913
45047SOL     OW35166   8.559   7.362  11.409
45047SOL    HW135167   8.499   7.300  11.459
45047SOL    HW235168   8.590   7.318  11.324
45048SOL     OW35169   9.080   6.963  11.253
45048SOL    HW135170   9.048   7.057  11.243
45048SOL    HW235171   9.004   6.900  11.241
45049SOL     OW35172   7.912   7.329  11.495
45049SOL    HW135173   7.945   7.368  11.581
45049SOL    HW235174   7.988   7.322  11.430
45050SOL     OW35175   8.848   5.693  11.598
45050SOL    HW135176   8.824   5.656  11.508
45050SOL    HW235177   8.947   5.709  11.602
45051SOL     OW35178   7.697   7.371  12.413
45051SOL    HW135179   7.754   7.306  12.463
45051SOL    HW235180   7.681   7.338  12.320
45052SOL     OW35181   8.388   7.284  12.076
45052SOL    HW135182   8.468   7.227  12.097
45052SOL    HW235183   8.339   7.244  11.999
45053SOL     OW35184   7.830   6.286  11.652
45053SOL    HW135185   7.875   6.196  11.649
45053SOL    HW235186   7.736   6.275  11.685
45054SOL     OW35187   8.062   5.708  11.289
45054SOL    HW135188   8.160   5.686  11.296
45054SOL    HW235189   8.031   5.691  11.196
45055SOL     OW35190   8.336   7.100  12.367
45055SOL    HW135191   8.313   7.075  12.273
45055SOL    HW235192   8.397   7.031  12.406
45056SOL     OW35193   8.251   6.988  12.096
45056SOL    HW135194   8.341   7.002  12.054
45056SOL    HW235195   8.180   6.990  12.025
45057SOL     OW35196   8.370   6.089  12.071
45057SOL    HW135197   8.345   6.080  11.975
45057SOL    HW235198   8.418   6.007  12.102
45058SOL     OW35199   7.987   5.650  11.684
45058SOL    HW135200   7.906   5.651  11.742
45058SOL    HW235201   7.990   5.733  11.629
45059SOL     OW35202   8.882   6.774  11.213
45059SOL    HW135203   8.914   6.698  11.270
45059SOL    HW235204   8.790   6.801  11.243
45060SOL     OW35205   7.745   5.621  11.343
45060SOL    HW135206   7.794   5.705  11.322
45060SOL    HW235207   7.807   5.556  11.388
45061SOL     OW35208   8.383   5.822  11.652
45061SOL    HW135209   8.335   5.863  11.574
45061SOL    HW235210   8.482   5.820  11.633
45062SOL     OW35211   8.675   7.156  11.965
45062SOL    HW135212   8.696   7.230  11.900
45062SOL    HW235213   8.743   7.156  12.038
45063SOL     OW35214   7.907   6.738  11.913
45063SOL    HW135215   7.836   6.711  11.978
45063SOL    HW235216   7.881   6.710  11.820
45064SOL     OW35217   8.719   7.383  11.763
45064SOL    HW135218   8.763   7.447  11.699
45064SOL    HW235219   8.669   7.435  11.833
45065SOL     OW35220   8.480   6.135  11.188
45065SOL    HW135221   8.439   6.217  11.149
45065SOL    HW235222   8.544   6.161  11.261
45066SOL     OW35223   7.526   6.142  12.558
45066SOL    HW135224   7.618   6.141  12.517
45066SOL    HW235225   7.520   6.216  12.625
45067SOL     OW35226   8.009   5.808  12.319
45067SOL    HW135227   8.047   5.724  12.356
45067SOL    HW235228   7.921   5.827  12.363
45068SOL     OW35229   8.314   6.040  11.814
45068SOL    HW135230   8.282   6.112  11.752
45068SOL    HW235231   8.338   5.959  11.761
45069SOL     OW35232   8.465   5.625  11.925
45069SOL    HW135233   8.393   5.630  11.856
45069SOL    HW235234   8.441   5.556  11.994
45070SOL     OW35235   8.877   6.759  12.039
45070SOL    HW135236   8.822   6.675  12.032
45070SOL    HW235237   8.903   6.788  11.947
45071SOL     OW35238   8.914   6.176  12.164
45071SOL    HW135239   8.884   6.081  12.171
45071SOL    HW235240   8.987   6.192  12.230
45072SOL     OW35241   9.305   6.419  11.549
45072SOL    HW135242   9.347   6.355  11.613
45072SOL    HW235243   9.267   6.368  11.471
45073SOL     OW35244   7.936   6.971  11.346
45073SOL    HW135245   7.849   6.956  11.393
45073SOL    HW235246   7.919   6.997  11.251
45074SOL     OW35247   9.112   6.866  11.829
45074SOL    HW135248   9.211   6.874  11.843
45074SOL    HW235249   9.067   6.950  11.860
45075SOL     OW35250   8.838   6.161  11.250
45075SOL    HW135251   8.784   6.140  11.331
45075SOL    HW235252   8.929   6.120  11.259
45076SOL     OW35253   7.975   5.842  11.500
45076SOL    HW135254   8.002   5.783  11.425
45076SOL    HW235255   7.975   5.937  11.469
45077SOL     OW35256   8.512   6.933  12.512
45077SOL    HW135257   8.432   6.910  12.567
45077SOL    HW235258   8.595   6.907  12.561
45078SOL     OW35259   8.559   6.781  12.272
45078SOL    HW135260   8.519   6.825  12.353
45078SOL    HW235261   8.518   6.818  12.189
45079SOL     OW35262   9.086   6.685  12.251
45079SOL    HW135263   9.091   6.766  12.310
45079SOL    HW235264   9.000   6.687  12.200
45080SOL     OW35265   8.363   5.675  12.574
45080SOL    HW135266   8.388   5.655  12.479
45080SOL    HW235267   8.435   5.731  12.616
45081SOL     OW35268   8.153   6.636  11.540
45081SOL    HW135269   8.139   6.643  11.639
45081SOL    HW235270   8.237   6.585  11.522
45082SOL     OW35271   7.858   6.399  12.423
45082SOL    HW135272   7.944   6.411  12.473
45082SOL    HW235273   7.816   6.312  12.450
45083SOL     OW35274   8.722   5.972  12.434
45083SOL    HW135275   8.743   6.046  12.498
45083SOL    HW235276   8.633   5.989  12.391
45084SOL     OW35277   7.512   7.150  12.503
45084SOL    HW135278   7.466   7.232  12.469
45084SOL    HW235279   7.610   7.169  12.512
45085SOL     OW35280   7.815   6.686  11.673
45085SOL    HW135281   7.808   6.769  11.617
45085SOL    HW235282   7.819   6.606  11.613
45086SOL     OW35283   8.014   6.123  12.037
45086SOL    HW135284   8.026   6.189  11.963
45086SOL    HW235285   8.060   6.157  12.120
45087SOL     OW35286   8.700   6.934  11.560
45087SOL    HW135287   8.750   7.011  11.600
45087SOL    HW235288   8.605   6.936  11.592
45088SOL     OW35289   8.720   7.031  12.314
45088SOL    HW135290   8.767   7.044  12.401
45088SOL    HW235291   8.654   6.957  12.323
45089SOL     OW35292   9.030   6.225  11.644
45089SOL    HW135293   8.999   6.286  11.717
45089SOL    HW235294   9.080   6.277  11.575
45090SOL     OW35295   7.802   7.096  12.501
45090SOL    HW135296   7.781   7.052  12.414
45090SOL    HW235297   7.899   7.122  12.504
45091SOL     OW35298   7.850   6.337  12.770
45091SOL    HW135299   7.918   6.392  12.723
45091SOL    HW235300   7.890   6.249  12.797
45092SOL     OW35301   9.035   6.365  12.842
45092SOL    HW135302   8.943   6.403  12.837
45092SOL    HW235303   9.095   6.412  12.777
45093SOL     OW35304   8.021   6.456  12.201
45093SOL    HW135305   8.065   6.545  12.192
45093SOL    HW235306   7.958   6.456  12.278
45094SOL     OW35307   8.808   6.448  12.217
45094SOL    HW135308   8.733   6.448  12.151
45094SOL    HW235309   8.845   6.356  12.226
45095SOL     OW35310   8.657   6.111  11.447
45095SOL    HW135311   8.670   6.027  11.501
45095SOL    HW235312   8.628   6.185  11.507
45096SOL     OW35313   7.755   5.799  12.403
45096SOL    HW135314   7.732   5.836  12.493
45096SOL    HW235315   7.725   5.704  12.397
45097SOL     OW35316   7.485   6.896  12.454
45097SOL    HW135317   7.538   6.847  12.522
45097SOL    HW235318   7.507   6.994  12.459
45098SOL     OW35319   8.180   6.220  12.236
45098SOL    HW135320   8.239   6.194  12.160
45098SOL    HW235321   8.152   6.316  12.225
45099SOL     OW35322   7.755   5.649  11.790
45099SOL    HW135323   7.744   5.743  11.823
45099SOL    HW235324   7.750   5.586  11.867
45100SOL     OW35325   9.070   5.953  11.546
45100SOL    HW135326   9.072   5.877  11.610
45100SOL    HW235327   9.022   6.030  11.586
45101SOL     OW35328   8.471   6.352  12.138
45101SOL    HW135329   8.486   6.373  12.234
45101SOL    HW235330   8.441   6.257  12.129
45102SOL     OW35331   8.428   7.159  12.872
45102SOL    HW135332   8.408   7.203  12.784
45102SOL    HW235333   8.467   7.068  12.856
45103SOL     OW35334   8.988   5.860  11.297
45103SOL    HW135335   8.927   5.785  11.320
45103SOL    HW235336   9.010   5.912  11.380
45104SOL     OW35337   8.751   6.424  11.214
45104SOL    HW135338   8.785   6.331  11.229
45104SOL    HW235339   8.769   6.451  11.119
45105SOL     OW35340   8.516   6.919  12.021
45105SOL    HW135341   8.523   6.835  11.966
45105SOL    HW235342   8.578   6.988  11.985
45106SOL     OW35343   7.767   6.396  12.121
45106SOL    HW135344   7.860   6.432  12.126
45106SOL    HW235345   7.761   6.311  12.173
45107SOL     OW35346   7.787   6.095  12.178
45107SOL    HW135347   7.735   6.012  12.161
45107SOL    HW235348   7.864   6.100  12.114
45108SOL     OW35349   8.586   5.966  12.850
45108SOL    HW135350   8.541   6.029  12.914
45108SOL    HW235351   8.679   5.997  12.833
45109SOL     OW35352   8.608   5.793  12.649
45109SOL    HW135353   8.608   5.857  12.726
45109SOL    HW235354   8.636   5.841  12.566
45110SOL     OW35355   7.456   6.912  11.372
45110SOL    HW135356   7.363   6.933  11.341
45110SOL    HW235357   7.466   6.813  11.385
45111SOL     OW35358   7.536   7.387  12.099
45111SOL    HW135359   7.494   7.301  12.072
45111SOL    HW235360   7.630   7.390  12.065
45112SOL     OW35361   7.952   7.154  12.082
45112SOL    HW135362   8.018   7.228  12.091
45112SOL    HW235363   7.996   7.075  12.040
45113SOL     OW35364   8.450   6.382  12.410
45113SOL    HW135365   8.491   6.350  12.496
45113SOL    HW235366   8.354   6.355  12.407
45114SOL     OW35367   7.488   6.130  12.286
45114SOL    HW135368   7.573   6.097  12.245
45114SOL    HW235369   7.501   6.145  12.384
45115SOL     OW35370   8.263   6.158  11.497
45115SOL    HW135371   8.270   6.069  11.451
45115SOL    HW235372   8.169   6.192  11.489
45116SOL     OW35373   9.105   6.190  12.378
45116SOL    HW135374   9.067   6.121  12.440
45116SOL    HW235375   9.187   6.154  12.334
45117SOL     OW35376   8.119   6.050  12.441
45117SOL    HW135377   8.085   5.961  12.411
45117SOL    HW235378   8.145   6.104  12.361
45118SOL     OW35379   8.378   7.264  12.637
45118SOL    HW135380   8.354   7.246  12.542
45118SOL    HW235381   8.408   7.358  12.647
45119SOL     OW35382   7.921   6.086  11.363
45119SOL    HW135383   7.982   6.166  11.367
45119SOL    HW235384   7.826   6.117  11.370
45120SOL     OW35385   7.607   6.723  12.638
45120SOL    HW135386   7.629   6.662  12.714
45120SOL    HW235387   7.617   6.674  12.552
45121SOL     OW35388   8.795   6.645  12.406
45121SOL    HW135389   8.819   6.582  12.332
45121SOL    HW235390   8.705   6.685  12.388
45122SOL     OW35391   8.750   6.441  11.481
45122SOL    HW135392   8.664   6.410  11.523
45122SOL    HW235393   8.746   6.427  11.382
45123SOL     OW35394   9.207   7.333  12.326
45123SOL    HW135395   9.268   7.363  12.253
45123SOL    HW235396   9.169   7.244  12.304
45124SOL     OW35397   8.700   7.317  12.300
45124SOL    HW135398   8.784   7.322  12.246
45124SOL    HW235399   8.677   7.221  12.318
45125SOL     OW35400   7.531   6.844  12.194
45125SOL    HW135401   7.526   6.843  12.294
45125SOL    HW235402   7.448   6.803  12.156
45126SOL     OW35403   9.174   5.721  11.695
45126SOL    HW135404   9.247   5.704  11.628
45126SOL    HW235405   9.143   5.634  11.733
45127SOL     OW35406   8.836   7.159  11.649
45127SOL    HW135407   8.903   7.171  11.575
45127SOL    HW235408   8.796   7.248  11.672
45128SOL     OW35409   8.728   6.513  11.844
45128SOL    HW135410   8.788   6.432  11.846
45128SOL    HW235411   8.768   6.582  11.784
45129SOL     OW35412   8.120   7.202  11.326
45129SOL    HW135413   8.129   7.212  11.227
45129SOL    HW235414   8.080   7.113  11.347
45130SOL     OW35415   9.098   7.306  12.566
45130SOL    HW135416   9.151   7.316  12.482
45130SOL    HW235417   9.071   7.396  12.600
45131SOL     OW35418   9.289   5.761  12.135
45131SOL    HW135419   9.328   5.676  12.099
45131SOL    HW235420   9.191   5.763  12.116
45132SOL     OW35421   7.711   5.912  11.892
45132SOL    HW135422   7.632   5.963  11.858
45132SOL    HW235423   7.702   5.897  11.990
45133SOL     OW35424   8.642   7.198  11.203
45133SOL    HW135425   8.648   7.105  11.240
45133SOL    HW235426   8.583   7.198  11.123
45134SOL     OW35427   8.270   6.588  12.544
45134SOL    HW135428   8.310   6.587  12.452
45134SOL    HW235429   8.280   6.680  12.584
45135SOL     OW35430   8.364   6.496  11.463
45135SOL    HW135431   8.427   6.534  11.395
45135SOL    HW235432   8.404   6.413  11.502
45136SOL     OW35433   8.952   7.193  11.216
45136SOL    HW135434   8.860   7.230  11.223
45136SOL    HW235435   8.990   7.213  11.126
45137SOL     OW35436   7.820   6.874  12.662
45137SOL    HW135437   7.807   6.967  12.628
45137SOL    HW235438   7.736   6.822  12.649
45138SOL     OW35439   9.062   6.878  12.461
45138SOL    HW135440   9.122   6.881  12.541
45138SOL    HW235441   8.987   6.942  12.474
45139SOL     OW35442   8.487   6.684  11.868
45139SOL    HW135443   8.417   6.637  11.922
45139SOL    HW235444   8.546   6.616  11.825
45140SOL     OW35445   8.462   5.822  12.143
45140SOL    HW135446   8.454   5.786  12.050
45140SOL    HW235447   8.460   5.746  12.208
45141SOL     OW35448   8.038   7.073  11.663
45141SOL    HW135449   8.080   7.015  11.593
45141SOL    HW235450   7.994   7.152  11.619
45142SOL     OW35451   9.157   5.971  12.553
45142SOL    HW135452   9.230   6.040  12.557
45142SOL    HW235453   9.185   5.896  12.494
45143SOL     OW35454   7.703   6.934  11.462
45143SOL    HW135455   7.607   6.935  11.435
45143SOL    HW235456   7.715   6.987  11.546
45144SOL     OW35457   7.523   5.931  11.205
45144SOL    HW135458   7.431   5.903  11.176
45144SOL    HW235459   7.554   6.008  11.149
45145SOL     OW35460   8.888   6.442  12.570
45145SOL    HW135461   8.831   6.494  12.507
45145SOL    HW235462   8.984   6.454  12.546
45146SOL     OW35463   7.520   5.752  11.490
45146SOL    HW135464   7.503   5.835  11.436
45146SOL    HW235465   7.610   5.715  11.468
45147SOL     OW35466   8.631   6.921  11.291
45147SOL    HW135467   8.532   6.910  11.293
45147SOL    HW235468   8.665   6.936  11.384
45148SOL     OW35469   8.061   6.428  12.603
45148SOL    HW135470   8.117   6.509  12.586
45148SOL    HW235471   8.120   6.348  12.606
45149SOL     OW35472   8.941   7.353  12.131
45149SOL    HW135473   8.974   7.417  12.062
45149SOL    HW235474   9.007   7.347  12.206
45150SOL     OW35475   7.838   7.327  12.732
45150SOL    HW135476   7.747   7.368  12.730
45150SOL    HW235477   7.831   7.233  12.764
45151SOL     OW35478   8.673   5.911  11.621
45151SOL    HW135479   8.738   5.837  11.610
45151SOL    HW235480   8.693   5.961  11.705
45152SOL     OW35481   8.042   6.331  11.824
45152SOL    HW135482   8.092   6.416  11.805
45152SOL    HW235483   7.954   6.333  11.776
45153SOL     OW35484   9.178   6.520  12.689
45153SOL    HW135485   9.216   6.611  12.704
45153SOL    HW235486   9.170   6.503  12.590
45154SOL     OW35487   8.307   6.960  11.188
45154SOL    HW135488   8.261   6.975  11.276
45154SOL    HW235489   8.351   7.045  11.158
45155SOL     OW35490   8.109   7.376  12.125
45155SOL    HW135491   8.063   7.464  12.112
45155SOL    HW235492   8.208   7.388  12.118
45156SOL     OW35493   8.307   6.542  12.033
45156SOL    HW135494   8.361   6.473  12.081
45156SOL    HW235495   8.275   6.611  12.099
45157SOL     OW35496   8.531   6.570  11.259
45157SOL    HW135497   8.508   6.623  11.177
45157SOL    HW235498   8.612   6.514  11.240
45158SOL     OW35499   9.309   7.155  12.023
45158SOL    HW135500   9.238   7.143  11.953
45158SOL    HW235501   9.310   7.076  12.083
45159SOL     OW35502   7.527   6.826  11.825
45159SOL    HW135503   7.526   6.779  11.913
45159SOL    HW235504   7.609   6.798  11.774
45160SOL     OW35505   9.272   5.778  12.399
45160SOL    HW135506   9.268   5.688  12.443
45160SOL    HW235507   9.275   5.767  12.300
45161SOL     OW35508   7.876   6.010  11.692
45161SOL    HW135509   7.906   5.938  11.630
45161SOL    HW235510   7.837   5.970  11.775
45162SOL     OW35511   9.153   7.073  12.276
45162SOL    HW135512   9.060   7.048  12.249
45162SOL    HW235513   9.179   7.023  12.358
45163SOL     OW35514   7.765   6.133  12.452
45163SOL    HW135515   7.803   6.074  12.524
45163SOL    HW235516   7.805   6.107  12.364
45164SOL     OW35517   8.260   7.172  11.859
45164SOL    HW135518   8.292   7.182  11.765
45164SOL    HW235519   8.181   7.110  11.861
45165SOL     OW35520   8.872   5.800  12.284
45165SOL    HW135521   8.924   5.735  12.339
45165SOL    HW235522   8.823   5.863  12.345
45166SOL     OW35523   8.449   5.620  12.326
45166SOL    HW135524   8.386   5.548  12.295
45166SOL    HW235525   8.542   5.584  12.326
45167SOL     OW35526   8.218   6.916  11.473
45167SOL    HW135527   8.172   6.829  11.490
45167SOL    HW235528   8.309   6.913  11.514
45168SOL     OW35529   8.066   7.153  12.456
45168SOL    HW135530   8.061   7.235  12.513
45168SOL    HW235531   8.155   7.150  12.411
45169SOL     OW35532   8.800   5.638  11.340
45169SOL    HW135533   8.835   5.597  11.256
45169SOL    HW235534   8.710   5.600  11.360
45170SOL     OW35535   8.748   6.039  11.863
45170SOL    HW135536   8.689   6.119  11.867
45170SOL    HW235537   8.763   6.004  11.956
45171SOL     OW35538   9.041   5.807  12.054
45171SOL    HW135539   8.957   5.806  12.108
45171SOL    HW235540   9.043   5.890  11.998
45172SOL     OW35541   7.487   6.663  11.472
45172SOL    HW135542   7.586   6.652  11.463
45172SOL    HW235543   7.447   6.577  11.504
45173SOL     OW35544   8.323   7.232  11.509
45173SOL    HW135545   8.246   7.197  11.455
45173SOL    HW235546   8.291   7.303  11.571
45174SOL     OW35547   7.678   8.076   0.113
45174SOL    HW135548   7.585   8.074   0.150
45174SOL    HW235549   7.679   8.037   0.021
45175SOL     OW35550   7.673   7.723   0.996
45175SOL    HW135551   7.708   7.706   1.088
45175SOL    HW235552   7.585   7.678   0.984
45176SOL     OW35553   7.467   7.816   0.647
45176SOL    HW135554   7.385   7.859   0.686
45176SOL    HW235555   7.439   7.743   0.584
45177SOL     OW35556   8.017   8.723   1.165
45177SOL    HW135557   7.924   8.716   1.128
45177SOL    HW235558   8.028   8.812   1.209
45178SOL     OW35559   9.003   8.959   0.703
45178SOL    HW135560   8.946   8.943   0.784
45178SOL    HW235561   8.944   8.969   0.623
45179SOL     OW35562   8.583   8.151   0.717
45179SOL    HW135563   8.640   8.229   0.692
45179SOL    HW235564   8.523   8.177   0.793
45180SOL     OW35565   9.203   8.055   0.231
45180SOL    HW135566   9.191   8.042   0.132
45180SOL    HW235567   9.173   7.974   0.280
45181SOL     OW35568   8.216   8.592   1.023
45181SOL    HW135569   8.138   8.609   1.083
45181SOL    HW235570   8.250   8.679   0.987
45182SOL     OW35571   8.298   8.246   1.823
45182SOL    HW135572   8.294   8.322   1.888
45182SOL    HW235573   8.320   8.282   1.732
45183SOL     OW35574   8.133   8.460   0.665
45183SOL    HW135575   8.202   8.444   0.735
45183SOL    HW235576   8.060   8.517   0.703
45184SOL     OW35577   8.134   8.609   1.803
45184SOL    HW135578   8.194   8.688   1.817
45184SOL    HW235579   8.048   8.640   1.762
45185SOL     OW35580   7.783   8.883   1.061
45185SOL    HW135581   7.705   8.852   1.008
45185SOL    HW235582   7.841   8.941   1.004
45186SOL     OW35583   8.908   8.953   1.339
45186SOL    HW135584   8.932   9.047   1.365
45186SOL    HW235585   8.892   8.899   1.421
45187SOL     OW35586   7.886   7.840   1.499
45187SOL    HW135587   7.968   7.784   1.508
45187SOL    HW235588   7.805   7.782   1.503
45188SOL     OW35589   9.051   7.895   0.737
45188SOL    HW135590   8.977   7.941   0.687
45188SOL    HW235591   9.102   7.963   0.790
45189SOL     OW35592   7.679   9.161   0.483
45189SOL    HW135593   7.713   9.238   0.537
45189SOL    HW235594   7.723   9.161   0.393
45190SOL     OW35595   8.575   8.789   1.690
45190SOL    HW135596   8.622   8.789   1.778
45190SOL    HW235597   8.527   8.702   1.679
45191SOL     OW35598   7.678   8.882   0.538
45191SOL    HW135599   7.652   8.978   0.538
45191SOL    HW235600   7.607   8.828   0.583
45192SOL     OW35601   7.688   8.539   0.886
45192SOL    HW135602   7.702   8.455   0.938
45192SOL    HW235603   7.633   8.603   0.941
45193SOL     OW35604   8.068   9.234   1.439
45193SOL    HW135605   7.976   9.217   1.474
45193SOL    HW235606   8.096   9.326   1.465
45194SOL     OW35607   8.054   8.412   0.123
45194SOL    HW135608   8.061   8.496   0.069
45194SOL    HW235609   8.100   8.425   0.211
45195SOL     OW35610   9.042   7.562   1.480
45195SOL    HW135611   9.024   7.629   1.408
45195SOL    HW235612   9.039   7.608   1.569
45196SOL     OW35613   7.570   8.091   0.563
45196SOL    HW135614   7.525   8.003   0.580
45196SOL    HW235615   7.569   8.145   0.647
45197SOL     OW35616   9.290   9.215   0.359
45197SOL    HW135617   9.344   9.186   0.439
45197SOL    HW235618   9.320   9.305   0.330
45198SOL     OW35619   7.475   9.044   0.117
45198SOL    HW135620   7.456   8.948   0.138
45198SOL    HW235621   7.442   9.102   0.192
45199SOL     OW35622   9.137   8.370   0.612
45199SOL    HW135623   9.232   8.341   0.620
45199SOL    HW235624   9.129   8.435   0.537
45200SOL     OW35625   9.089   8.556   0.432
45200SOL    HW135626   9.175   8.558   0.380
45200SOL    HW235627   9.103   8.603   0.520
45201SOL     OW35628   7.561   8.185   1.597
45201SOL    HW135629   7.649   8.172   1.642
45201SOL    HW235630   7.548   8.282   1.575
45202SOL     OW35631   8.061   8.813   0.726
45202SOL    HW135632   8.012   8.726   0.735
45202SOL    HW235633   8.038   8.856   0.639
45203SOL     OW35634   8.741   8.676   1.423
45203SOL    HW135635   8.778   8.603   1.365
45203SOL    HW235636   8.793   8.681   1.508
45204SOL     OW35637   8.257   7.452   0.502
45204SOL    HW135638   8.297   7.543   0.493
45204SOL    HW235639   8.157   7.460   0.508
45205SOL     OW35640   7.645   8.424   1.264
45205SOL    HW135641   7.734   8.379   1.250
45205SOL    HW235642   7.572   8.359   1.245
45206SOL     OW35643   8.973   8.447   0.190
45206SOL    HW135644   8.910   8.371   0.203
45206SOL    HW235645   9.021   8.465   0.276
45207SOL     OW35646   8.635   9.240   1.616
45207SOL    HW135647   8.659   9.300   1.540
45207SOL    HW235648   8.642   9.145   1.586
45208SOL     OW35649   7.765   7.699   1.801
45208SOL    HW135650   7.836   7.770   1.807
45208SOL    HW235651   7.677   7.738   1.829
45209SOL     OW35652   8.914   8.865   0.953
45209SOL    HW135653   8.855   8.871   1.033
45209SOL    HW235654   8.899   8.777   0.907
45210SOL     OW35655   9.115   9.162   0.572
45210SOL    HW135656   9.074   9.139   0.484
45210SOL    HW235657   9.097   9.088   0.637
45211SOL     OW35658   8.046   8.177   0.270
45211SOL    HW135659   8.070   8.246   0.202
45211SOL    HW235660   7.968   8.210   0.324
45212SOL     OW35661   8.729   7.793   0.944
45212SOL    HW135662   8.643   7.743   0.931
45212SOL    HW235663   8.791   7.739   1.000
45213SOL     OW35664   9.024   9.110   0.307
45213SOL    HW135665   9.113   9.156   0.310
45213SOL    HW235666   9.003   9.086   0.212
45214SOL     OW35667   8.255   8.053   1.465
45214SOL    HW135668   8.208   8.050   1.554
45214SOL    HW235669   8.204   7.998   1.399
45215SOL     OW35670   8.842   7.917   1.674
45215SOL    HW135671   8.822   7.960   1.762
45215SOL    HW235672   8.920   7.855   1.683
45216SOL     OW35673   8.421   8.338   1.572
45216SOL    HW135674   8.467   8.254   1.543
45216SOL    HW235675   8.365   8.372   1.497
45217SOL     OW35676   8.439   7.858   1.242
45217SOL    HW135677   8.362   7.892   1.296
45217SOL    HW235678   8.405   7.807   1.163
45218SOL     OW35679   8.489   8.149   0.429
45218SOL    HW135680   8.515   8.145   0.525
45218SOL    HW235681   8.404   8.098   0.415
45219SOL     OW35682   7.524   8.259   0.789
45219SOL    HW135683   7.623   8.247   0.798
45219SOL    HW235684   7.500   8.354   0.810
45220SOL     OW35685   7.578   9.269   1.571
45220SOL    HW135686   7.568   9.254   1.670
45220SOL    HW235687   7.492   9.305   1.535
45221SOL     OW35688   8.313   7.796   0.195
45221SOL    HW135689   8.372   7.859   0.146
45221SOL    HW235690   8.332   7.702   0.166
45222SOL     OW35691   9.167   8.033   1.831
45222SOL    HW135692   9.141   8.122   1.795
45222SOL    HW235693   9.165   7.965   1.758
45223SOL     OW35694   8.810   8.592   0.545
45223SOL    HW135695   8.893   8.563   0.497
45223SOL    HW235696   8.761   8.659   0.489
45224SOL     OW35697   7.998   7.644   0.885
45224SOL    HW135698   7.993   7.639   0.985
45224SOL    HW235699   8.000   7.740   0.856
45225SOL     OW35700   8.456   8.904   0.477
45225SOL    HW135701   8.410   8.976   0.425
45225SOL    HW235702   8.452   8.924   0.575
45226SOL     OW35703   7.799   9.249   0.853
45226SOL    HW135704   7.849   9.163   0.859
45226SOL    HW235705   7.864   9.326   0.850
45227SOL     OW35706   9.243   8.514   0.873
45227SOL    HW135707   9.181   8.499   0.797
45227SOL    HW235708   9.191   8.525   0.958
45228SOL     OW35709   7.769   8.391   0.242
45228SOL    HW135710   7.851   8.430   0.200
45228SOL    HW235711   7.742   8.309   0.193
45229SOL     OW35712   8.906   8.183   0.728
45229SOL    HW135713   8.901   8.118   0.803
45229SOL    HW235714   8.986   8.242   0.741
45230SOL     OW35715   7.909   8.714   1.727
45230SOL    HW135716   7.859   8.715   1.641
45230SOL    HW235717   7.846   8.696   1.803
45231SOL     OW35718   8.559   9.224   0.237
45231SOL    HW135719   8.499   9.162   0.287
45231SOL    HW235720   8.590   9.180   0.152
45232SOL     OW35721   7.650   7.733   1.498
45232SOL    HW135722   7.570   7.793   1.485
45232SOL    HW235723   7.640   7.684   1.584
45233SOL     OW35724   9.080   8.825   0.081
45233SOL    HW135725   9.048   8.919   0.071
45233SOL    HW235726   9.004   8.762   0.069
45234SOL     OW35727   7.912   9.191   0.323
45234SOL    HW135728   7.945   9.230   0.409
45234SOL    HW235729   7.988   9.184   0.258
45235SOL     OW35730   8.848   7.555   0.426
45235SOL    HW135731   8.824   7.518   0.336
45235SOL    HW235732   8.947   7.571   0.430
45236SOL     OW35733   7.697   9.233   1.241
45236SOL    HW135734   7.754   9.168   1.291
45236SOL    HW235735   7.681   9.200   1.148
45237SOL     OW35736   8.388   9.146   0.904
45237SOL    HW135737   8.468   9.089   0.925
45237SOL    HW235738   8.339   9.106   0.827
45238SOL     OW35739   7.830   8.148   0.480
45238SOL    HW135740   7.875   8.058   0.477
45238SOL    HW235741   7.736   8.137   0.513
45239SOL     OW35742   8.995   7.670   1.729
45239SOL    HW135743   8.990   7.707   1.821
45239SOL    HW235744   8.923   7.601   1.717
45240SOL     OW35745   8.062   7.570   0.117
45240SOL    HW135746   8.160   7.548   0.124
45240SOL    HW235747   8.031   7.553   0.024
45241SOL     OW35748   8.229   7.712   1.749
45241SOL    HW135749   8.296   7.651   1.792
45241SOL    HW235750   8.156   7.731   1.814
45242SOL     OW35751   8.336   8.962   1.195
45242SOL    HW135752   8.313   8.937   1.101
45242SOL    HW235753   8.397   8.893   1.234
45243SOL     OW35754   8.799   8.038   1.433
45243SOL    HW135755   8.827   7.995   1.518
45243SOL    HW235756   8.824   8.134   1.434
45244SOL     OW35757   8.370   7.951   0.899
45244SOL    HW135758   8.345   7.942   0.803
45244SOL    HW235759   8.418   7.869   0.930
45245SOL     OW35760   7.987   7.512   0.512
45245SOL    HW135761   7.906   7.513   0.570
45245SOL    HW235762   7.990   7.595   0.457
45246SOL     OW35763   8.882   8.636   0.041
45246SOL    HW135764   8.914   8.560   0.098
45246SOL    HW235765   8.790   8.663   0.071
45247SOL     OW35766   7.745   7.483   0.171
45247SOL    HW135767   7.794   7.567   0.150
45247SOL    HW235768   7.807   7.418   0.216
45248SOL     OW35769   8.383   7.684   0.480
45248SOL    HW135770   8.335   7.725   0.402
45248SOL    HW235771   8.482   7.682   0.461
45249SOL     OW35772   8.524   8.131   1.464
45249SOL    HW135773   8.444   8.070   1.467
45249SOL    HW235774   8.605   8.078   1.440
45250SOL     OW35775   8.675   9.018   0.793
45250SOL    HW135776   8.696   9.092   0.728
45250SOL    HW235777   8.743   9.018   0.866
45251SOL     OW35778   7.907   8.600   0.741
45251SOL    HW135779   7.836   8.573   0.806
45251SOL    HW235780   7.881   8.572   0.648
45252SOL     OW35781   8.719   9.245   0.591
45252SOL    HW135782   8.763   9.309   0.527
45252SOL    HW235783   8.669   9.297   0.661
45253SOL     OW35784   8.480   7.997   0.016
45253SOL    HW135785   8.439   8.079  -0.023
45253SOL    HW235786   8.544   8.023   0.089
45254SOL     OW35787   7.526   8.004   1.386
45254SOL    HW135788   7.618   8.003   1.345
45254SOL    HW235789   7.520   8.078   1.453
45255SOL     OW35790   8.009   7.670   1.147
45255SOL    HW135791   8.047   7.586   1.184
45255SOL    HW235792   7.921   7.689   1.191
45256SOL     OW35793   8.314   7.902   0.642
45256SOL    HW135794   8.282   7.974   0.580
45256SOL    HW235795   8.338   7.821   0.589
45257SOL     OW35796   8.465   7.487   0.753
45257SOL    HW135797   8.393   7.492   0.684
45257SOL    HW235798   8.441   7.418   0.822
45258SOL     OW35799   8.877   8.621   0.867
45258SOL    HW135800   8.822   8.537   0.860
45258SOL    HW235801   8.903   8.650   0.775
45259SOL     OW35802   8.914   8.038   0.992
45259SOL    HW135803   8.884   7.943   0.999
45259SOL    HW235804   8.987   8.054   1.058
45260SOL     OW35805   9.305   8.281   0.377
45260SOL    HW135806   9.347   8.217   0.441
45260SOL    HW235807   9.267   8.230   0.299
45261SOL     OW35808   7.936   8.833   0.174
45261SOL    HW135809   7.849   8.818   0.221
45261SOL    HW235810   7.919   8.859   0.079
45262SOL     OW35811   9.112   8.728   0.657
45262SOL    HW135812   9.211   8.736   0.671
45262SOL    HW235813   9.067   8.812   0.688
45263SOL     OW35814   8.838   8.023   0.078
45263SOL    HW135815   8.784   8.002   0.159
45263SOL    HW235816   8.929   7.982   0.087
45264SOL     OW35817   7.975   7.704   0.328
45264SOL    HW135818   8.002   7.645   0.253
45264SOL    HW235819   7.975   7.799   0.297
45265SOL     OW35820   9.202   8.671   1.588
45265SOL    HW135821   9.293   8.632   1.575
45265SOL    HW235822   9.210   8.767   1.612
45266SOL     OW35823   8.512   8.795   1.340
45266SOL    HW135824   8.432   8.772   1.395
45266SOL    HW235825   8.595   8.769   1.389
45267SOL     OW35826   9.040   9.077   1.625
45267SOL    HW135827   9.067   9.111   1.535
45267SOL    HW235828   9.119   9.039   1.671
45268SOL     OW35829   8.559   8.643   1.100
45268SOL    HW135830   8.519   8.687   1.181
45268SOL    HW235831   8.518   8.680   1.017
45269SOL     OW35832   9.086   8.547   1.079
45269SOL    HW135833   9.091   8.628   1.138
45269SOL    HW235834   9.000   8.549   1.028
45270SOL     OW35835   8.363   7.537   1.402
45270SOL    HW135836   8.388   7.517   1.307
45270SOL    HW235837   8.435   7.593   1.444
45271SOL     OW35838   8.428   8.564   1.719
45271SOL    HW135839   8.329   8.570   1.729
45271SOL    HW235840   8.451   8.484   1.663
45272SOL     OW35841   8.153   8.498   0.368
45272SOL    HW135842   8.139   8.505   0.467
45272SOL    HW235843   8.237   8.447   0.350
45273SOL     OW35844   7.858   8.261   1.251
45273SOL    HW135845   7.944   8.273   1.301
45273SOL    HW235846   7.816   8.174   1.278
45274SOL     OW35847   8.722   7.834   1.262
45274SOL    HW135848   8.743   7.908   1.326
45274SOL    HW235849   8.633   7.851   1.219
45275SOL     OW35850   7.512   9.012   1.331
45275SOL    HW135851   7.466   9.094   1.297
45275SOL    HW235852   7.610   9.031   1.340
45276SOL     OW35853   7.815   8.548   0.501
45276SOL    HW135854   7.808   8.631   0.445
45276SOL    HW235855   7.819   8.468   0.441
45277SOL     OW35856   8.014   7.985   0.865
45277SOL    HW135857   8.026   8.051   0.791
45277SOL    HW235858   8.060   8.019   0.948
45278SOL     OW35859   8.700   8.796   0.388
45278SOL    HW135860   8.750   8.873   0.428
45278SOL    HW235861   8.605   8.798   0.420
45279SOL     OW35862   8.720   8.893   1.142
45279SOL    HW135863   8.767   8.906   1.229
45279SOL    HW235864   8.654   8.819   1.151
45280SOL     OW35865   9.030   8.087   0.472
45280SOL    HW135866   8.999   8.148   0.545
45280SOL    HW235867   9.080   8.139   0.403
45281SOL     OW35868   7.802   8.958   1.329
45281SOL    HW135869   7.781   8.914   1.242
45281SOL    HW235870   7.899   8.984   1.332
45282SOL     OW35871   7.850   8.199   1.598
45282SOL    HW135872   7.918   8.254   1.551
45282SOL    HW235873   7.890   8.111   1.625
45283SOL     OW35874   9.035   8.227   1.670
45283SOL    HW135875   8.943   8.265   1.665
45283SOL    HW235876   9.095   8.274   1.605
45284SOL     OW35877   8.461   7.553   1.770
45284SOL    HW135878   8.467   7.638   1.718
45284SOL    HW235879   8.493   7.477   1.713
45285SOL     OW35880   7.952   7.498   1.740
45285SOL    HW135881   7.910   7.441   1.670
45285SOL    HW235882   7.886   7.567   1.772
45286SOL     OW35883   8.021   8.318   1.029
45286SOL    HW135884   8.065   8.407   1.020
45286SOL    HW235885   7.958   8.318   1.106
45287SOL     OW35886   8.808   8.310   1.045
45287SOL    HW135887   8.733   8.310   0.979
45287SOL    HW235888   8.845   8.218   1.054
45288SOL     OW35889   8.657   7.973   0.275
45288SOL    HW135890   8.670   7.889   0.329
45288SOL    HW235891   8.628   8.047   0.335
45289SOL     OW35892   7.755   7.661   1.231
45289SOL    HW135893   7.732   7.698   1.321
45289SOL    HW235894   7.725   7.566   1.225
45290SOL     OW35895   7.485   8.758   1.282
45290SOL    HW135896   7.538   8.709   1.350
45290SOL    HW235897   7.507   8.856   1.287
45291SOL     OW35898   8.180   8.082   1.064
45291SOL    HW135899   8.239   8.056   0.988
45291SOL    HW235900   8.152   8.178   1.053
45292SOL     OW35901   9.176   8.383   1.854
45292SOL    HW135902   9.130   8.376   1.765
45292SOL    HW235903   9.114   8.427   1.920
45293SOL     OW35904   7.755   7.511   0.618
45293SOL    HW135905   7.744   7.605   0.651
45293SOL    HW235906   7.750   7.448   0.695
45294SOL     OW35907   9.070   7.815   0.374
45294SOL    HW135908   9.072   7.739   0.438
45294SOL    HW235909   9.022   7.892   0.414
45295SOL     OW35910   8.471   8.214   0.966
45295SOL    HW135911   8.486   8.235   1.062
45295SOL    HW235912   8.441   8.119   0.957
45296SOL     OW35913   8.428   9.021   1.700
45296SOL    HW135914   8.408   9.065   1.612
45296SOL    HW235915   8.467   8.930   1.684
45297SOL     OW35916   9.307   8.966   1.605
45297SOL    HW135917   9.321   8.993   1.510
45297SOL    HW235918   9.390   8.988   1.658
45298SOL     OW35919   7.798   8.346   1.804
45298SOL    HW135920   7.874   8.390   1.852
45298SOL    HW235921   7.833   8.299   1.722
45299SOL     OW35922   8.988   7.722   0.125
45299SOL    HW135923   8.927   7.647   0.148
45299SOL    HW235924   9.010   7.774   0.208
45300SOL     OW35925   8.751   8.286   0.042
45300SOL    HW135926   8.785   8.193   0.057
45300SOL    HW235927   8.769   8.313  -0.053
45301SOL     OW35928   8.516   8.781   0.849
45301SOL    HW135929   8.523   8.697   0.794
45301SOL    HW235930   8.578   8.850   0.813
45302SOL     OW35931   7.767   8.258   0.949
45302SOL    HW135932   7.860   8.294   0.954
45302SOL    HW235933   7.761   8.173   1.001
45303SOL     OW35934   7.787   7.957   1.006
45303SOL    HW135935   7.735   7.874   0.989
45303SOL    HW235936   7.864   7.962   0.942
45304SOL     OW35937   8.586   7.828   1.678
45304SOL    HW135938   8.541   7.891   1.742
45304SOL    HW235939   8.679   7.859   1.661
45305SOL     OW35940   8.608   7.655   1.477
45305SOL    HW135941   8.608   7.719   1.554
45305SOL    HW235942   8.636   7.703   1.394
45306SOL     OW35943   7.456   8.774   0.200
45306SOL    HW135944   7.363   8.795   0.169
45306SOL    HW235945   7.466   8.675   0.213
45307SOL     OW35946   7.536   9.249   0.927
45307SOL    HW135947   7.494   9.163   0.900
45307SOL    HW235948   7.630   9.252   0.893
45308SOL     OW35949   7.952   9.016   0.910
45308SOL    HW135950   8.018   9.090   0.919
45308SOL    HW235951   7.996   8.937   0.868
45309SOL     OW35952   8.450   8.244   1.238
45309SOL    HW135953   8.491   8.212   1.324
45309SOL    HW235954   8.354   8.217   1.235
45310SOL     OW35955   7.488   7.992   1.114
45310SOL    HW135956   7.573   7.959   1.073
45310SOL    HW235957   7.501   8.007   1.212
45311SOL     OW35958   7.637   7.968   1.722
45311SOL    HW135959   7.696   7.928   1.652
45311SOL    HW235960   7.579   8.039   1.681
45312SOL     OW35961   8.817   8.398   1.660
45312SOL    HW135962   8.856   8.487   1.680
45312SOL    HW235963   8.827   8.378   1.563
45313SOL     OW35964   8.263   8.020   0.325
45313SOL    HW135965   8.270   7.931   0.279
45313SOL    HW235966   8.169   8.054   0.317
45314SOL     OW35967   9.105   8.052   1.206
45314SOL    HW135968   9.067   7.983   1.268
45314SOL    HW235969   9.187   8.016   1.162
45315SOL     OW35970   7.700   9.012   1.744
45315SOL    HW135971   7.670   9.069   1.820
45315SOL    HW235972   7.693   8.915   1.770
45316SOL     OW35973   8.119   7.912   1.269
45316SOL    HW135974   8.085   7.823   1.239
45316SOL    HW235975   8.145   7.966   1.189
45317SOL     OW35976   8.378   9.126   1.465
45317SOL    HW135977   8.354   9.108   1.370
45317SOL    HW235978   8.408   9.220   1.475
45318SOL     OW35979   7.921   7.948   0.191
45318SOL    HW135980   7.982   8.028   0.195
45318SOL    HW235981   7.826   7.979   0.198
45319SOL     OW35982   7.607   8.585   1.466
45319SOL    HW135983   7.629   8.524   1.542
45319SOL    HW235984   7.617   8.536   1.380
45320SOL     OW35985   8.795   8.507   1.234
45320SOL    HW135986   8.819   8.444   1.160
45320SOL    HW235987   8.705   8.547   1.216
45321SOL     OW35988   8.750   8.303   0.309
45321SOL    HW135989   8.664   8.272   0.351
45321SOL    HW235990   8.746   8.289   0.210
45322SOL     OW35991   9.207   9.195   1.154
45322SOL    HW135992   9.268   9.225   1.081
45322SOL    HW235993   9.169   9.106   1.132
45323SOL     OW35994   8.700   9.179   1.128
45323SOL    HW135995   8.784   9.184   1.074
45323SOL    HW235996   8.677   9.083   1.146
45324SOL     OW35997   7.531   8.706   1.022
45324SOL    HW135998   7.526   8.705   1.122
45324SOL    HW235999   7.448   8.665   0.984
45325SOL     OW36000   8.136   9.110   1.716
45325SOL    HW136001   8.080   9.191   1.725
45325SOL    HW236002   8.188   9.114   1.630
45326SOL     OW36003   8.351   7.534   0.133
45326SOL    HW136004   8.402   7.535   0.047
45326SOL    HW236005   8.407   7.492   0.204
45327SOL     OW36006   8.836   9.021   0.477
45327SOL    HW136007   8.903   9.033   0.403
45327SOL    HW236008   8.796   9.110   0.500
45328SOL     OW36009   7.578   9.242   1.851
45328SOL    HW136010   7.537   9.168   1.904
45328SOL    HW236011   7.642   9.293   1.909
45329SOL     OW36012   8.728   8.375   0.672
45329SOL    HW136013   8.788   8.294   0.674
45329SOL    HW236014   8.768   8.444   0.612
45330SOL     OW36015   8.278   8.721   1.422
45330SOL    HW136016   8.273   8.754   1.517
45330SOL    HW236017   8.192   8.740   1.376
45331SOL     OW36018   8.120   9.064   0.154
45331SOL    HW136019   8.129   9.074   0.055
45331SOL    HW236020   8.080   8.975   0.175
45332SOL     OW36021   9.098   9.168   1.394
45332SOL    HW136022   9.151   9.178   1.310
45332SOL    HW236023   9.071   9.258   1.428
45333SOL     OW36024   9.289   7.623   0.963
45333SOL    HW136025   9.328   7.538   0.927
45333SOL    HW236026   9.191   7.625   0.944
45334SOL     OW36027   7.711   7.774   0.720
45334SOL    HW136028   7.632   7.825   0.686
45334SOL    HW236029   7.702   7.759   0.818
45335SOL     OW36030   8.642   9.060   0.031
45335SOL    HW136031   8.648   8.967   0.068
45335SOL    HW236032   8.583   9.060  -0.049
45336SOL     OW36033   8.270   8.450   1.372
45336SOL    HW136034   8.310   8.449   1.280
45336SOL    HW236035   8.280   8.542   1.412
45337SOL     OW36036   8.364   8.358   0.291
45337SOL    HW136037   8.427   8.396   0.223
45337SOL    HW236038   8.404   8.275   0.330
45338SOL     OW36039   8.952   9.055   0.044
45338SOL    HW136040   8.860   9.092   0.051
45338SOL    HW236041   8.990   9.075  -0.046
45339SOL     OW36042   7.820   8.736   1.490
45339SOL    HW136043   7.807   8.829   1.456
45339SOL    HW236044   7.736   8.684   1.477
45340SOL     OW36045   9.062   8.740   1.289
45340SOL    HW136046   9.122   8.743   1.369
45340SOL    HW236047   8.987   8.804   1.302
45341SOL     OW36048   8.487   8.546   0.696
45341SOL    HW136049   8.417   8.499   0.750
45341SOL    HW236050   8.546   8.478   0.653
45342SOL     OW36051   8.038   8.935   0.491
45342SOL    HW136052   8.080   8.877   0.421
45342SOL    HW236053   7.994   9.014   0.447
45343SOL     OW36054   9.157   7.833   1.381
45343SOL    HW136055   9.230   7.902   1.385
45343SOL    HW236056   9.185   7.758   1.322
45344SOL     OW36057   7.703   8.796   0.290
45344SOL    HW136058   7.607   8.797   0.263
45344SOL    HW236059   7.715   8.849   0.374
45345SOL     OW36060   7.553   8.461   1.726
45345SOL    HW136061   7.476   8.428   1.780
45345SOL    HW236062   7.638   8.431   1.768
45346SOL     OW36063   8.120   7.651   1.489
45346SOL    HW136064   8.210   7.635   1.449
45346SOL    HW236065   8.128   7.656   1.588
45347SOL     OW36066   8.888   8.304   1.398
45347SOL    HW136067   8.831   8.356   1.335
45347SOL    HW236068   8.984   8.316   1.374
45348SOL     OW36069   7.520   7.614   0.318
45348SOL    HW136070   7.503   7.697   0.264
45348SOL    HW236071   7.610   7.577   0.296
45349SOL     OW36072   8.631   8.783   0.119
45349SOL    HW136073   8.532   8.772   0.121
45349SOL    HW236074   8.665   8.798   0.212
45350SOL     OW36075   8.061   8.290   1.431
45350SOL    HW136076   8.117   8.371   1.414
45350SOL    HW236077   8.120   8.210   1.434
45351SOL     OW36078   8.941   9.215   0.959
45351SOL    HW136079   8.974   9.279   0.890
45351SOL    HW236080   9.007   9.209   1.034
45352SOL     OW36081   8.164   8.013   1.708
45352SOL    HW136082   8.183   8.078   1.782
45352SOL    HW236083   8.224   7.933   1.717
45353SOL     OW36084   8.898   8.668   1.633
45353SOL    HW136085   8.889   8.658   1.732
45353SOL    HW236086   8.994   8.661   1.607
45354SOL     OW36087   7.838   9.189   1.560
45354SOL    HW136088   7.747   9.230   1.558
45354SOL    HW236089   7.831   9.095   1.592
45355SOL     OW36090   9.122   8.331   1.254
45355SOL    HW136091   9.095   8.242   1.217
45355SOL    HW236092   9.123   8.399   1.181
45356SOL     OW36093   8.673   7.773   0.449
45356SOL    HW136094   8.738   7.699   0.438
45356SOL    HW236095   8.693   7.823   0.533
45357SOL     OW36096   8.042   8.193   0.652
45357SOL    HW136097   8.092   8.278   0.633
45357SOL    HW236098   7.954   8.195   0.604
45358SOL     OW36099   9.225   7.790   1.642
45358SOL    HW136100   9.208   7.821   1.548
45358SOL    HW236101   9.141   7.753   1.680
45359SOL     OW36102   9.178   8.382   1.517
45359SOL    HW136103   9.216   8.473   1.532
45359SOL    HW236104   9.170   8.365   1.418
45360SOL     OW36105   8.307   8.822   0.016
45360SOL    HW136106   8.261   8.837   0.104
45360SOL    HW236107   8.351   8.907  -0.014
45361SOL     OW36108   8.109   9.238   0.953
45361SOL    HW136109   8.063   9.326   0.940
45361SOL    HW236110   8.208   9.250   0.946
45362SOL     OW36111   8.307   8.404   0.861
45362SOL    HW136112   8.361   8.335   0.909
45362SOL    HW236113   8.275   8.473   0.927
45363SOL     OW36114   8.531   8.432   0.087
45363SOL    HW136115   8.508   8.485   0.005
45363SOL    HW236116   8.612   8.376   0.068
45364SOL     OW36117   9.309   9.017   0.851
45364SOL    HW136118   9.238   9.005   0.781
45364SOL    HW236119   9.310   8.938   0.911
45365SOL     OW36120   7.669   8.762   1.844
45365SOL    HW136121   7.604   8.689   1.823
45365SOL    HW236122   7.673   8.776   1.942
45366SOL     OW36123   7.527   8.688   0.653
45366SOL    HW136124   7.526   8.641   0.741
45366SOL    HW236125   7.609   8.660   0.602
45367SOL     OW36126   8.120   8.839   1.624
45367SOL    HW136127   8.042   8.789   1.662
45367SOL    HW236128   8.117   8.934   1.655
45368SOL     OW36129   9.272   7.640   1.227
45368SOL    HW136130   9.268   7.550   1.271
45368SOL    HW236131   9.275   7.629   1.128
45369SOL     OW36132   7.876   7.872   0.520
45369SOL    HW136133   7.906   7.800   0.458
45369SOL    HW236134   7.837   7.832   0.603
45370SOL     OW36135   9.153   8.935   1.104
45370SOL    HW136136   9.060   8.910   1.077
45370SOL    HW236137   9.179   8.885   1.186
45371SOL     OW36138   7.765   7.995   1.280
45371SOL    HW136139   7.803   7.936   1.352
45371SOL    HW236140   7.805   7.969   1.192
45372SOL     OW36141   8.260   9.034   0.687
45372SOL    HW136142   8.292   9.044   0.593
45372SOL    HW236143   8.181   8.972   0.689
45373SOL     OW36144   8.872   7.662   1.112
45373SOL    HW136145   8.924   7.597   1.167
45373SOL    HW236146   8.823   7.725   1.173
45374SOL     OW36147   8.449   7.482   1.154
45374SOL    HW136148   8.386   7.410   1.123
45374SOL    HW236149   8.542   7.446   1.154
45375SOL     OW36150   8.218   8.778   0.301
45375SOL    HW136151   8.172   8.691   0.318
45375SOL    HW236152   8.309   8.775   0.342
45376SOL     OW36153   8.066   9.015   1.284
45376SOL    HW136154   8.061   9.097   1.341
45376SOL    HW236155   8.155   9.012   1.239
45377SOL     OW36156   8.800   7.500   0.168
45377SOL    HW136157   8.835   7.459   0.084
45377SOL    HW236158   8.710   7.462   0.188
45378SOL     OW36159   8.748   7.901   0.691
45378SOL    HW136160   8.689   7.981   0.695
45378SOL    HW236161   8.763   7.866   0.784
45379SOL     OW36162   9.041   7.669   0.882
45379SOL    HW136163   8.957   7.668   0.936
45379SOL    HW236164   9.043   7.752   0.826
45380SOL     OW36165   7.487   8.525   0.300
45380SOL    HW136166   7.586   8.514   0.291
45380SOL    HW236167   7.447   8.439   0.332
45381SOL     OW36168   8.323   9.094   0.337
45381SOL    HW136169   8.246   9.059   0.283
45381SOL    HW236170   8.291   9.165   0.399
45382SOL     OW36171   7.678   8.076   1.975
45382SOL    HW136172   7.585   8.074   2.012
45382SOL    HW236173   7.679   8.037   1.883
45383SOL     OW36174   7.673   7.723   2.858
45383SOL    HW136175   7.708   7.706   2.950
45383SOL    HW236176   7.585   7.678   2.846
45384SOL     OW36177   7.467   7.816   2.509
45384SOL    HW136178   7.385   7.859   2.548
45384SOL    HW236179   7.439   7.743   2.446
45385SOL     OW36180   8.017   8.723   3.027
45385SOL    HW136181   7.924   8.716   2.990
45385SOL    HW236182   8.028   8.812   3.071
45386SOL     OW36183   9.003   8.959   2.565
45386SOL    HW136184   8.946   8.943   2.646
45386SOL    HW236185   8.944   8.969   2.485
45387SOL     OW36186   8.583   8.151   2.579
45387SOL    HW136187   8.640   8.229   2.554
45387SOL    HW236188   8.523   8.177   2.655
45388SOL     OW36189   9.203   8.055   2.093
45388SOL    HW136190   9.191   8.042   1.994
45388SOL    HW236191   9.173   7.974   2.142
45389SOL     OW36192   8.216   8.592   2.885
45389SOL    HW136193   8.138   8.609   2.945
45389SOL    HW236194   8.250   8.679   2.849
45390SOL     OW36195   8.298   8.246   3.685
45390SOL    HW136196   8.294   8.322   3.750
45390SOL    HW236197   8.320   8.282   3.594
45391SOL     OW36198   8.133   8.460   2.527
45391SOL    HW136199   8.202   8.444   2.597
45391SOL    HW236200   8.060   8.517   2.565
45392SOL     OW36201   8.134   8.609   3.665
45392SOL    HW136202   8.194   8.688   3.679
45392SOL    HW236203   8.048   8.640   3.624
45393SOL     OW36204   7.783   8.883   2.923
45393SOL    HW136205   7.705   8.852   2.870
45393SOL    HW236206   7.841   8.941   2.866
45394SOL     OW36207   8.908   8.953   3.201
45394SOL    HW136208   8.932   9.047   3.227
45394SOL    HW236209   8.892   8.899   3.283
45395SOL     OW36210   7.886   7.840   3.361
45395SOL    HW136211   7.968   7.784   3.370
45395SOL    HW236212   7.805   7.782   3.365
45396SOL     OW36213   9.051   7.895   2.599
45396SOL    HW136214   8.977   7.941   2.549
45396SOL    HW236215   9.102   7.963   2.652
45397SOL     OW36216   7.679   9.161   2.345
45397SOL    HW136217   7.713   9.238   2.399
45397SOL    HW236218   7.723   9.161   2.255
45398SOL     OW36219   8.575   8.789   3.552
45398SOL    HW136220   8.622   8.789   3.640
45398SOL    HW236221   8.527   8.702   3.541
45399SOL     OW36222   7.678   8.882   2.400
45399SOL    HW136223   7.652   8.978   2.400
45399SOL    HW236224   7.607   8.828   2.445
45400SOL     OW36225   7.688   8.539   2.748
45400SOL    HW136226   7.702   8.455   2.800
45400SOL    HW236227   7.633   8.603   2.803
45401SOL     OW36228   8.068   9.234   3.301
45401SOL    HW136229   7.976   9.217   3.336
45401SOL    HW236230   8.096   9.326   3.327
45402SOL     OW36231   8.054   8.412   1.985
45402SOL    HW136232   8.061   8.496   1.931
45402SOL    HW236233   8.100   8.425   2.073
45403SOL     OW36234   9.042   7.562   3.342
45403SOL    HW136235   9.024   7.629   3.270
45403SOL    HW236236   9.039   7.608   3.431
45404SOL     OW36237   7.570   8.091   2.425
45404SOL    HW136238   7.525   8.003   2.442
45404SOL    HW236239   7.569   8.145   2.509
45405SOL     OW36240   9.290   9.215   2.221
45405SOL    HW136241   9.344   9.186   2.301
45405SOL    HW236242   9.320   9.305   2.192
45406SOL     OW36243   7.475   9.044   1.979
45406SOL    HW136244   7.456   8.948   2.000
45406SOL    HW236245   7.442   9.102   2.054
45407SOL     OW36246   9.137   8.370   2.474
45407SOL    HW136247   9.232   8.341   2.482
45407SOL    HW236248   9.129   8.435   2.399
45408SOL     OW36249   9.089   8.556   2.294
45408SOL    HW136250   9.175   8.558   2.242
45408SOL    HW236251   9.103   8.603   2.382
45409SOL     OW36252   7.561   8.185   3.459
45409SOL    HW136253   7.649   8.172   3.504
45409SOL    HW236254   7.548   8.282   3.437
45410SOL     OW36255   8.061   8.813   2.588
45410SOL    HW136256   8.012   8.726   2.597
45410SOL    HW236257   8.038   8.856   2.501
45411SOL     OW36258   8.741   8.676   3.285
45411SOL    HW136259   8.778   8.603   3.227
45411SOL    HW236260   8.793   8.681   3.370
45412SOL     OW36261   8.257   7.452   2.364
45412SOL    HW136262   8.297   7.543   2.355
45412SOL    HW236263   8.157   7.460   2.370
45413SOL     OW36264   7.645   8.424   3.126
45413SOL    HW136265   7.734   8.379   3.112
45413SOL    HW236266   7.572   8.359   3.107
45414SOL     OW36267   8.973   8.447   2.052
45414SOL    HW136268   8.910   8.371   2.065
45414SOL    HW236269   9.021   8.465   2.138
45415SOL     OW36270   8.635   9.240   3.478
45415SOL    HW136271   8.659   9.300   3.402
45415SOL    HW236272   8.642   9.145   3.448
45416SOL     OW36273   7.765   7.699   3.663
45416SOL    HW136274   7.836   7.770   3.669
45416SOL    HW236275   7.677   7.738   3.691
45417SOL     OW36276   8.914   8.865   2.815
45417SOL    HW136277   8.855   8.871   2.895
45417SOL    HW236278   8.899   8.777   2.769
45418SOL     OW36279   9.115   9.162   2.434
45418SOL    HW136280   9.074   9.139   2.346
45418SOL    HW236281   9.097   9.088   2.499
45419SOL     OW36282   8.046   8.177   2.132
45419SOL    HW136283   8.070   8.246   2.064
45419SOL    HW236284   7.968   8.210   2.186
45420SOL     OW36285   8.729   7.793   2.806
45420SOL    HW136286   8.643   7.743   2.793
45420SOL    HW236287   8.791   7.739   2.862
45421SOL     OW36288   9.024   9.110   2.169
45421SOL    HW136289   9.113   9.156   2.172
45421SOL    HW236290   9.003   9.086   2.074
45422SOL     OW36291   8.255   8.053   3.327
45422SOL    HW136292   8.208   8.050   3.416
45422SOL    HW236293   8.204   7.998   3.261
45423SOL     OW36294   8.842   7.917   3.536
45423SOL    HW136295   8.822   7.960   3.624
45423SOL    HW236296   8.920   7.855   3.545
45424SOL     OW36297   8.421   8.338   3.434
45424SOL    HW136298   8.467   8.254   3.405
45424SOL    HW236299   8.365   8.372   3.359
45425SOL     OW36300   8.439   7.858   3.104
45425SOL    HW136301   8.362   7.892   3.158
45425SOL    HW236302   8.405   7.807   3.025
45426SOL     OW36303   8.489   8.149   2.291
45426SOL    HW136304   8.515   8.145   2.387
45426SOL    HW236305   8.404   8.098   2.277
45427SOL     OW36306   7.524   8.259   2.651
45427SOL    HW136307   7.623   8.247   2.660
45427SOL    HW236308   7.500   8.354   2.672
45428SOL     OW36309   7.578   9.269   3.433
45428SOL    HW136310   7.568   9.254   3.532
45428SOL    HW236311   7.492   9.305   3.397
45429SOL     OW36312   8.313   7.796   2.057
45429SOL    HW136313   8.372   7.859   2.008
45429SOL    HW236314   8.332   7.702   2.028
45430SOL     OW36315   9.167   8.033   3.693
45430SOL    HW136316   9.141   8.122   3.657
45430SOL    HW236317   9.165   7.965   3.620
45431SOL     OW36318   8.810   8.592   2.407
45431SOL    HW136319   8.893   8.563   2.359
45431SOL    HW236320   8.761   8.659   2.351
45432SOL     OW36321   7.998   7.644   2.747
45432SOL    HW136322   7.993   7.639   2.847
45432SOL    HW236323   8.000   7.740   2.718
45433SOL     OW36324   8.456   8.904   2.339
45433SOL    HW136325   8.410   8.976   2.287
45433SOL    HW236326   8.452   8.924   2.437
45434SOL     OW36327   7.799   9.249   2.715
45434SOL    HW136328   7.849   9.163   2.721
45434SOL    HW236329   7.864   9.326   2.712
45435SOL     OW36330   9.243   8.514   2.735
45435SOL    HW136331   9.181   8.499   2.659
45435SOL    HW236332   9.191   8.525   2.820
45436SOL     OW36333   8.675   8.998   3.368
45436SOL    HW136334   8.681   8.921   3.432
45436SOL    HW236335   8.623   8.972   3.288
45437SOL     OW36336   7.769   8.391   2.104
45437SOL    HW136337   7.851   8.430   2.062
45437SOL    HW236338   7.742   8.309   2.055
45438SOL     OW36339   8.906   8.183   2.590
45438SOL    HW136340   8.901   8.118   2.665
45438SOL    HW236341   8.986   8.242   2.603
45439SOL     OW36342   7.909   8.714   3.589
45439SOL    HW136343   7.859   8.715   3.503
45439SOL    HW236344   7.846   8.696   3.665
45440SOL     OW36345   8.559   9.224   2.099
45440SOL    HW136346   8.499   9.162   2.149
45440SOL    HW236347   8.590   9.180   2.014
45441SOL     OW36348   7.650   7.733   3.360
45441SOL    HW136349   7.570   7.793   3.347
45441SOL    HW236350   7.640   7.684   3.446
45442SOL     OW36351   9.080   8.825   1.943
45442SOL    HW136352   9.048   8.919   1.933
45442SOL    HW236353   9.004   8.762   1.931
45443SOL     OW36354   7.912   9.191   2.185
45443SOL    HW136355   7.945   9.230   2.271
45443SOL    HW236356   7.988   9.184   2.120
45444SOL     OW36357   8.848   7.555   2.288
45444SOL    HW136358   8.824   7.518   2.198
45444SOL    HW236359   8.947   7.571   2.292
45445SOL     OW36360   7.697   9.233   3.103
45445SOL    HW136361   7.754   9.168   3.153
45445SOL    HW236362   7.681   9.200   3.010
45446SOL     OW36363   8.388   9.146   2.766
45446SOL    HW136364   8.468   9.089   2.787
45446SOL    HW236365   8.339   9.106   2.689
45447SOL     OW36366   7.830   8.148   2.342
45447SOL    HW136367   7.875   8.058   2.339
45447SOL    HW236368   7.736   8.137   2.375
45448SOL     OW36369   8.995   7.670   3.591
45448SOL    HW136370   8.990   7.707   3.683
45448SOL    HW236371   8.923   7.601   3.579
45449SOL     OW36372   8.062   7.570   1.979
45449SOL    HW136373   8.160   7.548   1.986
45449SOL    HW236374   8.031   7.553   1.886
45450SOL     OW36375   8.229   7.712   3.611
45450SOL    HW136376   8.296   7.651   3.654
45450SOL    HW236377   8.156   7.731   3.676
45451SOL     OW36378   8.336   8.962   3.057
45451SOL    HW136379   8.313   8.937   2.963
45451SOL    HW236380   8.397   8.893   3.096
45452SOL     OW36381   8.799   8.038   3.295
45452SOL    HW136382   8.827   7.995   3.380
45452SOL    HW236383   8.824   8.134   3.296
45453SOL     OW36384   8.251   8.850   2.786
45453SOL    HW136385   8.341   8.864   2.744
45453SOL    HW236386   8.180   8.852   2.715
45454SOL     OW36387   8.370   7.951   2.761
45454SOL    HW136388   8.345   7.942   2.665
45454SOL    HW236389   8.418   7.869   2.792
45455SOL     OW36390   7.987   7.512   2.374
45455SOL    HW136391   7.906   7.513   2.432
45455SOL    HW236392   7.990   7.595   2.319
45456SOL     OW36393   8.882   8.636   1.903
45456SOL    HW136394   8.914   8.560   1.960
45456SOL    HW236395   8.790   8.663   1.933
45457SOL     OW36396   7.745   7.483   2.033
45457SOL    HW136397   7.794   7.567   2.012
45457SOL    HW236398   7.807   7.418   2.078
45458SOL     OW36399   8.383   7.684   2.342
45458SOL    HW136400   8.335   7.725   2.264
45458SOL    HW236401   8.482   7.682   2.323
45459SOL     OW36402   8.524   8.131   3.326
45459SOL    HW136403   8.444   8.070   3.329
45459SOL    HW236404   8.605   8.078   3.302
45460SOL     OW36405   8.675   9.018   2.655
45460SOL    HW136406   8.696   9.092   2.590
45460SOL    HW236407   8.743   9.018   2.728
45461SOL     OW36408   7.907   8.600   2.603
45461SOL    HW136409   7.836   8.573   2.668
45461SOL    HW236410   7.881   8.572   2.510
45462SOL     OW36411   8.719   9.245   2.453
45462SOL    HW136412   8.763   9.309   2.389
45462SOL    HW236413   8.669   9.297   2.523
45463SOL     OW36414   8.480   7.997   1.878
45463SOL    HW136415   8.439   8.079   1.839
45463SOL    HW236416   8.544   8.023   1.951
45464SOL     OW36417   7.526   8.004   3.248
45464SOL    HW136418   7.618   8.003   3.207
45464SOL    HW236419   7.520   8.078   3.315
45465SOL     OW36420   8.009   7.670   3.009
45465SOL    HW136421   8.047   7.586   3.046
45465SOL    HW236422   7.921   7.689   3.053
45466SOL     OW36423   8.314   7.902   2.504
45466SOL    HW136424   8.282   7.974   2.442
45466SOL    HW236425   8.338   7.821   2.451
45467SOL     OW36426   8.465   7.487   2.615
45467SOL    HW136427   8.393   7.492   2.546
45467SOL    HW236428   8.441   7.418   2.684
45468SOL     OW36429   8.877   8.621   2.729
45468SOL    HW136430   8.822   8.537   2.722
45468SOL    HW236431   8.903   8.650   2.637
45469SOL     OW36432   8.914   8.038   2.854
45469SOL    HW136433   8.884   7.943   2.861
45469SOL    HW236434   8.987   8.054   2.920
45470SOL     OW36435   9.305   8.281   2.239
45470SOL    HW136436   9.347   8.217   2.303
45470SOL    HW236437   9.267   8.230   2.161
45471SOL     OW36438   7.936   8.833   2.036
45471SOL    HW136439   7.849   8.818   2.083
45471SOL    HW236440   7.919   8.859   1.941
45472SOL     OW36441   9.112   8.728   2.519
45472SOL    HW136442   9.211   8.736   2.533
45472SOL    HW236443   9.067   8.812   2.550
45473SOL     OW36444   8.838   8.023   1.940
45473SOL    HW136445   8.784   8.002   2.021
45473SOL    HW236446   8.929   7.982   1.949
45474SOL     OW36447   7.975   7.704   2.190
45474SOL    HW136448   8.002   7.645   2.115
45474SOL    HW236449   7.975   7.799   2.159
45475SOL     OW36450   9.202   8.671   3.450
45475SOL    HW136451   9.293   8.632   3.437
45475SOL    HW236452   9.210   8.767   3.474
45476SOL     OW36453   8.512   8.795   3.202
45476SOL    HW136454   8.432   8.772   3.257
45476SOL    HW236455   8.595   8.769   3.251
45477SOL     OW36456   9.040   9.077   3.487
45477SOL    HW136457   9.067   9.111   3.397
45477SOL    HW236458   9.119   9.039   3.533
45478SOL     OW36459   8.559   8.643   2.962
45478SOL    HW136460   8.519   8.687   3.043
45478SOL    HW236461   8.518   8.680   2.879
45479SOL     OW36462   9.086   8.547   2.941
45479SOL    HW136463   9.091   8.628   3.000
45479SOL    HW236464   9.000   8.549   2.890
45480SOL     OW36465   8.363   7.537   3.264
45480SOL    HW136466   8.388   7.517   3.169
45480SOL    HW236467   8.435   7.593   3.306
45481SOL     OW36468   8.428   8.564   3.581
45481SOL    HW136469   8.329   8.570   3.591
45481SOL    HW236470   8.451   8.484   3.525
45482SOL     OW36471   8.153   8.498   2.230
45482SOL    HW136472   8.139   8.505   2.329
45482SOL    HW236473   8.237   8.447   2.212
45483SOL     OW36474   7.858   8.261   3.113
45483SOL    HW136475   7.944   8.273   3.163
45483SOL    HW236476   7.816   8.174   3.140
45484SOL     OW36477   8.722   7.834   3.124
45484SOL    HW136478   8.743   7.908   3.188
45484SOL    HW236479   8.633   7.851   3.081
45485SOL     OW36480   7.512   9.012   3.193
45485SOL    HW136481   7.466   9.094   3.159
45485SOL    HW236482   7.610   9.031   3.202
45486SOL     OW36483   7.815   8.548   2.363
45486SOL    HW136484   7.808   8.631   2.307
45486SOL    HW236485   7.819   8.468   2.303
45487SOL     OW36486   8.014   7.985   2.727
45487SOL    HW136487   8.026   8.051   2.653
45487SOL    HW236488   8.060   8.019   2.810
45488SOL     OW36489   8.700   8.796   2.250
45488SOL    HW136490   8.750   8.873   2.290
45488SOL    HW236491   8.605   8.798   2.282
45489SOL     OW36492   8.720   8.893   3.004
45489SOL    HW136493   8.767   8.906   3.091
45489SOL    HW236494   8.654   8.819   3.013
45490SOL     OW36495   9.030   8.087   2.334
45490SOL    HW136496   8.999   8.148   2.407
45490SOL    HW236497   9.080   8.139   2.265
45491SOL     OW36498   7.802   8.958   3.191
45491SOL    HW136499   7.781   8.914   3.104
45491SOL    HW236500   7.899   8.984   3.194
45492SOL     OW36501   7.850   8.199   3.460
45492SOL    HW136502   7.918   8.254   3.413
45492SOL    HW236503   7.890   8.111   3.487
45493SOL     OW36504   9.035   8.227   3.532
45493SOL    HW136505   8.943   8.265   3.527
45493SOL    HW236506   9.095   8.274   3.467
45494SOL     OW36507   8.461   7.553   3.632
45494SOL    HW136508   8.467   7.638   3.580
45494SOL    HW236509   8.493   7.477   3.575
45495SOL     OW36510   7.952   7.498   3.602
45495SOL    HW136511   7.910   7.441   3.532
45495SOL    HW236512   7.886   7.567   3.634
45496SOL     OW36513   8.021   8.318   2.891
45496SOL    HW136514   8.065   8.407   2.882
45496SOL    HW236515   7.958   8.318   2.968
45497SOL     OW36516   8.808   8.310   2.907
45497SOL    HW136517   8.733   8.310   2.841
45497SOL    HW236518   8.845   8.218   2.916
45498SOL     OW36519   8.657   7.973   2.137
45498SOL    HW136520   8.670   7.889   2.191
45498SOL    HW236521   8.628   8.047   2.197
45499SOL     OW36522   7.755   7.661   3.093
45499SOL    HW136523   7.732   7.698   3.183
45499SOL    HW236524   7.725   7.566   3.087
45500SOL     OW36525   7.485   8.758   3.144
45500SOL    HW136526   7.538   8.709   3.212
45500SOL    HW236527   7.507   8.856   3.149
45501SOL     OW36528   8.180   8.082   2.926
45501SOL    HW136529   8.239   8.056   2.850
45501SOL    HW236530   8.152   8.178   2.915
45502SOL     OW36531   9.176   8.383   3.716
45502SOL    HW136532   9.130   8.376   3.627
45502SOL    HW236533   9.114   8.427   3.782
45503SOL     OW36534   7.755   7.511   2.480
45503SOL    HW136535   7.744   7.605   2.513
45503SOL    HW236536   7.750   7.448   2.557
45504SOL     OW36537   9.070   7.815   2.236
45504SOL    HW136538   9.072   7.739   2.300
45504SOL    HW236539   9.022   7.892   2.276
45505SOL     OW36540   8.471   8.214   2.828
45505SOL    HW136541   8.486   8.235   2.924
45505SOL    HW236542   8.441   8.119   2.819
45506SOL     OW36543   8.428   9.021   3.562
45506SOL    HW136544   8.408   9.065   3.474
45506SOL    HW236545   8.467   8.930   3.546
45507SOL     OW36546   9.307   8.966   3.467
45507SOL    HW136547   9.321   8.993   3.372
45507SOL    HW236548   9.390   8.988   3.520
45508SOL     OW36549   7.798   8.346   3.666
45508SOL    HW136550   7.874   8.390   3.714
45508SOL    HW236551   7.833   8.299   3.584
45509SOL     OW36552   8.988   7.722   1.987
45509SOL    HW136553   8.927   7.647   2.010
45509SOL    HW236554   9.010   7.774   2.070
45510SOL     OW36555   8.751   8.286   1.904
45510SOL    HW136556   8.785   8.193   1.919
45510SOL    HW236557   8.769   8.313   1.809
45511SOL     OW36558   8.516   8.781   2.711
45511SOL    HW136559   8.523   8.697   2.656
45511SOL    HW236560   8.578   8.850   2.675
45512SOL     OW36561   7.767   8.258   2.811
45512SOL    HW136562   7.860   8.294   2.816
45512SOL    HW236563   7.761   8.173   2.863
45513SOL     OW36564   7.787   7.957   2.868
45513SOL    HW136565   7.735   7.874   2.851
45513SOL    HW236566   7.864   7.962   2.804
45514SOL     OW36567   8.586   7.828   3.540
45514SOL    HW136568   8.541   7.891   3.604
45514SOL    HW236569   8.679   7.859   3.523
45515SOL     OW36570   8.608   7.655   3.339
45515SOL    HW136571   8.608   7.719   3.416
45515SOL    HW236572   8.636   7.703   3.256
45516SOL     OW36573   7.456   8.774   2.062
45516SOL    HW136574   7.363   8.795   2.031
45516SOL    HW236575   7.466   8.675   2.075
45517SOL     OW36576   7.536   9.249   2.789
45517SOL    HW136577   7.494   9.163   2.762
45517SOL    HW236578   7.630   9.252   2.755
45518SOL     OW36579   7.952   9.016   2.772
45518SOL    HW136580   8.018   9.090   2.781
45518SOL    HW236581   7.996   8.937   2.730
45519SOL     OW36582   8.450   8.244   3.100
45519SOL    HW136583   8.491   8.212   3.186
45519SOL    HW236584   8.354   8.217   3.097
45520SOL     OW36585   7.488   7.992   2.976
45520SOL    HW136586   7.573   7.959   2.935
45520SOL    HW236587   7.501   8.007   3.074
45521SOL     OW36588   7.637   7.968   3.584
45521SOL    HW136589   7.696   7.928   3.514
45521SOL    HW236590   7.579   8.039   3.543
45522SOL     OW36591   8.817   8.398   3.522
45522SOL    HW136592   8.856   8.487   3.542
45522SOL    HW236593   8.827   8.378   3.425
45523SOL     OW36594   8.263   8.020   2.187
45523SOL    HW136595   8.270   7.931   2.141
45523SOL    HW236596   8.169   8.054   2.179
45524SOL     OW36597   9.105   8.052   3.068
45524SOL    HW136598   9.067   7.983   3.130
45524SOL    HW236599   9.187   8.016   3.024
45525SOL     OW36600   7.700   9.012   3.606
45525SOL    HW136601   7.670   9.069   3.682
45525SOL    HW236602   7.693   8.915   3.632
45526SOL     OW36603   8.119   7.912   3.131
45526SOL    HW136604   8.085   7.823   3.101
45526SOL    HW236605   8.145   7.966   3.051
45527SOL     OW36606   8.378   9.126   3.327
45527SOL    HW136607   8.354   9.108   3.232
45527SOL    HW236608   8.408   9.220   3.337
45528SOL     OW36609   7.921   7.948   2.053
45528SOL    HW136610   7.982   8.028   2.057
45528SOL    HW236611   7.826   7.979   2.060
45529SOL     OW36612   7.607   8.585   3.328
45529SOL    HW136613   7.629   8.524   3.404
45529SOL    HW236614   7.617   8.536   3.242
45530SOL     OW36615   8.795   8.507   3.096
45530SOL    HW136616   8.819   8.444   3.022
45530SOL    HW236617   8.705   8.547   3.078
45531SOL     OW36618   8.750   8.303   2.171
45531SOL    HW136619   8.664   8.272   2.213
45531SOL    HW236620   8.746   8.289   2.072
45532SOL     OW36621   9.207   9.195   3.016
45532SOL    HW136622   9.268   9.225   2.943
45532SOL    HW236623   9.169   9.106   2.994
45533SOL     OW36624   8.700   9.179   2.990
45533SOL    HW136625   8.784   9.184   2.936
45533SOL    HW236626   8.677   9.083   3.008
45534SOL     OW36627   7.531   8.706   2.884
45534SOL    HW136628   7.526   8.705   2.984
45534SOL    HW236629   7.448   8.665   2.846
45535SOL     OW36630   8.136   9.110   3.578
45535SOL    HW136631   8.080   9.191   3.587
45535SOL    HW236632   8.188   9.114   3.492
45536SOL     OW36633   9.174   7.583   2.385
45536SOL    HW136634   9.247   7.566   2.318
45536SOL    HW236635   9.143   7.496   2.423
45537SOL     OW36636   8.836   9.021   2.339
45537SOL    HW136637   8.903   9.033   2.265
45537SOL    HW236638   8.796   9.110   2.362
45538SOL     OW36639   7.578   9.242   3.713
45538SOL    HW136640   7.537   9.168   3.766
45538SOL    HW236641   7.642   9.293   3.771
45539SOL     OW36642   8.728   8.375   2.534
45539SOL    HW136643   8.788   8.294   2.536
45539SOL    HW236644   8.768   8.444   2.474
45540SOL     OW36645   8.278   8.721   3.284
45540SOL    HW136646   8.273   8.754   3.379
45540SOL    HW236647   8.192   8.740   3.238
45541SOL     OW36648   8.120   9.064   2.016
45541SOL    HW136649   8.129   9.074   1.917
45541SOL    HW236650   8.080   8.975   2.037
45542SOL     OW36651   9.098   9.168   3.256
45542SOL    HW136652   9.151   9.178   3.172
45542SOL    HW236653   9.071   9.258   3.290
45543SOL     OW36654   7.711   7.774   2.582
45543SOL    HW136655   7.632   7.825   2.548
45543SOL    HW236656   7.702   7.759   2.680
45544SOL     OW36657   8.642   9.060   1.893
45544SOL    HW136658   8.648   8.967   1.930
45544SOL    HW236659   8.583   9.060   1.813
45545SOL     OW36660   8.270   8.450   3.234
45545SOL    HW136661   8.310   8.449   3.142
45545SOL    HW236662   8.280   8.542   3.274
45546SOL     OW36663   8.364   8.358   2.153
45546SOL    HW136664   8.427   8.396   2.085
45546SOL    HW236665   8.404   8.275   2.192
45547SOL     OW36666   8.952   9.055   1.906
45547SOL    HW136667   8.860   9.092   1.913
45547SOL    HW236668   8.990   9.075   1.816
45548SOL     OW36669   7.820   8.736   3.352
45548SOL    HW136670   7.807   8.829   3.318
45548SOL    HW236671   7.736   8.684   3.339
45549SOL     OW36672   9.062   8.740   3.151
45549SOL    HW136673   9.122   8.743   3.231
45549SOL    HW236674   8.987   8.804   3.164
45550SOL     OW36675   8.487   8.546   2.558
45550SOL    HW136676   8.417   8.499   2.612
45550SOL    HW236677   8.546   8.478   2.515
45551SOL     OW36678   8.462   7.684   2.833
45551SOL    HW136679   8.454   7.648   2.740
45551SOL    HW236680   8.460   7.608   2.898
45552SOL     OW36681   8.038   8.935   2.353
45552SOL    HW136682   8.080   8.877   2.283
45552SOL    HW236683   7.994   9.014   2.309
45553SOL     OW36684   9.157   7.833   3.243
45553SOL    HW136685   9.230   7.902   3.247
45553SOL    HW236686   9.185   7.758   3.184
45554SOL     OW36687   7.703   8.796   2.152
45554SOL    HW136688   7.607   8.797   2.125
45554SOL    HW236689   7.715   8.849   2.236
45555SOL     OW36690   7.553   8.461   3.588
45555SOL    HW136691   7.476   8.428   3.642
45555SOL    HW236692   7.638   8.431   3.630
45556SOL     OW36693   8.120   7.651   3.351
45556SOL    HW136694   8.210   7.635   3.311
45556SOL    HW236695   8.128   7.656   3.450
45557SOL     OW36696   7.523   7.793   1.895
45557SOL    HW136697   7.431   7.765   1.866
45557SOL    HW236698   7.554   7.870   1.839
45558SOL     OW36699   8.888   8.304   3.260
45558SOL    HW136700   8.831   8.356   3.197
45558SOL    HW236701   8.984   8.316   3.236
45559SOL     OW36702   7.520   7.614   2.180
45559SOL    HW136703   7.503   7.697   2.126
45559SOL    HW236704   7.610   7.577   2.158
45560SOL     OW36705   8.631   8.783   1.981
45560SOL    HW136706   8.532   8.772   1.983
45560SOL    HW236707   8.665   8.798   2.074
45561SOL     OW36708   8.061   8.290   3.293
45561SOL    HW136709   8.117   8.371   3.276
45561SOL    HW236710   8.120   8.210   3.296
45562SOL     OW36711   8.941   9.215   2.821
45562SOL    HW136712   8.974   9.279   2.752
45562SOL    HW236713   9.007   9.209   2.896
45563SOL     OW36714   8.164   8.013   3.570
45563SOL    HW136715   8.183   8.078   3.644
45563SOL    HW236716   8.224   7.933   3.579
45564SOL     OW36717   8.898   8.668   3.495
45564SOL    HW136718   8.889   8.658   3.594
45564SOL    HW236719   8.994   8.661   3.469
45565SOL     OW36720   7.838   9.189   3.422
45565SOL    HW136721   7.747   9.230   3.420
45565SOL    HW236722   7.831   9.095   3.454
45566SOL     OW36723   9.122   8.331   3.116
45566SOL    HW136724   9.095   8.242   3.079
45566SOL    HW236725   9.123   8.399   3.043
45567SOL     OW36726   8.673   7.773   2.311
45567SOL    HW136727   8.738   7.699   2.300
45567SOL    HW236728   8.693   7.823   2.395
45568SOL     OW36729   8.042   8.193   2.514
45568SOL    HW136730   8.092   8.278   2.495
45568SOL    HW236731   7.954   8.195   2.466
45569SOL     OW36732   9.225   7.790   3.504
45569SOL    HW136733   9.208   7.821   3.410
45569SOL    HW236734   9.141   7.753   3.542
45570SOL     OW36735   9.178   8.382   3.379
45570SOL    HW136736   9.216   8.473   3.394
45570SOL    HW236737   9.170   8.365   3.280
45571SOL     OW36738   8.307   8.822   1.878
45571SOL    HW136739   8.261   8.837   1.966
45571SOL    HW236740   8.351   8.907   1.848
45572SOL     OW36741   8.109   9.238   2.815
45572SOL    HW136742   8.063   9.326   2.802
45572SOL    HW236743   8.208   9.250   2.808
45573SOL     OW36744   8.307   8.404   2.723
45573SOL    HW136745   8.361   8.335   2.771
45573SOL    HW236746   8.275   8.473   2.789
45574SOL     OW36747   8.531   8.432   1.949
45574SOL    HW136748   8.508   8.485   1.867
45574SOL    HW236749   8.612   8.376   1.930
45575SOL     OW36750   9.309   9.017   2.713
45575SOL    HW136751   9.238   9.005   2.643
45575SOL    HW236752   9.310   8.938   2.773
45576SOL     OW36753   7.669   8.762   3.706
45576SOL    HW136754   7.604   8.689   3.685
45576SOL    HW236755   7.673   8.776   3.804
45577SOL     OW36756   7.527   8.688   2.515
45577SOL    HW136757   7.526   8.641   2.603
45577SOL    HW236758   7.609   8.660   2.464
45578SOL     OW36759   8.120   8.839   3.486
45578SOL    HW136760   8.042   8.789   3.524
45578SOL    HW236761   8.117   8.934   3.517
45579SOL     OW36762   9.272   7.640   3.089
45579SOL    HW136763   9.268   7.550   3.133
45579SOL    HW236764   9.275   7.629   2.990
45580SOL     OW36765   7.876   7.872   2.382
45580SOL    HW136766   7.906   7.800   2.320
45580SOL    HW236767   7.837   7.832   2.465
45581SOL     OW36768   9.153   8.935   2.966
45581SOL    HW136769   9.060   8.910   2.939
45581SOL    HW236770   9.179   8.885   3.048
45582SOL     OW36771   7.765   7.995   3.142
45582SOL    HW136772   7.803   7.936   3.214
45582SOL    HW236773   7.805   7.969   3.054
45583SOL     OW36774   8.260   9.034   2.549
45583SOL    HW136775   8.292   9.044   2.455
45583SOL    HW236776   8.181   8.972   2.551
45584SOL     OW36777   8.872   7.662   2.974
45584SOL    HW136778   8.924   7.597   3.029
45584SOL    HW236779   8.823   7.725   3.035
45585SOL     OW36780   8.449   7.482   3.016
45585SOL    HW136781   8.386   7.410   2.985
45585SOL    HW236782   8.542   7.446   3.016
45586SOL     OW36783   8.218   8.778   2.163
45586SOL    HW136784   8.172   8.691   2.180
45586SOL    HW236785   8.309   8.775   2.204
45587SOL     OW36786   8.066   9.015   3.146
45587SOL    HW136787   8.061   9.097   3.203
45587SOL    HW236788   8.155   9.012   3.101
45588SOL     OW36789   8.800   7.500   2.030
45588SOL    HW136790   8.835   7.459   1.946
45588SOL    HW236791   8.710   7.462   2.050
45589SOL     OW36792   8.748   7.901   2.553
45589SOL    HW136793   8.689   7.981   2.557
45589SOL    HW236794   8.763   7.866   2.646
45590SOL     OW36795   9.041   7.669   2.744
45590SOL    HW136796   8.957   7.668   2.798
45590SOL    HW236797   9.043   7.752   2.688
45591SOL     OW36798   7.487   8.525   2.162
45591SOL    HW136799   7.586   8.514   2.153
45591SOL    HW236800   7.447   8.439   2.194
45592SOL     OW36801   8.323   9.094   2.199
45592SOL    HW136802   8.246   9.059   2.145
45592SOL    HW236803   8.291   9.165   2.261
45593SOL     OW36804   7.678   8.076   3.837
45593SOL    HW136805   7.585   8.074   3.874
45593SOL    HW236806   7.679   8.037   3.745
45594SOL     OW36807   7.673   7.723   4.720
45594SOL    HW136808   7.708   7.706   4.812
45594SOL    HW236809   7.585   7.678   4.708
45595SOL     OW36810   7.467   7.816   4.371
45595SOL    HW136811   7.385   7.859   4.410
45595SOL    HW236812   7.439   7.743   4.308
45596SOL     OW36813   8.017   8.723   4.889
45596SOL    HW136814   7.924   8.716   4.852
45596SOL    HW236815   8.028   8.812   4.933
45597SOL     OW36816   9.003   8.959   4.427
45597SOL    HW136817   8.946   8.943   4.508
45597SOL    HW236818   8.944   8.969   4.347
45598SOL     OW36819   8.583   8.151   4.441
45598SOL    HW136820   8.640   8.229   4.416
45598SOL    HW236821   8.523   8.177   4.517
45599SOL     OW36822   9.203   8.055   3.955
45599SOL    HW136823   9.191   8.042   3.856
45599SOL    HW236824   9.173   7.974   4.004
45600SOL     OW36825   8.216   8.592   4.747
45600SOL    HW136826   8.138   8.609   4.807
45600SOL    HW236827   8.250   8.679   4.711
45601SOL     OW36828   8.298   8.246   5.547
45601SOL    HW136829   8.294   8.322   5.612
45601SOL    HW236830   8.320   8.282   5.456
45602SOL     OW36831   8.133   8.460   4.389
45602SOL    HW136832   8.202   8.444   4.459
45602SOL    HW236833   8.060   8.517   4.427
45603SOL     OW36834   8.134   8.609   5.527
45603SOL    HW136835   8.194   8.688   5.541
45603SOL    HW236836   8.048   8.640   5.486
45604SOL     OW36837   7.783   8.883   4.785
45604SOL    HW136838   7.705   8.852   4.732
45604SOL    HW236839   7.841   8.941   4.728
45605SOL     OW36840   8.908   8.953   5.063
45605SOL    HW136841   8.932   9.047   5.089
45605SOL    HW236842   8.892   8.899   5.145
45606SOL     OW36843   7.886   7.840   5.223
45606SOL    HW136844   7.968   7.784   5.232
45606SOL    HW236845   7.805   7.782   5.227
45607SOL     OW36846   9.051   7.895   4.461
45607SOL    HW136847   8.977   7.941   4.411
45607SOL    HW236848   9.102   7.963   4.514
45608SOL     OW36849   7.679   9.161   4.207
45608SOL    HW136850   7.713   9.238   4.261
45608SOL    HW236851   7.723   9.161   4.117
45609SOL     OW36852   8.575   8.789   5.414
45609SOL    HW136853   8.622   8.789   5.502
45609SOL    HW236854   8.527   8.702   5.403
45610SOL     OW36855   7.678   8.882   4.262
45610SOL    HW136856   7.652   8.978   4.262
45610SOL    HW236857   7.607   8.828   4.307
45611SOL     OW36858   7.688   8.539   4.610
45611SOL    HW136859   7.702   8.455   4.662
45611SOL    HW236860   7.633   8.603   4.665
45612SOL     OW36861   8.068   9.234   5.163
45612SOL    HW136862   7.976   9.217   5.198
45612SOL    HW236863   8.096   9.326   5.189
45613SOL     OW36864   8.054   8.412   3.847
45613SOL    HW136865   8.061   8.496   3.793
45613SOL    HW236866   8.100   8.425   3.935
45614SOL     OW36867   9.042   7.562   5.204
45614SOL    HW136868   9.024   7.629   5.132
45614SOL    HW236869   9.039   7.608   5.293
45615SOL     OW36870   7.570   8.091   4.287
45615SOL    HW136871   7.525   8.003   4.304
45615SOL    HW236872   7.569   8.145   4.371
45616SOL     OW36873   9.290   9.215   4.083
45616SOL    HW136874   9.344   9.186   4.163
45616SOL    HW236875   9.320   9.305   4.054
45617SOL     OW36876   7.475   9.044   3.841
45617SOL    HW136877   7.456   8.948   3.862
45617SOL    HW236878   7.442   9.102   3.916
45618SOL     OW36879   9.137   8.370   4.336
45618SOL    HW136880   9.232   8.341   4.344
45618SOL    HW236881   9.129   8.435   4.261
45619SOL     OW36882   9.089   8.556   4.156
45619SOL    HW136883   9.175   8.558   4.104
45619SOL    HW236884   9.103   8.603   4.244
45620SOL     OW36885   7.561   8.185   5.321
45620SOL    HW136886   7.649   8.172   5.366
45620SOL    HW236887   7.548   8.282   5.299
45621SOL     OW36888   8.061   8.813   4.450
45621SOL    HW136889   8.012   8.726   4.459
45621SOL    HW236890   8.038   8.856   4.363
45622SOL     OW36891   8.741   8.676   5.147
45622SOL    HW136892   8.778   8.603   5.089
45622SOL    HW236893   8.793   8.681   5.232
45623SOL     OW36894   8.257   7.452   4.226
45623SOL    HW136895   8.297   7.543   4.217
45623SOL    HW236896   8.157   7.460   4.232
45624SOL     OW36897   7.645   8.424   4.988
45624SOL    HW136898   7.734   8.379   4.974
45624SOL    HW236899   7.572   8.359   4.969
45625SOL     OW36900   8.973   8.447   3.914
45625SOL    HW136901   8.910   8.371   3.927
45625SOL    HW236902   9.021   8.465   4.000
45626SOL     OW36903   8.635   9.240   5.340
45626SOL    HW136904   8.659   9.300   5.264
45626SOL    HW236905   8.642   9.145   5.310
45627SOL     OW36906   7.765   7.699   5.525
45627SOL    HW136907   7.836   7.770   5.531
45627SOL    HW236908   7.677   7.738   5.553
45628SOL     OW36909   8.914   8.865   4.677
45628SOL    HW136910   8.855   8.871   4.757
45628SOL    HW236911   8.899   8.777   4.631
45629SOL     OW36912   9.115   9.162   4.296
45629SOL    HW136913   9.074   9.139   4.208
45629SOL    HW236914   9.097   9.088   4.361
45630SOL     OW36915   8.046   8.177   3.994
45630SOL    HW136916   8.070   8.246   3.926
45630SOL    HW236917   7.968   8.210   4.048
45631SOL     OW36918   8.729   7.793   4.668
45631SOL    HW136919   8.643   7.743   4.655
45631SOL    HW236920   8.791   7.739   4.724
45632SOL     OW36921   9.024   9.110   4.031
45632SOL    HW136922   9.113   9.156   4.034
45632SOL    HW236923   9.003   9.086   3.936
45633SOL     OW36924   8.255   8.053   5.189
45633SOL    HW136925   8.208   8.050   5.278
45633SOL    HW236926   8.204   7.998   5.123
45634SOL     OW36927   8.842   7.917   5.398
45634SOL    HW136928   8.822   7.960   5.486
45634SOL    HW236929   8.920   7.855   5.407
45635SOL     OW36930   8.421   8.338   5.296
45635SOL    HW136931   8.467   8.254   5.267
45635SOL    HW236932   8.365   8.372   5.221
45636SOL     OW36933   8.439   7.858   4.966
45636SOL    HW136934   8.362   7.892   5.020
45636SOL    HW236935   8.405   7.807   4.887
45637SOL     OW36936   8.489   8.149   4.153
45637SOL    HW136937   8.515   8.145   4.249
45637SOL    HW236938   8.404   8.098   4.139
45638SOL     OW36939   7.524   8.259   4.513
45638SOL    HW136940   7.623   8.247   4.522
45638SOL    HW236941   7.500   8.354   4.534
45639SOL     OW36942   7.578   9.269   5.295
45639SOL    HW136943   7.568   9.254   5.394
45639SOL    HW236944   7.492   9.305   5.259
45640SOL     OW36945   8.313   7.796   3.919
45640SOL    HW136946   8.372   7.859   3.870
45640SOL    HW236947   8.332   7.702   3.890
45641SOL     OW36948   9.167   8.033   5.555
45641SOL    HW136949   9.141   8.122   5.519
45641SOL    HW236950   9.165   7.965   5.482
45642SOL     OW36951   8.810   8.592   4.269
45642SOL    HW136952   8.893   8.563   4.221
45642SOL    HW236953   8.761   8.659   4.213
45643SOL     OW36954   7.998   7.644   4.609
45643SOL    HW136955   7.993   7.639   4.709
45643SOL    HW236956   8.000   7.740   4.580
45644SOL     OW36957   8.456   8.904   4.201
45644SOL    HW136958   8.410   8.976   4.149
45644SOL    HW236959   8.452   8.924   4.299
45645SOL     OW36960   7.799   9.249   4.577
45645SOL    HW136961   7.849   9.163   4.583
45645SOL    HW236962   7.864   9.326   4.574
45646SOL     OW36963   9.243   8.514   4.597
45646SOL    HW136964   9.181   8.499   4.521
45646SOL    HW236965   9.191   8.525   4.682
45647SOL     OW36966   8.675   8.998   5.230
45647SOL    HW136967   8.681   8.921   5.294
45647SOL    HW236968   8.623   8.972   5.150
45648SOL     OW36969   7.769   8.391   3.966
45648SOL    HW136970   7.851   8.430   3.924
45648SOL    HW236971   7.742   8.309   3.917
45649SOL     OW36972   8.906   8.183   4.452
45649SOL    HW136973   8.901   8.118   4.527
45649SOL    HW236974   8.986   8.242   4.465
45650SOL     OW36975   7.909   8.714   5.451
45650SOL    HW136976   7.859   8.715   5.365
45650SOL    HW236977   7.846   8.696   5.527
45651SOL     OW36978   8.559   9.224   3.961
45651SOL    HW136979   8.499   9.162   4.011
45651SOL    HW236980   8.590   9.180   3.876
45652SOL     OW36981   7.650   7.733   5.222
45652SOL    HW136982   7.570   7.793   5.209
45652SOL    HW236983   7.640   7.684   5.308
45653SOL     OW36984   9.080   8.825   3.805
45653SOL    HW136985   9.048   8.919   3.795
45653SOL    HW236986   9.004   8.762   3.793
45654SOL     OW36987   7.912   9.191   4.047
45654SOL    HW136988   7.945   9.230   4.133
45654SOL    HW236989   7.988   9.184   3.982
45655SOL     OW36990   8.848   7.555   4.150
45655SOL    HW136991   8.824   7.518   4.060
45655SOL    HW236992   8.947   7.571   4.154
45656SOL     OW36993   7.697   9.233   4.965
45656SOL    HW136994   7.754   9.168   5.015
45656SOL    HW236995   7.681   9.200   4.872
45657SOL     OW36996   8.388   9.146   4.628
45657SOL    HW136997   8.468   9.089   4.649
45657SOL    HW236998   8.339   9.106   4.551
45658SOL     OW36999   7.830   8.148   4.204
45658SOL    HW137000   7.875   8.058   4.201
45658SOL    HW237001   7.736   8.137   4.237
45659SOL     OW37002   8.995   7.670   5.453
45659SOL    HW137003   8.990   7.707   5.545
45659SOL    HW237004   8.923   7.601   5.441
45660SOL     OW37005   8.062   7.570   3.841
45660SOL    HW137006   8.160   7.548   3.848
45660SOL    HW237007   8.031   7.553   3.748
45661SOL     OW37008   8.229   7.712   5.473
45661SOL    HW137009   8.296   7.651   5.516
45661SOL    HW237010   8.156   7.731   5.538
45662SOL     OW37011   8.336   8.962   4.919
45662SOL    HW137012   8.313   8.937   4.825
45662SOL    HW237013   8.397   8.893   4.958
45663SOL     OW37014   8.799   8.038   5.157
45663SOL    HW137015   8.827   7.995   5.242
45663SOL    HW237016   8.824   8.134   5.158
45664SOL     OW37017   8.251   8.850   4.648
45664SOL    HW137018   8.341   8.864   4.606
45664SOL    HW237019   8.180   8.852   4.577
45665SOL     OW37020   8.370   7.951   4.623
45665SOL    HW137021   8.345   7.942   4.527
45665SOL    HW237022   8.418   7.869   4.654
45666SOL     OW37023   7.987   7.512   4.236
45666SOL    HW137024   7.906   7.513   4.294
45666SOL    HW237025   7.990   7.595   4.181
45667SOL     OW37026   8.882   8.636   3.765
45667SOL    HW137027   8.914   8.560   3.822
45667SOL    HW237028   8.790   8.663   3.795
45668SOL     OW37029   7.745   7.483   3.895
45668SOL    HW137030   7.794   7.567   3.874
45668SOL    HW237031   7.807   7.418   3.940
45669SOL     OW37032   8.383   7.684   4.204
45669SOL    HW137033   8.335   7.725   4.126
45669SOL    HW237034   8.482   7.682   4.185
45670SOL     OW37035   8.524   8.131   5.188
45670SOL    HW137036   8.444   8.070   5.191
45670SOL    HW237037   8.605   8.078   5.164
45671SOL     OW37038   8.675   9.018   4.517
45671SOL    HW137039   8.696   9.092   4.452
45671SOL    HW237040   8.743   9.018   4.590
45672SOL     OW37041   7.907   8.600   4.465
45672SOL    HW137042   7.836   8.573   4.530
45672SOL    HW237043   7.881   8.572   4.372
45673SOL     OW37044   8.719   9.245   4.315
45673SOL    HW137045   8.763   9.309   4.251
45673SOL    HW237046   8.669   9.297   4.385
45674SOL     OW37047   8.480   7.997   3.740
45674SOL    HW137048   8.439   8.079   3.701
45674SOL    HW237049   8.544   8.023   3.813
45675SOL     OW37050   7.526   8.004   5.110
45675SOL    HW137051   7.618   8.003   5.069
45675SOL    HW237052   7.520   8.078   5.177
45676SOL     OW37053   8.009   7.670   4.871
45676SOL    HW137054   8.047   7.586   4.908
45676SOL    HW237055   7.921   7.689   4.915
45677SOL     OW37056   8.314   7.902   4.366
45677SOL    HW137057   8.282   7.974   4.304
45677SOL    HW237058   8.338   7.821   4.313
45678SOL     OW37059   8.465   7.487   4.477
45678SOL    HW137060   8.393   7.492   4.408
45678SOL    HW237061   8.441   7.418   4.546
45679SOL     OW37062   8.877   8.621   4.591
45679SOL    HW137063   8.822   8.537   4.584
45679SOL    HW237064   8.903   8.650   4.499
45680SOL     OW37065   8.914   8.038   4.716
45680SOL    HW137066   8.884   7.943   4.723
45680SOL    HW237067   8.987   8.054   4.782
45681SOL     OW37068   9.305   8.281   4.101
45681SOL    HW137069   9.347   8.217   4.165
45681SOL    HW237070   9.267   8.230   4.023
45682SOL     OW37071   7.936   8.833   3.898
45682SOL    HW137072   7.849   8.818   3.945
45682SOL    HW237073   7.919   8.859   3.803
45683SOL     OW37074   9.112   8.728   4.381
45683SOL    HW137075   9.211   8.736   4.395
45683SOL    HW237076   9.067   8.812   4.412
45684SOL     OW37077   8.838   8.023   3.802
45684SOL    HW137078   8.784   8.002   3.883
45684SOL    HW237079   8.929   7.982   3.811
45685SOL     OW37080   7.975   7.704   4.052
45685SOL    HW137081   8.002   7.645   3.977
45685SOL    HW237082   7.975   7.799   4.021
45686SOL     OW37083   9.202   8.671   5.312
45686SOL    HW137084   9.293   8.632   5.299
45686SOL    HW237085   9.210   8.767   5.336
45687SOL     OW37086   8.512   8.795   5.064
45687SOL    HW137087   8.432   8.772   5.119
45687SOL    HW237088   8.595   8.769   5.113
45688SOL     OW37089   9.040   9.077   5.349
45688SOL    HW137090   9.067   9.111   5.259
45688SOL    HW237091   9.119   9.039   5.395
45689SOL     OW37092   8.559   8.643   4.824
45689SOL    HW137093   8.519   8.687   4.905
45689SOL    HW237094   8.518   8.680   4.741
45690SOL     OW37095   9.086   8.547   4.803
45690SOL    HW137096   9.091   8.628   4.862
45690SOL    HW237097   9.000   8.549   4.752
45691SOL     OW37098   8.363   7.537   5.126
45691SOL    HW137099   8.388   7.517   5.031
45691SOL    HW237100   8.435   7.593   5.168
45692SOL     OW37101   8.428   8.564   5.443
45692SOL    HW137102   8.329   8.570   5.453
45692SOL    HW237103   8.451   8.484   5.387
45693SOL     OW37104   8.153   8.498   4.092
45693SOL    HW137105   8.139   8.505   4.191
45693SOL    HW237106   8.237   8.447   4.074
45694SOL     OW37107   7.858   8.261   4.975
45694SOL    HW137108   7.944   8.273   5.025
45694SOL    HW237109   7.816   8.174   5.002
45695SOL     OW37110   8.722   7.834   4.986
45695SOL    HW137111   8.743   7.908   5.050
45695SOL    HW237112   8.633   7.851   4.943
45696SOL     OW37113   7.512   9.012   5.055
45696SOL    HW137114   7.466   9.094   5.021
45696SOL    HW237115   7.610   9.031   5.064
45697SOL     OW37116   7.815   8.548   4.225
45697SOL    HW137117   7.808   8.631   4.169
45697SOL    HW237118   7.819   8.468   4.165
45698SOL     OW37119   8.014   7.985   4.589
45698SOL    HW137120   8.026   8.051   4.515
45698SOL    HW237121   8.060   8.019   4.672
45699SOL     OW37122   8.700   8.796   4.112
45699SOL    HW137123   8.750   8.873   4.152
45699SOL    HW237124   8.605   8.798   4.144
45700SOL     OW37125   8.720   8.893   4.866
45700SOL    HW137126   8.767   8.906   4.953
45700SOL    HW237127   8.654   8.819   4.875
45701SOL     OW37128   9.030   8.087   4.196
45701SOL    HW137129   8.999   8.148   4.269
45701SOL    HW237130   9.080   8.139   4.127
45702SOL     OW37131   7.802   8.958   5.053
45702SOL    HW137132   7.781   8.914   4.966
45702SOL    HW237133   7.899   8.984   5.056
45703SOL     OW37134   7.850   8.199   5.322
45703SOL    HW137135   7.918   8.254   5.275
45703SOL    HW237136   7.890   8.111   5.349
45704SOL     OW37137   9.035   8.227   5.394
45704SOL    HW137138   8.943   8.265   5.389
45704SOL    HW237139   9.095   8.274   5.329
45705SOL     OW37140   8.461   7.553   5.494
45705SOL    HW137141   8.467   7.638   5.442
45705SOL    HW237142   8.493   7.477   5.437
45706SOL     OW37143   7.952   7.498   5.464
45706SOL    HW137144   7.910   7.441   5.394
45706SOL    HW237145   7.886   7.567   5.496
45707SOL     OW37146   8.021   8.318   4.753
45707SOL    HW137147   8.065   8.407   4.744
45707SOL    HW237148   7.958   8.318   4.830
45708SOL     OW37149   8.808   8.310   4.769
45708SOL    HW137150   8.733   8.310   4.703
45708SOL    HW237151   8.845   8.218   4.778
45709SOL     OW37152   8.657   7.973   3.999
45709SOL    HW137153   8.670   7.889   4.053
45709SOL    HW237154   8.628   8.047   4.059
45710SOL     OW37155   7.755   7.661   4.955
45710SOL    HW137156   7.732   7.698   5.045
45710SOL    HW237157   7.725   7.566   4.949
45711SOL     OW37158   7.485   8.758   5.006
45711SOL    HW137159   7.538   8.709   5.074
45711SOL    HW237160   7.507   8.856   5.011
45712SOL     OW37161   8.180   8.082   4.788
45712SOL    HW137162   8.239   8.056   4.712
45712SOL    HW237163   8.152   8.178   4.777
45713SOL     OW37164   9.176   8.383   5.578
45713SOL    HW137165   9.130   8.376   5.489
45713SOL    HW237166   9.114   8.427   5.644
45714SOL     OW37167   7.755   7.511   4.342
45714SOL    HW137168   7.744   7.605   4.375
45714SOL    HW237169   7.750   7.448   4.419
45715SOL     OW37170   9.070   7.815   4.098
45715SOL    HW137171   9.072   7.739   4.162
45715SOL    HW237172   9.022   7.892   4.138
45716SOL     OW37173   8.471   8.214   4.690
45716SOL    HW137174   8.486   8.235   4.786
45716SOL    HW237175   8.441   8.119   4.681
45717SOL     OW37176   8.428   9.021   5.424
45717SOL    HW137177   8.408   9.065   5.336
45717SOL    HW237178   8.467   8.930   5.408
45718SOL     OW37179   9.307   8.966   5.329
45718SOL    HW137180   9.321   8.993   5.234
45718SOL    HW237181   9.390   8.988   5.382
45719SOL     OW37182   7.798   8.346   5.528
45719SOL    HW137183   7.874   8.390   5.576
45719SOL    HW237184   7.833   8.299   5.446
45720SOL     OW37185   8.988   7.722   3.849
45720SOL    HW137186   8.927   7.647   3.872
45720SOL    HW237187   9.010   7.774   3.932
45721SOL     OW37188   8.751   8.286   3.766
45721SOL    HW137189   8.785   8.193   3.781
45721SOL    HW237190   8.769   8.313   3.671
45722SOL     OW37191   8.516   8.781   4.573
45722SOL    HW137192   8.523   8.697   4.518
45722SOL    HW237193   8.578   8.850   4.537
45723SOL     OW37194   7.767   8.258   4.673
45723SOL    HW137195   7.860   8.294   4.678
45723SOL    HW237196   7.761   8.173   4.725
45724SOL     OW37197   7.787   7.957   4.730
45724SOL    HW137198   7.735   7.874   4.713
45724SOL    HW237199   7.864   7.962   4.666
45725SOL     OW37200   8.586   7.828   5.402
45725SOL    HW137201   8.541   7.891   5.466
45725SOL    HW237202   8.679   7.859   5.385
45726SOL     OW37203   8.608   7.655   5.201
45726SOL    HW137204   8.608   7.719   5.278
45726SOL    HW237205   8.636   7.703   5.118
45727SOL     OW37206   7.456   8.774   3.924
45727SOL    HW137207   7.363   8.795   3.893
45727SOL    HW237208   7.466   8.675   3.937
45728SOL     OW37209   7.536   9.249   4.651
45728SOL    HW137210   7.494   9.163   4.624
45728SOL    HW237211   7.630   9.252   4.617
45729SOL     OW37212   7.952   9.016   4.634
45729SOL    HW137213   8.018   9.090   4.643
45729SOL    HW237214   7.996   8.937   4.592
45730SOL     OW37215   8.450   8.244   4.962
45730SOL    HW137216   8.491   8.212   5.048
45730SOL    HW237217   8.354   8.217   4.959
45731SOL     OW37218   7.488   7.992   4.838
45731SOL    HW137219   7.573   7.959   4.797
45731SOL    HW237220   7.501   8.007   4.936
45732SOL     OW37221   7.637   7.968   5.446
45732SOL    HW137222   7.696   7.928   5.376
45732SOL    HW237223   7.579   8.039   5.405
45733SOL     OW37224   8.817   8.398   5.384
45733SOL    HW137225   8.856   8.487   5.404
45733SOL    HW237226   8.827   8.378   5.287
45734SOL     OW37227   8.263   8.020   4.049
45734SOL    HW137228   8.270   7.931   4.003
45734SOL    HW237229   8.169   8.054   4.041
45735SOL     OW37230   9.105   8.052   4.930
45735SOL    HW137231   9.067   7.983   4.992
45735SOL    HW237232   9.187   8.016   4.886
45736SOL     OW37233   7.700   9.012   5.468
45736SOL    HW137234   7.670   9.069   5.544
45736SOL    HW237235   7.693   8.915   5.494
45737SOL     OW37236   8.119   7.912   4.993
45737SOL    HW137237   8.085   7.823   4.963
45737SOL    HW237238   8.145   7.966   4.913
45738SOL     OW37239   8.378   9.126   5.189
45738SOL    HW137240   8.354   9.108   5.094
45738SOL    HW237241   8.408   9.220   5.199
45739SOL     OW37242   7.921   7.948   3.915
45739SOL    HW137243   7.982   8.028   3.919
45739SOL    HW237244   7.826   7.979   3.922
45740SOL     OW37245   7.607   8.585   5.190
45740SOL    HW137246   7.629   8.524   5.266
45740SOL    HW237247   7.617   8.536   5.104
45741SOL     OW37248   8.795   8.507   4.958
45741SOL    HW137249   8.819   8.444   4.884
45741SOL    HW237250   8.705   8.547   4.940
45742SOL     OW37251   8.750   8.303   4.033
45742SOL    HW137252   8.664   8.272   4.075
45742SOL    HW237253   8.746   8.289   3.934
45743SOL     OW37254   9.207   9.195   4.878
45743SOL    HW137255   9.268   9.225   4.805
45743SOL    HW237256   9.169   9.106   4.856
45744SOL     OW37257   8.700   9.179   4.852
45744SOL    HW137258   8.784   9.184   4.798
45744SOL    HW237259   8.677   9.083   4.870
45745SOL     OW37260   7.531   8.706   4.746
45745SOL    HW137261   7.526   8.705   4.846
45745SOL    HW237262   7.448   8.665   4.708
45746SOL     OW37263   8.136   9.110   5.440
45746SOL    HW137264   8.080   9.191   5.449
45746SOL    HW237265   8.188   9.114   5.354
45747SOL     OW37266   9.174   7.583   4.247
45747SOL    HW137267   9.247   7.566   4.180
45747SOL    HW237268   9.143   7.496   4.285
45748SOL     OW37269   8.836   9.021   4.201
45748SOL    HW137270   8.903   9.033   4.127
45748SOL    HW237271   8.796   9.110   4.224
45749SOL     OW37272   7.578   9.242   5.575
45749SOL    HW137273   7.537   9.168   5.628
45749SOL    HW237274   7.642   9.293   5.633
45750SOL     OW37275   8.278   8.721   5.146
45750SOL    HW137276   8.273   8.754   5.241
45750SOL    HW237277   8.192   8.740   5.100
45751SOL     OW37278   8.120   9.064   3.878
45751SOL    HW137279   8.129   9.074   3.779
45751SOL    HW237280   8.080   8.975   3.899
45752SOL     OW37281   9.098   9.168   5.118
45752SOL    HW137282   9.151   9.178   5.034
45752SOL    HW237283   9.071   9.258   5.152
45753SOL     OW37284   9.289   7.623   4.687
45753SOL    HW137285   9.328   7.538   4.651
45753SOL    HW237286   9.191   7.625   4.668
45754SOL     OW37287   7.711   7.774   4.444
45754SOL    HW137288   7.632   7.825   4.410
45754SOL    HW237289   7.702   7.759   4.542
45755SOL     OW37290   8.642   9.060   3.755
45755SOL    HW137291   8.648   8.967   3.792
45755SOL    HW237292   8.583   9.060   3.675
45756SOL     OW37293   8.270   8.450   5.096
45756SOL    HW137294   8.310   8.449   5.004
45756SOL    HW237295   8.280   8.542   5.136
45757SOL     OW37296   8.364   8.358   4.015
45757SOL    HW137297   8.427   8.396   3.947
45757SOL    HW237298   8.404   8.275   4.054
45758SOL     OW37299   8.952   9.055   3.768
45758SOL    HW137300   8.860   9.092   3.775
45758SOL    HW237301   8.990   9.075   3.678
45759SOL     OW37302   7.820   8.736   5.214
45759SOL    HW137303   7.807   8.829   5.180
45759SOL    HW237304   7.736   8.684   5.201
45760SOL     OW37305   9.062   8.740   5.013
45760SOL    HW137306   9.122   8.743   5.093
45760SOL    HW237307   8.987   8.804   5.026
45761SOL     OW37308   8.487   8.546   4.420
45761SOL    HW137309   8.417   8.499   4.474
45761SOL    HW237310   8.546   8.478   4.377
45762SOL     OW37311   8.462   7.684   4.695
45762SOL    HW137312   8.454   7.648   4.602
45762SOL    HW237313   8.460   7.608   4.760
45763SOL     OW37314   8.038   8.935   4.215
45763SOL    HW137315   8.080   8.877   4.145
45763SOL    HW237316   7.994   9.014   4.171
45764SOL     OW37317   9.157   7.833   5.105
45764SOL    HW137318   9.230   7.902   5.109
45764SOL    HW237319   9.185   7.758   5.046
45765SOL     OW37320   7.703   8.796   4.014
45765SOL    HW137321   7.607   8.797   3.987
45765SOL    HW237322   7.715   8.849   4.098
45766SOL     OW37323   7.553   8.461   5.450
45766SOL    HW137324   7.476   8.428   5.504
45766SOL    HW237325   7.638   8.431   5.492
45767SOL     OW37326   8.120   7.651   5.213
45767SOL    HW137327   8.210   7.635   5.173
45767SOL    HW237328   8.128   7.656   5.312
45768SOL     OW37329   7.523   7.793   3.757
45768SOL    HW137330   7.431   7.765   3.728
45768SOL    HW237331   7.554   7.870   3.701
45769SOL     OW37332   8.888   8.304   5.122
45769SOL    HW137333   8.831   8.356   5.059
45769SOL    HW237334   8.984   8.316   5.098
45770SOL     OW37335   7.520   7.614   4.042
45770SOL    HW137336   7.503   7.697   3.988
45770SOL    HW237337   7.610   7.577   4.020
45771SOL     OW37338   8.631   8.783   3.843
45771SOL    HW137339   8.532   8.772   3.845
45771SOL    HW237340   8.665   8.798   3.936
45772SOL     OW37341   8.061   8.290   5.155
45772SOL    HW137342   8.117   8.371   5.138
45772SOL    HW237343   8.120   8.210   5.158
45773SOL     OW37344   8.941   9.215   4.683
45773SOL    HW137345   8.974   9.279   4.614
45773SOL    HW237346   9.007   9.209   4.758
45774SOL     OW37347   8.164   8.013   5.432
45774SOL    HW137348   8.183   8.078   5.506
45774SOL    HW237349   8.224   7.933   5.441
45775SOL     OW37350   8.898   8.668   5.357
45775SOL    HW137351   8.889   8.658   5.456
45775SOL    HW237352   8.994   8.661   5.331
45776SOL     OW37353   7.838   9.189   5.284
45776SOL    HW137354   7.747   9.230   5.282
45776SOL    HW237355   7.831   9.095   5.316
45777SOL     OW37356   9.122   8.331   4.978
45777SOL    HW137357   9.095   8.242   4.941
45777SOL    HW237358   9.123   8.399   4.905
45778SOL     OW37359   8.673   7.773   4.173
45778SOL    HW137360   8.738   7.699   4.162
45778SOL    HW237361   8.693   7.823   4.257
45779SOL     OW37362   8.042   8.193   4.376
45779SOL    HW137363   8.092   8.278   4.357
45779SOL    HW237364   7.954   8.195   4.328
45780SOL     OW37365   9.225   7.790   5.366
45780SOL    HW137366   9.208   7.821   5.272
45780SOL    HW237367   9.141   7.753   5.404
45781SOL     OW37368   9.178   8.382   5.241
45781SOL    HW137369   9.216   8.473   5.256
45781SOL    HW237370   9.170   8.365   5.142
45782SOL     OW37371   8.307   8.822   3.740
45782SOL    HW137372   8.261   8.837   3.828
45782SOL    HW237373   8.351   8.907   3.710
45783SOL     OW37374   8.109   9.238   4.677
45783SOL    HW137375   8.063   9.326   4.664
45783SOL    HW237376   8.208   9.250   4.670
45784SOL     OW37377   8.307   8.404   4.585
45784SOL    HW137378   8.361   8.335   4.633
45784SOL    HW237379   8.275   8.473   4.651
45785SOL     OW37380   8.531   8.432   3.811
45785SOL    HW137381   8.508   8.485   3.729
45785SOL    HW237382   8.612   8.376   3.792
45786SOL     OW37383   9.309   9.017   4.575
45786SOL    HW137384   9.238   9.005   4.505
45786SOL    HW237385   9.310   8.938   4.635
45787SOL     OW37386   7.669   8.762   5.568
45787SOL    HW137387   7.604   8.689   5.547
45787SOL    HW237388   7.673   8.776   5.666
45788SOL     OW37389   7.527   8.688   4.377
45788SOL    HW137390   7.526   8.641   4.465
45788SOL    HW237391   7.609   8.660   4.326
45789SOL     OW37392   8.120   8.839   5.348
45789SOL    HW137393   8.042   8.789   5.386
45789SOL    HW237394   8.117   8.934   5.379
45790SOL     OW37395   9.272   7.640   4.951
45790SOL    HW137396   9.268   7.550   4.995
45790SOL    HW237397   9.275   7.629   4.852
45791SOL     OW37398   7.876   7.872   4.244
45791SOL    HW137399   7.906   7.800   4.182
45791SOL    HW237400   7.837   7.832   4.327
45792SOL     OW37401   9.153   8.935   4.828
45792SOL    HW137402   9.060   8.910   4.801
45792SOL    HW237403   9.179   8.885   4.910
45793SOL     OW37404   7.765   7.995   5.004
45793SOL    HW137405   7.803   7.936   5.076
45793SOL    HW237406   7.805   7.969   4.916
45794SOL     OW37407   8.260   9.034   4.411
45794SOL    HW137408   8.292   9.044   4.317
45794SOL    HW237409   8.181   8.972   4.413
45795SOL     OW37410   8.872   7.662   4.836
45795SOL    HW137411   8.924   7.597   4.891
45795SOL    HW237412   8.823   7.725   4.897
45796SOL     OW37413   8.449   7.482   4.878
45796SOL    HW137414   8.386   7.410   4.847
45796SOL    HW237415   8.542   7.446   4.878
45797SOL     OW37416   8.218   8.778   4.025
45797SOL    HW137417   8.172   8.691   4.042
45797SOL    HW237418   8.309   8.775   4.066
45798SOL     OW37419   8.066   9.015   5.008
45798SOL    HW137420   8.061   9.097   5.065
45798SOL    HW237421   8.155   9.012   4.963
45799SOL     OW37422   8.800   7.500   3.892
45799SOL    HW137423   8.835   7.459   3.808
45799SOL    HW237424   8.710   7.462   3.912
45800SOL     OW37425   8.748   7.901   4.415
45800SOL    HW137426   8.689   7.981   4.419
45800SOL    HW237427   8.763   7.866   4.508
45801SOL     OW37428   9.041   7.669   4.606
45801SOL    HW137429   8.957   7.668   4.660
45801SOL    HW237430   9.043   7.752   4.550
45802SOL     OW37431   7.487   8.525   4.024
45802SOL    HW137432   7.586   8.514   4.015
45802SOL    HW237433   7.447   8.439   4.056
45803SOL     OW37434   8.323   9.094   4.061
45803SOL    HW137435   8.246   9.059   4.007
45803SOL    HW237436   8.291   9.165   4.123
45804SOL     OW37437   7.678   8.076   5.699
45804SOL    HW137438   7.585   8.074   5.736
45804SOL    HW237439   7.679   8.037   5.607
45805SOL     OW37440   7.673   7.723   6.582
45805SOL    HW137441   7.708   7.706   6.674
45805SOL    HW237442   7.585   7.678   6.570
45806SOL     OW37443   7.467   7.816   6.233
45806SOL    HW137444   7.385   7.859   6.272
45806SOL    HW237445   7.439   7.743   6.170
45807SOL     OW37446   8.017   8.723   6.751
45807SOL    HW137447   7.924   8.716   6.714
45807SOL    HW237448   8.028   8.812   6.795
45808SOL     OW37449   9.003   8.959   6.289
45808SOL    HW137450   8.946   8.943   6.370
45808SOL    HW237451   8.944   8.969   6.209
45809SOL     OW37452   8.583   8.151   6.303
45809SOL    HW137453   8.640   8.229   6.278
45809SOL    HW237454   8.523   8.177   6.379
45810SOL     OW37455   9.203   8.055   5.817
45810SOL    HW137456   9.191   8.042   5.718
45810SOL    HW237457   9.173   7.974   5.866
45811SOL     OW37458   8.216   8.592   6.609
45811SOL    HW137459   8.138   8.609   6.669
45811SOL    HW237460   8.250   8.679   6.573
45812SOL     OW37461   8.298   8.246   7.409
45812SOL    HW137462   8.294   8.322   7.474
45812SOL    HW237463   8.320   8.282   7.318
45813SOL     OW37464   8.133   8.460   6.251
45813SOL    HW137465   8.202   8.444   6.321
45813SOL    HW237466   8.060   8.517   6.289
45814SOL     OW37467   8.134   8.609   7.389
45814SOL    HW137468   8.194   8.688   7.403
45814SOL    HW237469   8.048   8.640   7.348
45815SOL     OW37470   7.783   8.883   6.647
45815SOL    HW137471   7.705   8.852   6.594
45815SOL    HW237472   7.841   8.941   6.590
45816SOL     OW37473   8.908   8.953   6.925
45816SOL    HW137474   8.932   9.047   6.951
45816SOL    HW237475   8.892   8.899   7.007
45817SOL     OW37476   7.886   7.840   7.085
45817SOL    HW137477   7.968   7.784   7.094
45817SOL    HW237478   7.805   7.782   7.089
45818SOL     OW37479   9.051   7.895   6.323
45818SOL    HW137480   8.977   7.941   6.273
45818SOL    HW237481   9.102   7.963   6.376
45819SOL     OW37482   7.679   9.161   6.069
45819SOL    HW137483   7.713   9.238   6.123
45819SOL    HW237484   7.723   9.161   5.979
45820SOL     OW37485   8.575   8.789   7.276
45820SOL    HW137486   8.622   8.789   7.364
45820SOL    HW237487   8.527   8.702   7.265
45821SOL     OW37488   7.678   8.882   6.124
45821SOL    HW137489   7.652   8.978   6.124
45821SOL    HW237490   7.607   8.828   6.169
45822SOL     OW37491   7.688   8.539   6.472
45822SOL    HW137492   7.702   8.455   6.524
45822SOL    HW237493   7.633   8.603   6.527
45823SOL     OW37494   8.068   9.234   7.025
45823SOL    HW137495   7.976   9.217   7.060
45823SOL    HW237496   8.096   9.326   7.051
45824SOL     OW37497   8.054   8.412   5.709
45824SOL    HW137498   8.061   8.496   5.655
45824SOL    HW237499   8.100   8.425   5.797
45825SOL     OW37500   9.042   7.562   7.066
45825SOL    HW137501   9.024   7.629   6.994
45825SOL    HW237502   9.039   7.608   7.155
45826SOL     OW37503   7.570   8.091   6.149
45826SOL    HW137504   7.525   8.003   6.166
45826SOL    HW237505   7.569   8.145   6.233
45827SOL     OW37506   9.290   9.215   5.945
45827SOL    HW137507   9.344   9.186   6.025
45827SOL    HW237508   9.320   9.305   5.916
45828SOL     OW37509   7.475   9.044   5.703
45828SOL    HW137510   7.456   8.948   5.724
45828SOL    HW237511   7.442   9.102   5.778
45829SOL     OW37512   9.137   8.370   6.198
45829SOL    HW137513   9.232   8.341   6.206
45829SOL    HW237514   9.129   8.435   6.123
45830SOL     OW37515   9.089   8.556   6.018
45830SOL    HW137516   9.175   8.558   5.966
45830SOL    HW237517   9.103   8.603   6.106
45831SOL     OW37518   7.561   8.185   7.183
45831SOL    HW137519   7.649   8.172   7.228
45831SOL    HW237520   7.548   8.282   7.161
45832SOL     OW37521   8.061   8.813   6.312
45832SOL    HW137522   8.012   8.726   6.321
45832SOL    HW237523   8.038   8.856   6.225
45833SOL     OW37524   8.741   8.676   7.009
45833SOL    HW137525   8.778   8.603   6.951
45833SOL    HW237526   8.793   8.681   7.094
45834SOL     OW37527   8.257   7.452   6.088
45834SOL    HW137528   8.297   7.543   6.079
45834SOL    HW237529   8.157   7.460   6.094
45835SOL     OW37530   7.645   8.424   6.850
45835SOL    HW137531   7.734   8.379   6.836
45835SOL    HW237532   7.572   8.359   6.831
45836SOL     OW37533   8.973   8.447   5.776
45836SOL    HW137534   8.910   8.371   5.789
45836SOL    HW237535   9.021   8.465   5.862
45837SOL     OW37536   8.635   9.240   7.202
45837SOL    HW137537   8.659   9.300   7.126
45837SOL    HW237538   8.642   9.145   7.172
45838SOL     OW37539   7.765   7.699   7.387
45838SOL    HW137540   7.836   7.770   7.393
45838SOL    HW237541   7.677   7.738   7.415
45839SOL     OW37542   8.914   8.865   6.539
45839SOL    HW137543   8.855   8.871   6.619
45839SOL    HW237544   8.899   8.777   6.493
45840SOL     OW37545   9.115   9.162   6.158
45840SOL    HW137546   9.074   9.139   6.070
45840SOL    HW237547   9.097   9.088   6.223
45841SOL     OW37548   8.046   8.177   5.856
45841SOL    HW137549   8.070   8.246   5.788
45841SOL    HW237550   7.968   8.210   5.910
45842SOL     OW37551   8.729   7.793   6.530
45842SOL    HW137552   8.643   7.743   6.517
45842SOL    HW237553   8.791   7.739   6.586
45843SOL     OW37554   9.024   9.110   5.893
45843SOL    HW137555   9.113   9.156   5.896
45843SOL    HW237556   9.003   9.086   5.798
45844SOL     OW37557   8.255   8.053   7.051
45844SOL    HW137558   8.208   8.050   7.140
45844SOL    HW237559   8.204   7.998   6.985
45845SOL     OW37560   8.842   7.917   7.260
45845SOL    HW137561   8.822   7.960   7.348
45845SOL    HW237562   8.920   7.855   7.269
45846SOL     OW37563   8.421   8.338   7.158
45846SOL    HW137564   8.467   8.254   7.129
45846SOL    HW237565   8.365   8.372   7.083
45847SOL     OW37566   8.439   7.858   6.828
45847SOL    HW137567   8.362   7.892   6.882
45847SOL    HW237568   8.405   7.807   6.749
45848SOL     OW37569   8.489   8.149   6.015
45848SOL    HW137570   8.515   8.145   6.111
45848SOL    HW237571   8.404   8.098   6.001
45849SOL     OW37572   7.524   8.259   6.375
45849SOL    HW137573   7.623   8.247   6.384
45849SOL    HW237574   7.500   8.354   6.396
45850SOL     OW37575   7.578   9.269   7.157
45850SOL    HW137576   7.568   9.254   7.256
45850SOL    HW237577   7.492   9.305   7.121
45851SOL     OW37578   8.313   7.796   5.781
45851SOL    HW137579   8.372   7.859   5.732
45851SOL    HW237580   8.332   7.702   5.752
45852SOL     OW37581   9.167   8.033   7.417
45852SOL    HW137582   9.141   8.122   7.381
45852SOL    HW237583   9.165   7.965   7.344
45853SOL     OW37584   8.810   8.592   6.131
45853SOL    HW137585   8.893   8.563   6.083
45853SOL    HW237586   8.761   8.659   6.075
45854SOL     OW37587   7.998   7.644   6.471
45854SOL    HW137588   7.993   7.639   6.571
45854SOL    HW237589   8.000   7.740   6.442
45855SOL     OW37590   8.456   8.904   6.063
45855SOL    HW137591   8.410   8.976   6.011
45855SOL    HW237592   8.452   8.924   6.161
45856SOL     OW37593   7.799   9.249   6.439
45856SOL    HW137594   7.849   9.163   6.445
45856SOL    HW237595   7.864   9.326   6.436
45857SOL     OW37596   9.243   8.514   6.459
45857SOL    HW137597   9.181   8.499   6.383
45857SOL    HW237598   9.191   8.525   6.544
45858SOL     OW37599   8.675   8.998   7.092
45858SOL    HW137600   8.681   8.921   7.156
45858SOL    HW237601   8.623   8.972   7.012
45859SOL     OW37602   7.769   8.391   5.828
45859SOL    HW137603   7.851   8.430   5.786
45859SOL    HW237604   7.742   8.309   5.779
45860SOL     OW37605   8.906   8.183   6.314
45860SOL    HW137606   8.901   8.118   6.389
45860SOL    HW237607   8.986   8.242   6.327
45861SOL     OW37608   7.909   8.714   7.313
45861SOL    HW137609   7.859   8.715   7.227
45861SOL    HW237610   7.846   8.696   7.389
45862SOL     OW37611   8.559   9.224   5.823
45862SOL    HW137612   8.499   9.162   5.873
45862SOL    HW237613   8.590   9.180   5.738
45863SOL     OW37614   7.650   7.733   7.084
45863SOL    HW137615   7.570   7.793   7.071
45863SOL    HW237616   7.640   7.684   7.170
45864SOL     OW37617   9.080   8.825   5.667
45864SOL    HW137618   9.048   8.919   5.657
45864SOL    HW237619   9.004   8.762   5.655
45865SOL     OW37620   7.912   9.191   5.909
45865SOL    HW137621   7.945   9.230   5.995
45865SOL    HW237622   7.988   9.184   5.844
45866SOL     OW37623   8.848   7.555   6.012
45866SOL    HW137624   8.824   7.518   5.922
45866SOL    HW237625   8.947   7.571   6.016
45867SOL     OW37626   7.697   9.233   6.827
45867SOL    HW137627   7.754   9.168   6.877
45867SOL    HW237628   7.681   9.200   6.734
45868SOL     OW37629   8.388   9.146   6.490
45868SOL    HW137630   8.468   9.089   6.511
45868SOL    HW237631   8.339   9.106   6.413
45869SOL     OW37632   7.830   8.148   6.066
45869SOL    HW137633   7.875   8.058   6.063
45869SOL    HW237634   7.736   8.137   6.099
45870SOL     OW37635   8.995   7.670   7.315
45870SOL    HW137636   8.990   7.707   7.407
45870SOL    HW237637   8.923   7.601   7.303
45871SOL     OW37638   8.062   7.570   5.703
45871SOL    HW137639   8.160   7.548   5.710
45871SOL    HW237640   8.031   7.553   5.610
45872SOL     OW37641   8.229   7.712   7.335
45872SOL    HW137642   8.296   7.651   7.378
45872SOL    HW237643   8.156   7.731   7.400
45873SOL     OW37644   8.336   8.962   6.781
45873SOL    HW137645   8.313   8.937   6.687
45873SOL    HW237646   8.397   8.893   6.820
45874SOL     OW37647   8.799   8.038   7.019
45874SOL    HW137648   8.827   7.995   7.104
45874SOL    HW237649   8.824   8.134   7.020
45875SOL     OW37650   8.251   8.850   6.510
45875SOL    HW137651   8.341   8.864   6.468
45875SOL    HW237652   8.180   8.852   6.439
45876SOL     OW37653   8.370   7.951   6.485
45876SOL    HW137654   8.345   7.942   6.389
45876SOL    HW237655   8.418   7.869   6.516
45877SOL     OW37656   7.987   7.512   6.098
45877SOL    HW137657   7.906   7.513   6.156
45877SOL    HW237658   7.990   7.595   6.043
45878SOL     OW37659   8.882   8.636   5.627
45878SOL    HW137660   8.914   8.560   5.684
45878SOL    HW237661   8.790   8.663   5.657
45879SOL     OW37662   7.745   7.483   5.757
45879SOL    HW137663   7.794   7.567   5.736
45879SOL    HW237664   7.807   7.418   5.802
45880SOL     OW37665   8.383   7.684   6.066
45880SOL    HW137666   8.335   7.725   5.988
45880SOL    HW237667   8.482   7.682   6.047
45881SOL     OW37668   8.524   8.131   7.050
45881SOL    HW137669   8.444   8.070   7.053
45881SOL    HW237670   8.605   8.078   7.026
45882SOL     OW37671   8.675   9.018   6.379
45882SOL    HW137672   8.696   9.092   6.314
45882SOL    HW237673   8.743   9.018   6.452
45883SOL     OW37674   7.907   8.600   6.327
45883SOL    HW137675   7.836   8.573   6.392
45883SOL    HW237676   7.881   8.572   6.234
45884SOL     OW37677   8.719   9.245   6.177
45884SOL    HW137678   8.763   9.309   6.113
45884SOL    HW237679   8.669   9.297   6.247
45885SOL     OW37680   8.480   7.997   5.602
45885SOL    HW137681   8.439   8.079   5.563
45885SOL    HW237682   8.544   8.023   5.675
45886SOL     OW37683   7.526   8.004   6.972
45886SOL    HW137684   7.618   8.003   6.931
45886SOL    HW237685   7.520   8.078   7.039
45887SOL     OW37686   8.009   7.670   6.733
45887SOL    HW137687   8.047   7.586   6.770
45887SOL    HW237688   7.921   7.689   6.777
45888SOL     OW37689   8.314   7.902   6.228
45888SOL    HW137690   8.282   7.974   6.166
45888SOL    HW237691   8.338   7.821   6.175
45889SOL     OW37692   8.465   7.487   6.339
45889SOL    HW137693   8.393   7.492   6.270
45889SOL    HW237694   8.441   7.418   6.408
45890SOL     OW37695   8.877   8.621   6.453
45890SOL    HW137696   8.822   8.537   6.446
45890SOL    HW237697   8.903   8.650   6.361
45891SOL     OW37698   8.914   8.038   6.578
45891SOL    HW137699   8.884   7.943   6.585
45891SOL    HW237700   8.987   8.054   6.644
45892SOL     OW37701   9.305   8.281   5.963
45892SOL    HW137702   9.347   8.217   6.027
45892SOL    HW237703   9.267   8.230   5.885
45893SOL     OW37704   7.936   8.833   5.760
45893SOL    HW137705   7.849   8.818   5.807
45893SOL    HW237706   7.919   8.859   5.665
45894SOL     OW37707   9.112   8.728   6.243
45894SOL    HW137708   9.211   8.736   6.257
45894SOL    HW237709   9.067   8.812   6.274
45895SOL     OW37710   8.838   8.023   5.664
45895SOL    HW137711   8.784   8.002   5.745
45895SOL    HW237712   8.929   7.982   5.673
45896SOL     OW37713   7.975   7.704   5.914
45896SOL    HW137714   8.002   7.645   5.839
45896SOL    HW237715   7.975   7.799   5.883
45897SOL     OW37716   9.202   8.671   7.174
45897SOL    HW137717   9.293   8.632   7.161
45897SOL    HW237718   9.210   8.767   7.198
45898SOL     OW37719   8.512   8.795   6.926
45898SOL    HW137720   8.432   8.772   6.981
45898SOL    HW237721   8.595   8.769   6.975
45899SOL     OW37722   9.040   9.077   7.211
45899SOL    HW137723   9.067   9.111   7.121
45899SOL    HW237724   9.119   9.039   7.257
45900SOL     OW37725   8.559   8.643   6.686
45900SOL    HW137726   8.519   8.687   6.767
45900SOL    HW237727   8.518   8.680   6.603
45901SOL     OW37728   9.086   8.547   6.665
45901SOL    HW137729   9.091   8.628   6.724
45901SOL    HW237730   9.000   8.549   6.614
45902SOL     OW37731   8.363   7.537   6.988
45902SOL    HW137732   8.388   7.517   6.893
45902SOL    HW237733   8.435   7.593   7.030
45903SOL     OW37734   8.428   8.564   7.305
45903SOL    HW137735   8.329   8.570   7.315
45903SOL    HW237736   8.451   8.484   7.249
45904SOL     OW37737   8.153   8.498   5.954
45904SOL    HW137738   8.139   8.505   6.053
45904SOL    HW237739   8.237   8.447   5.936
45905SOL     OW37740   7.858   8.261   6.837
45905SOL    HW137741   7.944   8.273   6.887
45905SOL    HW237742   7.816   8.174   6.864
45906SOL     OW37743   8.722   7.834   6.848
45906SOL    HW137744   8.743   7.908   6.912
45906SOL    HW237745   8.633   7.851   6.805
45907SOL     OW37746   7.512   9.012   6.917
45907SOL    HW137747   7.466   9.094   6.883
45907SOL    HW237748   7.610   9.031   6.926
45908SOL     OW37749   7.815   8.548   6.087
45908SOL    HW137750   7.808   8.631   6.031
45908SOL    HW237751   7.819   8.468   6.027
45909SOL     OW37752   8.014   7.985   6.451
45909SOL    HW137753   8.026   8.051   6.377
45909SOL    HW237754   8.060   8.019   6.534
45910SOL     OW37755   8.700   8.796   5.974
45910SOL    HW137756   8.750   8.873   6.014
45910SOL    HW237757   8.605   8.798   6.006
45911SOL     OW37758   8.720   8.893   6.728
45911SOL    HW137759   8.767   8.906   6.815
45911SOL    HW237760   8.654   8.819   6.737
45912SOL     OW37761   9.030   8.087   6.058
45912SOL    HW137762   8.999   8.148   6.131
45912SOL    HW237763   9.080   8.139   5.989
45913SOL     OW37764   7.802   8.958   6.915
45913SOL    HW137765   7.781   8.914   6.828
45913SOL    HW237766   7.899   8.984   6.918
45914SOL     OW37767   7.850   8.199   7.184
45914SOL    HW137768   7.918   8.254   7.137
45914SOL    HW237769   7.890   8.111   7.211
45915SOL     OW37770   9.035   8.227   7.256
45915SOL    HW137771   8.943   8.265   7.251
45915SOL    HW237772   9.095   8.274   7.191
45916SOL     OW37773   8.461   7.553   7.356
45916SOL    HW137774   8.467   7.638   7.304
45916SOL    HW237775   8.493   7.477   7.299
45917SOL     OW37776   7.952   7.498   7.326
45917SOL    HW137777   7.910   7.441   7.256
45917SOL    HW237778   7.886   7.567   7.358
45918SOL     OW37779   8.021   8.318   6.615
45918SOL    HW137780   8.065   8.407   6.606
45918SOL    HW237781   7.958   8.318   6.692
45919SOL     OW37782   8.808   8.310   6.631
45919SOL    HW137783   8.733   8.310   6.565
45919SOL    HW237784   8.845   8.218   6.640
45920SOL     OW37785   8.657   7.973   5.861
45920SOL    HW137786   8.670   7.889   5.915
45920SOL    HW237787   8.628   8.047   5.921
45921SOL     OW37788   7.755   7.661   6.817
45921SOL    HW137789   7.732   7.698   6.907
45921SOL    HW237790   7.725   7.566   6.811
45922SOL     OW37791   7.485   8.758   6.868
45922SOL    HW137792   7.538   8.709   6.936
45922SOL    HW237793   7.507   8.856   6.873
45923SOL     OW37794   8.180   8.082   6.650
45923SOL    HW137795   8.239   8.056   6.574
45923SOL    HW237796   8.152   8.178   6.639
45924SOL     OW37797   9.176   8.383   7.440
45924SOL    HW137798   9.130   8.376   7.351
45924SOL    HW237799   9.114   8.427   7.506
45925SOL     OW37800   7.755   7.511   6.204
45925SOL    HW137801   7.744   7.605   6.237
45925SOL    HW237802   7.750   7.448   6.281
45926SOL     OW37803   9.070   7.815   5.960
45926SOL    HW137804   9.072   7.739   6.024
45926SOL    HW237805   9.022   7.892   6.000
45927SOL     OW37806   8.471   8.214   6.552
45927SOL    HW137807   8.486   8.235   6.648
45927SOL    HW237808   8.441   8.119   6.543
45928SOL     OW37809   8.428   9.021   7.286
45928SOL    HW137810   8.408   9.065   7.198
45928SOL    HW237811   8.467   8.930   7.270
45929SOL     OW37812   9.307   8.966   7.191
45929SOL    HW137813   9.321   8.993   7.096
45929SOL    HW237814   9.390   8.988   7.244
45930SOL     OW37815   7.798   8.346   7.390
45930SOL    HW137816   7.874   8.390   7.438
45930SOL    HW237817   7.833   8.299   7.308
45931SOL     OW37818   8.988   7.722   5.711
45931SOL    HW137819   8.927   7.647   5.734
45931SOL    HW237820   9.010   7.774   5.794
45932SOL     OW37821   8.751   8.286   5.628
45932SOL    HW137822   8.785   8.193   5.643
45932SOL    HW237823   8.769   8.313   5.533
45933SOL     OW37824   8.516   8.781   6.435
45933SOL    HW137825   8.523   8.697   6.380
45933SOL    HW237826   8.578   8.850   6.399
45934SOL     OW37827   7.767   8.258   6.535
45934SOL    HW137828   7.860   8.294   6.540
45934SOL    HW237829   7.761   8.173   6.587
45935SOL     OW37830   7.787   7.957   6.592
45935SOL    HW137831   7.735   7.874   6.575
45935SOL    HW237832   7.864   7.962   6.528
45936SOL     OW37833   8.586   7.828   7.264
45936SOL    HW137834   8.541   7.891   7.328
45936SOL    HW237835   8.679   7.859   7.247
45937SOL     OW37836   8.608   7.655   7.063
45937SOL    HW137837   8.608   7.719   7.140
45937SOL    HW237838   8.636   7.703   6.980
45938SOL     OW37839   7.456   8.774   5.786
45938SOL    HW137840   7.363   8.795   5.755
45938SOL    HW237841   7.466   8.675   5.799
45939SOL     OW37842   7.536   9.249   6.513
45939SOL    HW137843   7.494   9.163   6.486
45939SOL    HW237844   7.630   9.252   6.479
45940SOL     OW37845   7.952   9.016   6.496
45940SOL    HW137846   8.018   9.090   6.505
45940SOL    HW237847   7.996   8.937   6.454
45941SOL     OW37848   8.450   8.244   6.824
45941SOL    HW137849   8.491   8.212   6.910
45941SOL    HW237850   8.354   8.217   6.821
45942SOL     OW37851   7.488   7.992   6.700
45942SOL    HW137852   7.573   7.959   6.659
45942SOL    HW237853   7.501   8.007   6.798
45943SOL     OW37854   7.637   7.968   7.308
45943SOL    HW137855   7.696   7.928   7.238
45943SOL    HW237856   7.579   8.039   7.267
45944SOL     OW37857   8.817   8.398   7.246
45944SOL    HW137858   8.856   8.487   7.266
45944SOL    HW237859   8.827   8.378   7.149
45945SOL     OW37860   8.263   8.020   5.911
45945SOL    HW137861   8.270   7.931   5.865
45945SOL    HW237862   8.169   8.054   5.903
45946SOL     OW37863   9.105   8.052   6.792
45946SOL    HW137864   9.067   7.983   6.854
45946SOL    HW237865   9.187   8.016   6.748
45947SOL     OW37866   7.700   9.012   7.330
45947SOL    HW137867   7.670   9.069   7.406
45947SOL    HW237868   7.693   8.915   7.356
45948SOL     OW37869   8.119   7.912   6.855
45948SOL    HW137870   8.085   7.823   6.825
45948SOL    HW237871   8.145   7.966   6.775
45949SOL     OW37872   8.378   9.126   7.051
45949SOL    HW137873   8.354   9.108   6.956
45949SOL    HW237874   8.408   9.220   7.061
45950SOL     OW37875   7.921   7.948   5.777
45950SOL    HW137876   7.982   8.028   5.781
45950SOL    HW237877   7.826   7.979   5.784
45951SOL     OW37878   7.607   8.585   7.052
45951SOL    HW137879   7.629   8.524   7.128
45951SOL    HW237880   7.617   8.536   6.966
45952SOL     OW37881   8.795   8.507   6.820
45952SOL    HW137882   8.819   8.444   6.746
45952SOL    HW237883   8.705   8.547   6.802
45953SOL     OW37884   8.750   8.303   5.895
45953SOL    HW137885   8.664   8.272   5.937
45953SOL    HW237886   8.746   8.289   5.796
45954SOL     OW37887   9.207   9.195   6.740
45954SOL    HW137888   9.268   9.225   6.667
45954SOL    HW237889   9.169   9.106   6.718
45955SOL     OW37890   8.700   9.179   6.714
45955SOL    HW137891   8.784   9.184   6.660
45955SOL    HW237892   8.677   9.083   6.732
45956SOL     OW37893   7.531   8.706   6.608
45956SOL    HW137894   7.526   8.705   6.708
45956SOL    HW237895   7.448   8.665   6.570
45957SOL     OW37896   8.136   9.110   7.302
45957SOL    HW137897   8.080   9.191   7.311
45957SOL    HW237898   8.188   9.114   7.216
45958SOL     OW37899   9.174   7.583   6.109
45958SOL    HW137900   9.247   7.566   6.042
45958SOL    HW237901   9.143   7.496   6.147
45959SOL     OW37902   8.836   9.021   6.063
45959SOL    HW137903   8.903   9.033   5.989
45959SOL    HW237904   8.796   9.110   6.086
45960SOL     OW37905   7.578   9.242   7.437
45960SOL    HW137906   7.537   9.168   7.490
45960SOL    HW237907   7.642   9.293   7.495
45961SOL     OW37908   8.728   8.375   6.258
45961SOL    HW137909   8.788   8.294   6.260
45961SOL    HW237910   8.768   8.444   6.198
45962SOL     OW37911   8.278   8.721   7.008
45962SOL    HW137912   8.273   8.754   7.103
45962SOL    HW237913   8.192   8.740   6.962
45963SOL     OW37914   8.120   9.064   5.740
45963SOL    HW137915   8.129   9.074   5.641
45963SOL    HW237916   8.080   8.975   5.761
45964SOL     OW37917   9.098   9.168   6.980
45964SOL    HW137918   9.151   9.178   6.896
45964SOL    HW237919   9.071   9.258   7.014
45965SOL     OW37920   9.289   7.623   6.549
45965SOL    HW137921   9.328   7.538   6.513
45965SOL    HW237922   9.191   7.625   6.530
45966SOL     OW37923   7.711   7.774   6.306
45966SOL    HW137924   7.632   7.825   6.272
45966SOL    HW237925   7.702   7.759   6.404
45967SOL     OW37926   8.642   9.060   5.617
45967SOL    HW137927   8.648   8.967   5.654
45967SOL    HW237928   8.583   9.060   5.537
45968SOL     OW37929   8.270   8.450   6.958
45968SOL    HW137930   8.310   8.449   6.866
45968SOL    HW237931   8.280   8.542   6.998
45969SOL     OW37932   8.364   8.358   5.877
45969SOL    HW137933   8.427   8.396   5.809
45969SOL    HW237934   8.404   8.275   5.916
45970SOL     OW37935   8.952   9.055   5.630
45970SOL    HW137936   8.860   9.092   5.637
45970SOL    HW237937   8.990   9.075   5.540
45971SOL     OW37938   7.820   8.736   7.076
45971SOL    HW137939   7.807   8.829   7.042
45971SOL    HW237940   7.736   8.684   7.063
45972SOL     OW37941   9.062   8.740   6.875
45972SOL    HW137942   9.122   8.743   6.955
45972SOL    HW237943   8.987   8.804   6.888
45973SOL     OW37944   8.487   8.546   6.282
45973SOL    HW137945   8.417   8.499   6.336
45973SOL    HW237946   8.546   8.478   6.239
45974SOL     OW37947   8.462   7.684   6.557
45974SOL    HW137948   8.454   7.648   6.464
45974SOL    HW237949   8.460   7.608   6.622
45975SOL     OW37950   8.038   8.935   6.077
45975SOL    HW137951   8.080   8.877   6.007
45975SOL    HW237952   7.994   9.014   6.033
45976SOL     OW37953   9.157   7.833   6.967
45976SOL    HW137954   9.230   7.902   6.971
45976SOL    HW237955   9.185   7.758   6.908
45977SOL     OW37956   7.703   8.796   5.876
45977SOL    HW137957   7.607   8.797   5.849
45977SOL    HW237958   7.715   8.849   5.960
45978SOL     OW37959   7.553   8.461   7.312
45978SOL    HW137960   7.476   8.428   7.366
45978SOL    HW237961   7.638   8.431   7.354
45979SOL     OW37962   8.120   7.651   7.075
45979SOL    HW137963   8.210   7.635   7.035
45979SOL    HW237964   8.128   7.656   7.174
45980SOL     OW37965   7.523   7.793   5.619
45980SOL    HW137966   7.431   7.765   5.590
45980SOL    HW237967   7.554   7.870   5.563
45981SOL     OW37968   8.888   8.304   6.984
45981SOL    HW137969   8.831   8.356   6.921
45981SOL    HW237970   8.984   8.316   6.960
45982SOL     OW37971   7.520   7.614   5.904
45982SOL    HW137972   7.503   7.697   5.850
45982SOL    HW237973   7.610   7.577   5.882
45983SOL     OW37974   8.631   8.783   5.705
45983SOL    HW137975   8.532   8.772   5.707
45983SOL    HW237976   8.665   8.798   5.798
45984SOL     OW37977   8.941   9.215   6.545
45984SOL    HW137978   8.974   9.279   6.476
45984SOL    HW237979   9.007   9.209   6.620
45985SOL     OW37980   8.164   8.013   7.294
45985SOL    HW137981   8.183   8.078   7.368
45985SOL    HW237982   8.224   7.933   7.303
45986SOL     OW37983   8.898   8.668   7.219
45986SOL    HW137984   8.889   8.658   7.318
45986SOL    HW237985   8.994   8.661   7.193
45987SOL     OW37986   7.838   9.189   7.146
45987SOL    HW137987   7.747   9.230   7.144
45987SOL    HW237988   7.831   9.095   7.178
45988SOL     OW37989   9.122   8.331   6.840
45988SOL    HW137990   9.095   8.242   6.803
45988SOL    HW237991   9.123   8.399   6.767
45989SOL     OW37992   8.673   7.773   6.035
45989SOL    HW137993   8.738   7.699   6.024
45989SOL    HW237994   8.693   7.823   6.119
45990SOL     OW37995   8.042   8.193   6.238
45990SOL    HW137996   8.092   8.278   6.219
45990SOL    HW237997   7.954   8.195   6.190
45991SOL     OW37998   9.225   7.790   7.228
45991SOL    HW137999   9.208   7.821   7.134
45991SOL    HW238000   9.141   7.753   7.266
45992SOL     OW38001   9.178   8.382   7.103
45992SOL    HW138002   9.216   8.473   7.118
45992SOL    HW238003   9.170   8.365   7.004
45993SOL     OW38004   8.307   8.822   5.602
45993SOL    HW138005   8.261   8.837   5.690
45993SOL    HW238006   8.351   8.907   5.572
45994SOL     OW38007   8.109   9.238   6.539
45994SOL    HW138008   8.063   9.326   6.526
45994SOL    HW238009   8.208   9.250   6.532
45995SOL     OW38010   8.307   8.404   6.447
45995SOL    HW138011   8.361   8.335   6.495
45995SOL    HW238012   8.275   8.473   6.513
45996SOL     OW38013   8.531   8.432   5.673
45996SOL    HW138014   8.508   8.485   5.591
45996SOL    HW238015   8.612   8.376   5.654
45997SOL     OW38016   9.309   9.017   6.437
45997SOL    HW138017   9.238   9.005   6.367
45997SOL    HW238018   9.310   8.938   6.497
45998SOL     OW38019   7.669   8.762   7.430
45998SOL    HW138020   7.604   8.689   7.409
45998SOL    HW238021   7.673   8.776   7.528
45999SOL     OW38022   7.527   8.688   6.239
45999SOL    HW138023   7.526   8.641   6.327
45999SOL    HW238024   7.609   8.660   6.188
46000SOL     OW38025   8.120   8.839   7.210
46000SOL    HW138026   8.042   8.789   7.248
46000SOL    HW238027   8.117   8.934   7.241
46001SOL     OW38028   9.272   7.640   6.813
46001SOL    HW138029   9.268   7.550   6.857
46001SOL    HW238030   9.275   7.629   6.714
46002SOL     OW38031   7.876   7.872   6.106
46002SOL    HW138032   7.906   7.800   6.044
46002SOL    HW238033   7.837   7.832   6.189
46003SOL     OW38034   9.153   8.935   6.690
46003SOL    HW138035   9.060   8.910   6.663
46003SOL    HW238036   9.179   8.885   6.772
46004SOL     OW38037   7.765   7.995   6.866
46004SOL    HW138038   7.803   7.936   6.938
46004SOL    HW238039   7.805   7.969   6.778
46005SOL     OW38040   8.260   9.034   6.273
46005SOL    HW138041   8.292   9.044   6.179
46005SOL    HW238042   8.181   8.972   6.275
46006SOL     OW38043   8.872   7.662   6.698
46006SOL    HW138044   8.924   7.597   6.753
46006SOL    HW238045   8.823   7.725   6.759
46007SOL     OW38046   8.449   7.482   6.740
46007SOL    HW138047   8.386   7.410   6.709
46007SOL    HW238048   8.542   7.446   6.740
46008SOL     OW38049   8.218   8.778   5.887
46008SOL    HW138050   8.172   8.691   5.904
46008SOL    HW238051   8.309   8.775   5.928
46009SOL     OW38052   8.066   9.015   6.870
46009SOL    HW138053   8.061   9.097   6.927
46009SOL    HW238054   8.155   9.012   6.825
46010SOL     OW38055   8.800   7.500   5.754
46010SOL    HW138056   8.835   7.459   5.670
46010SOL    HW238057   8.710   7.462   5.774
46011SOL     OW38058   8.748   7.901   6.277
46011SOL    HW138059   8.689   7.981   6.281
46011SOL    HW238060   8.763   7.866   6.370
46012SOL     OW38061   9.041   7.669   6.468
46012SOL    HW138062   8.957   7.668   6.522
46012SOL    HW238063   9.043   7.752   6.412
46013SOL     OW38064   7.487   8.525   5.886
46013SOL    HW138065   7.586   8.514   5.877
46013SOL    HW238066   7.447   8.439   5.918
46014SOL     OW38067   8.323   9.094   5.923
46014SOL    HW138068   8.246   9.059   5.869
46014SOL    HW238069   8.291   9.165   5.985
46015SOL     OW38070   7.678   8.076   7.561
46015SOL    HW138071   7.585   8.074   7.598
46015SOL    HW238072   7.679   8.037   7.469
46016SOL     OW38073   7.673   7.723   8.444
46016SOL    HW138074   7.708   7.706   8.536
46016SOL    HW238075   7.585   7.678   8.432
46017SOL     OW38076   7.467   7.816   8.095
46017SOL    HW138077   7.385   7.859   8.134
46017SOL    HW238078   7.439   7.743   8.032
46018SOL     OW38079   8.017   8.723   8.613
46018SOL    HW138080   7.924   8.716   8.576
46018SOL    HW238081   8.028   8.812   8.657
46019SOL     OW38082   9.003   8.959   8.151
46019SOL    HW138083   8.946   8.943   8.232
46019SOL    HW238084   8.944   8.969   8.071
46020SOL     OW38085   8.583   8.151   8.165
46020SOL    HW138086   8.640   8.229   8.140
46020SOL    HW238087   8.523   8.177   8.241
46021SOL     OW38088   9.203   8.055   7.679
46021SOL    HW138089   9.191   8.042   7.580
46021SOL    HW238090   9.173   7.974   7.728
46022SOL     OW38091   8.216   8.592   8.471
46022SOL    HW138092   8.138   8.609   8.531
46022SOL    HW238093   8.250   8.679   8.435
46023SOL     OW38094   8.298   8.246   9.271
46023SOL    HW138095   8.294   8.322   9.336
46023SOL    HW238096   8.320   8.282   9.180
46024SOL     OW38097   8.133   8.460   8.113
46024SOL    HW138098   8.202   8.444   8.183
46024SOL    HW238099   8.060   8.517   8.151
46025SOL     OW38100   8.134   8.609   9.251
46025SOL    HW138101   8.194   8.688   9.265
46025SOL    HW238102   8.048   8.640   9.210
46026SOL     OW38103   7.783   8.883   8.509
46026SOL    HW138104   7.705   8.852   8.456
46026SOL    HW238105   7.841   8.941   8.452
46027SOL     OW38106   8.908   8.953   8.787
46027SOL    HW138107   8.932   9.047   8.813
46027SOL    HW238108   8.892   8.899   8.869
46028SOL     OW38109   7.886   7.840   8.947
46028SOL    HW138110   7.968   7.784   8.956
46028SOL    HW238111   7.805   7.782   8.951
46029SOL     OW38112   9.051   7.895   8.185
46029SOL    HW138113   8.977   7.941   8.135
46029SOL    HW238114   9.102   7.963   8.238
46030SOL     OW38115   7.679   9.161   7.931
46030SOL    HW138116   7.713   9.238   7.985
46030SOL    HW238117   7.723   9.161   7.841
46031SOL     OW38118   8.575   8.789   9.138
46031SOL    HW138119   8.622   8.789   9.226
46031SOL    HW238120   8.527   8.702   9.127
46032SOL     OW38121   7.678   8.882   7.986
46032SOL    HW138122   7.652   8.978   7.986
46032SOL    HW238123   7.607   8.828   8.031
46033SOL     OW38124   7.688   8.539   8.334
46033SOL    HW138125   7.702   8.455   8.386
46033SOL    HW238126   7.633   8.603   8.389
46034SOL     OW38127   8.068   9.234   8.887
46034SOL    HW138128   7.976   9.217   8.922
46034SOL    HW238129   8.096   9.326   8.913
46035SOL     OW38130   8.054   8.412   7.571
46035SOL    HW138131   8.061   8.496   7.517
46035SOL    HW238132   8.100   8.425   7.659
46036SOL     OW38133   9.042   7.562   8.928
46036SOL    HW138134   9.024   7.629   8.856
46036SOL    HW238135   9.039   7.608   9.017
46037SOL     OW38136   7.570   8.091   8.011
46037SOL    HW138137   7.525   8.003   8.028
46037SOL    HW238138   7.569   8.145   8.095
46038SOL     OW38139   9.290   9.215   7.807
46038SOL    HW138140   9.344   9.186   7.887
46038SOL    HW238141   9.320   9.305   7.778
46039SOL     OW38142   7.475   9.044   7.565
46039SOL    HW138143   7.456   8.948   7.586
46039SOL    HW238144   7.442   9.102   7.640
46040SOL     OW38145   9.137   8.370   8.060
46040SOL    HW138146   9.232   8.341   8.068
46040SOL    HW238147   9.129   8.435   7.985
46041SOL     OW38148   9.089   8.556   7.880
46041SOL    HW138149   9.175   8.558   7.828
46041SOL    HW238150   9.103   8.603   7.968
46042SOL     OW38151   7.561   8.185   9.045
46042SOL    HW138152   7.649   8.172   9.090
46042SOL    HW238153   7.548   8.282   9.023
46043SOL     OW38154   8.061   8.813   8.174
46043SOL    HW138155   8.012   8.726   8.183
46043SOL    HW238156   8.038   8.856   8.087
46044SOL     OW38157   8.741   8.676   8.871
46044SOL    HW138158   8.778   8.603   8.813
46044SOL    HW238159   8.793   8.681   8.956
46045SOL     OW38160   8.257   7.452   7.950
46045SOL    HW138161   8.297   7.543   7.941
46045SOL    HW238162   8.157   7.460   7.956
46046SOL     OW38163   7.645   8.424   8.712
46046SOL    HW138164   7.734   8.379   8.698
46046SOL    HW238165   7.572   8.359   8.693
46047SOL     OW38166   8.973   8.447   7.638
46047SOL    HW138167   8.910   8.371   7.651
46047SOL    HW238168   9.021   8.465   7.724
46048SOL     OW38169   8.635   9.240   9.064
46048SOL    HW138170   8.659   9.300   8.988
46048SOL    HW238171   8.642   9.145   9.034
46049SOL     OW38172   7.765   7.699   9.249
46049SOL    HW138173   7.836   7.770   9.255
46049SOL    HW238174   7.677   7.738   9.277
46050SOL     OW38175   8.914   8.865   8.401
46050SOL    HW138176   8.855   8.871   8.481
46050SOL    HW238177   8.899   8.777   8.355
46051SOL     OW38178   9.115   9.162   8.020
46051SOL    HW138179   9.074   9.139   7.932
46051SOL    HW238180   9.097   9.088   8.085
46052SOL     OW38181   8.046   8.177   7.718
46052SOL    HW138182   8.070   8.246   7.650
46052SOL    HW238183   7.968   8.210   7.772
46053SOL     OW38184   8.729   7.793   8.392
46053SOL    HW138185   8.643   7.743   8.379
46053SOL    HW238186   8.791   7.739   8.448
46054SOL     OW38187   9.024   9.110   7.755
46054SOL    HW138188   9.113   9.156   7.758
46054SOL    HW238189   9.003   9.086   7.660
46055SOL     OW38190   8.255   8.053   8.913
46055SOL    HW138191   8.208   8.050   9.002
46055SOL    HW238192   8.204   7.998   8.847
46056SOL     OW38193   8.842   7.917   9.122
46056SOL    HW138194   8.822   7.960   9.210
46056SOL    HW238195   8.920   7.855   9.131
46057SOL     OW38196   8.421   8.338   9.020
46057SOL    HW138197   8.467   8.254   8.991
46057SOL    HW238198   8.365   8.372   8.945
46058SOL     OW38199   8.439   7.858   8.690
46058SOL    HW138200   8.362   7.892   8.744
46058SOL    HW238201   8.405   7.807   8.611
46059SOL     OW38202   8.489   8.149   7.877
46059SOL    HW138203   8.515   8.145   7.973
46059SOL    HW238204   8.404   8.098   7.863
46060SOL     OW38205   7.524   8.259   8.237
46060SOL    HW138206   7.623   8.247   8.246
46060SOL    HW238207   7.500   8.354   8.258
46061SOL     OW38208   7.578   9.269   9.019
46061SOL    HW138209   7.568   9.254   9.118
46061SOL    HW238210   7.492   9.305   8.983
46062SOL     OW38211   8.313   7.796   7.643
46062SOL    HW138212   8.372   7.859   7.594
46062SOL    HW238213   8.332   7.702   7.614
46063SOL     OW38214   9.167   8.033   9.279
46063SOL    HW138215   9.141   8.122   9.243
46063SOL    HW238216   9.165   7.965   9.206
46064SOL     OW38217   8.810   8.592   7.993
46064SOL    HW138218   8.893   8.563   7.945
46064SOL    HW238219   8.761   8.659   7.937
46065SOL     OW38220   7.998   7.644   8.333
46065SOL    HW138221   7.993   7.639   8.433
46065SOL    HW238222   8.000   7.740   8.304
46066SOL     OW38223   8.456   8.904   7.925
46066SOL    HW138224   8.410   8.976   7.873
46066SOL    HW238225   8.452   8.924   8.023
46067SOL     OW38226   7.799   9.249   8.301
46067SOL    HW138227   7.849   9.163   8.307
46067SOL    HW238228   7.864   9.326   8.298
46068SOL     OW38229   9.243   8.514   8.321
46068SOL    HW138230   9.181   8.499   8.245
46068SOL    HW238231   9.191   8.525   8.406
46069SOL     OW38232   8.675   8.998   8.954
46069SOL    HW138233   8.681   8.921   9.018
46069SOL    HW238234   8.623   8.972   8.874
46070SOL     OW38235   7.769   8.391   7.690
46070SOL    HW138236   7.851   8.430   7.648
46070SOL    HW238237   7.742   8.309   7.641
46071SOL     OW38238   8.906   8.183   8.176
46071SOL    HW138239   8.901   8.118   8.251
46071SOL    HW238240   8.986   8.242   8.189
46072SOL     OW38241   7.909   8.714   9.175
46072SOL    HW138242   7.859   8.715   9.089
46072SOL    HW238243   7.846   8.696   9.251
46073SOL     OW38244   8.559   9.224   7.685
46073SOL    HW138245   8.499   9.162   7.735
46073SOL    HW238246   8.590   9.180   7.600
46074SOL     OW38247   7.650   7.733   8.946
46074SOL    HW138248   7.570   7.793   8.933
46074SOL    HW238249   7.640   7.684   9.032
46075SOL     OW38250   9.080   8.825   7.529
46075SOL    HW138251   9.048   8.919   7.519
46075SOL    HW238252   9.004   8.762   7.517
46076SOL     OW38253   7.912   9.191   7.771
46076SOL    HW138254   7.945   9.230   7.857
46076SOL    HW238255   7.988   9.184   7.706
46077SOL     OW38256   8.848   7.555   7.874
46077SOL    HW138257   8.824   7.518   7.784
46077SOL    HW238258   8.947   7.571   7.878
46078SOL     OW38259   7.697   9.233   8.689
46078SOL    HW138260   7.754   9.168   8.739
46078SOL    HW238261   7.681   9.200   8.596
46079SOL     OW38262   8.388   9.146   8.352
46079SOL    HW138263   8.468   9.089   8.373
46079SOL    HW238264   8.339   9.106   8.275
46080SOL     OW38265   7.830   8.148   7.928
46080SOL    HW138266   7.875   8.058   7.925
46080SOL    HW238267   7.736   8.137   7.961
46081SOL     OW38268   8.995   7.670   9.177
46081SOL    HW138269   8.990   7.707   9.269
46081SOL    HW238270   8.923   7.601   9.165
46082SOL     OW38271   8.062   7.570   7.565
46082SOL    HW138272   8.160   7.548   7.572
46082SOL    HW238273   8.031   7.553   7.472
46083SOL     OW38274   8.229   7.712   9.197
46083SOL    HW138275   8.296   7.651   9.240
46083SOL    HW238276   8.156   7.731   9.262
46084SOL     OW38277   8.336   8.962   8.643
46084SOL    HW138278   8.313   8.937   8.549
46084SOL    HW238279   8.397   8.893   8.682
46085SOL     OW38280   8.799   8.038   8.881
46085SOL    HW138281   8.827   7.995   8.966
46085SOL    HW238282   8.824   8.134   8.882
46086SOL     OW38283   8.251   8.850   8.372
46086SOL    HW138284   8.341   8.864   8.330
46086SOL    HW238285   8.180   8.852   8.301
46087SOL     OW38286   8.370   7.951   8.347
46087SOL    HW138287   8.345   7.942   8.251
46087SOL    HW238288   8.418   7.869   8.378
46088SOL     OW38289   7.987   7.512   7.960
46088SOL    HW138290   7.906   7.513   8.018
46088SOL    HW238291   7.990   7.595   7.905
46089SOL     OW38292   8.882   8.636   7.489
46089SOL    HW138293   8.914   8.560   7.546
46089SOL    HW238294   8.790   8.663   7.519
46090SOL     OW38295   7.745   7.483   7.619
46090SOL    HW138296   7.794   7.567   7.598
46090SOL    HW238297   7.807   7.418   7.664
46091SOL     OW38298   8.383   7.684   7.928
46091SOL    HW138299   8.335   7.725   7.850
46091SOL    HW238300   8.482   7.682   7.909
46092SOL     OW38301   8.524   8.131   8.912
46092SOL    HW138302   8.444   8.070   8.915
46092SOL    HW238303   8.605   8.078   8.888
46093SOL     OW38304   8.675   9.018   8.241
46093SOL    HW138305   8.696   9.092   8.176
46093SOL    HW238306   8.743   9.018   8.314
46094SOL     OW38307   7.907   8.600   8.189
46094SOL    HW138308   7.836   8.573   8.254
46094SOL    HW238309   7.881   8.572   8.096
46095SOL     OW38310   8.719   9.245   8.039
46095SOL    HW138311   8.763   9.309   7.975
46095SOL    HW238312   8.669   9.297   8.109
46096SOL     OW38313   8.480   7.997   7.464
46096SOL    HW138314   8.439   8.079   7.425
46096SOL    HW238315   8.544   8.023   7.537
46097SOL     OW38316   7.526   8.004   8.834
46097SOL    HW138317   7.618   8.003   8.793
46097SOL    HW238318   7.520   8.078   8.901
46098SOL     OW38319   8.009   7.670   8.595
46098SOL    HW138320   8.047   7.586   8.632
46098SOL    HW238321   7.921   7.689   8.639
46099SOL     OW38322   8.314   7.902   8.090
46099SOL    HW138323   8.282   7.974   8.028
46099SOL    HW238324   8.338   7.821   8.037
46100SOL     OW38325   8.465   7.487   8.201
46100SOL    HW138326   8.393   7.492   8.132
46100SOL    HW238327   8.441   7.418   8.270
46101SOL     OW38328   8.877   8.621   8.315
46101SOL    HW138329   8.822   8.537   8.308
46101SOL    HW238330   8.903   8.650   8.223
46102SOL     OW38331   8.914   8.038   8.440
46102SOL    HW138332   8.884   7.943   8.447
46102SOL    HW238333   8.987   8.054   8.506
46103SOL     OW38334   9.305   8.281   7.825
46103SOL    HW138335   9.347   8.217   7.889
46103SOL    HW238336   9.267   8.230   7.747
46104SOL     OW38337   7.936   8.833   7.622
46104SOL    HW138338   7.849   8.818   7.669
46104SOL    HW238339   7.919   8.859   7.527
46105SOL     OW38340   9.112   8.728   8.105
46105SOL    HW138341   9.211   8.736   8.119
46105SOL    HW238342   9.067   8.812   8.136
46106SOL     OW38343   8.838   8.023   7.526
46106SOL    HW138344   8.784   8.002   7.607
46106SOL    HW238345   8.929   7.982   7.535
46107SOL     OW38346   7.975   7.704   7.776
46107SOL    HW138347   8.002   7.645   7.701
46107SOL    HW238348   7.975   7.799   7.745
46108SOL     OW38349   9.202   8.671   9.036
46108SOL    HW138350   9.293   8.632   9.023
46108SOL    HW238351   9.210   8.767   9.060
46109SOL     OW38352   8.512   8.795   8.788
46109SOL    HW138353   8.432   8.772   8.843
46109SOL    HW238354   8.595   8.769   8.837
46110SOL     OW38355   9.040   9.077   9.073
46110SOL    HW138356   9.067   9.111   8.983
46110SOL    HW238357   9.119   9.039   9.119
46111SOL     OW38358   8.559   8.643   8.548
46111SOL    HW138359   8.519   8.687   8.629
46111SOL    HW238360   8.518   8.680   8.465
46112SOL     OW38361   9.086   8.547   8.527
46112SOL    HW138362   9.091   8.628   8.586
46112SOL    HW238363   9.000   8.549   8.476
46113SOL     OW38364   8.363   7.537   8.850
46113SOL    HW138365   8.388   7.517   8.755
46113SOL    HW238366   8.435   7.593   8.892
46114SOL     OW38367   8.428   8.564   9.167
46114SOL    HW138368   8.329   8.570   9.177
46114SOL    HW238369   8.451   8.484   9.111
46115SOL     OW38370   8.153   8.498   7.816
46115SOL    HW138371   8.139   8.505   7.915
46115SOL    HW238372   8.237   8.447   7.798
46116SOL     OW38373   7.858   8.261   8.699
46116SOL    HW138374   7.944   8.273   8.749
46116SOL    HW238375   7.816   8.174   8.726
46117SOL     OW38376   8.722   7.834   8.710
46117SOL    HW138377   8.743   7.908   8.774
46117SOL    HW238378   8.633   7.851   8.667
46118SOL     OW38379   7.512   9.012   8.779
46118SOL    HW138380   7.466   9.094   8.745
46118SOL    HW238381   7.610   9.031   8.788
46119SOL     OW38382   7.815   8.548   7.949
46119SOL    HW138383   7.808   8.631   7.893
46119SOL    HW238384   7.819   8.468   7.889
46120SOL     OW38385   8.014   7.985   8.313
46120SOL    HW138386   8.026   8.051   8.239
46120SOL    HW238387   8.060   8.019   8.396
46121SOL     OW38388   8.700   8.796   7.836
46121SOL    HW138389   8.750   8.873   7.876
46121SOL    HW238390   8.605   8.798   7.868
46122SOL     OW38391   8.720   8.893   8.590
46122SOL    HW138392   8.767   8.906   8.677
46122SOL    HW238393   8.654   8.819   8.599
46123SOL     OW38394   9.030   8.087   7.920
46123SOL    HW138395   8.999   8.148   7.993
46123SOL    HW238396   9.080   8.139   7.851
46124SOL     OW38397   7.802   8.958   8.777
46124SOL    HW138398   7.781   8.914   8.690
46124SOL    HW238399   7.899   8.984   8.780
46125SOL     OW38400   7.850   8.199   9.046
46125SOL    HW138401   7.918   8.254   8.999
46125SOL    HW238402   7.890   8.111   9.073
46126SOL     OW38403   9.035   8.227   9.118
46126SOL    HW138404   8.943   8.265   9.113
46126SOL    HW238405   9.095   8.274   9.053
46127SOL     OW38406   8.461   7.553   9.218
46127SOL    HW138407   8.467   7.638   9.166
46127SOL    HW238408   8.493   7.477   9.161
46128SOL     OW38409   7.952   7.498   9.188
46128SOL    HW138410   7.910   7.441   9.118
46128SOL    HW238411   7.886   7.567   9.220
46129SOL     OW38412   8.021   8.318   8.477
46129SOL    HW138413   8.065   8.407   8.468
46129SOL    HW238414   7.958   8.318   8.554
46130SOL     OW38415   8.808   8.310   8.493
46130SOL    HW138416   8.733   8.310   8.427
46130SOL    HW238417   8.845   8.218   8.502
46131SOL     OW38418   8.657   7.973   7.723
46131SOL    HW138419   8.670   7.889   7.777
46131SOL    HW238420   8.628   8.047   7.783
46132SOL     OW38421   7.755   7.661   8.679
46132SOL    HW138422   7.732   7.698   8.769
46132SOL    HW238423   7.725   7.566   8.673
46133SOL     OW38424   7.485   8.758   8.730
46133SOL    HW138425   7.538   8.709   8.798
46133SOL    HW238426   7.507   8.856   8.735
46134SOL     OW38427   8.180   8.082   8.512
46134SOL    HW138428   8.239   8.056   8.436
46134SOL    HW238429   8.152   8.178   8.501
46135SOL     OW38430   9.176   8.383   9.302
46135SOL    HW138431   9.130   8.376   9.213
46135SOL    HW238432   9.114   8.427   9.368
46136SOL     OW38433   7.755   7.511   8.066
46136SOL    HW138434   7.744   7.605   8.099
46136SOL    HW238435   7.750   7.448   8.143
46137SOL     OW38436   9.070   7.815   7.822
46137SOL    HW138437   9.072   7.739   7.886
46137SOL    HW238438   9.022   7.892   7.862
46138SOL     OW38439   8.471   8.214   8.414
46138SOL    HW138440   8.486   8.235   8.510
46138SOL    HW238441   8.441   8.119   8.405
46139SOL     OW38442   8.428   9.021   9.148
46139SOL    HW138443   8.408   9.065   9.060
46139SOL    HW238444   8.467   8.930   9.132
46140SOL     OW38445   9.307   8.966   9.053
46140SOL    HW138446   9.321   8.993   8.958
46140SOL    HW238447   9.390   8.988   9.106
46141SOL     OW38448   7.798   8.346   9.252
46141SOL    HW138449   7.874   8.390   9.300
46141SOL    HW238450   7.833   8.299   9.170
46142SOL     OW38451   8.988   7.722   7.573
46142SOL    HW138452   8.927   7.647   7.596
46142SOL    HW238453   9.010   7.774   7.656
46143SOL     OW38454   8.751   8.286   7.490
46143SOL    HW138455   8.785   8.193   7.505
46143SOL    HW238456   8.769   8.313   7.395
46144SOL     OW38457   8.516   8.781   8.297
46144SOL    HW138458   8.523   8.697   8.242
46144SOL    HW238459   8.578   8.850   8.261
46145SOL     OW38460   7.767   8.258   8.397
46145SOL    HW138461   7.860   8.294   8.402
46145SOL    HW238462   7.761   8.173   8.449
46146SOL     OW38463   7.787   7.957   8.454
46146SOL    HW138464   7.735   7.874   8.437
46146SOL    HW238465   7.864   7.962   8.390
46147SOL     OW38466   8.586   7.828   9.126
46147SOL    HW138467   8.541   7.891   9.190
46147SOL    HW238468   8.679   7.859   9.109
46148SOL     OW38469   8.608   7.655   8.925
46148SOL    HW138470   8.608   7.719   9.002
46148SOL    HW238471   8.636   7.703   8.842
46149SOL     OW38472   7.456   8.774   7.648
46149SOL    HW138473   7.363   8.795   7.617
46149SOL    HW238474   7.466   8.675   7.661
46150SOL     OW38475   7.536   9.249   8.375
46150SOL    HW138476   7.494   9.163   8.348
46150SOL    HW238477   7.630   9.252   8.341
46151SOL     OW38478   7.952   9.016   8.358
46151SOL    HW138479   8.018   9.090   8.367
46151SOL    HW238480   7.996   8.937   8.316
46152SOL     OW38481   8.450   8.244   8.686
46152SOL    HW138482   8.491   8.212   8.772
46152SOL    HW238483   8.354   8.217   8.683
46153SOL     OW38484   7.488   7.992   8.562
46153SOL    HW138485   7.573   7.959   8.521
46153SOL    HW238486   7.501   8.007   8.660
46154SOL     OW38487   7.637   7.968   9.170
46154SOL    HW138488   7.696   7.928   9.100
46154SOL    HW238489   7.579   8.039   9.129
46155SOL     OW38490   8.817   8.398   9.108
46155SOL    HW138491   8.856   8.487   9.128
46155SOL    HW238492   8.827   8.378   9.011
46156SOL     OW38493   8.263   8.020   7.773
46156SOL    HW138494   8.270   7.931   7.727
46156SOL    HW238495   8.169   8.054   7.765
46157SOL     OW38496   9.105   8.052   8.654
46157SOL    HW138497   9.067   7.983   8.716
46157SOL    HW238498   9.187   8.016   8.610
46158SOL     OW38499   7.700   9.012   9.192
46158SOL    HW138500   7.670   9.069   9.268
46158SOL    HW238501   7.693   8.915   9.218
46159SOL     OW38502   8.119   7.912   8.717
46159SOL    HW138503   8.085   7.823   8.687
46159SOL    HW238504   8.145   7.966   8.637
46160SOL     OW38505   8.378   9.126   8.913
46160SOL    HW138506   8.354   9.108   8.818
46160SOL    HW238507   8.408   9.220   8.923
46161SOL     OW38508   7.921   7.948   7.639
46161SOL    HW138509   7.982   8.028   7.643
46161SOL    HW238510   7.826   7.979   7.646
46162SOL     OW38511   7.607   8.585   8.914
46162SOL    HW138512   7.629   8.524   8.990
46162SOL    HW238513   7.617   8.536   8.828
46163SOL     OW38514   8.795   8.507   8.682
46163SOL    HW138515   8.819   8.444   8.608
46163SOL    HW238516   8.705   8.547   8.664
46164SOL     OW38517   8.750   8.303   7.757
46164SOL    HW138518   8.664   8.272   7.799
46164SOL    HW238519   8.746   8.289   7.658
46165SOL     OW38520   9.207   9.195   8.602
46165SOL    HW138521   9.268   9.225   8.529
46165SOL    HW238522   9.169   9.106   8.580
46166SOL     OW38523   8.700   9.179   8.576
46166SOL    HW138524   8.784   9.184   8.522
46166SOL    HW238525   8.677   9.083   8.594
46167SOL     OW38526   7.531   8.706   8.470
46167SOL    HW138527   7.526   8.705   8.570
46167SOL    HW238528   7.448   8.665   8.432
46168SOL     OW38529   8.136   9.110   9.164
46168SOL    HW138530   8.080   9.191   9.173
46168SOL    HW238531   8.188   9.114   9.078
46169SOL     OW38532   9.174   7.583   7.971
46169SOL    HW138533   9.247   7.566   7.904
46169SOL    HW238534   9.143   7.496   8.009
46170SOL     OW38535   8.836   9.021   7.925
46170SOL    HW138536   8.903   9.033   7.851
46170SOL    HW238537   8.796   9.110   7.948
46171SOL     OW38538   7.578   9.242   9.299
46171SOL    HW138539   7.537   9.168   9.352
46171SOL    HW238540   7.642   9.293   9.357
46172SOL     OW38541   8.728   8.375   8.120
46172SOL    HW138542   8.788   8.294   8.122
46172SOL    HW238543   8.768   8.444   8.060
46173SOL     OW38544   8.278   8.721   8.870
46173SOL    HW138545   8.273   8.754   8.965
46173SOL    HW238546   8.192   8.740   8.824
46174SOL     OW38547   8.120   9.064   7.602
46174SOL    HW138548   8.129   9.074   7.503
46174SOL    HW238549   8.080   8.975   7.623
46175SOL     OW38550   9.098   9.168   8.842
46175SOL    HW138551   9.151   9.178   8.758
46175SOL    HW238552   9.071   9.258   8.876
46176SOL     OW38553   9.289   7.623   8.411
46176SOL    HW138554   9.328   7.538   8.375
46176SOL    HW238555   9.191   7.625   8.392
46177SOL     OW38556   7.711   7.774   8.168
46177SOL    HW138557   7.632   7.825   8.134
46177SOL    HW238558   7.702   7.759   8.266
46178SOL     OW38559   8.642   9.060   7.479
46178SOL    HW138560   8.648   8.967   7.516
46178SOL    HW238561   8.583   9.060   7.399
46179SOL     OW38562   8.270   8.450   8.820
46179SOL    HW138563   8.310   8.449   8.728
46179SOL    HW238564   8.280   8.542   8.860
46180SOL     OW38565   8.364   8.358   7.739
46180SOL    HW138566   8.427   8.396   7.671
46180SOL    HW238567   8.404   8.275   7.778
46181SOL     OW38568   8.952   9.055   7.492
46181SOL    HW138569   8.860   9.092   7.499
46181SOL    HW238570   8.990   9.075   7.402
46182SOL     OW38571   7.820   8.736   8.938
46182SOL    HW138572   7.807   8.829   8.904
46182SOL    HW238573   7.736   8.684   8.925
46183SOL     OW38574   9.062   8.740   8.737
46183SOL    HW138575   9.122   8.743   8.817
46183SOL    HW238576   8.987   8.804   8.750
46184SOL     OW38577   8.487   8.546   8.144
46184SOL    HW138578   8.417   8.499   8.198
46184SOL    HW238579   8.546   8.478   8.101
46185SOL     OW38580   8.462   7.684   8.419
46185SOL    HW138581   8.454   7.648   8.326
46185SOL    HW238582   8.460   7.608   8.484
46186SOL     OW38583   8.038   8.935   7.939
46186SOL    HW138584   8.080   8.877   7.869
46186SOL    HW238585   7.994   9.014   7.895
46187SOL     OW38586   9.157   7.833   8.829
46187SOL    HW138587   9.230   7.902   8.833
46187SOL    HW238588   9.185   7.758   8.770
46188SOL     OW38589   7.703   8.796   7.738
46188SOL    HW138590   7.607   8.797   7.711
46188SOL    HW238591   7.715   8.849   7.822
46189SOL     OW38592   7.553   8.461   9.174
46189SOL    HW138593   7.476   8.428   9.228
46189SOL    HW238594   7.638   8.431   9.216
46190SOL     OW38595   8.120   7.651   8.937
46190SOL    HW138596   8.210   7.635   8.897
46190SOL    HW238597   8.128   7.656   9.036
46191SOL     OW38598   7.523   7.793   7.481
46191SOL    HW138599   7.431   7.765   7.452
46191SOL    HW238600   7.554   7.870   7.425
46192SOL     OW38601   8.888   8.304   8.846
46192SOL    HW138602   8.831   8.356   8.783
46192SOL    HW238603   8.984   8.316   8.822
46193SOL     OW38604   7.520   7.614   7.766
46193SOL    HW138605   7.503   7.697   7.712
46193SOL    HW238606   7.610   7.577   7.744
46194SOL     OW38607   8.631   8.783   7.567
46194SOL    HW138608   8.532   8.772   7.569
46194SOL    HW238609   8.665   8.798   7.660
46195SOL     OW38610   8.061   8.290   8.879
46195SOL    HW138611   8.117   8.371   8.862
46195SOL    HW238612   8.120   8.210   8.882
46196SOL     OW38613   8.941   9.215   8.407
46196SOL    HW138614   8.974   9.279   8.338
46196SOL    HW238615   9.007   9.209   8.482
46197SOL     OW38616   8.164   8.013   9.156
46197SOL    HW138617   8.183   8.078   9.230
46197SOL    HW238618   8.224   7.933   9.165
46198SOL     OW38619   8.898   8.668   9.081
46198SOL    HW138620   8.889   8.658   9.180
46198SOL    HW238621   8.994   8.661   9.055
46199SOL     OW38622   7.838   9.189   9.008
46199SOL    HW138623   7.747   9.230   9.006
46199SOL    HW238624   7.831   9.095   9.040
46200SOL     OW38625   9.122   8.331   8.702
46200SOL    HW138626   9.095   8.242   8.665
46200SOL    HW238627   9.123   8.399   8.629
46201SOL     OW38628   8.673   7.773   7.897
46201SOL    HW138629   8.738   7.699   7.886
46201SOL    HW238630   8.693   7.823   7.981
46202SOL     OW38631   8.042   8.193   8.100
46202SOL    HW138632   8.092   8.278   8.081
46202SOL    HW238633   7.954   8.195   8.052
46203SOL     OW38634   9.225   7.790   9.090
46203SOL    HW138635   9.208   7.821   8.996
46203SOL    HW238636   9.141   7.753   9.128
46204SOL     OW38637   9.178   8.382   8.965
46204SOL    HW138638   9.216   8.473   8.980
46204SOL    HW238639   9.170   8.365   8.866
46205SOL     OW38640   8.307   8.822   7.464
46205SOL    HW138641   8.261   8.837   7.552
46205SOL    HW238642   8.351   8.907   7.434
46206SOL     OW38643   8.109   9.238   8.401
46206SOL    HW138644   8.063   9.326   8.388
46206SOL    HW238645   8.208   9.250   8.394
46207SOL     OW38646   8.307   8.404   8.309
46207SOL    HW138647   8.361   8.335   8.357
46207SOL    HW238648   8.275   8.473   8.375
46208SOL     OW38649   8.531   8.432   7.535
46208SOL    HW138650   8.508   8.485   7.453
46208SOL    HW238651   8.612   8.376   7.516
46209SOL     OW38652   9.309   9.017   8.299
46209SOL    HW138653   9.238   9.005   8.229
46209SOL    HW238654   9.310   8.938   8.359
46210SOL     OW38655   7.669   8.762   9.292
46210SOL    HW138656   7.604   8.689   9.271
46210SOL    HW238657   7.673   8.776   9.390
46211SOL     OW38658   7.527   8.688   8.101
46211SOL    HW138659   7.526   8.641   8.189
46211SOL    HW238660   7.609   8.660   8.050
46212SOL     OW38661   8.120   8.839   9.072
46212SOL    HW138662   8.042   8.789   9.110
46212SOL    HW238663   8.117   8.934   9.103
46213SOL     OW38664   9.272   7.640   8.675
46213SOL    HW138665   9.268   7.550   8.719
46213SOL    HW238666   9.275   7.629   8.576
46214SOL     OW38667   7.876   7.872   7.968
46214SOL    HW138668   7.906   7.800   7.906
46214SOL    HW238669   7.837   7.832   8.051
46215SOL     OW38670   9.153   8.935   8.552
46215SOL    HW138671   9.060   8.910   8.525
46215SOL    HW238672   9.179   8.885   8.634
46216SOL     OW38673   7.765   7.995   8.728
46216SOL    HW138674   7.803   7.936   8.800
46216SOL    HW238675   7.805   7.969   8.640
46217SOL     OW38676   8.260   9.034   8.135
46217SOL    HW138677   8.292   9.044   8.041
46217SOL    HW238678   8.181   8.972   8.137
46218SOL     OW38679   8.872   7.662   8.560
46218SOL    HW138680   8.924   7.597   8.615
46218SOL    HW238681   8.823   7.725   8.621
46219SOL     OW38682   8.449   7.482   8.602
46219SOL    HW138683   8.386   7.410   8.571
46219SOL    HW238684   8.542   7.446   8.602
46220SOL     OW38685   8.218   8.778   7.749
46220SOL    HW138686   8.172   8.691   7.766
46220SOL    HW238687   8.309   8.775   7.790
46221SOL     OW38688   8.066   9.015   8.732
46221SOL    HW138689   8.061   9.097   8.789
46221SOL    HW238690   8.155   9.012   8.687
46222SOL     OW38691   8.800   7.500   7.616
46222SOL    HW138692   8.835   7.459   7.532
46222SOL    HW238693   8.710   7.462   7.636
46223SOL     OW38694   8.748   7.901   8.139
46223SOL    HW138695   8.689   7.981   8.143
46223SOL    HW238696   8.763   7.866   8.232
46224SOL     OW38697   9.041   7.669   8.330
46224SOL    HW138698   8.957   7.668   8.384
46224SOL    HW238699   9.043   7.752   8.274
46225SOL     OW38700   7.487   8.525   7.748
46225SOL    HW138701   7.586   8.514   7.739
46225SOL    HW238702   7.447   8.439   7.780
46226SOL     OW38703   8.323   9.094   7.785
46226SOL    HW138704   8.246   9.059   7.731
46226SOL    HW238705   8.291   9.165   7.847
46227SOL     OW38706   7.678   8.076   9.423
46227SOL    HW138707   7.585   8.074   9.460
46227SOL    HW238708   7.679   8.037   9.331
46228SOL     OW38709   7.673   7.723  10.306
46228SOL    HW138710   7.708   7.706  10.398
46228SOL    HW238711   7.585   7.678  10.294
46229SOL     OW38712   7.467   7.816   9.957
46229SOL    HW138713   7.385   7.859   9.996
46229SOL    HW238714   7.439   7.743   9.894
46230SOL     OW38715   8.017   8.723  10.475
46230SOL    HW138716   7.924   8.716  10.438
46230SOL    HW238717   8.028   8.812  10.519
46231SOL     OW38718   9.003   8.959  10.013
46231SOL    HW138719   8.946   8.943  10.094
46231SOL    HW238720   8.944   8.969   9.933
46232SOL     OW38721   8.583   8.151  10.027
46232SOL    HW138722   8.640   8.229  10.002
46232SOL    HW238723   8.523   8.177  10.103
46233SOL     OW38724   9.203   8.055   9.541
46233SOL    HW138725   9.191   8.042   9.442
46233SOL    HW238726   9.173   7.974   9.590
46234SOL     OW38727   8.216   8.592  10.333
46234SOL    HW138728   8.138   8.609  10.393
46234SOL    HW238729   8.250   8.679  10.297
46235SOL     OW38730   8.298   8.246  11.133
46235SOL    HW138731   8.294   8.322  11.198
46235SOL    HW238732   8.320   8.282  11.042
46236SOL     OW38733   8.133   8.460   9.975
46236SOL    HW138734   8.202   8.444  10.045
46236SOL    HW238735   8.060   8.517  10.013
46237SOL     OW38736   8.134   8.609  11.113
46237SOL    HW138737   8.194   8.688  11.127
46237SOL    HW238738   8.048   8.640  11.072
46238SOL     OW38739   7.783   8.883  10.371
46238SOL    HW138740   7.705   8.852  10.318
46238SOL    HW238741   7.841   8.941  10.314
46239SOL     OW38742   8.908   8.953  10.649
46239SOL    HW138743   8.932   9.047  10.675
46239SOL    HW238744   8.892   8.899  10.731
46240SOL     OW38745   7.886   7.840  10.809
46240SOL    HW138746   7.968   7.784  10.818
46240SOL    HW238747   7.805   7.782  10.813
46241SOL     OW38748   9.051   7.895  10.047
46241SOL    HW138749   8.977   7.941   9.997
46241SOL    HW238750   9.102   7.963  10.100
46242SOL     OW38751   7.679   9.161   9.793
46242SOL    HW138752   7.713   9.238   9.847
46242SOL    HW238753   7.723   9.161   9.703
46243SOL     OW38754   8.575   8.789  11.000
46243SOL    HW138755   8.622   8.789  11.088
46243SOL    HW238756   8.527   8.702  10.989
46244SOL     OW38757   7.678   8.882   9.848
46244SOL    HW138758   7.652   8.978   9.848
46244SOL    HW238759   7.607   8.828   9.893
46245SOL     OW38760   7.688   8.539  10.196
46245SOL    HW138761   7.702   8.455  10.248
46245SOL    HW238762   7.633   8.603  10.251
46246SOL     OW38763   8.068   9.234  10.749
46246SOL    HW138764   7.976   9.217  10.784
46246SOL    HW238765   8.096   9.326  10.775
46247SOL     OW38766   8.054   8.412   9.433
46247SOL    HW138767   8.061   8.496   9.379
46247SOL    HW238768   8.100   8.425   9.521
46248SOL     OW38769   9.042   7.562  10.790
46248SOL    HW138770   9.024   7.629  10.718
46248SOL    HW238771   9.039   7.608  10.879
46249SOL     OW38772   7.570   8.091   9.873
46249SOL    HW138773   7.525   8.003   9.890
46249SOL    HW238774   7.569   8.145   9.957
46250SOL     OW38775   9.290   9.215   9.669
46250SOL    HW138776   9.344   9.186   9.749
46250SOL    HW238777   9.320   9.305   9.640
46251SOL     OW38778   7.475   9.044   9.427
46251SOL    HW138779   7.456   8.948   9.448
46251SOL    HW238780   7.442   9.102   9.502
46252SOL     OW38781   9.137   8.370   9.922
46252SOL    HW138782   9.232   8.341   9.930
46252SOL    HW238783   9.129   8.435   9.847
46253SOL     OW38784   9.089   8.556   9.742
46253SOL    HW138785   9.175   8.558   9.690
46253SOL    HW238786   9.103   8.603   9.830
46254SOL     OW38787   7.561   8.185  10.907
46254SOL    HW138788   7.649   8.172  10.952
46254SOL    HW238789   7.548   8.282  10.885
46255SOL     OW38790   8.061   8.813  10.036
46255SOL    HW138791   8.012   8.726  10.045
46255SOL    HW238792   8.038   8.856   9.949
46256SOL     OW38793   8.741   8.676  10.733
46256SOL    HW138794   8.778   8.603  10.675
46256SOL    HW238795   8.793   8.681  10.818
46257SOL     OW38796   8.257   7.452   9.812
46257SOL    HW138797   8.297   7.543   9.803
46257SOL    HW238798   8.157   7.460   9.818
46258SOL     OW38799   7.645   8.424  10.574
46258SOL    HW138800   7.734   8.379  10.560
46258SOL    HW238801   7.572   8.359  10.555
46259SOL     OW38802   8.973   8.447   9.500
46259SOL    HW138803   8.910   8.371   9.513
46259SOL    HW238804   9.021   8.465   9.586
46260SOL     OW38805   8.635   9.240  10.926
46260SOL    HW138806   8.659   9.300  10.850
46260SOL    HW238807   8.642   9.145  10.896
46261SOL     OW38808   7.765   7.699  11.111
46261SOL    HW138809   7.836   7.770  11.117
46261SOL    HW238810   7.677   7.738  11.139
46262SOL     OW38811   8.914   8.865  10.263
46262SOL    HW138812   8.855   8.871  10.343
46262SOL    HW238813   8.899   8.777  10.217
46263SOL     OW38814   9.115   9.162   9.882
46263SOL    HW138815   9.074   9.139   9.794
46263SOL    HW238816   9.097   9.088   9.947
46264SOL     OW38817   8.046   8.177   9.580
46264SOL    HW138818   8.070   8.246   9.512
46264SOL    HW238819   7.968   8.210   9.634
46265SOL     OW38820   8.729   7.793  10.254
46265SOL    HW138821   8.643   7.743  10.241
46265SOL    HW238822   8.791   7.739  10.310
46266SOL     OW38823   9.024   9.110   9.617
46266SOL    HW138824   9.113   9.156   9.620
46266SOL    HW238825   9.003   9.086   9.522
46267SOL     OW38826   8.255   8.053  10.775
46267SOL    HW138827   8.208   8.050  10.864
46267SOL    HW238828   8.204   7.998  10.709
46268SOL     OW38829   8.842   7.917  10.984
46268SOL    HW138830   8.822   7.960  11.072
46268SOL    HW238831   8.920   7.855  10.993
46269SOL     OW38832   8.421   8.338  10.882
46269SOL    HW138833   8.467   8.254  10.853
46269SOL    HW238834   8.365   8.372  10.807
46270SOL     OW38835   8.439   7.858  10.552
46270SOL    HW138836   8.362   7.892  10.606
46270SOL    HW238837   8.405   7.807  10.473
46271SOL     OW38838   8.489   8.149   9.739
46271SOL    HW138839   8.515   8.145   9.835
46271SOL    HW238840   8.404   8.098   9.725
46272SOL     OW38841   7.524   8.259  10.099
46272SOL    HW138842   7.623   8.247  10.108
46272SOL    HW238843   7.500   8.354  10.120
46273SOL     OW38844   7.578   9.269  10.881
46273SOL    HW138845   7.568   9.254  10.980
46273SOL    HW238846   7.492   9.305  10.845
46274SOL     OW38847   8.313   7.796   9.505
46274SOL    HW138848   8.372   7.859   9.456
46274SOL    HW238849   8.332   7.702   9.476
46275SOL     OW38850   9.167   8.033  11.141
46275SOL    HW138851   9.141   8.122  11.105
46275SOL    HW238852   9.165   7.965  11.068
46276SOL     OW38853   8.810   8.592   9.855
46276SOL    HW138854   8.893   8.563   9.807
46276SOL    HW238855   8.761   8.659   9.799
46277SOL     OW38856   7.998   7.644  10.195
46277SOL    HW138857   7.993   7.639  10.295
46277SOL    HW238858   8.000   7.740  10.166
46278SOL     OW38859   8.456   8.904   9.787
46278SOL    HW138860   8.410   8.976   9.735
46278SOL    HW238861   8.452   8.924   9.885
46279SOL     OW38862   7.799   9.249  10.163
46279SOL    HW138863   7.849   9.163  10.169
46279SOL    HW238864   7.864   9.326  10.160
46280SOL     OW38865   9.243   8.514  10.183
46280SOL    HW138866   9.181   8.499  10.107
46280SOL    HW238867   9.191   8.525  10.268
46281SOL     OW38868   8.675   8.998  10.816
46281SOL    HW138869   8.681   8.921  10.880
46281SOL    HW238870   8.623   8.972  10.736
46282SOL     OW38871   7.769   8.391   9.552
46282SOL    HW138872   7.851   8.430   9.510
46282SOL    HW238873   7.742   8.309   9.503
46283SOL     OW38874   8.906   8.183  10.038
46283SOL    HW138875   8.901   8.118  10.113
46283SOL    HW238876   8.986   8.242  10.051
46284SOL     OW38877   7.909   8.714  11.037
46284SOL    HW138878   7.859   8.715  10.951
46284SOL    HW238879   7.846   8.696  11.113
46285SOL     OW38880   8.559   9.224   9.547
46285SOL    HW138881   8.499   9.162   9.597
46285SOL    HW238882   8.590   9.180   9.462
46286SOL     OW38883   7.650   7.733  10.808
46286SOL    HW138884   7.570   7.793  10.795
46286SOL    HW238885   7.640   7.684  10.894
46287SOL     OW38886   9.080   8.825   9.391
46287SOL    HW138887   9.048   8.919   9.381
46287SOL    HW238888   9.004   8.762   9.379
46288SOL     OW38889   7.912   9.191   9.633
46288SOL    HW138890   7.945   9.230   9.719
46288SOL    HW238891   7.988   9.184   9.568
46289SOL     OW38892   8.848   7.555   9.736
46289SOL    HW138893   8.824   7.518   9.646
46289SOL    HW238894   8.947   7.571   9.740
46290SOL     OW38895   7.697   9.233  10.551
46290SOL    HW138896   7.754   9.168  10.601
46290SOL    HW238897   7.681   9.200  10.458
46291SOL     OW38898   8.388   9.146  10.214
46291SOL    HW138899   8.468   9.089  10.235
46291SOL    HW238900   8.339   9.106  10.137
46292SOL     OW38901   7.830   8.148   9.790
46292SOL    HW138902   7.875   8.058   9.787
46292SOL    HW238903   7.736   8.137   9.823
46293SOL     OW38904   8.995   7.670  11.039
46293SOL    HW138905   8.990   7.707  11.131
46293SOL    HW238906   8.923   7.601  11.027
46294SOL     OW38907   8.062   7.570   9.427
46294SOL    HW138908   8.160   7.548   9.434
46294SOL    HW238909   8.031   7.553   9.334
46295SOL     OW38910   8.229   7.712  11.059
46295SOL    HW138911   8.296   7.651  11.102
46295SOL    HW238912   8.156   7.731  11.124
46296SOL     OW38913   8.336   8.962  10.505
46296SOL    HW138914   8.313   8.937  10.411
46296SOL    HW238915   8.397   8.893  10.544
46297SOL     OW38916   8.799   8.038  10.743
46297SOL    HW138917   8.827   7.995  10.828
46297SOL    HW238918   8.824   8.134  10.744
46298SOL     OW38919   8.251   8.850  10.234
46298SOL    HW138920   8.341   8.864  10.192
46298SOL    HW238921   8.180   8.852  10.163
46299SOL     OW38922   8.370   7.951  10.209
46299SOL    HW138923   8.345   7.942  10.113
46299SOL    HW238924   8.418   7.869  10.240
46300SOL     OW38925   7.987   7.512   9.822
46300SOL    HW138926   7.906   7.513   9.880
46300SOL    HW238927   7.990   7.595   9.767
46301SOL     OW38928   8.882   8.636   9.351
46301SOL    HW138929   8.914   8.560   9.408
46301SOL    HW238930   8.790   8.663   9.381
46302SOL     OW38931   7.745   7.483   9.481
46302SOL    HW138932   7.794   7.567   9.460
46302SOL    HW238933   7.807   7.418   9.526
46303SOL     OW38934   8.383   7.684   9.790
46303SOL    HW138935   8.335   7.725   9.712
46303SOL    HW238936   8.482   7.682   9.771
46304SOL     OW38937   8.524   8.131  10.774
46304SOL    HW138938   8.444   8.070  10.777
46304SOL    HW238939   8.605   8.078  10.750
46305SOL     OW38940   8.675   9.018  10.103
46305SOL    HW138941   8.696   9.092  10.038
46305SOL    HW238942   8.743   9.018  10.176
46306SOL     OW38943   7.907   8.600  10.051
46306SOL    HW138944   7.836   8.573  10.116
46306SOL    HW238945   7.881   8.572   9.958
46307SOL     OW38946   8.719   9.245   9.901
46307SOL    HW138947   8.763   9.309   9.837
46307SOL    HW238948   8.669   9.297   9.971
46308SOL     OW38949   8.480   7.997   9.326
46308SOL    HW138950   8.439   8.079   9.287
46308SOL    HW238951   8.544   8.023   9.399
46309SOL     OW38952   7.526   8.004  10.696
46309SOL    HW138953   7.618   8.003  10.655
46309SOL    HW238954   7.520   8.078  10.763
46310SOL     OW38955   8.009   7.670  10.457
46310SOL    HW138956   8.047   7.586  10.494
46310SOL    HW238957   7.921   7.689  10.501
46311SOL     OW38958   8.314   7.902   9.952
46311SOL    HW138959   8.282   7.974   9.890
46311SOL    HW238960   8.338   7.821   9.899
46312SOL     OW38961   8.465   7.487  10.063
46312SOL    HW138962   8.393   7.492   9.994
46312SOL    HW238963   8.441   7.418  10.132
46313SOL     OW38964   8.877   8.621  10.177
46313SOL    HW138965   8.822   8.537  10.170
46313SOL    HW238966   8.903   8.650  10.085
46314SOL     OW38967   8.914   8.038  10.302
46314SOL    HW138968   8.884   7.943  10.309
46314SOL    HW238969   8.987   8.054  10.368
46315SOL     OW38970   9.305   8.281   9.687
46315SOL    HW138971   9.347   8.217   9.751
46315SOL    HW238972   9.267   8.230   9.609
46316SOL     OW38973   7.936   8.833   9.484
46316SOL    HW138974   7.849   8.818   9.531
46316SOL    HW238975   7.919   8.859   9.389
46317SOL     OW38976   9.112   8.728   9.967
46317SOL    HW138977   9.211   8.736   9.981
46317SOL    HW238978   9.067   8.812   9.998
46318SOL     OW38979   8.838   8.023   9.388
46318SOL    HW138980   8.784   8.002   9.469
46318SOL    HW238981   8.929   7.982   9.397
46319SOL     OW38982   7.975   7.704   9.638
46319SOL    HW138983   8.002   7.645   9.563
46319SOL    HW238984   7.975   7.799   9.607
46320SOL     OW38985   9.202   8.671  10.898
46320SOL    HW138986   9.293   8.632  10.885
46320SOL    HW238987   9.210   8.767  10.922
46321SOL     OW38988   8.512   8.795  10.650
46321SOL    HW138989   8.432   8.772  10.705
46321SOL    HW238990   8.595   8.769  10.699
46322SOL     OW38991   9.040   9.077  10.935
46322SOL    HW138992   9.067   9.111  10.845
46322SOL    HW238993   9.119   9.039  10.981
46323SOL     OW38994   8.559   8.643  10.410
46323SOL    HW138995   8.519   8.687  10.491
46323SOL    HW238996   8.518   8.680  10.327
46324SOL     OW38997   9.086   8.547  10.389
46324SOL    HW138998   9.091   8.628  10.448
46324SOL    HW238999   9.000   8.549  10.338
46325SOL     OW39000   8.363   7.537  10.712
46325SOL    HW139001   8.388   7.517  10.617
46325SOL    HW239002   8.435   7.593  10.754
46326SOL     OW39003   8.428   8.564  11.029
46326SOL    HW139004   8.329   8.570  11.039
46326SOL    HW239005   8.451   8.484  10.973
46327SOL     OW39006   8.153   8.498   9.678
46327SOL    HW139007   8.139   8.505   9.777
46327SOL    HW239008   8.237   8.447   9.660
46328SOL     OW39009   7.858   8.261  10.561
46328SOL    HW139010   7.944   8.273  10.611
46328SOL    HW239011   7.816   8.174  10.588
46329SOL     OW39012   8.722   7.834  10.572
46329SOL    HW139013   8.743   7.908  10.636
46329SOL    HW239014   8.633   7.851  10.529
46330SOL     OW39015   7.512   9.012  10.641
46330SOL    HW139016   7.466   9.094  10.607
46330SOL    HW239017   7.610   9.031  10.650
46331SOL     OW39018   7.815   8.548   9.811
46331SOL    HW139019   7.808   8.631   9.755
46331SOL    HW239020   7.819   8.468   9.751
46332SOL     OW39021   8.014   7.985  10.175
46332SOL    HW139022   8.026   8.051  10.101
46332SOL    HW239023   8.060   8.019  10.258
46333SOL     OW39024   8.700   8.796   9.698
46333SOL    HW139025   8.750   8.873   9.738
46333SOL    HW239026   8.605   8.798   9.730
46334SOL     OW39027   8.720   8.893  10.452
46334SOL    HW139028   8.767   8.906  10.539
46334SOL    HW239029   8.654   8.819  10.461
46335SOL     OW39030   9.030   8.087   9.782
46335SOL    HW139031   8.999   8.148   9.855
46335SOL    HW239032   9.080   8.139   9.713
46336SOL     OW39033   7.802   8.958  10.639
46336SOL    HW139034   7.781   8.914  10.552
46336SOL    HW239035   7.899   8.984  10.642
46337SOL     OW39036   7.850   8.199  10.908
46337SOL    HW139037   7.918   8.254  10.861
46337SOL    HW239038   7.890   8.111  10.935
46338SOL     OW39039   9.035   8.227  10.980
46338SOL    HW139040   8.943   8.265  10.975
46338SOL    HW239041   9.095   8.274  10.915
46339SOL     OW39042   8.461   7.553  11.080
46339SOL    HW139043   8.467   7.638  11.028
46339SOL    HW239044   8.493   7.477  11.023
46340SOL     OW39045   7.952   7.498  11.050
46340SOL    HW139046   7.910   7.441  10.980
46340SOL    HW239047   7.886   7.567  11.082
46341SOL     OW39048   8.021   8.318  10.339
46341SOL    HW139049   8.065   8.407  10.330
46341SOL    HW239050   7.958   8.318  10.416
46342SOL     OW39051   8.808   8.310  10.355
46342SOL    HW139052   8.733   8.310  10.289
46342SOL    HW239053   8.845   8.218  10.364
46343SOL     OW39054   8.657   7.973   9.585
46343SOL    HW139055   8.670   7.889   9.639
46343SOL    HW239056   8.628   8.047   9.645
46344SOL     OW39057   7.755   7.661  10.541
46344SOL    HW139058   7.732   7.698  10.631
46344SOL    HW239059   7.725   7.566  10.535
46345SOL     OW39060   7.485   8.758  10.592
46345SOL    HW139061   7.538   8.709  10.660
46345SOL    HW239062   7.507   8.856  10.597
46346SOL     OW39063   8.180   8.082  10.374
46346SOL    HW139064   8.239   8.056  10.298
46346SOL    HW239065   8.152   8.178  10.363
46347SOL     OW39066   9.176   8.383  11.164
46347SOL    HW139067   9.130   8.376  11.075
46347SOL    HW239068   9.114   8.427  11.230
46348SOL     OW39069   7.755   7.511   9.928
46348SOL    HW139070   7.744   7.605   9.961
46348SOL    HW239071   7.750   7.448  10.005
46349SOL     OW39072   9.070   7.815   9.684
46349SOL    HW139073   9.072   7.739   9.748
46349SOL    HW239074   9.022   7.892   9.724
46350SOL     OW39075   8.471   8.214  10.276
46350SOL    HW139076   8.486   8.235  10.372
46350SOL    HW239077   8.441   8.119  10.267
46351SOL     OW39078   8.428   9.021  11.010
46351SOL    HW139079   8.408   9.065  10.922
46351SOL    HW239080   8.467   8.930  10.994
46352SOL     OW39081   9.307   8.966  10.915
46352SOL    HW139082   9.321   8.993  10.820
46352SOL    HW239083   9.390   8.988  10.968
46353SOL     OW39084   7.798   8.346  11.114
46353SOL    HW139085   7.874   8.390  11.162
46353SOL    HW239086   7.833   8.299  11.032
46354SOL     OW39087   8.988   7.722   9.435
46354SOL    HW139088   8.927   7.647   9.458
46354SOL    HW239089   9.010   7.774   9.518
46355SOL     OW39090   8.751   8.286   9.352
46355SOL    HW139091   8.785   8.193   9.367
46355SOL    HW239092   8.769   8.313   9.257
46356SOL     OW39093   8.516   8.781  10.159
46356SOL    HW139094   8.523   8.697  10.104
46356SOL    HW239095   8.578   8.850  10.123
46357SOL     OW39096   7.767   8.258  10.259
46357SOL    HW139097   7.860   8.294  10.264
46357SOL    HW239098   7.761   8.173  10.311
46358SOL     OW39099   7.787   7.957  10.316
46358SOL    HW139100   7.735   7.874  10.299
46358SOL    HW239101   7.864   7.962  10.252
46359SOL     OW39102   8.586   7.828  10.988
46359SOL    HW139103   8.541   7.891  11.052
46359SOL    HW239104   8.679   7.859  10.971
46360SOL     OW39105   8.608   7.655  10.787
46360SOL    HW139106   8.608   7.719  10.864
46360SOL    HW239107   8.636   7.703  10.704
46361SOL     OW39108   7.456   8.774   9.510
46361SOL    HW139109   7.363   8.795   9.479
46361SOL    HW239110   7.466   8.675   9.523
46362SOL     OW39111   7.536   9.249  10.237
46362SOL    HW139112   7.494   9.163  10.210
46362SOL    HW239113   7.630   9.252  10.203
46363SOL     OW39114   7.952   9.016  10.220
46363SOL    HW139115   8.018   9.090  10.229
46363SOL    HW239116   7.996   8.937  10.178
46364SOL     OW39117   8.450   8.244  10.548
46364SOL    HW139118   8.491   8.212  10.634
46364SOL    HW239119   8.354   8.217  10.545
46365SOL     OW39120   7.488   7.992  10.424
46365SOL    HW139121   7.573   7.959  10.383
46365SOL    HW239122   7.501   8.007  10.522
46366SOL     OW39123   7.637   7.968  11.032
46366SOL    HW139124   7.696   7.928  10.962
46366SOL    HW239125   7.579   8.039  10.991
46367SOL     OW39126   8.817   8.398  10.970
46367SOL    HW139127   8.856   8.487  10.990
46367SOL    HW239128   8.827   8.378  10.873
46368SOL     OW39129   8.263   8.020   9.635
46368SOL    HW139130   8.270   7.931   9.589
46368SOL    HW239131   8.169   8.054   9.627
46369SOL     OW39132   9.105   8.052  10.516
46369SOL    HW139133   9.067   7.983  10.578
46369SOL    HW239134   9.187   8.016  10.472
46370SOL     OW39135   7.700   9.012  11.054
46370SOL    HW139136   7.670   9.069  11.130
46370SOL    HW239137   7.693   8.915  11.080
46371SOL     OW39138   8.119   7.912  10.579
46371SOL    HW139139   8.085   7.823  10.549
46371SOL    HW239140   8.145   7.966  10.499
46372SOL     OW39141   8.378   9.126  10.775
46372SOL    HW139142   8.354   9.108  10.680
46372SOL    HW239143   8.408   9.220  10.785
46373SOL     OW39144   7.921   7.948   9.501
46373SOL    HW139145   7.982   8.028   9.505
46373SOL    HW239146   7.826   7.979   9.508
46374SOL     OW39147   7.607   8.585  10.776
46374SOL    HW139148   7.629   8.524  10.852
46374SOL    HW239149   7.617   8.536  10.690
46375SOL     OW39150   8.795   8.507  10.544
46375SOL    HW139151   8.819   8.444  10.470
46375SOL    HW239152   8.705   8.547  10.526
46376SOL     OW39153   8.750   8.303   9.619
46376SOL    HW139154   8.664   8.272   9.661
46376SOL    HW239155   8.746   8.289   9.520
46377SOL     OW39156   9.207   9.195  10.464
46377SOL    HW139157   9.268   9.225  10.391
46377SOL    HW239158   9.169   9.106  10.442
46378SOL     OW39159   8.700   9.179  10.438
46378SOL    HW139160   8.784   9.184  10.384
46378SOL    HW239161   8.677   9.083  10.456
46379SOL     OW39162   7.531   8.706  10.332
46379SOL    HW139163   7.526   8.705  10.432
46379SOL    HW239164   7.448   8.665  10.294
46380SOL     OW39165   8.136   9.110  11.026
46380SOL    HW139166   8.080   9.191  11.035
46380SOL    HW239167   8.188   9.114  10.940
46381SOL     OW39168   9.174   7.583   9.833
46381SOL    HW139169   9.247   7.566   9.766
46381SOL    HW239170   9.143   7.496   9.871
46382SOL     OW39171   8.836   9.021   9.787
46382SOL    HW139172   8.903   9.033   9.713
46382SOL    HW239173   8.796   9.110   9.810
46383SOL     OW39174   7.578   9.242  11.161
46383SOL    HW139175   7.537   9.168  11.214
46383SOL    HW239176   7.642   9.293  11.219
46384SOL     OW39177   8.728   8.375   9.982
46384SOL    HW139178   8.788   8.294   9.984
46384SOL    HW239179   8.768   8.444   9.922
46385SOL     OW39180   8.278   8.721  10.732
46385SOL    HW139181   8.273   8.754  10.827
46385SOL    HW239182   8.192   8.740  10.686
46386SOL     OW39183   8.120   9.064   9.464
46386SOL    HW139184   8.129   9.074   9.365
46386SOL    HW239185   8.080   8.975   9.485
46387SOL     OW39186   9.098   9.168  10.704
46387SOL    HW139187   9.151   9.178  10.620
46387SOL    HW239188   9.071   9.258  10.738
46388SOL     OW39189   9.289   7.623  10.273
46388SOL    HW139190   9.328   7.538  10.237
46388SOL    HW239191   9.191   7.625  10.254
46389SOL     OW39192   7.711   7.774  10.030
46389SOL    HW139193   7.632   7.825   9.996
46389SOL    HW239194   7.702   7.759  10.128
46390SOL     OW39195   8.642   9.060   9.341
46390SOL    HW139196   8.648   8.967   9.378
46390SOL    HW239197   8.583   9.060   9.261
46391SOL     OW39198   8.270   8.450  10.682
46391SOL    HW139199   8.310   8.449  10.590
46391SOL    HW239200   8.280   8.542  10.722
46392SOL     OW39201   8.364   8.358   9.601
46392SOL    HW139202   8.427   8.396   9.533
46392SOL    HW239203   8.404   8.275   9.640
46393SOL     OW39204   8.952   9.055   9.354
46393SOL    HW139205   8.860   9.092   9.361
46393SOL    HW239206   8.990   9.075   9.264
46394SOL     OW39207   7.820   8.736  10.800
46394SOL    HW139208   7.807   8.829  10.766
46394SOL    HW239209   7.736   8.684  10.787
46395SOL     OW39210   9.062   8.740  10.599
46395SOL    HW139211   9.122   8.743  10.679
46395SOL    HW239212   8.987   8.804  10.612
46396SOL     OW39213   8.487   8.546  10.006
46396SOL    HW139214   8.417   8.499  10.060
46396SOL    HW239215   8.546   8.478   9.963
46397SOL     OW39216   8.462   7.684  10.281
46397SOL    HW139217   8.454   7.648  10.188
46397SOL    HW239218   8.460   7.608  10.346
46398SOL     OW39219   8.038   8.935   9.801
46398SOL    HW139220   8.080   8.877   9.731
46398SOL    HW239221   7.994   9.014   9.757
46399SOL     OW39222   9.157   7.833  10.691
46399SOL    HW139223   9.230   7.902  10.695
46399SOL    HW239224   9.185   7.758  10.632
46400SOL     OW39225   7.703   8.796   9.600
46400SOL    HW139226   7.607   8.797   9.573
46400SOL    HW239227   7.715   8.849   9.684
46401SOL     OW39228   7.553   8.461  11.036
46401SOL    HW139229   7.476   8.428  11.090
46401SOL    HW239230   7.638   8.431  11.078
46402SOL     OW39231   8.120   7.651  10.799
46402SOL    HW139232   8.210   7.635  10.759
46402SOL    HW239233   8.128   7.656  10.898
46403SOL     OW39234   7.523   7.793   9.343
46403SOL    HW139235   7.431   7.765   9.314
46403SOL    HW239236   7.554   7.870   9.287
46404SOL     OW39237   8.888   8.304  10.708
46404SOL    HW139238   8.831   8.356  10.645
46404SOL    HW239239   8.984   8.316  10.684
46405SOL     OW39240   7.520   7.614   9.628
46405SOL    HW139241   7.503   7.697   9.574
46405SOL    HW239242   7.610   7.577   9.606
46406SOL     OW39243   8.631   8.783   9.429
46406SOL    HW139244   8.532   8.772   9.431
46406SOL    HW239245   8.665   8.798   9.522
46407SOL     OW39246   8.061   8.290  10.741
46407SOL    HW139247   8.117   8.371  10.724
46407SOL    HW239248   8.120   8.210  10.744
46408SOL     OW39249   8.941   9.215  10.269
46408SOL    HW139250   8.974   9.279  10.200
46408SOL    HW239251   9.007   9.209  10.344
46409SOL     OW39252   8.164   8.013  11.018
46409SOL    HW139253   8.183   8.078  11.092
46409SOL    HW239254   8.224   7.933  11.027
46410SOL     OW39255   8.898   8.668  10.943
46410SOL    HW139256   8.889   8.658  11.042
46410SOL    HW239257   8.994   8.661  10.917
46411SOL     OW39258   7.838   9.189  10.870
46411SOL    HW139259   7.747   9.230  10.868
46411SOL    HW239260   7.831   9.095  10.902
46412SOL     OW39261   9.122   8.331  10.564
46412SOL    HW139262   9.095   8.242  10.527
46412SOL    HW239263   9.123   8.399  10.491
46413SOL     OW39264   8.673   7.773   9.759
46413SOL    HW139265   8.738   7.699   9.748
46413SOL    HW239266   8.693   7.823   9.843
46414SOL     OW39267   8.042   8.193   9.962
46414SOL    HW139268   8.092   8.278   9.943
46414SOL    HW239269   7.954   8.195   9.914
46415SOL     OW39270   9.225   7.790  10.952
46415SOL    HW139271   9.208   7.821  10.858
46415SOL    HW239272   9.141   7.753  10.990
46416SOL     OW39273   9.178   8.382  10.827
46416SOL    HW139274   9.216   8.473  10.842
46416SOL    HW239275   9.170   8.365  10.728
46417SOL     OW39276   8.307   8.822   9.326
46417SOL    HW139277   8.261   8.837   9.414
46417SOL    HW239278   8.351   8.907   9.296
46418SOL     OW39279   8.109   9.238  10.263
46418SOL    HW139280   8.063   9.326  10.250
46418SOL    HW239281   8.208   9.250  10.256
46419SOL     OW39282   8.307   8.404  10.171
46419SOL    HW139283   8.361   8.335  10.219
46419SOL    HW239284   8.275   8.473  10.237
46420SOL     OW39285   8.531   8.432   9.397
46420SOL    HW139286   8.508   8.485   9.315
46420SOL    HW239287   8.612   8.376   9.378
46421SOL     OW39288   9.309   9.017  10.161
46421SOL    HW139289   9.238   9.005  10.091
46421SOL    HW239290   9.310   8.938  10.221
46422SOL     OW39291   7.669   8.762  11.154
46422SOL    HW139292   7.604   8.689  11.133
46422SOL    HW239293   7.673   8.776  11.252
46423SOL     OW39294   7.527   8.688   9.963
46423SOL    HW139295   7.526   8.641  10.051
46423SOL    HW239296   7.609   8.660   9.912
46424SOL     OW39297   8.120   8.839  10.934
46424SOL    HW139298   8.042   8.789  10.972
46424SOL    HW239299   8.117   8.934  10.965
46425SOL     OW39300   9.272   7.640  10.537
46425SOL    HW139301   9.268   7.550  10.581
46425SOL    HW239302   9.275   7.629  10.438
46426SOL     OW39303   7.876   7.872   9.830
46426SOL    HW139304   7.906   7.800   9.768
46426SOL    HW239305   7.837   7.832   9.913
46427SOL     OW39306   9.153   8.935  10.414
46427SOL    HW139307   9.060   8.910  10.387
46427SOL    HW239308   9.179   8.885  10.496
46428SOL     OW39309   7.765   7.995  10.590
46428SOL    HW139310   7.803   7.936  10.662
46428SOL    HW239311   7.805   7.969  10.502
46429SOL     OW39312   8.260   9.034   9.997
46429SOL    HW139313   8.292   9.044   9.903
46429SOL    HW239314   8.181   8.972   9.999
46430SOL     OW39315   8.872   7.662  10.422
46430SOL    HW139316   8.924   7.597  10.477
46430SOL    HW239317   8.823   7.725  10.483
46431SOL     OW39318   8.449   7.482  10.464
46431SOL    HW139319   8.386   7.410  10.433
46431SOL    HW239320   8.542   7.446  10.464
46432SOL     OW39321   8.218   8.778   9.611
46432SOL    HW139322   8.172   8.691   9.628
46432SOL    HW239323   8.309   8.775   9.652
46433SOL     OW39324   8.066   9.015  10.594
46433SOL    HW139325   8.061   9.097  10.651
46433SOL    HW239326   8.155   9.012  10.549
46434SOL     OW39327   8.800   7.500   9.478
46434SOL    HW139328   8.835   7.459   9.394
46434SOL    HW239329   8.710   7.462   9.498
46435SOL     OW39330   8.748   7.901  10.001
46435SOL    HW139331   8.689   7.981  10.005
46435SOL    HW239332   8.763   7.866  10.094
46436SOL     OW39333   9.041   7.669  10.192
46436SOL    HW139334   8.957   7.668  10.246
46436SOL    HW239335   9.043   7.752  10.136
46437SOL     OW39336   7.487   8.525   9.610
46437SOL    HW139337   7.586   8.514   9.601
46437SOL    HW239338   7.447   8.439   9.642
46438SOL     OW39339   8.323   9.094   9.647
46438SOL    HW139340   8.246   9.059   9.593
46438SOL    HW239341   8.291   9.165   9.709
46439SOL     OW39342   7.678   8.076  11.285
46439SOL    HW139343   7.585   8.074  11.322
46439SOL    HW239344   7.679   8.037  11.193
46440SOL     OW39345   7.673   7.723  12.168
46440SOL    HW139346   7.708   7.706  12.260
46440SOL    HW239347   7.585   7.678  12.156
46441SOL     OW39348   7.467   7.816  11.819
46441SOL    HW139349   7.385   7.859  11.858
46441SOL    HW239350   7.439   7.743  11.756
46442SOL     OW39351   8.017   8.723  12.337
46442SOL    HW139352   7.924   8.716  12.300
46442SOL    HW239353   8.028   8.812  12.381
46443SOL     OW39354   9.003   8.959  11.875
46443SOL    HW139355   8.946   8.943  11.956
46443SOL    HW239356   8.944   8.969  11.795
46444SOL     OW39357   8.583   8.151  11.889
46444SOL    HW139358   8.640   8.229  11.864
46444SOL    HW239359   8.523   8.177  11.965
46445SOL     OW39360   9.203   8.055  11.403
46445SOL    HW139361   9.191   8.042  11.304
46445SOL    HW239362   9.173   7.974  11.452
46446SOL     OW39363   8.216   8.592  12.195
46446SOL    HW139364   8.138   8.609  12.255
46446SOL    HW239365   8.250   8.679  12.159
46447SOL     OW39366   8.133   8.460  11.837
46447SOL    HW139367   8.202   8.444  11.907
46447SOL    HW239368   8.060   8.517  11.875
46448SOL     OW39369   7.783   8.883  12.233
46448SOL    HW139370   7.705   8.852  12.180
46448SOL    HW239371   7.841   8.941  12.176
46449SOL     OW39372   8.908   8.953  12.511
46449SOL    HW139373   8.932   9.047  12.537
46449SOL    HW239374   8.892   8.899  12.593
46450SOL     OW39375   7.886   7.840  12.671
46450SOL    HW139376   7.968   7.784  12.680
46450SOL    HW239377   7.805   7.782  12.675
46451SOL     OW39378   9.051   7.895  11.909
46451SOL    HW139379   8.977   7.941  11.859
46451SOL    HW239380   9.102   7.963  11.962
46452SOL     OW39381   7.679   9.161  11.655
46452SOL    HW139382   7.713   9.238  11.709
46452SOL    HW239383   7.723   9.161  11.565
46453SOL     OW39384   7.678   8.882  11.710
46453SOL    HW139385   7.652   8.978  11.710
46453SOL    HW239386   7.607   8.828  11.755
46454SOL     OW39387   7.688   8.539  12.058
46454SOL    HW139388   7.702   8.455  12.110
46454SOL    HW239389   7.633   8.603  12.113
46455SOL     OW39390   8.068   9.234  12.611
46455SOL    HW139391   7.976   9.217  12.646
46455SOL    HW239392   8.096   9.326  12.637
46456SOL     OW39393   8.054   8.412  11.295
46456SOL    HW139394   8.061   8.496  11.241
46456SOL    HW239395   8.100   8.425  11.383
46457SOL     OW39396   9.042   7.562  12.652
46457SOL    HW139397   9.024   7.629  12.580
46457SOL    HW239398   9.039   7.608  12.741
46458SOL     OW39399   7.570   8.091  11.735
46458SOL    HW139400   7.525   8.003  11.752
46458SOL    HW239401   7.569   8.145  11.819
46459SOL     OW39402   9.290   9.215  11.531
46459SOL    HW139403   9.344   9.186  11.611
46459SOL    HW239404   9.320   9.305  11.502
46460SOL     OW39405   7.475   9.044  11.289
46460SOL    HW139406   7.456   8.948  11.310
46460SOL    HW239407   7.442   9.102  11.364
46461SOL     OW39408   9.137   8.370  11.784
46461SOL    HW139409   9.232   8.341  11.792
46461SOL    HW239410   9.129   8.435  11.709
46462SOL     OW39411   9.089   8.556  11.604
46462SOL    HW139412   9.175   8.558  11.552
46462SOL    HW239413   9.103   8.603  11.692
46463SOL     OW39414   8.061   8.813  11.898
46463SOL    HW139415   8.012   8.726  11.907
46463SOL    HW239416   8.038   8.856  11.811
46464SOL     OW39417   8.257   7.452  11.674
46464SOL    HW139418   8.297   7.543  11.665
46464SOL    HW239419   8.157   7.460  11.680
46465SOL     OW39420   7.645   8.424  12.436
46465SOL    HW139421   7.734   8.379  12.422
46465SOL    HW239422   7.572   8.359  12.417
46466SOL     OW39423   8.973   8.447  11.362
46466SOL    HW139424   8.910   8.371  11.375
46466SOL    HW239425   9.021   8.465  11.448
46467SOL     OW39426   7.765   7.699  12.973
46467SOL    HW139427   7.836   7.770  12.979
46467SOL    HW239428   7.677   7.738  13.001
46468SOL     OW39429   8.914   8.865  12.125
46468SOL    HW139430   8.855   8.871  12.205
46468SOL    HW239431   8.899   8.777  12.079
46469SOL     OW39432   9.115   9.162  11.744
46469SOL    HW139433   9.074   9.139  11.656
46469SOL    HW239434   9.097   9.088  11.809
46470SOL     OW39435   8.046   8.177  11.442
46470SOL    HW139436   8.070   8.246  11.374
46470SOL    HW239437   7.968   8.210  11.496
46471SOL     OW39438   8.729   7.793  12.116
46471SOL    HW139439   8.643   7.743  12.103
46471SOL    HW239440   8.791   7.739  12.172
46472SOL     OW39441   9.024   9.110  11.479
46472SOL    HW139442   9.113   9.156  11.482
46472SOL    HW239443   9.003   9.086  11.384
46473SOL     OW39444   8.255   8.053  12.637
46473SOL    HW139445   8.208   8.050  12.726
46473SOL    HW239446   8.204   7.998  12.571
46474SOL     OW39447   8.439   7.858  12.414
46474SOL    HW139448   8.362   7.892  12.468
46474SOL    HW239449   8.405   7.807  12.335
46475SOL     OW39450   8.489   8.149  11.601
46475SOL    HW139451   8.515   8.145  11.697
46475SOL    HW239452   8.404   8.098  11.587
46476SOL     OW39453   7.524   8.259  11.961
46476SOL    HW139454   7.623   8.247  11.970
46476SOL    HW239455   7.500   8.354  11.982
46477SOL     OW39456   7.578   9.269  12.743
46477SOL    HW139457   7.568   9.254  12.842
46477SOL    HW239458   7.492   9.305  12.707
46478SOL     OW39459   8.810   8.592  11.717
46478SOL    HW139460   8.893   8.563  11.669
46478SOL    HW239461   8.761   8.659  11.661
46479SOL     OW39462   7.998   7.644  12.057
46479SOL    HW139463   7.993   7.639  12.157
46479SOL    HW239464   8.000   7.740  12.028
46480SOL     OW39465   8.456   8.904  11.649
46480SOL    HW139466   8.410   8.976  11.597
46480SOL    HW239467   8.452   8.924  11.747
46481SOL     OW39468   7.799   9.249  12.025
46481SOL    HW139469   7.849   9.163  12.031
46481SOL    HW239470   7.864   9.326  12.022
46482SOL     OW39471   9.243   8.514  12.045
46482SOL    HW139472   9.181   8.499  11.969
46482SOL    HW239473   9.191   8.525  12.130
46483SOL     OW39474   7.769   8.391  11.414
46483SOL    HW139475   7.851   8.430  11.372
46483SOL    HW239476   7.742   8.309  11.365
46484SOL     OW39477   8.906   8.183  11.900
46484SOL    HW139478   8.901   8.118  11.975
46484SOL    HW239479   8.986   8.242  11.913
46485SOL     OW39480   8.559   9.224  11.409
46485SOL    HW139481   8.499   9.162  11.459
46485SOL    HW239482   8.590   9.180  11.324
46486SOL     OW39483   7.650   7.733  12.670
46486SOL    HW139484   7.570   7.793  12.657
46486SOL    HW239485   7.640   7.684  12.756
46487SOL     OW39486   9.080   8.825  11.253
46487SOL    HW139487   9.048   8.919  11.243
46487SOL    HW239488   9.004   8.762  11.241
46488SOL     OW39489   7.912   9.191  11.495
46488SOL    HW139490   7.945   9.230  11.581
46488SOL    HW239491   7.988   9.184  11.430
46489SOL     OW39492   8.848   7.555  11.598
46489SOL    HW139493   8.824   7.518  11.508
46489SOL    HW239494   8.947   7.571  11.602
46490SOL     OW39495   7.697   9.233  12.413
46490SOL    HW139496   7.754   9.168  12.463
46490SOL    HW239497   7.681   9.200  12.320
46491SOL     OW39498   8.388   9.146  12.076
46491SOL    HW139499   8.468   9.089  12.097
46491SOL    HW239500   8.339   9.106  11.999
46492SOL     OW39501   7.830   8.148  11.652
46492SOL    HW139502   7.875   8.058  11.649
46492SOL    HW239503   7.736   8.137  11.685
46493SOL     OW39504   8.062   7.570  11.289
46493SOL    HW139505   8.160   7.548  11.296
46493SOL    HW239506   8.031   7.553  11.196
46494SOL     OW39507   8.336   8.962  12.367
46494SOL    HW139508   8.313   8.937  12.273
46494SOL    HW239509   8.397   8.893  12.406
46495SOL     OW39510   8.251   8.850  12.096
46495SOL    HW139511   8.341   8.864  12.054
46495SOL    HW239512   8.180   8.852  12.025
46496SOL     OW39513   8.370   7.951  12.071
46496SOL    HW139514   8.345   7.942  11.975
46496SOL    HW239515   8.418   7.869  12.102
46497SOL     OW39516   7.987   7.512  11.684
46497SOL    HW139517   7.906   7.513  11.742
46497SOL    HW239518   7.990   7.595  11.629
46498SOL     OW39519   8.882   8.636  11.213
46498SOL    HW139520   8.914   8.560  11.270
46498SOL    HW239521   8.790   8.663  11.243
46499SOL     OW39522   7.745   7.483  11.343
46499SOL    HW139523   7.794   7.567  11.322
46499SOL    HW239524   7.807   7.418  11.388
46500SOL     OW39525   8.383   7.684  11.652
46500SOL    HW139526   8.335   7.725  11.574
46500SOL    HW239527   8.482   7.682  11.633
46501SOL     OW39528   8.675   9.018  11.965
46501SOL    HW139529   8.696   9.092  11.900
46501SOL    HW239530   8.743   9.018  12.038
46502SOL     OW39531   7.907   8.600  11.913
46502SOL    HW139532   7.836   8.573  11.978
46502SOL    HW239533   7.881   8.572  11.820
46503SOL     OW39534   8.719   9.245  11.763
46503SOL    HW139535   8.763   9.309  11.699
46503SOL    HW239536   8.669   9.297  11.833
46504SOL     OW39537   8.480   7.997  11.188
46504SOL    HW139538   8.439   8.079  11.149
46504SOL    HW239539   8.544   8.023  11.261
46505SOL     OW39540   7.526   8.004  12.558
46505SOL    HW139541   7.618   8.003  12.517
46505SOL    HW239542   7.520   8.078  12.625
46506SOL     OW39543   8.009   7.670  12.319
46506SOL    HW139544   8.047   7.586  12.356
46506SOL    HW239545   7.921   7.689  12.363
46507SOL     OW39546   8.314   7.902  11.814
46507SOL    HW139547   8.282   7.974  11.752
46507SOL    HW239548   8.338   7.821  11.761
46508SOL     OW39549   8.465   7.487  11.925
46508SOL    HW139550   8.393   7.492  11.856
46508SOL    HW239551   8.441   7.418  11.994
46509SOL     OW39552   8.877   8.621  12.039
46509SOL    HW139553   8.822   8.537  12.032
46509SOL    HW239554   8.903   8.650  11.947
46510SOL     OW39555   8.914   8.038  12.164
46510SOL    HW139556   8.884   7.943  12.171
46510SOL    HW239557   8.987   8.054  12.230
46511SOL     OW39558   9.305   8.281  11.549
46511SOL    HW139559   9.347   8.217  11.613
46511SOL    HW239560   9.267   8.230  11.471
46512SOL     OW39561   7.936   8.833  11.346
46512SOL    HW139562   7.849   8.818  11.393
46512SOL    HW239563   7.919   8.859  11.251
46513SOL     OW39564   9.112   8.728  11.829
46513SOL    HW139565   9.211   8.736  11.843
46513SOL    HW239566   9.067   8.812  11.860
46514SOL     OW39567   8.838   8.023  11.250
46514SOL    HW139568   8.784   8.002  11.331
46514SOL    HW239569   8.929   7.982  11.259
46515SOL     OW39570   7.975   7.704  11.500
46515SOL    HW139571   8.002   7.645  11.425
46515SOL    HW239572   7.975   7.799  11.469
46516SOL     OW39573   8.512   8.795  12.512
46516SOL    HW139574   8.432   8.772  12.567
46516SOL    HW239575   8.595   8.769  12.561
46517SOL     OW39576   8.559   8.643  12.272
46517SOL    HW139577   8.519   8.687  12.353
46517SOL    HW239578   8.518   8.680  12.189
46518SOL     OW39579   9.086   8.547  12.251
46518SOL    HW139580   9.091   8.628  12.310
46518SOL    HW239581   9.000   8.549  12.200
46519SOL     OW39582   8.363   7.537  12.574
46519SOL    HW139583   8.388   7.517  12.479
46519SOL    HW239584   8.435   7.593  12.616
46520SOL     OW39585   7.858   8.261  12.423
46520SOL    HW139586   7.944   8.273  12.473
46520SOL    HW239587   7.816   8.174  12.450
46521SOL     OW39588   8.722   7.834  12.434
46521SOL    HW139589   8.743   7.908  12.498
46521SOL    HW239590   8.633   7.851  12.391
46522SOL     OW39591   7.512   9.012  12.503
46522SOL    HW139592   7.466   9.094  12.469
46522SOL    HW239593   7.610   9.031  12.512
46523SOL     OW39594   7.815   8.548  11.673
46523SOL    HW139595   7.808   8.631  11.617
46523SOL    HW239596   7.819   8.468  11.613
46524SOL     OW39597   8.014   7.985  12.037
46524SOL    HW139598   8.026   8.051  11.963
46524SOL    HW239599   8.060   8.019  12.120
46525SOL     OW39600   8.700   8.796  11.560
46525SOL    HW139601   8.750   8.873  11.600
46525SOL    HW239602   8.605   8.798  11.592
46526SOL     OW39603   8.720   8.893  12.314
46526SOL    HW139604   8.767   8.906  12.401
46526SOL    HW239605   8.654   8.819  12.323
46527SOL     OW39606   9.030   8.087  11.644
46527SOL    HW139607   8.999   8.148  11.717
46527SOL    HW239608   9.080   8.139  11.575
46528SOL     OW39609   7.802   8.958  12.501
46528SOL    HW139610   7.781   8.914  12.414
46528SOL    HW239611   7.899   8.984  12.504
46529SOL     OW39612   7.850   8.199  12.770
46529SOL    HW139613   7.918   8.254  12.723
46529SOL    HW239614   7.890   8.111  12.797
46530SOL     OW39615   9.035   8.227  12.842
46530SOL    HW139616   8.943   8.265  12.837
46530SOL    HW239617   9.095   8.274  12.777
46531SOL     OW39618   8.021   8.318  12.201
46531SOL    HW139619   8.065   8.407  12.192
46531SOL    HW239620   7.958   8.318  12.278
46532SOL     OW39621   8.808   8.310  12.217
46532SOL    HW139622   8.733   8.310  12.151
46532SOL    HW239623   8.845   8.218  12.226
46533SOL     OW39624   8.657   7.973  11.447
46533SOL    HW139625   8.670   7.889  11.501
46533SOL    HW239626   8.628   8.047  11.507
46534SOL     OW39627   7.755   7.661  12.403
46534SOL    HW139628   7.732   7.698  12.493
46534SOL    HW239629   7.725   7.566  12.397
46535SOL     OW39630   7.485   8.758  12.454
46535SOL    HW139631   7.538   8.709  12.522
46535SOL    HW239632   7.507   8.856  12.459
46536SOL     OW39633   8.180   8.082  12.236
46536SOL    HW139634   8.239   8.056  12.160
46536SOL    HW239635   8.152   8.178  12.225
46537SOL     OW39636   7.755   7.511  11.790
46537SOL    HW139637   7.744   7.605  11.823
46537SOL    HW239638   7.750   7.448  11.867
46538SOL     OW39639   9.070   7.815  11.546
46538SOL    HW139640   9.072   7.739  11.610
46538SOL    HW239641   9.022   7.892  11.586
46539SOL     OW39642   8.471   8.214  12.138
46539SOL    HW139643   8.486   8.235  12.234
46539SOL    HW239644   8.441   8.119  12.129
46540SOL     OW39645   8.428   9.021  12.872
46540SOL    HW139646   8.408   9.065  12.784
46540SOL    HW239647   8.467   8.930  12.856
46541SOL     OW39648   8.988   7.722  11.297
46541SOL    HW139649   8.927   7.647  11.320
46541SOL    HW239650   9.010   7.774  11.380
46542SOL     OW39651   8.751   8.286  11.214
46542SOL    HW139652   8.785   8.193  11.229
46542SOL    HW239653   8.769   8.313  11.119
46543SOL     OW39654   8.516   8.781  12.021
46543SOL    HW139655   8.523   8.697  11.966
46543SOL    HW239656   8.578   8.850  11.985
46544SOL     OW39657   7.767   8.258  12.121
46544SOL    HW139658   7.860   8.294  12.126
46544SOL    HW239659   7.761   8.173  12.173
46545SOL     OW39660   7.787   7.957  12.178
46545SOL    HW139661   7.735   7.874  12.161
46545SOL    HW239662   7.864   7.962  12.114
46546SOL     OW39663   8.586   7.828  12.850
46546SOL    HW139664   8.541   7.891  12.914
46546SOL    HW239665   8.679   7.859  12.833
46547SOL     OW39666   8.608   7.655  12.649
46547SOL    HW139667   8.608   7.719  12.726
46547SOL    HW239668   8.636   7.703  12.566
46548SOL     OW39669   7.456   8.774  11.372
46548SOL    HW139670   7.363   8.795  11.341
46548SOL    HW239671   7.466   8.675  11.385
46549SOL     OW39672   7.536   9.249  12.099
46549SOL    HW139673   7.494   9.163  12.072
46549SOL    HW239674   7.630   9.252  12.065
46550SOL     OW39675   7.952   9.016  12.082
46550SOL    HW139676   8.018   9.090  12.091
46550SOL    HW239677   7.996   8.937  12.040
46551SOL     OW39678   8.450   8.244  12.410
46551SOL    HW139679   8.491   8.212  12.496
46551SOL    HW239680   8.354   8.217  12.407
46552SOL     OW39681   7.488   7.992  12.286
46552SOL    HW139682   7.573   7.959  12.245
46552SOL    HW239683   7.501   8.007  12.384
46553SOL     OW39684   8.263   8.020  11.497
46553SOL    HW139685   8.270   7.931  11.451
46553SOL    HW239686   8.169   8.054  11.489
46554SOL     OW39687   9.105   8.052  12.378
46554SOL    HW139688   9.067   7.983  12.440
46554SOL    HW239689   9.187   8.016  12.334
46555SOL     OW39690   8.119   7.912  12.441
46555SOL    HW139691   8.085   7.823  12.411
46555SOL    HW239692   8.145   7.966  12.361
46556SOL     OW39693   8.378   9.126  12.637
46556SOL    HW139694   8.354   9.108  12.542
46556SOL    HW239695   8.408   9.220  12.647
46557SOL     OW39696   7.921   7.948  11.363
46557SOL    HW139697   7.982   8.028  11.367
46557SOL    HW239698   7.826   7.979  11.370
46558SOL     OW39699   7.607   8.585  12.638
46558SOL    HW139700   7.629   8.524  12.714
46558SOL    HW239701   7.617   8.536  12.552
46559SOL     OW39702   8.795   8.507  12.406
46559SOL    HW139703   8.819   8.444  12.332
46559SOL    HW239704   8.705   8.547  12.388
46560SOL     OW39705   8.750   8.303  11.481
46560SOL    HW139706   8.664   8.272  11.523
46560SOL    HW239707   8.746   8.289  11.382
46561SOL     OW39708   9.207   9.195  12.326
46561SOL    HW139709   9.268   9.225  12.253
46561SOL    HW239710   9.169   9.106  12.304
46562SOL     OW39711   8.700   9.179  12.300
46562SOL    HW139712   8.784   9.184  12.246
46562SOL    HW239713   8.677   9.083  12.318
46563SOL     OW39714   7.531   8.706  12.194
46563SOL    HW139715   7.526   8.705  12.294
46563SOL    HW239716   7.448   8.665  12.156
46564SOL     OW39717   9.174   7.583  11.695
46564SOL    HW139718   9.247   7.566  11.628
46564SOL    HW239719   9.143   7.496  11.733
46565SOL     OW39720   8.836   9.021  11.649
46565SOL    HW139721   8.903   9.033  11.575
46565SOL    HW239722   8.796   9.110  11.672
46566SOL     OW39723   8.728   8.375  11.844
46566SOL    HW139724   8.788   8.294  11.846
46566SOL    HW239725   8.768   8.444  11.784
46567SOL     OW39726   8.120   9.064  11.326
46567SOL    HW139727   8.129   9.074  11.227
46567SOL    HW239728   8.080   8.975  11.347
46568SOL     OW39729   9.098   9.168  12.566
46568SOL    HW139730   9.151   9.178  12.482
46568SOL    HW239731   9.071   9.258  12.600
46569SOL     OW39732   9.289   7.623  12.135
46569SOL    HW139733   9.328   7.538  12.099
46569SOL    HW239734   9.191   7.625  12.116
46570SOL     OW39735   7.711   7.774  11.892
46570SOL    HW139736   7.632   7.825  11.858
46570SOL    HW239737   7.702   7.759  11.990
46571SOL     OW39738   8.642   9.060  11.203
46571SOL    HW139739   8.648   8.967  11.240
46571SOL    HW239740   8.583   9.060  11.123
46572SOL     OW39741   8.270   8.450  12.544
46572SOL    HW139742   8.310   8.449  12.452
46572SOL    HW239743   8.280   8.542  12.584
46573SOL     OW39744   8.364   8.358  11.463
46573SOL    HW139745   8.427   8.396  11.395
46573SOL    HW239746   8.404   8.275  11.502
46574SOL     OW39747   8.952   9.055  11.216
46574SOL    HW139748   8.860   9.092  11.223
46574SOL    HW239749   8.990   9.075  11.126
46575SOL     OW39750   7.820   8.736  12.662
46575SOL    HW139751   7.807   8.829  12.628
46575SOL    HW239752   7.736   8.684  12.649
46576SOL     OW39753   9.062   8.740  12.461
46576SOL    HW139754   9.122   8.743  12.541
46576SOL    HW239755   8.987   8.804  12.474
46577SOL     OW39756   8.487   8.546  11.868
46577SOL    HW139757   8.417   8.499  11.922
46577SOL    HW239758   8.546   8.478  11.825
46578SOL     OW39759   8.462   7.684  12.143
46578SOL    HW139760   8.454   7.648  12.050
46578SOL    HW239761   8.460   7.608  12.208
46579SOL     OW39762   8.038   8.935  11.663
46579SOL    HW139763   8.080   8.877  11.593
46579SOL    HW239764   7.994   9.014  11.619
46580SOL     OW39765   9.157   7.833  12.553
46580SOL    HW139766   9.230   7.902  12.557
46580SOL    HW239767   9.185   7.758  12.494
46581SOL     OW39768   7.703   8.796  11.462
46581SOL    HW139769   7.607   8.797  11.435
46581SOL    HW239770   7.715   8.849  11.546
46582SOL     OW39771   7.523   7.793  11.205
46582SOL    HW139772   7.431   7.765  11.176
46582SOL    HW239773   7.554   7.870  11.149
46583SOL     OW39774   8.888   8.304  12.570
46583SOL    HW139775   8.831   8.356  12.507
46583SOL    HW239776   8.984   8.316  12.546
46584SOL     OW39777   7.520   7.614  11.490
46584SOL    HW139778   7.503   7.697  11.436
46584SOL    HW239779   7.610   7.577  11.468
46585SOL     OW39780   8.631   8.783  11.291
46585SOL    HW139781   8.532   8.772  11.293
46585SOL    HW239782   8.665   8.798  11.384
46586SOL     OW39783   8.061   8.290  12.603
46586SOL    HW139784   8.117   8.371  12.586
46586SOL    HW239785   8.120   8.210  12.606
46587SOL     OW39786   8.941   9.215  12.131
46587SOL    HW139787   8.974   9.279  12.062
46587SOL    HW239788   9.007   9.209  12.206
46588SOL     OW39789   7.838   9.189  12.732
46588SOL    HW139790   7.747   9.230  12.730
46588SOL    HW239791   7.831   9.095  12.764
46589SOL     OW39792   9.122   8.331  12.426
46589SOL    HW139793   9.095   8.242  12.389
46589SOL    HW239794   9.123   8.399  12.353
46590SOL     OW39795   8.673   7.773  11.621
46590SOL    HW139796   8.738   7.699  11.610
46590SOL    HW239797   8.693   7.823  11.705
46591SOL     OW39798   8.042   8.193  11.824
46591SOL    HW139799   8.092   8.278  11.805
46591SOL    HW239800   7.954   8.195  11.776
46592SOL     OW39801   9.225   7.790  12.814
46592SOL    HW139802   9.208   7.821  12.720
46592SOL    HW239803   9.141   7.753  12.852
46593SOL     OW39804   9.178   8.382  12.689
46593SOL    HW139805   9.216   8.473  12.704
46593SOL    HW239806   9.170   8.365  12.590
46594SOL     OW39807   8.307   8.822  11.188
46594SOL    HW139808   8.261   8.837  11.276
46594SOL    HW239809   8.351   8.907  11.158
46595SOL     OW39810   8.307   8.404  12.033
46595SOL    HW139811   8.361   8.335  12.081
46595SOL    HW239812   8.275   8.473  12.099
46596SOL     OW39813   8.531   8.432  11.259
46596SOL    HW139814   8.508   8.485  11.177
46596SOL    HW239815   8.612   8.376  11.240
46597SOL     OW39816   9.309   9.017  12.023
46597SOL    HW139817   9.238   9.005  11.953
46597SOL    HW239818   9.310   8.938  12.083
46598SOL     OW39819   7.527   8.688  11.825
46598SOL    HW139820   7.526   8.641  11.913
46598SOL    HW239821   7.609   8.660  11.774
46599SOL     OW39822   9.272   7.640  12.399
46599SOL    HW139823   9.268   7.550  12.443
46599SOL    HW239824   9.275   7.629  12.300
46600SOL     OW39825   7.876   7.872  11.692
46600SOL    HW139826   7.906   7.800  11.630
46600SOL    HW239827   7.837   7.832  11.775
46601SOL     OW39828   9.153   8.935  12.276
46601SOL    HW139829   9.060   8.910  12.249
46601SOL    HW239830   9.179   8.885  12.358
46602SOL     OW39831   7.765   7.995  12.452
46602SOL    HW139832   7.803   7.936  12.524
46602SOL    HW239833   7.805   7.969  12.364
46603SOL     OW39834   8.260   9.034  11.859
46603SOL    HW139835   8.292   9.044  11.765
46603SOL    HW239836   8.181   8.972  11.861
46604SOL     OW39837   8.872   7.662  12.284
46604SOL    HW139838   8.924   7.597  12.339
46604SOL    HW239839   8.823   7.725  12.345
46605SOL     OW39840   8.449   7.482  12.326
46605SOL    HW139841   8.386   7.410  12.295
46605SOL    HW239842   8.542   7.446  12.326
46606SOL     OW39843   8.218   8.778  11.473
46606SOL    HW139844   8.172   8.691  11.490
46606SOL    HW239845   8.309   8.775  11.514
46607SOL     OW39846   8.066   9.015  12.456
46607SOL    HW139847   8.061   9.097  12.513
46607SOL    HW239848   8.155   9.012  12.411
46608SOL     OW39849   8.800   7.500  11.340
46608SOL    HW139850   8.835   7.459  11.256
46608SOL    HW239851   8.710   7.462  11.360
46609SOL     OW39852   8.748   7.901  11.863
46609SOL    HW139853   8.689   7.981  11.867
46609SOL    HW239854   8.763   7.866  11.956
46610SOL     OW39855   9.041   7.669  12.054
46610SOL    HW139856   8.957   7.668  12.108
46610SOL    HW239857   9.043   7.752  11.998
46611SOL     OW39858   7.487   8.525  11.472
46611SOL    HW139859   7.586   8.514  11.463
46611SOL    HW239860   7.447   8.439  11.504
46612SOL     OW39861   8.323   9.094  11.509
46612SOL    HW139862   8.246   9.059  11.455
46612SOL    HW239863   8.291   9.165  11.571
46613SOL     OW39864   7.678   9.938   0.113
46613SOL    HW139865   7.585   9.936   0.150
46613SOL    HW239866   7.679   9.899   0.021
46614SOL     OW39867   7.673   9.585   0.996
46614SOL    HW139868   7.708   9.568   1.088
46614SOL    HW239869   7.585   9.540   0.984
46615SOL     OW39870   7.467   9.678   0.647
46615SOL    HW139871   7.385   9.721   0.686
46615SOL    HW239872   7.439   9.605   0.584
46616SOL     OW39873   8.017  10.585   1.165
46616SOL    HW139874   7.924  10.578   1.128
46616SOL    HW239875   8.028  10.674   1.209
46617SOL     OW39876   9.003  10.821   0.703
46617SOL    HW139877   8.946  10.805   0.784
46617SOL    HW239878   8.944  10.831   0.623
46618SOL     OW39879   8.583  10.013   0.717
46618SOL    HW139880   8.640  10.091   0.692
46618SOL    HW239881   8.523  10.039   0.793
46619SOL     OW39882   9.203   9.917   0.231
46619SOL    HW139883   9.191   9.904   0.132
46619SOL    HW239884   9.173   9.836   0.280
46620SOL     OW39885   8.216  10.454   1.023
46620SOL    HW139886   8.138  10.471   1.083
46620SOL    HW239887   8.250  10.541   0.987
46621SOL     OW39888   8.298  10.108   1.823
46621SOL    HW139889   8.294  10.184   1.888
46621SOL    HW239890   8.320  10.144   1.732
46622SOL     OW39891   8.133  10.322   0.665
46622SOL    HW139892   8.202  10.306   0.735
46622SOL    HW239893   8.060  10.379   0.703
46623SOL     OW39894   8.134  10.471   1.803
46623SOL    HW139895   8.194  10.550   1.817
46623SOL    HW239896   8.048  10.502   1.762
46624SOL     OW39897   7.783  10.745   1.061
46624SOL    HW139898   7.705  10.714   1.008
46624SOL    HW239899   7.841  10.803   1.004
46625SOL     OW39900   8.908  10.815   1.339
46625SOL    HW139901   8.932  10.909   1.365
46625SOL    HW239902   8.892  10.761   1.421
46626SOL     OW39903   7.886   9.702   1.499
46626SOL    HW139904   7.968   9.646   1.508
46626SOL    HW239905   7.805   9.644   1.503
46627SOL     OW39906   9.051   9.757   0.737
46627SOL    HW139907   8.977   9.803   0.687
46627SOL    HW239908   9.102   9.825   0.790
46628SOL     OW39909   7.679  11.023   0.483
46628SOL    HW139910   7.713  11.100   0.537
46628SOL    HW239911   7.723  11.023   0.393
46629SOL     OW39912   8.575  10.651   1.690
46629SOL    HW139913   8.622  10.651   1.778
46629SOL    HW239914   8.527  10.564   1.679
46630SOL     OW39915   7.678  10.744   0.538
46630SOL    HW139916   7.652  10.840   0.538
46630SOL    HW239917   7.607  10.690   0.583
46631SOL     OW39918   7.688  10.401   0.886
46631SOL    HW139919   7.702  10.317   0.938
46631SOL    HW239920   7.633  10.465   0.941
46632SOL     OW39921   8.068  11.096   1.439
46632SOL    HW139922   7.976  11.079   1.474
46632SOL    HW239923   8.096  11.188   1.465
46633SOL     OW39924   8.054  10.274   0.123
46633SOL    HW139925   8.061  10.358   0.069
46633SOL    HW239926   8.100  10.287   0.211
46634SOL     OW39927   9.042   9.424   1.480
46634SOL    HW139928   9.024   9.491   1.408
46634SOL    HW239929   9.039   9.470   1.569
46635SOL     OW39930   7.570   9.953   0.563
46635SOL    HW139931   7.525   9.865   0.580
46635SOL    HW239932   7.569  10.007   0.647
46636SOL     OW39933   9.290  11.077   0.359
46636SOL    HW139934   9.344  11.048   0.439
46636SOL    HW239935   9.320  11.167   0.330
46637SOL     OW39936   7.475  10.906   0.117
46637SOL    HW139937   7.456  10.810   0.138
46637SOL    HW239938   7.442  10.964   0.192
46638SOL     OW39939   9.137  10.232   0.612
46638SOL    HW139940   9.232  10.203   0.620
46638SOL    HW239941   9.129  10.297   0.537
46639SOL     OW39942   9.089  10.418   0.432
46639SOL    HW139943   9.175  10.420   0.380
46639SOL    HW239944   9.103  10.465   0.520
46640SOL     OW39945   7.561  10.047   1.597
46640SOL    HW139946   7.649  10.034   1.642
46640SOL    HW239947   7.548  10.144   1.575
46641SOL     OW39948   8.061  10.675   0.726
46641SOL    HW139949   8.012  10.588   0.735
46641SOL    HW239950   8.038  10.718   0.639
46642SOL     OW39951   8.741  10.538   1.423
46642SOL    HW139952   8.778  10.465   1.365
46642SOL    HW239953   8.793  10.543   1.508
46643SOL     OW39954   8.257   9.314   0.502
46643SOL    HW139955   8.297   9.405   0.493
46643SOL    HW239956   8.157   9.322   0.508
46644SOL     OW39957   7.645  10.286   1.264
46644SOL    HW139958   7.734  10.241   1.250
46644SOL    HW239959   7.572  10.221   1.245
46645SOL     OW39960   8.973  10.309   0.190
46645SOL    HW139961   8.910  10.233   0.203
46645SOL    HW239962   9.021  10.327   0.276
46646SOL     OW39963   8.635  11.102   1.616
46646SOL    HW139964   8.659  11.162   1.540
46646SOL    HW239965   8.642  11.007   1.586
46647SOL     OW39966   7.765   9.561   1.801
46647SOL    HW139967   7.836   9.632   1.807
46647SOL    HW239968   7.677   9.600   1.829
46648SOL     OW39969   8.914  10.727   0.953
46648SOL    HW139970   8.855  10.733   1.033
46648SOL    HW239971   8.899  10.639   0.907
46649SOL     OW39972   9.115  11.024   0.572
46649SOL    HW139973   9.074  11.001   0.484
46649SOL    HW239974   9.097  10.950   0.637
46650SOL     OW39975   8.046  10.039   0.270
46650SOL    HW139976   8.070  10.108   0.202
46650SOL    HW239977   7.968  10.072   0.324
46651SOL     OW39978   8.729   9.655   0.944
46651SOL    HW139979   8.643   9.605   0.931
46651SOL    HW239980   8.791   9.601   1.000
46652SOL     OW39981   9.024  10.972   0.307
46652SOL    HW139982   9.113  11.018   0.310
46652SOL    HW239983   9.003  10.948   0.212
46653SOL     OW39984   8.255   9.915   1.465
46653SOL    HW139985   8.208   9.912   1.554
46653SOL    HW239986   8.204   9.860   1.399
46654SOL     OW39987   8.842   9.779   1.674
46654SOL    HW139988   8.822   9.822   1.762
46654SOL    HW239989   8.920   9.717   1.683
46655SOL     OW39990   8.421  10.200   1.572
46655SOL    HW139991   8.467  10.116   1.543
46655SOL    HW239992   8.365  10.234   1.497
46656SOL     OW39993   8.439   9.720   1.242
46656SOL    HW139994   8.362   9.754   1.296
46656SOL    HW239995   8.405   9.669   1.163
46657SOL     OW39996   8.489  10.011   0.429
46657SOL    HW139997   8.515  10.007   0.525
46657SOL    HW239998   8.404   9.960   0.415
46658SOL     OW39999   7.524  10.121   0.789
46658SOL    HW140000   7.623  10.109   0.798
46658SOL    HW240001   7.500  10.216   0.810
46659SOL     OW40002   7.578  11.131   1.571
46659SOL    HW140003   7.568  11.116   1.670
46659SOL    HW240004   7.492  11.167   1.535
46660SOL     OW40005   8.313   9.658   0.195
46660SOL    HW140006   8.372   9.721   0.146
46660SOL    HW240007   8.332   9.564   0.166
46661SOL     OW40008   9.167   9.895   1.831
46661SOL    HW140009   9.141   9.984   1.795
46661SOL    HW240010   9.165   9.827   1.758
46662SOL     OW40011   8.810  10.454   0.545
46662SOL    HW140012   8.893  10.425   0.497
46662SOL    HW240013   8.761  10.521   0.489
46663SOL     OW40014   7.998   9.506   0.885
46663SOL    HW140015   7.993   9.501   0.985
46663SOL    HW240016   8.000   9.602   0.856
46664SOL     OW40017   8.456  10.766   0.477
46664SOL    HW140018   8.410  10.838   0.425
46664SOL    HW240019   8.452  10.786   0.575
46665SOL     OW40020   7.799  11.111   0.853
46665SOL    HW140021   7.849  11.025   0.859
46665SOL    HW240022   7.864  11.188   0.850
46666SOL     OW40023   9.243  10.376   0.873
46666SOL    HW140024   9.181  10.361   0.797
46666SOL    HW240025   9.191  10.387   0.958
46667SOL     OW40026   8.675  10.860   1.506
46667SOL    HW140027   8.681  10.783   1.570
46667SOL    HW240028   8.623  10.834   1.426
46668SOL     OW40029   7.769  10.253   0.242
46668SOL    HW140030   7.851  10.292   0.200
46668SOL    HW240031   7.742  10.171   0.193
46669SOL     OW40032   8.906  10.045   0.728
46669SOL    HW140033   8.901   9.980   0.803
46669SOL    HW240034   8.986  10.104   0.741
46670SOL     OW40035   7.909  10.576   1.727
46670SOL    HW140036   7.859  10.577   1.641
46670SOL    HW240037   7.846  10.558   1.803
46671SOL     OW40038   8.559  11.086   0.237
46671SOL    HW140039   8.499  11.024   0.287
46671SOL    HW240040   8.590  11.042   0.152
46672SOL     OW40041   7.650   9.595   1.498
46672SOL    HW140042   7.570   9.655   1.485
46672SOL    HW240043   7.640   9.546   1.584
46673SOL     OW40044   9.080  10.687   0.081
46673SOL    HW140045   9.048  10.781   0.071
46673SOL    HW240046   9.004  10.624   0.069
46674SOL     OW40047   7.912  11.053   0.323
46674SOL    HW140048   7.945  11.092   0.409
46674SOL    HW240049   7.988  11.046   0.258
46675SOL     OW40050   8.848   9.417   0.426
46675SOL    HW140051   8.824   9.380   0.336
46675SOL    HW240052   8.947   9.433   0.430
46676SOL     OW40053   7.697  11.095   1.241
46676SOL    HW140054   7.754  11.030   1.291
46676SOL    HW240055   7.681  11.062   1.148
46677SOL     OW40056   8.388  11.008   0.904
46677SOL    HW140057   8.468  10.951   0.925
46677SOL    HW240058   8.339  10.968   0.827
46678SOL     OW40059   7.830  10.010   0.480
46678SOL    HW140060   7.875   9.920   0.477
46678SOL    HW240061   7.736   9.999   0.513
46679SOL     OW40062   8.995   9.532   1.729
46679SOL    HW140063   8.990   9.569   1.821
46679SOL    HW240064   8.923   9.463   1.717
46680SOL     OW40065   8.062   9.432   0.117
46680SOL    HW140066   8.160   9.410   0.124
46680SOL    HW240067   8.031   9.415   0.024
46681SOL     OW40068   8.229   9.574   1.749
46681SOL    HW140069   8.296   9.513   1.792
46681SOL    HW240070   8.156   9.593   1.814
46682SOL     OW40071   8.336  10.824   1.195
46682SOL    HW140072   8.313  10.799   1.101
46682SOL    HW240073   8.397  10.755   1.234
46683SOL     OW40074   8.799   9.900   1.433
46683SOL    HW140075   8.827   9.857   1.518
46683SOL    HW240076   8.824   9.996   1.434
46684SOL     OW40077   8.251  10.712   0.924
46684SOL    HW140078   8.341  10.726   0.882
46684SOL    HW240079   8.180  10.714   0.853
46685SOL     OW40080   8.370   9.813   0.899
46685SOL    HW140081   8.345   9.804   0.803
46685SOL    HW240082   8.418   9.731   0.930
46686SOL     OW40083   7.987   9.374   0.512
46686SOL    HW140084   7.906   9.375   0.570
46686SOL    HW240085   7.990   9.457   0.457
46687SOL     OW40086   8.882  10.498   0.041
46687SOL    HW140087   8.914  10.422   0.098
46687SOL    HW240088   8.790  10.525   0.071
46688SOL     OW40089   7.745   9.345   0.171
46688SOL    HW140090   7.794   9.429   0.150
46688SOL    HW240091   7.807   9.280   0.216
46689SOL     OW40092   8.383   9.546   0.480
46689SOL    HW140093   8.335   9.587   0.402
46689SOL    HW240094   8.482   9.544   0.461
46690SOL     OW40095   8.524   9.993   1.464
46690SOL    HW140096   8.444   9.932   1.467
46690SOL    HW240097   8.605   9.940   1.440
46691SOL     OW40098   8.675  10.880   0.793
46691SOL    HW140099   8.696  10.954   0.728
46691SOL    HW240100   8.743  10.880   0.866
46692SOL     OW40101   7.907  10.462   0.741
46692SOL    HW140102   7.836  10.435   0.806
46692SOL    HW240103   7.881  10.434   0.648
46693SOL     OW40104   8.719  11.107   0.591
46693SOL    HW140105   8.763  11.171   0.527
46693SOL    HW240106   8.669  11.159   0.661
46694SOL     OW40107   8.480   9.859   0.016
46694SOL    HW140108   8.439   9.941  -0.023
46694SOL    HW240109   8.544   9.885   0.089
46695SOL     OW40110   7.526   9.866   1.386
46695SOL    HW140111   7.618   9.865   1.345
46695SOL    HW240112   7.520   9.940   1.453
46696SOL     OW40113   8.009   9.532   1.147
46696SOL    HW140114   8.047   9.448   1.184
46696SOL    HW240115   7.921   9.551   1.191
46697SOL     OW40116   8.314   9.764   0.642
46697SOL    HW140117   8.282   9.836   0.580
46697SOL    HW240118   8.338   9.683   0.589
46698SOL     OW40119   8.465   9.349   0.753
46698SOL    HW140120   8.393   9.354   0.684
46698SOL    HW240121   8.441   9.280   0.822
46699SOL     OW40122   8.877  10.483   0.867
46699SOL    HW140123   8.822  10.399   0.860
46699SOL    HW240124   8.903  10.512   0.775
46700SOL     OW40125   8.914   9.900   0.992
46700SOL    HW140126   8.884   9.805   0.999
46700SOL    HW240127   8.987   9.916   1.058
46701SOL     OW40128   9.305  10.143   0.377
46701SOL    HW140129   9.347  10.079   0.441
46701SOL    HW240130   9.267  10.092   0.299
46702SOL     OW40131   7.936  10.695   0.174
46702SOL    HW140132   7.849  10.680   0.221
46702SOL    HW240133   7.919  10.721   0.079
46703SOL     OW40134   9.112  10.590   0.657
46703SOL    HW140135   9.211  10.598   0.671
46703SOL    HW240136   9.067  10.674   0.688
46704SOL     OW40137   8.838   9.885   0.078
46704SOL    HW140138   8.784   9.864   0.159
46704SOL    HW240139   8.929   9.844   0.087
46705SOL     OW40140   7.975   9.566   0.328
46705SOL    HW140141   8.002   9.507   0.253
46705SOL    HW240142   7.975   9.661   0.297
46706SOL     OW40143   9.202  10.533   1.588
46706SOL    HW140144   9.293  10.494   1.575
46706SOL    HW240145   9.210  10.629   1.612
46707SOL     OW40146   8.512  10.657   1.340
46707SOL    HW140147   8.432  10.634   1.395
46707SOL    HW240148   8.595  10.631   1.389
46708SOL     OW40149   9.040  10.939   1.625
46708SOL    HW140150   9.067  10.973   1.535
46708SOL    HW240151   9.119  10.901   1.671
46709SOL     OW40152   8.559  10.505   1.100
46709SOL    HW140153   8.519  10.549   1.181
46709SOL    HW240154   8.518  10.542   1.017
46710SOL     OW40155   9.086  10.409   1.079
46710SOL    HW140156   9.091  10.490   1.138
46710SOL    HW240157   9.000  10.411   1.028
46711SOL     OW40158   8.363   9.399   1.402
46711SOL    HW140159   8.388   9.379   1.307
46711SOL    HW240160   8.435   9.455   1.444
46712SOL     OW40161   8.428  10.426   1.719
46712SOL    HW140162   8.329  10.432   1.729
46712SOL    HW240163   8.451  10.346   1.663
46713SOL     OW40164   8.153  10.360   0.368
46713SOL    HW140165   8.139  10.367   0.467
46713SOL    HW240166   8.237  10.309   0.350
46714SOL     OW40167   7.858  10.123   1.251
46714SOL    HW140168   7.944  10.135   1.301
46714SOL    HW240169   7.816  10.036   1.278
46715SOL     OW40170   8.722   9.696   1.262
46715SOL    HW140171   8.743   9.770   1.326
46715SOL    HW240172   8.633   9.713   1.219
46716SOL     OW40173   7.512  10.874   1.331
46716SOL    HW140174   7.466  10.956   1.297
46716SOL    HW240175   7.610  10.893   1.340
46717SOL     OW40176   7.815  10.410   0.501
46717SOL    HW140177   7.808  10.493   0.445
46717SOL    HW240178   7.819  10.330   0.441
46718SOL     OW40179   8.014   9.847   0.865
46718SOL    HW140180   8.026   9.913   0.791
46718SOL    HW240181   8.060   9.881   0.948
46719SOL     OW40182   8.700  10.658   0.388
46719SOL    HW140183   8.750  10.735   0.428
46719SOL    HW240184   8.605  10.660   0.420
46720SOL     OW40185   8.720  10.755   1.142
46720SOL    HW140186   8.767  10.768   1.229
46720SOL    HW240187   8.654  10.681   1.151
46721SOL     OW40188   9.030   9.949   0.472
46721SOL    HW140189   8.999  10.010   0.545
46721SOL    HW240190   9.080  10.001   0.403
46722SOL     OW40191   7.802  10.820   1.329
46722SOL    HW140192   7.781  10.776   1.242
46722SOL    HW240193   7.899  10.846   1.332
46723SOL     OW40194   7.850  10.061   1.598
46723SOL    HW140195   7.918  10.116   1.551
46723SOL    HW240196   7.890   9.973   1.625
46724SOL     OW40197   9.035  10.089   1.670
46724SOL    HW140198   8.943  10.127   1.665
46724SOL    HW240199   9.095  10.136   1.605
46725SOL     OW40200   8.461   9.415   1.770
46725SOL    HW140201   8.467   9.500   1.718
46725SOL    HW240202   8.493   9.339   1.713
46726SOL     OW40203   7.952   9.360   1.740
46726SOL    HW140204   7.910   9.303   1.670
46726SOL    HW240205   7.886   9.429   1.772
46727SOL     OW40206   8.021  10.180   1.029
46727SOL    HW140207   8.065  10.269   1.020
46727SOL    HW240208   7.958  10.180   1.106
46728SOL     OW40209   8.808  10.172   1.045
46728SOL    HW140210   8.733  10.172   0.979
46728SOL    HW240211   8.845  10.080   1.054
46729SOL     OW40212   8.657   9.835   0.275
46729SOL    HW140213   8.670   9.751   0.329
46729SOL    HW240214   8.628   9.909   0.335
46730SOL     OW40215   7.755   9.523   1.231
46730SOL    HW140216   7.732   9.560   1.321
46730SOL    HW240217   7.725   9.428   1.225
46731SOL     OW40218   7.485  10.620   1.282
46731SOL    HW140219   7.538  10.571   1.350
46731SOL    HW240220   7.507  10.718   1.287
46732SOL     OW40221   8.180   9.944   1.064
46732SOL    HW140222   8.239   9.918   0.988
46732SOL    HW240223   8.152  10.040   1.053
46733SOL     OW40224   9.176  10.245   1.854
46733SOL    HW140225   9.130  10.238   1.765
46733SOL    HW240226   9.114  10.289   1.920
46734SOL     OW40227   7.755   9.373   0.618
46734SOL    HW140228   7.744   9.467   0.651
46734SOL    HW240229   7.750   9.310   0.695
46735SOL     OW40230   9.070   9.677   0.374
46735SOL    HW140231   9.072   9.601   0.438
46735SOL    HW240232   9.022   9.754   0.414
46736SOL     OW40233   8.471  10.076   0.966
46736SOL    HW140234   8.486  10.097   1.062
46736SOL    HW240235   8.441   9.981   0.957
46737SOL     OW40236   8.428  10.883   1.700
46737SOL    HW140237   8.408  10.927   1.612
46737SOL    HW240238   8.467  10.792   1.684
46738SOL     OW40239   9.307  10.828   1.605
46738SOL    HW140240   9.321  10.855   1.510
46738SOL    HW240241   9.390  10.850   1.658
46739SOL     OW40242   7.798  10.208   1.804
46739SOL    HW140243   7.874  10.252   1.852
46739SOL    HW240244   7.833  10.161   1.722
46740SOL     OW40245   8.988   9.584   0.125
46740SOL    HW140246   8.927   9.509   0.148
46740SOL    HW240247   9.010   9.636   0.208
46741SOL     OW40248   8.751  10.148   0.042
46741SOL    HW140249   8.785  10.055   0.057
46741SOL    HW240250   8.769  10.175  -0.053
46742SOL     OW40251   8.516  10.643   0.849
46742SOL    HW140252   8.523  10.559   0.794
46742SOL    HW240253   8.578  10.712   0.813
46743SOL     OW40254   7.767  10.120   0.949
46743SOL    HW140255   7.860  10.156   0.954
46743SOL    HW240256   7.761  10.035   1.001
46744SOL     OW40257   7.787   9.819   1.006
46744SOL    HW140258   7.735   9.736   0.989
46744SOL    HW240259   7.864   9.824   0.942
46745SOL     OW40260   8.586   9.690   1.678
46745SOL    HW140261   8.541   9.753   1.742
46745SOL    HW240262   8.679   9.721   1.661
46746SOL     OW40263   8.608   9.517   1.477
46746SOL    HW140264   8.608   9.581   1.554
46746SOL    HW240265   8.636   9.565   1.394
46747SOL     OW40266   7.456  10.636   0.200
46747SOL    HW140267   7.363  10.657   0.169
46747SOL    HW240268   7.466  10.537   0.213
46748SOL     OW40269   7.536  11.111   0.927
46748SOL    HW140270   7.494  11.025   0.900
46748SOL    HW240271   7.630  11.114   0.893
46749SOL     OW40272   7.952  10.878   0.910
46749SOL    HW140273   8.018  10.952   0.919
46749SOL    HW240274   7.996  10.799   0.868
46750SOL     OW40275   8.450  10.106   1.238
46750SOL    HW140276   8.491  10.074   1.324
46750SOL    HW240277   8.354  10.079   1.235
46751SOL     OW40278   7.488   9.854   1.114
46751SOL    HW140279   7.573   9.821   1.073
46751SOL    HW240280   7.501   9.869   1.212
46752SOL     OW40281   7.637   9.830   1.722
46752SOL    HW140282   7.696   9.790   1.652
46752SOL    HW240283   7.579   9.901   1.681
46753SOL     OW40284   8.817  10.260   1.660
46753SOL    HW140285   8.856  10.349   1.680
46753SOL    HW240286   8.827  10.240   1.563
46754SOL     OW40287   8.263   9.882   0.325
46754SOL    HW140288   8.270   9.793   0.279
46754SOL    HW240289   8.169   9.916   0.317
46755SOL     OW40290   9.105   9.914   1.206
46755SOL    HW140291   9.067   9.845   1.268
46755SOL    HW240292   9.187   9.878   1.162
46756SOL     OW40293   7.700  10.874   1.744
46756SOL    HW140294   7.670  10.931   1.820
46756SOL    HW240295   7.693  10.777   1.770
46757SOL     OW40296   8.119   9.774   1.269
46757SOL    HW140297   8.085   9.685   1.239
46757SOL    HW240298   8.145   9.828   1.189
46758SOL     OW40299   8.378  10.988   1.465
46758SOL    HW140300   8.354  10.970   1.370
46758SOL    HW240301   8.408  11.082   1.475
46759SOL     OW40302   7.921   9.810   0.191
46759SOL    HW140303   7.982   9.890   0.195
46759SOL    HW240304   7.826   9.841   0.198
46760SOL     OW40305   7.607  10.447   1.466
46760SOL    HW140306   7.629  10.386   1.542
46760SOL    HW240307   7.617  10.398   1.380
46761SOL     OW40308   8.795  10.369   1.234
46761SOL    HW140309   8.819  10.306   1.160
46761SOL    HW240310   8.705  10.409   1.216
46762SOL     OW40311   8.750  10.165   0.309
46762SOL    HW140312   8.664  10.134   0.351
46762SOL    HW240313   8.746  10.151   0.210
46763SOL     OW40314   9.207  11.057   1.154
46763SOL    HW140315   9.268  11.087   1.081
46763SOL    HW240316   9.169  10.968   1.132
46764SOL     OW40317   8.700  11.041   1.128
46764SOL    HW140318   8.784  11.046   1.074
46764SOL    HW240319   8.677  10.945   1.146
46765SOL     OW40320   7.531  10.568   1.022
46765SOL    HW140321   7.526  10.567   1.122
46765SOL    HW240322   7.448  10.527   0.984
46766SOL     OW40323   8.136  10.972   1.716
46766SOL    HW140324   8.080  11.053   1.725
46766SOL    HW240325   8.188  10.976   1.630
46767SOL     OW40326   8.351   9.396   0.133
46767SOL    HW140327   8.402   9.397   0.047
46767SOL    HW240328   8.407   9.354   0.204
46768SOL     OW40329   9.174   9.445   0.523
46768SOL    HW140330   9.247   9.428   0.456
46768SOL    HW240331   9.143   9.358   0.561
46769SOL     OW40332   8.836  10.883   0.477
46769SOL    HW140333   8.903  10.895   0.403
46769SOL    HW240334   8.796  10.972   0.500
46770SOL     OW40335   7.578  11.104   1.851
46770SOL    HW140336   7.537  11.030   1.904
46770SOL    HW240337   7.642  11.155   1.909
46771SOL     OW40338   8.728  10.237   0.672
46771SOL    HW140339   8.788  10.156   0.674
46771SOL    HW240340   8.768  10.306   0.612
46772SOL     OW40341   8.278  10.583   1.422
46772SOL    HW140342   8.273  10.616   1.517
46772SOL    HW240343   8.192  10.602   1.376
46773SOL     OW40344   8.120  10.926   0.154
46773SOL    HW140345   8.129  10.936   0.055
46773SOL    HW240346   8.080  10.837   0.175
46774SOL     OW40347   9.098  11.030   1.394
46774SOL    HW140348   9.151  11.040   1.310
46774SOL    HW240349   9.071  11.120   1.428
46775SOL     OW40350   9.289   9.485   0.963
46775SOL    HW140351   9.328   9.400   0.927
46775SOL    HW240352   9.191   9.487   0.944
46776SOL     OW40353   7.711   9.636   0.720
46776SOL    HW140354   7.632   9.687   0.686
46776SOL    HW240355   7.702   9.621   0.818
46777SOL     OW40356   8.642  10.922   0.031
46777SOL    HW140357   8.648  10.829   0.068
46777SOL    HW240358   8.583  10.922  -0.049
46778SOL     OW40359   8.270  10.312   1.372
46778SOL    HW140360   8.310  10.311   1.280
46778SOL    HW240361   8.280  10.404   1.412
46779SOL     OW40362   8.364  10.220   0.291
46779SOL    HW140363   8.427  10.258   0.223
46779SOL    HW240364   8.404  10.137   0.330
46780SOL     OW40365   8.952  10.917   0.044
46780SOL    HW140366   8.860  10.954   0.051
46780SOL    HW240367   8.990  10.937  -0.046
46781SOL     OW40368   7.820  10.598   1.490
46781SOL    HW140369   7.807  10.691   1.456
46781SOL    HW240370   7.736  10.546   1.477
46782SOL     OW40371   9.062  10.602   1.289
46782SOL    HW140372   9.122  10.605   1.369
46782SOL    HW240373   8.987  10.666   1.302
46783SOL     OW40374   8.487  10.408   0.696
46783SOL    HW140375   8.417  10.361   0.750
46783SOL    HW240376   8.546  10.340   0.653
46784SOL     OW40377   8.462   9.546   0.971
46784SOL    HW140378   8.454   9.510   0.878
46784SOL    HW240379   8.460   9.470   1.036
46785SOL     OW40380   8.038  10.797   0.491
46785SOL    HW140381   8.080  10.739   0.421
46785SOL    HW240382   7.994  10.876   0.447
46786SOL     OW40383   9.157   9.695   1.381
46786SOL    HW140384   9.230   9.764   1.385
46786SOL    HW240385   9.185   9.620   1.322
46787SOL     OW40386   7.703  10.658   0.290
46787SOL    HW140387   7.607  10.659   0.263
46787SOL    HW240388   7.715  10.711   0.374
46788SOL     OW40389   7.553  10.323   1.726
46788SOL    HW140390   7.476  10.290   1.780
46788SOL    HW240391   7.638  10.293   1.768
46789SOL     OW40392   8.120   9.513   1.489
46789SOL    HW140393   8.210   9.497   1.449
46789SOL    HW240394   8.128   9.518   1.588
46790SOL     OW40395   8.888  10.166   1.398
46790SOL    HW140396   8.831  10.218   1.335
46790SOL    HW240397   8.984  10.178   1.374
46791SOL     OW40398   7.520   9.476   0.318
46791SOL    HW140399   7.503   9.559   0.264
46791SOL    HW240400   7.610   9.439   0.296
46792SOL     OW40401   8.631  10.645   0.119
46792SOL    HW140402   8.532  10.634   0.121
46792SOL    HW240403   8.665  10.660   0.212
46793SOL     OW40404   8.061  10.152   1.431
46793SOL    HW140405   8.117  10.233   1.414
46793SOL    HW240406   8.120  10.072   1.434
46794SOL     OW40407   8.941  11.077   0.959
46794SOL    HW140408   8.974  11.141   0.890
46794SOL    HW240409   9.007  11.071   1.034
46795SOL     OW40410   8.164   9.875   1.708
46795SOL    HW140411   8.183   9.940   1.782
46795SOL    HW240412   8.224   9.795   1.717
46796SOL     OW40413   8.898  10.530   1.633
46796SOL    HW140414   8.889  10.520   1.732
46796SOL    HW240415   8.994  10.523   1.607
46797SOL     OW40416   7.838  11.051   1.560
46797SOL    HW140417   7.747  11.092   1.558
46797SOL    HW240418   7.831  10.957   1.592
46798SOL     OW40419   9.122  10.193   1.254
46798SOL    HW140420   9.095  10.104   1.217
46798SOL    HW240421   9.123  10.261   1.181
46799SOL     OW40422   8.673   9.635   0.449
46799SOL    HW140423   8.738   9.561   0.438
46799SOL    HW240424   8.693   9.685   0.533
46800SOL     OW40425   8.042  10.055   0.652
46800SOL    HW140426   8.092  10.140   0.633
46800SOL    HW240427   7.954  10.057   0.604
46801SOL     OW40428   9.225   9.652   1.642
46801SOL    HW140429   9.208   9.683   1.548
46801SOL    HW240430   9.141   9.615   1.680
46802SOL     OW40431   9.178  10.244   1.517
46802SOL    HW140432   9.216  10.335   1.532
46802SOL    HW240433   9.170  10.227   1.418
46803SOL     OW40434   8.307  10.684   0.016
46803SOL    HW140435   8.261  10.699   0.104
46803SOL    HW240436   8.351  10.769  -0.014
46804SOL     OW40437   8.109  11.100   0.953
46804SOL    HW140438   8.063  11.188   0.940
46804SOL    HW240439   8.208  11.112   0.946
46805SOL     OW40440   8.307  10.266   0.861
46805SOL    HW140441   8.361  10.197   0.909
46805SOL    HW240442   8.275  10.335   0.927
46806SOL     OW40443   8.531  10.294   0.087
46806SOL    HW140444   8.508  10.347   0.005
46806SOL    HW240445   8.612  10.238   0.068
46807SOL     OW40446   9.309  10.879   0.851
46807SOL    HW140447   9.238  10.867   0.781
46807SOL    HW240448   9.310  10.800   0.911
46808SOL     OW40449   7.669  10.624   1.844
46808SOL    HW140450   7.604  10.551   1.823
46808SOL    HW240451   7.673  10.638   1.942
46809SOL     OW40452   7.527  10.550   0.653
46809SOL    HW140453   7.526  10.503   0.741
46809SOL    HW240454   7.609  10.522   0.602
46810SOL     OW40455   8.120  10.701   1.624
46810SOL    HW140456   8.042  10.651   1.662
46810SOL    HW240457   8.117  10.796   1.655
46811SOL     OW40458   9.272   9.502   1.227
46811SOL    HW140459   9.268   9.412   1.271
46811SOL    HW240460   9.275   9.491   1.128
46812SOL     OW40461   7.876   9.734   0.520
46812SOL    HW140462   7.906   9.662   0.458
46812SOL    HW240463   7.837   9.694   0.603
46813SOL     OW40464   9.153  10.797   1.104
46813SOL    HW140465   9.060  10.772   1.077
46813SOL    HW240466   9.179  10.747   1.186
46814SOL     OW40467   7.765   9.857   1.280
46814SOL    HW140468   7.803   9.798   1.352
46814SOL    HW240469   7.805   9.831   1.192
46815SOL     OW40470   8.260  10.896   0.687
46815SOL    HW140471   8.292  10.906   0.593
46815SOL    HW240472   8.181  10.834   0.689
46816SOL     OW40473   8.872   9.524   1.112
46816SOL    HW140474   8.924   9.459   1.167
46816SOL    HW240475   8.823   9.587   1.173
46817SOL     OW40476   8.449   9.344   1.154
46817SOL    HW140477   8.386   9.272   1.123
46817SOL    HW240478   8.542   9.308   1.154
46818SOL     OW40479   8.218  10.640   0.301
46818SOL    HW140480   8.172  10.553   0.318
46818SOL    HW240481   8.309  10.637   0.342
46819SOL     OW40482   8.066  10.877   1.284
46819SOL    HW140483   8.061  10.959   1.341
46819SOL    HW240484   8.155  10.874   1.239
46820SOL     OW40485   8.800   9.362   0.168
46820SOL    HW140486   8.835   9.321   0.084
46820SOL    HW240487   8.710   9.324   0.188
46821SOL     OW40488   8.748   9.763   0.691
46821SOL    HW140489   8.689   9.843   0.695
46821SOL    HW240490   8.763   9.728   0.784
46822SOL     OW40491   9.041   9.531   0.882
46822SOL    HW140492   8.957   9.530   0.936
46822SOL    HW240493   9.043   9.614   0.826
46823SOL     OW40494   7.487  10.387   0.300
46823SOL    HW140495   7.586  10.376   0.291
46823SOL    HW240496   7.447  10.301   0.332
46824SOL     OW40497   8.323  10.956   0.337
46824SOL    HW140498   8.246  10.921   0.283
46824SOL    HW240499   8.291  11.027   0.399
46825SOL     OW40500   7.678   9.938   1.975
46825SOL    HW140501   7.585   9.936   2.012
46825SOL    HW240502   7.679   9.899   1.883
46826SOL     OW40503   7.673   9.585   2.858
46826SOL    HW140504   7.708   9.568   2.950
46826SOL    HW240505   7.585   9.540   2.846
46827SOL     OW40506   7.467   9.678   2.509
46827SOL    HW140507   7.385   9.721   2.548
46827SOL    HW240508   7.439   9.605   2.446
46828SOL     OW40509   8.017  10.585   3.027
46828SOL    HW140510   7.924  10.578   2.990
46828SOL    HW240511   8.028  10.674   3.071
46829SOL     OW40512   9.003  10.821   2.565
46829SOL    HW140513   8.946  10.805   2.646
46829SOL    HW240514   8.944  10.831   2.485
46830SOL     OW40515   8.583  10.013   2.579
46830SOL    HW140516   8.640  10.091   2.554
46830SOL    HW240517   8.523  10.039   2.655
46831SOL     OW40518   9.203   9.917   2.093
46831SOL    HW140519   9.191   9.904   1.994
46831SOL    HW240520   9.173   9.836   2.142
46832SOL     OW40521   8.216  10.454   2.885
46832SOL    HW140522   8.138  10.471   2.945
46832SOL    HW240523   8.250  10.541   2.849
46833SOL     OW40524   8.298  10.108   3.685
46833SOL    HW140525   8.294  10.184   3.750
46833SOL    HW240526   8.320  10.144   3.594
46834SOL     OW40527   8.133  10.322   2.527
46834SOL    HW140528   8.202  10.306   2.597
46834SOL    HW240529   8.060  10.379   2.565
46835SOL     OW40530   8.134  10.471   3.665
46835SOL    HW140531   8.194  10.550   3.679
46835SOL    HW240532   8.048  10.502   3.624
46836SOL     OW40533   7.783  10.745   2.923
46836SOL    HW140534   7.705  10.714   2.870
46836SOL    HW240535   7.841  10.803   2.866
46837SOL     OW40536   8.908  10.815   3.201
46837SOL    HW140537   8.932  10.909   3.227
46837SOL    HW240538   8.892  10.761   3.283
46838SOL     OW40539   7.886   9.702   3.361
46838SOL    HW140540   7.968   9.646   3.370
46838SOL    HW240541   7.805   9.644   3.365
46839SOL     OW40542   9.051   9.757   2.599
46839SOL    HW140543   8.977   9.803   2.549
46839SOL    HW240544   9.102   9.825   2.652
46840SOL     OW40545   7.679  11.023   2.345
46840SOL    HW140546   7.713  11.100   2.399
46840SOL    HW240547   7.723  11.023   2.255
46841SOL     OW40548   8.575  10.651   3.552
46841SOL    HW140549   8.622  10.651   3.640
46841SOL    HW240550   8.527  10.564   3.541
46842SOL     OW40551   7.678  10.744   2.400
46842SOL    HW140552   7.652  10.840   2.400
46842SOL    HW240553   7.607  10.690   2.445
46843SOL     OW40554   7.688  10.401   2.748
46843SOL    HW140555   7.702  10.317   2.800
46843SOL    HW240556   7.633  10.465   2.803
46844SOL     OW40557   8.068  11.096   3.301
46844SOL    HW140558   7.976  11.079   3.336
46844SOL    HW240559   8.096  11.188   3.327
46845SOL     OW40560   8.054  10.274   1.985
46845SOL    HW140561   8.061  10.358   1.931
46845SOL    HW240562   8.100  10.287   2.073
46846SOL     OW40563   9.042   9.424   3.342
46846SOL    HW140564   9.024   9.491   3.270
46846SOL    HW240565   9.039   9.470   3.431
46847SOL     OW40566   7.570   9.953   2.425
46847SOL    HW140567   7.525   9.865   2.442
46847SOL    HW240568   7.569  10.007   2.509
46848SOL     OW40569   9.290  11.077   2.221
46848SOL    HW140570   9.344  11.048   2.301
46848SOL    HW240571   9.320  11.167   2.192
46849SOL     OW40572   7.475  10.906   1.979
46849SOL    HW140573   7.456  10.810   2.000
46849SOL    HW240574   7.442  10.964   2.054
46850SOL     OW40575   9.137  10.232   2.474
46850SOL    HW140576   9.232  10.203   2.482
46850SOL    HW240577   9.129  10.297   2.399
46851SOL     OW40578   9.089  10.418   2.294
46851SOL    HW140579   9.175  10.420   2.242
46851SOL    HW240580   9.103  10.465   2.382
46852SOL     OW40581   7.561  10.047   3.459
46852SOL    HW140582   7.649  10.034   3.504
46852SOL    HW240583   7.548  10.144   3.437
46853SOL     OW40584   8.061  10.675   2.588
46853SOL    HW140585   8.012  10.588   2.597
46853SOL    HW240586   8.038  10.718   2.501
46854SOL     OW40587   8.741  10.538   3.285
46854SOL    HW140588   8.778  10.465   3.227
46854SOL    HW240589   8.793  10.543   3.370
46855SOL     OW40590   8.257   9.314   2.364
46855SOL    HW140591   8.297   9.405   2.355
46855SOL    HW240592   8.157   9.322   2.370
46856SOL     OW40593   7.645  10.286   3.126
46856SOL    HW140594   7.734  10.241   3.112
46856SOL    HW240595   7.572  10.221   3.107
46857SOL     OW40596   8.973  10.309   2.052
46857SOL    HW140597   8.910  10.233   2.065
46857SOL    HW240598   9.021  10.327   2.138
46858SOL     OW40599   8.635  11.102   3.478
46858SOL    HW140600   8.659  11.162   3.402
46858SOL    HW240601   8.642  11.007   3.448
46859SOL     OW40602   7.765   9.561   3.663
46859SOL    HW140603   7.836   9.632   3.669
46859SOL    HW240604   7.677   9.600   3.691
46860SOL     OW40605   8.914  10.727   2.815
46860SOL    HW140606   8.855  10.733   2.895
46860SOL    HW240607   8.899  10.639   2.769
46861SOL     OW40608   9.115  11.024   2.434
46861SOL    HW140609   9.074  11.001   2.346
46861SOL    HW240610   9.097  10.950   2.499
46862SOL     OW40611   8.046  10.039   2.132
46862SOL    HW140612   8.070  10.108   2.064
46862SOL    HW240613   7.968  10.072   2.186
46863SOL     OW40614   8.729   9.655   2.806
46863SOL    HW140615   8.643   9.605   2.793
46863SOL    HW240616   8.791   9.601   2.862
46864SOL     OW40617   9.024  10.972   2.169
46864SOL    HW140618   9.113  11.018   2.172
46864SOL    HW240619   9.003  10.948   2.074
46865SOL     OW40620   8.255   9.915   3.327
46865SOL    HW140621   8.208   9.912   3.416
46865SOL    HW240622   8.204   9.860   3.261
46866SOL     OW40623   8.842   9.779   3.536
46866SOL    HW140624   8.822   9.822   3.624
46866SOL    HW240625   8.920   9.717   3.545
46867SOL     OW40626   8.421  10.200   3.434
46867SOL    HW140627   8.467  10.116   3.405
46867SOL    HW240628   8.365  10.234   3.359
46868SOL     OW40629   8.439   9.720   3.104
46868SOL    HW140630   8.362   9.754   3.158
46868SOL    HW240631   8.405   9.669   3.025
46869SOL     OW40632   8.489  10.011   2.291
46869SOL    HW140633   8.515  10.007   2.387
46869SOL    HW240634   8.404   9.960   2.277
46870SOL     OW40635   7.524  10.121   2.651
46870SOL    HW140636   7.623  10.109   2.660
46870SOL    HW240637   7.500  10.216   2.672
46871SOL     OW40638   7.578  11.131   3.433
46871SOL    HW140639   7.568  11.116   3.532
46871SOL    HW240640   7.492  11.167   3.397
46872SOL     OW40641   8.313   9.658   2.057
46872SOL    HW140642   8.372   9.721   2.008
46872SOL    HW240643   8.332   9.564   2.028
46873SOL     OW40644   9.167   9.895   3.693
46873SOL    HW140645   9.141   9.984   3.657
46873SOL    HW240646   9.165   9.827   3.620
46874SOL     OW40647   8.810  10.454   2.407
46874SOL    HW140648   8.893  10.425   2.359
46874SOL    HW240649   8.761  10.521   2.351
46875SOL     OW40650   7.998   9.506   2.747
46875SOL    HW140651   7.993   9.501   2.847
46875SOL    HW240652   8.000   9.602   2.718
46876SOL     OW40653   8.456  10.766   2.339
46876SOL    HW140654   8.410  10.838   2.287
46876SOL    HW240655   8.452  10.786   2.437
46877SOL     OW40656   7.799  11.111   2.715
46877SOL    HW140657   7.849  11.025   2.721
46877SOL    HW240658   7.864  11.188   2.712
46878SOL     OW40659   9.243  10.376   2.735
46878SOL    HW140660   9.181  10.361   2.659
46878SOL    HW240661   9.191  10.387   2.820
46879SOL     OW40662   8.675  10.860   3.368
46879SOL    HW140663   8.681  10.783   3.432
46879SOL    HW240664   8.623  10.834   3.288
46880SOL     OW40665   7.769  10.253   2.104
46880SOL    HW140666   7.851  10.292   2.062
46880SOL    HW240667   7.742  10.171   2.055
46881SOL     OW40668   8.906  10.045   2.590
46881SOL    HW140669   8.901   9.980   2.665
46881SOL    HW240670   8.986  10.104   2.603
46882SOL     OW40671   7.909  10.576   3.589
46882SOL    HW140672   7.859  10.577   3.503
46882SOL    HW240673   7.846  10.558   3.665
46883SOL     OW40674   8.559  11.086   2.099
46883SOL    HW140675   8.499  11.024   2.149
46883SOL    HW240676   8.590  11.042   2.014
46884SOL     OW40677   7.650   9.595   3.360
46884SOL    HW140678   7.570   9.655   3.347
46884SOL    HW240679   7.640   9.546   3.446
46885SOL     OW40680   9.080  10.687   1.943
46885SOL    HW140681   9.048  10.781   1.933
46885SOL    HW240682   9.004  10.624   1.931
46886SOL     OW40683   7.912  11.053   2.185
46886SOL    HW140684   7.945  11.092   2.271
46886SOL    HW240685   7.988  11.046   2.120
46887SOL     OW40686   8.848   9.417   2.288
46887SOL    HW140687   8.824   9.380   2.198
46887SOL    HW240688   8.947   9.433   2.292
46888SOL     OW40689   7.697  11.095   3.103
46888SOL    HW140690   7.754  11.030   3.153
46888SOL    HW240691   7.681  11.062   3.010
46889SOL     OW40692   8.388  11.008   2.766
46889SOL    HW140693   8.468  10.951   2.787
46889SOL    HW240694   8.339  10.968   2.689
46890SOL     OW40695   7.830  10.010   2.342
46890SOL    HW140696   7.875   9.920   2.339
46890SOL    HW240697   7.736   9.999   2.375
46891SOL     OW40698   8.995   9.532   3.591
46891SOL    HW140699   8.990   9.569   3.683
46891SOL    HW240700   8.923   9.463   3.579
46892SOL     OW40701   8.062   9.432   1.979
46892SOL    HW140702   8.160   9.410   1.986
46892SOL    HW240703   8.031   9.415   1.886
46893SOL     OW40704   8.229   9.574   3.611
46893SOL    HW140705   8.296   9.513   3.654
46893SOL    HW240706   8.156   9.593   3.676
46894SOL     OW40707   8.336  10.824   3.057
46894SOL    HW140708   8.313  10.799   2.963
46894SOL    HW240709   8.397  10.755   3.096
46895SOL     OW40710   8.799   9.900   3.295
46895SOL    HW140711   8.827   9.857   3.380
46895SOL    HW240712   8.824   9.996   3.296
46896SOL     OW40713   8.251  10.712   2.786
46896SOL    HW140714   8.341  10.726   2.744
46896SOL    HW240715   8.180  10.714   2.715
46897SOL     OW40716   8.370   9.813   2.761
46897SOL    HW140717   8.345   9.804   2.665
46897SOL    HW240718   8.418   9.731   2.792
46898SOL     OW40719   7.987   9.374   2.374
46898SOL    HW140720   7.906   9.375   2.432
46898SOL    HW240721   7.990   9.457   2.319
46899SOL     OW40722   8.882  10.498   1.903
46899SOL    HW140723   8.914  10.422   1.960
46899SOL    HW240724   8.790  10.525   1.933
46900SOL     OW40725   7.745   9.345   2.033
46900SOL    HW140726   7.794   9.429   2.012
46900SOL    HW240727   7.807   9.280   2.078
46901SOL     OW40728   8.383   9.546   2.342
46901SOL    HW140729   8.335   9.587   2.264
46901SOL    HW240730   8.482   9.544   2.323
46902SOL     OW40731   8.524   9.993   3.326
46902SOL    HW140732   8.444   9.932   3.329
46902SOL    HW240733   8.605   9.940   3.302
46903SOL     OW40734   8.675  10.880   2.655
46903SOL    HW140735   8.696  10.954   2.590
46903SOL    HW240736   8.743  10.880   2.728
46904SOL     OW40737   7.907  10.462   2.603
46904SOL    HW140738   7.836  10.435   2.668
46904SOL    HW240739   7.881  10.434   2.510
46905SOL     OW40740   8.719  11.107   2.453
46905SOL    HW140741   8.763  11.171   2.389
46905SOL    HW240742   8.669  11.159   2.523
46906SOL     OW40743   8.480   9.859   1.878
46906SOL    HW140744   8.439   9.941   1.839
46906SOL    HW240745   8.544   9.885   1.951
46907SOL     OW40746   7.526   9.866   3.248
46907SOL    HW140747   7.618   9.865   3.207
46907SOL    HW240748   7.520   9.940   3.315
46908SOL     OW40749   8.009   9.532   3.009
46908SOL    HW140750   8.047   9.448   3.046
46908SOL    HW240751   7.921   9.551   3.053
46909SOL     OW40752   8.314   9.764   2.504
46909SOL    HW140753   8.282   9.836   2.442
46909SOL    HW240754   8.338   9.683   2.451
46910SOL     OW40755   8.465   9.349   2.615
46910SOL    HW140756   8.393   9.354   2.546
46910SOL    HW240757   8.441   9.280   2.684
46911SOL     OW40758   8.877  10.483   2.729
46911SOL    HW140759   8.822  10.399   2.722
46911SOL    HW240760   8.903  10.512   2.637
46912SOL     OW40761   8.914   9.900   2.854
46912SOL    HW140762   8.884   9.805   2.861
46912SOL    HW240763   8.987   9.916   2.920
46913SOL     OW40764   9.305  10.143   2.239
46913SOL    HW140765   9.347  10.079   2.303
46913SOL    HW240766   9.267  10.092   2.161
46914SOL     OW40767   7.936  10.695   2.036
46914SOL    HW140768   7.849  10.680   2.083
46914SOL    HW240769   7.919  10.721   1.941
46915SOL     OW40770   9.112  10.590   2.519
46915SOL    HW140771   9.211  10.598   2.533
46915SOL    HW240772   9.067  10.674   2.550
46916SOL     OW40773   8.838   9.885   1.940
46916SOL    HW140774   8.784   9.864   2.021
46916SOL    HW240775   8.929   9.844   1.949
46917SOL     OW40776   7.975   9.566   2.190
46917SOL    HW140777   8.002   9.507   2.115
46917SOL    HW240778   7.975   9.661   2.159
46918SOL     OW40779   9.202  10.533   3.450
46918SOL    HW140780   9.293  10.494   3.437
46918SOL    HW240781   9.210  10.629   3.474
46919SOL     OW40782   8.512  10.657   3.202
46919SOL    HW140783   8.432  10.634   3.257
46919SOL    HW240784   8.595  10.631   3.251
46920SOL     OW40785   9.040  10.939   3.487
46920SOL    HW140786   9.067  10.973   3.397
46920SOL    HW240787   9.119  10.901   3.533
46921SOL     OW40788   8.559  10.505   2.962
46921SOL    HW140789   8.519  10.549   3.043
46921SOL    HW240790   8.518  10.542   2.879
46922SOL     OW40791   9.086  10.409   2.941
46922SOL    HW140792   9.091  10.490   3.000
46922SOL    HW240793   9.000  10.411   2.890
46923SOL     OW40794   8.363   9.399   3.264
46923SOL    HW140795   8.388   9.379   3.169
46923SOL    HW240796   8.435   9.455   3.306
46924SOL     OW40797   8.428  10.426   3.581
46924SOL    HW140798   8.329  10.432   3.591
46924SOL    HW240799   8.451  10.346   3.525
46925SOL     OW40800   8.153  10.360   2.230
46925SOL    HW140801   8.139  10.367   2.329
46925SOL    HW240802   8.237  10.309   2.212
46926SOL     OW40803   7.858  10.123   3.113
46926SOL    HW140804   7.944  10.135   3.163
46926SOL    HW240805   7.816  10.036   3.140
46927SOL     OW40806   8.722   9.696   3.124
46927SOL    HW140807   8.743   9.770   3.188
46927SOL    HW240808   8.633   9.713   3.081
46928SOL     OW40809   7.512  10.874   3.193
46928SOL    HW140810   7.466  10.956   3.159
46928SOL    HW240811   7.610  10.893   3.202
46929SOL     OW40812   7.815  10.410   2.363
46929SOL    HW140813   7.808  10.493   2.307
46929SOL    HW240814   7.819  10.330   2.303
46930SOL     OW40815   8.014   9.847   2.727
46930SOL    HW140816   8.026   9.913   2.653
46930SOL    HW240817   8.060   9.881   2.810
46931SOL     OW40818   8.700  10.658   2.250
46931SOL    HW140819   8.750  10.735   2.290
46931SOL    HW240820   8.605  10.660   2.282
46932SOL     OW40821   8.720  10.755   3.004
46932SOL    HW140822   8.767  10.768   3.091
46932SOL    HW240823   8.654  10.681   3.013
46933SOL     OW40824   9.030   9.949   2.334
46933SOL    HW140825   8.999  10.010   2.407
46933SOL    HW240826   9.080  10.001   2.265
46934SOL     OW40827   7.802  10.820   3.191
46934SOL    HW140828   7.781  10.776   3.104
46934SOL    HW240829   7.899  10.846   3.194
46935SOL     OW40830   7.850  10.061   3.460
46935SOL    HW140831   7.918  10.116   3.413
46935SOL    HW240832   7.890   9.973   3.487
46936SOL     OW40833   9.035  10.089   3.532
46936SOL    HW140834   8.943  10.127   3.527
46936SOL    HW240835   9.095  10.136   3.467
46937SOL     OW40836   8.461   9.415   3.632
46937SOL    HW140837   8.467   9.500   3.580
46937SOL    HW240838   8.493   9.339   3.575
46938SOL     OW40839   7.952   9.360   3.602
46938SOL    HW140840   7.910   9.303   3.532
46938SOL    HW240841   7.886   9.429   3.634
46939SOL     OW40842   8.021  10.180   2.891
46939SOL    HW140843   8.065  10.269   2.882
46939SOL    HW240844   7.958  10.180   2.968
46940SOL     OW40845   8.808  10.172   2.907
46940SOL    HW140846   8.733  10.172   2.841
46940SOL    HW240847   8.845  10.080   2.916
46941SOL     OW40848   8.657   9.835   2.137
46941SOL    HW140849   8.670   9.751   2.191
46941SOL    HW240850   8.628   9.909   2.197
46942SOL     OW40851   7.755   9.523   3.093
46942SOL    HW140852   7.732   9.560   3.183
46942SOL    HW240853   7.725   9.428   3.087
46943SOL     OW40854   7.485  10.620   3.144
46943SOL    HW140855   7.538  10.571   3.212
46943SOL    HW240856   7.507  10.718   3.149
46944SOL     OW40857   8.180   9.944   2.926
46944SOL    HW140858   8.239   9.918   2.850
46944SOL    HW240859   8.152  10.040   2.915
46945SOL     OW40860   9.176  10.245   3.716
46945SOL    HW140861   9.130  10.238   3.627
46945SOL    HW240862   9.114  10.289   3.782
46946SOL     OW40863   7.755   9.373   2.480
46946SOL    HW140864   7.744   9.467   2.513
46946SOL    HW240865   7.750   9.310   2.557
46947SOL     OW40866   9.070   9.677   2.236
46947SOL    HW140867   9.072   9.601   2.300
46947SOL    HW240868   9.022   9.754   2.276
46948SOL     OW40869   8.471  10.076   2.828
46948SOL    HW140870   8.486  10.097   2.924
46948SOL    HW240871   8.441   9.981   2.819
46949SOL     OW40872   8.428  10.883   3.562
46949SOL    HW140873   8.408  10.927   3.474
46949SOL    HW240874   8.467  10.792   3.546
46950SOL     OW40875   9.307  10.828   3.467
46950SOL    HW140876   9.321  10.855   3.372
46950SOL    HW240877   9.390  10.850   3.520
46951SOL     OW40878   7.798  10.208   3.666
46951SOL    HW140879   7.874  10.252   3.714
46951SOL    HW240880   7.833  10.161   3.584
46952SOL     OW40881   8.988   9.584   1.987
46952SOL    HW140882   8.927   9.509   2.010
46952SOL    HW240883   9.010   9.636   2.070
46953SOL     OW40884   8.751  10.148   1.904
46953SOL    HW140885   8.785  10.055   1.919
46953SOL    HW240886   8.769  10.175   1.809
46954SOL     OW40887   8.516  10.643   2.711
46954SOL    HW140888   8.523  10.559   2.656
46954SOL    HW240889   8.578  10.712   2.675
46955SOL     OW40890   7.767  10.120   2.811
46955SOL    HW140891   7.860  10.156   2.816
46955SOL    HW240892   7.761  10.035   2.863
46956SOL     OW40893   7.787   9.819   2.868
46956SOL    HW140894   7.735   9.736   2.851
46956SOL    HW240895   7.864   9.824   2.804
46957SOL     OW40896   8.586   9.690   3.540
46957SOL    HW140897   8.541   9.753   3.604
46957SOL    HW240898   8.679   9.721   3.523
46958SOL     OW40899   8.608   9.517   3.339
46958SOL    HW140900   8.608   9.581   3.416
46958SOL    HW240901   8.636   9.565   3.256
46959SOL     OW40902   7.456  10.636   2.062
46959SOL    HW140903   7.363  10.657   2.031
46959SOL    HW240904   7.466  10.537   2.075
46960SOL     OW40905   7.536  11.111   2.789
46960SOL    HW140906   7.494  11.025   2.762
46960SOL    HW240907   7.630  11.114   2.755
46961SOL     OW40908   8.450  10.106   3.100
46961SOL    HW140909   8.491  10.074   3.186
46961SOL    HW240910   8.354  10.079   3.097
46962SOL     OW40911   7.488   9.854   2.976
46962SOL    HW140912   7.573   9.821   2.935
46962SOL    HW240913   7.501   9.869   3.074
46963SOL     OW40914   7.637   9.830   3.584
46963SOL    HW140915   7.696   9.790   3.514
46963SOL    HW240916   7.579   9.901   3.543
46964SOL     OW40917   8.817  10.260   3.522
46964SOL    HW140918   8.856  10.349   3.542
46964SOL    HW240919   8.827  10.240   3.425
46965SOL     OW40920   8.263   9.882   2.187
46965SOL    HW140921   8.270   9.793   2.141
46965SOL    HW240922   8.169   9.916   2.179
46966SOL     OW40923   9.105   9.914   3.068
46966SOL    HW140924   9.067   9.845   3.130
46966SOL    HW240925   9.187   9.878   3.024
46967SOL     OW40926   7.700  10.874   3.606
46967SOL    HW140927   7.670  10.931   3.682
46967SOL    HW240928   7.693  10.777   3.632
46968SOL     OW40929   8.119   9.774   3.131
46968SOL    HW140930   8.085   9.685   3.101
46968SOL    HW240931   8.145   9.828   3.051
46969SOL     OW40932   8.378  10.988   3.327
46969SOL    HW140933   8.354  10.970   3.232
46969SOL    HW240934   8.408  11.082   3.337
46970SOL     OW40935   7.921   9.810   2.053
46970SOL    HW140936   7.982   9.890   2.057
46970SOL    HW240937   7.826   9.841   2.060
46971SOL     OW40938   7.607  10.447   3.328
46971SOL    HW140939   7.629  10.386   3.404
46971SOL    HW240940   7.617  10.398   3.242
46972SOL     OW40941   8.795  10.369   3.096
46972SOL    HW140942   8.819  10.306   3.022
46972SOL    HW240943   8.705  10.409   3.078
46973SOL     OW40944   8.750  10.165   2.171
46973SOL    HW140945   8.664  10.134   2.213
46973SOL    HW240946   8.746  10.151   2.072
46974SOL     OW40947   9.207  11.057   3.016
46974SOL    HW140948   9.268  11.087   2.943
46974SOL    HW240949   9.169  10.968   2.994
46975SOL     OW40950   8.700  11.041   2.990
46975SOL    HW140951   8.784  11.046   2.936
46975SOL    HW240952   8.677  10.945   3.008
46976SOL     OW40953   7.531  10.568   2.884
46976SOL    HW140954   7.526  10.567   2.984
46976SOL    HW240955   7.448  10.527   2.846
46977SOL     OW40956   8.136  10.972   3.578
46977SOL    HW140957   8.080  11.053   3.587
46977SOL    HW240958   8.188  10.976   3.492
46978SOL     OW40959   9.174   9.445   2.385
46978SOL    HW140960   9.247   9.428   2.318
46978SOL    HW240961   9.143   9.358   2.423
46979SOL     OW40962   8.836  10.883   2.339
46979SOL    HW140963   8.903  10.895   2.265
46979SOL    HW240964   8.796  10.972   2.362
46980SOL     OW40965   7.578  11.104   3.713
46980SOL    HW140966   7.537  11.030   3.766
46980SOL    HW240967   7.642  11.155   3.771
46981SOL     OW40968   8.728  10.237   2.534
46981SOL    HW140969   8.788  10.156   2.536
46981SOL    HW240970   8.768  10.306   2.474
46982SOL     OW40971   8.278  10.583   3.284
46982SOL    HW140972   8.273  10.616   3.379
46982SOL    HW240973   8.192  10.602   3.238
46983SOL     OW40974   8.120  10.926   2.016
46983SOL    HW140975   8.129  10.936   1.917
46983SOL    HW240976   8.080  10.837   2.037
46984SOL     OW40977   9.098  11.030   3.256
46984SOL    HW140978   9.151  11.040   3.172
46984SOL    HW240979   9.071  11.120   3.290
46985SOL     OW40980   9.289   9.485   2.825
46985SOL    HW140981   9.328   9.400   2.789
46985SOL    HW240982   9.191   9.487   2.806
46986SOL     OW40983   7.711   9.636   2.582
46986SOL    HW140984   7.632   9.687   2.548
46986SOL    HW240985   7.702   9.621   2.680
46987SOL     OW40986   8.642  10.922   1.893
46987SOL    HW140987   8.648  10.829   1.930
46987SOL    HW240988   8.583  10.922   1.813
46988SOL     OW40989   8.270  10.312   3.234
46988SOL    HW140990   8.310  10.311   3.142
46988SOL    HW240991   8.280  10.404   3.274
46989SOL     OW40992   8.364  10.220   2.153
46989SOL    HW140993   8.427  10.258   2.085
46989SOL    HW240994   8.404  10.137   2.192
46990SOL     OW40995   8.952  10.917   1.906
46990SOL    HW140996   8.860  10.954   1.913
46990SOL    HW240997   8.990  10.937   1.816
46991SOL     OW40998   7.820  10.598   3.352
46991SOL    HW140999   7.807  10.691   3.318
46991SOL    HW241000   7.736  10.546   3.339
46992SOL     OW41001   9.062  10.602   3.151
46992SOL    HW141002   9.122  10.605   3.231
46992SOL    HW241003   8.987  10.666   3.164
46993SOL     OW41004   8.487  10.408   2.558
46993SOL    HW141005   8.417  10.361   2.612
46993SOL    HW241006   8.546  10.340   2.515
46994SOL     OW41007   8.462   9.546   2.833
46994SOL    HW141008   8.454   9.510   2.740
46994SOL    HW241009   8.460   9.470   2.898
46995SOL     OW41010   8.038  10.797   2.353
46995SOL    HW141011   8.080  10.739   2.283
46995SOL    HW241012   7.994  10.876   2.309
46996SOL     OW41013   9.157   9.695   3.243
46996SOL    HW141014   9.230   9.764   3.247
46996SOL    HW241015   9.185   9.620   3.184
46997SOL     OW41016   7.703  10.658   2.152
46997SOL    HW141017   7.607  10.659   2.125
46997SOL    HW241018   7.715  10.711   2.236
46998SOL     OW41019   7.553  10.323   3.588
46998SOL    HW141020   7.476  10.290   3.642
46998SOL    HW241021   7.638  10.293   3.630
46999SOL     OW41022   8.120   9.513   3.351
46999SOL    HW141023   8.210   9.497   3.311
46999SOL    HW241024   8.128   9.518   3.450
47000SOL     OW41025   7.523   9.655   1.895
47000SOL    HW141026   7.431   9.627   1.866
47000SOL    HW241027   7.554   9.732   1.839
47001SOL     OW41028   8.888  10.166   3.260
47001SOL    HW141029   8.831  10.218   3.197
47001SOL    HW241030   8.984  10.178   3.236
47002SOL     OW41031   7.520   9.476   2.180
47002SOL    HW141032   7.503   9.559   2.126
47002SOL    HW241033   7.610   9.439   2.158
47003SOL     OW41034   8.631  10.645   1.981
47003SOL    HW141035   8.532  10.634   1.983
47003SOL    HW241036   8.665  10.660   2.074
47004SOL     OW41037   8.061  10.152   3.293
47004SOL    HW141038   8.117  10.233   3.276
47004SOL    HW241039   8.120  10.072   3.296
47005SOL     OW41040   8.941  11.077   2.821
47005SOL    HW141041   8.974  11.141   2.752
47005SOL    HW241042   9.007  11.071   2.896
47006SOL     OW41043   8.164   9.875   3.570
47006SOL    HW141044   8.183   9.940   3.644
47006SOL    HW241045   8.224   9.795   3.579
47007SOL     OW41046   8.898  10.530   3.495
47007SOL    HW141047   8.889  10.520   3.594
47007SOL    HW241048   8.994  10.523   3.469
47008SOL     OW41049   7.838  11.051   3.422
47008SOL    HW141050   7.747  11.092   3.420
47008SOL    HW241051   7.831  10.957   3.454
47009SOL     OW41052   9.122  10.193   3.116
47009SOL    HW141053   9.095  10.104   3.079
47009SOL    HW241054   9.123  10.261   3.043
47010SOL     OW41055   8.673   9.635   2.311
47010SOL    HW141056   8.738   9.561   2.300
47010SOL    HW241057   8.693   9.685   2.395
47011SOL     OW41058   8.042  10.055   2.514
47011SOL    HW141059   8.092  10.140   2.495
47011SOL    HW241060   7.954  10.057   2.466
47012SOL     OW41061   9.225   9.652   3.504
47012SOL    HW141062   9.208   9.683   3.410
47012SOL    HW241063   9.141   9.615   3.542
47013SOL     OW41064   9.178  10.244   3.379
47013SOL    HW141065   9.216  10.335   3.394
47013SOL    HW241066   9.170  10.227   3.280
47014SOL     OW41067   8.307  10.684   1.878
47014SOL    HW141068   8.261  10.699   1.966
47014SOL    HW241069   8.351  10.769   1.848
47015SOL     OW41070   8.109  11.100   2.815
47015SOL    HW141071   8.063  11.188   2.802
47015SOL    HW241072   8.208  11.112   2.808
47016SOL     OW41073   8.307  10.266   2.723
47016SOL    HW141074   8.361  10.197   2.771
47016SOL    HW241075   8.275  10.335   2.789
47017SOL     OW41076   8.531  10.294   1.949
47017SOL    HW141077   8.508  10.347   1.867
47017SOL    HW241078   8.612  10.238   1.930
47018SOL     OW41079   9.309  10.879   2.713
47018SOL    HW141080   9.238  10.867   2.643
47018SOL    HW241081   9.310  10.800   2.773
47019SOL     OW41082   7.669  10.624   3.706
47019SOL    HW141083   7.604  10.551   3.685
47019SOL    HW241084   7.673  10.638   3.804
47020SOL     OW41085   7.527  10.550   2.515
47020SOL    HW141086   7.526  10.503   2.603
47020SOL    HW241087   7.609  10.522   2.464
47021SOL     OW41088   8.120  10.701   3.486
47021SOL    HW141089   8.042  10.651   3.524
47021SOL    HW241090   8.117  10.796   3.517
47022SOL     OW41091   9.272   9.502   3.089
47022SOL    HW141092   9.268   9.412   3.133
47022SOL    HW241093   9.275   9.491   2.990
47023SOL     OW41094   7.876   9.734   2.382
47023SOL    HW141095   7.906   9.662   2.320
47023SOL    HW241096   7.837   9.694   2.465
47024SOL     OW41097   9.153  10.797   2.966
47024SOL    HW141098   9.060  10.772   2.939
47024SOL    HW241099   9.179  10.747   3.048
47025SOL     OW41100   7.765   9.857   3.142
47025SOL    HW141101   7.803   9.798   3.214
47025SOL    HW241102   7.805   9.831   3.054
47026SOL     OW41103   8.260  10.896   2.549
47026SOL    HW141104   8.292  10.906   2.455
47026SOL    HW241105   8.181  10.834   2.551
47027SOL     OW41106   8.872   9.524   2.974
47027SOL    HW141107   8.924   9.459   3.029
47027SOL    HW241108   8.823   9.587   3.035
47028SOL     OW41109   8.449   9.344   3.016
47028SOL    HW141110   8.386   9.272   2.985
47028SOL    HW241111   8.542   9.308   3.016
47029SOL     OW41112   8.218  10.640   2.163
47029SOL    HW141113   8.172  10.553   2.180
47029SOL    HW241114   8.309  10.637   2.204
47030SOL     OW41115   8.066  10.877   3.146
47030SOL    HW141116   8.061  10.959   3.203
47030SOL    HW241117   8.155  10.874   3.101
47031SOL     OW41118   8.800   9.362   2.030
47031SOL    HW141119   8.835   9.321   1.946
47031SOL    HW241120   8.710   9.324   2.050
47032SOL     OW41121   8.748   9.763   2.553
47032SOL    HW141122   8.689   9.843   2.557
47032SOL    HW241123   8.763   9.728   2.646
47033SOL     OW41124   9.041   9.531   2.744
47033SOL    HW141125   8.957   9.530   2.798
47033SOL    HW241126   9.043   9.614   2.688
47034SOL     OW41127   7.487  10.387   2.162
47034SOL    HW141128   7.586  10.376   2.153
47034SOL    HW241129   7.447  10.301   2.194
47035SOL     OW41130   8.323  10.956   2.199
47035SOL    HW141131   8.246  10.921   2.145
47035SOL    HW241132   8.291  11.027   2.261
47036SOL     OW41133   7.678   9.938   3.837
47036SOL    HW141134   7.585   9.936   3.874
47036SOL    HW241135   7.679   9.899   3.745
47037SOL     OW41136   7.673   9.585   4.720
47037SOL    HW141137   7.708   9.568   4.812
47037SOL    HW241138   7.585   9.540   4.708
47038SOL     OW41139   7.467   9.678   4.371
47038SOL    HW141140   7.385   9.721   4.410
47038SOL    HW241141   7.439   9.605   4.308
47039SOL     OW41142   8.017  10.585   4.889
47039SOL    HW141143   7.924  10.578   4.852
47039SOL    HW241144   8.028  10.674   4.933
47040SOL     OW41145   9.003  10.821   4.427
47040SOL    HW141146   8.946  10.805   4.508
47040SOL    HW241147   8.944  10.831   4.347
47041SOL     OW41148   8.583  10.013   4.441
47041SOL    HW141149   8.640  10.091   4.416
47041SOL    HW241150   8.523  10.039   4.517
47042SOL     OW41151   9.203   9.917   3.955
47042SOL    HW141152   9.191   9.904   3.856
47042SOL    HW241153   9.173   9.836   4.004
47043SOL     OW41154   8.216  10.454   4.747
47043SOL    HW141155   8.138  10.471   4.807
47043SOL    HW241156   8.250  10.541   4.711
47044SOL     OW41157   8.298  10.108   5.547
47044SOL    HW141158   8.294  10.184   5.612
47044SOL    HW241159   8.320  10.144   5.456
47045SOL     OW41160   8.133  10.322   4.389
47045SOL    HW141161   8.202  10.306   4.459
47045SOL    HW241162   8.060  10.379   4.427
47046SOL     OW41163   8.134  10.471   5.527
47046SOL    HW141164   8.194  10.550   5.541
47046SOL    HW241165   8.048  10.502   5.486
47047SOL     OW41166   7.783  10.745   4.785
47047SOL    HW141167   7.705  10.714   4.732
47047SOL    HW241168   7.841  10.803   4.728
47048SOL     OW41169   8.908  10.815   5.063
47048SOL    HW141170   8.932  10.909   5.089
47048SOL    HW241171   8.892  10.761   5.145
47049SOL     OW41172   7.886   9.702   5.223
47049SOL    HW141173   7.968   9.646   5.232
47049SOL    HW241174   7.805   9.644   5.227
47050SOL     OW41175   9.051   9.757   4.461
47050SOL    HW141176   8.977   9.803   4.411
47050SOL    HW241177   9.102   9.825   4.514
47051SOL     OW41178   7.679  11.023   4.207
47051SOL    HW141179   7.713  11.100   4.261
47051SOL    HW241180   7.723  11.023   4.117
47052SOL     OW41181   8.575  10.651   5.414
47052SOL    HW141182   8.622  10.651   5.502
47052SOL    HW241183   8.527  10.564   5.403
47053SOL     OW41184   7.678  10.744   4.262
47053SOL    HW141185   7.652  10.840   4.262
47053SOL    HW241186   7.607  10.690   4.307
47054SOL     OW41187   7.688  10.401   4.610
47054SOL    HW141188   7.702  10.317   4.662
47054SOL    HW241189   7.633  10.465   4.665
47055SOL     OW41190   8.068  11.096   5.163
47055SOL    HW141191   7.976  11.079   5.198
47055SOL    HW241192   8.096  11.188   5.189
47056SOL     OW41193   8.054  10.274   3.847
47056SOL    HW141194   8.061  10.358   3.793
47056SOL    HW241195   8.100  10.287   3.935
47057SOL     OW41196   9.042   9.424   5.204
47057SOL    HW141197   9.024   9.491   5.132
47057SOL    HW241198   9.039   9.470   5.293
47058SOL     OW41199   7.570   9.953   4.287
47058SOL    HW141200   7.525   9.865   4.304
47058SOL    HW241201   7.569  10.007   4.371
47059SOL     OW41202   9.290  11.077   4.083
47059SOL    HW141203   9.344  11.048   4.163
47059SOL    HW241204   9.320  11.167   4.054
47060SOL     OW41205   7.475  10.906   3.841
47060SOL    HW141206   7.456  10.810   3.862
47060SOL    HW241207   7.442  10.964   3.916
47061SOL     OW41208   9.137  10.232   4.336
47061SOL    HW141209   9.232  10.203   4.344
47061SOL    HW241210   9.129  10.297   4.261
47062SOL     OW41211   9.089  10.418   4.156
47062SOL    HW141212   9.175  10.420   4.104
47062SOL    HW241213   9.103  10.465   4.244
47063SOL     OW41214   7.561  10.047   5.321
47063SOL    HW141215   7.649  10.034   5.366
47063SOL    HW241216   7.548  10.144   5.299
47064SOL     OW41217   8.061  10.675   4.450
47064SOL    HW141218   8.012  10.588   4.459
47064SOL    HW241219   8.038  10.718   4.363
47065SOL     OW41220   8.741  10.538   5.147
47065SOL    HW141221   8.778  10.465   5.089
47065SOL    HW241222   8.793  10.543   5.232
47066SOL     OW41223   8.257   9.314   4.226
47066SOL    HW141224   8.297   9.405   4.217
47066SOL    HW241225   8.157   9.322   4.232
47067SOL     OW41226   7.645  10.286   4.988
47067SOL    HW141227   7.734  10.241   4.974
47067SOL    HW241228   7.572  10.221   4.969
47068SOL     OW41229   8.973  10.309   3.914
47068SOL    HW141230   8.910  10.233   3.927
47068SOL    HW241231   9.021  10.327   4.000
47069SOL     OW41232   8.635  11.102   5.340
47069SOL    HW141233   8.659  11.162   5.264
47069SOL    HW241234   8.642  11.007   5.310
47070SOL     OW41235   7.765   9.561   5.525
47070SOL    HW141236   7.836   9.632   5.531
47070SOL    HW241237   7.677   9.600   5.553
47071SOL     OW41238   8.914  10.727   4.677
47071SOL    HW141239   8.855  10.733   4.757
47071SOL    HW241240   8.899  10.639   4.631
47072SOL     OW41241   9.115  11.024   4.296
47072SOL    HW141242   9.074  11.001   4.208
47072SOL    HW241243   9.097  10.950   4.361
47073SOL     OW41244   8.046  10.039   3.994
47073SOL    HW141245   8.070  10.108   3.926
47073SOL    HW241246   7.968  10.072   4.048
47074SOL     OW41247   8.729   9.655   4.668
47074SOL    HW141248   8.643   9.605   4.655
47074SOL    HW241249   8.791   9.601   4.724
47075SOL     OW41250   9.024  10.972   4.031
47075SOL    HW141251   9.113  11.018   4.034
47075SOL    HW241252   9.003  10.948   3.936
47076SOL     OW41253   8.255   9.915   5.189
47076SOL    HW141254   8.208   9.912   5.278
47076SOL    HW241255   8.204   9.860   5.123
47077SOL     OW41256   8.842   9.779   5.398
47077SOL    HW141257   8.822   9.822   5.486
47077SOL    HW241258   8.920   9.717   5.407
47078SOL     OW41259   8.421  10.200   5.296
47078SOL    HW141260   8.467  10.116   5.267
47078SOL    HW241261   8.365  10.234   5.221
47079SOL     OW41262   8.439   9.720   4.966
47079SOL    HW141263   8.362   9.754   5.020
47079SOL    HW241264   8.405   9.669   4.887
47080SOL     OW41265   8.489  10.011   4.153
47080SOL    HW141266   8.515  10.007   4.249
47080SOL    HW241267   8.404   9.960   4.139
47081SOL     OW41268   7.524  10.121   4.513
47081SOL    HW141269   7.623  10.109   4.522
47081SOL    HW241270   7.500  10.216   4.534
47082SOL     OW41271   7.578  11.131   5.295
47082SOL    HW141272   7.568  11.116   5.394
47082SOL    HW241273   7.492  11.167   5.259
47083SOL     OW41274   8.313   9.658   3.919
47083SOL    HW141275   8.372   9.721   3.870
47083SOL    HW241276   8.332   9.564   3.890
47084SOL     OW41277   9.167   9.895   5.555
47084SOL    HW141278   9.141   9.984   5.519
47084SOL    HW241279   9.165   9.827   5.482
47085SOL     OW41280   8.810  10.454   4.269
47085SOL    HW141281   8.893  10.425   4.221
47085SOL    HW241282   8.761  10.521   4.213
47086SOL     OW41283   7.998   9.506   4.609
47086SOL    HW141284   7.993   9.501   4.709
47086SOL    HW241285   8.000   9.602   4.580
47087SOL     OW41286   8.456  10.766   4.201
47087SOL    HW141287   8.410  10.838   4.149
47087SOL    HW241288   8.452  10.786   4.299
47088SOL     OW41289   7.799  11.111   4.577
47088SOL    HW141290   7.849  11.025   4.583
47088SOL    HW241291   7.864  11.188   4.574
47089SOL     OW41292   9.243  10.376   4.597
47089SOL    HW141293   9.181  10.361   4.521
47089SOL    HW241294   9.191  10.387   4.682
47090SOL     OW41295   8.675  10.860   5.230
47090SOL    HW141296   8.681  10.783   5.294
47090SOL    HW241297   8.623  10.834   5.150
47091SOL     OW41298   7.769  10.253   3.966
47091SOL    HW141299   7.851  10.292   3.924
47091SOL    HW241300   7.742  10.171   3.917
47092SOL     OW41301   8.906  10.045   4.452
47092SOL    HW141302   8.901   9.980   4.527
47092SOL    HW241303   8.986  10.104   4.465
47093SOL     OW41304   7.909  10.576   5.451
47093SOL    HW141305   7.859  10.577   5.365
47093SOL    HW241306   7.846  10.558   5.527
47094SOL     OW41307   8.559  11.086   3.961
47094SOL    HW141308   8.499  11.024   4.011
47094SOL    HW241309   8.590  11.042   3.876
47095SOL     OW41310   7.650   9.595   5.222
47095SOL    HW141311   7.570   9.655   5.209
47095SOL    HW241312   7.640   9.546   5.308
47096SOL     OW41313   9.080  10.687   3.805
47096SOL    HW141314   9.048  10.781   3.795
47096SOL    HW241315   9.004  10.624   3.793
47097SOL     OW41316   7.912  11.053   4.047
47097SOL    HW141317   7.945  11.092   4.133
47097SOL    HW241318   7.988  11.046   3.982
47098SOL     OW41319   8.848   9.417   4.150
47098SOL    HW141320   8.824   9.380   4.060
47098SOL    HW241321   8.947   9.433   4.154
47099SOL     OW41322   7.697  11.095   4.965
47099SOL    HW141323   7.754  11.030   5.015
47099SOL    HW241324   7.681  11.062   4.872
47100SOL     OW41325   8.388  11.008   4.628
47100SOL    HW141326   8.468  10.951   4.649
47100SOL    HW241327   8.339  10.968   4.551
47101SOL     OW41328   7.830  10.010   4.204
47101SOL    HW141329   7.875   9.920   4.201
47101SOL    HW241330   7.736   9.999   4.237
47102SOL     OW41331   8.995   9.532   5.453
47102SOL    HW141332   8.990   9.569   5.545
47102SOL    HW241333   8.923   9.463   5.441
47103SOL     OW41334   8.062   9.432   3.841
47103SOL    HW141335   8.160   9.410   3.848
47103SOL    HW241336   8.031   9.415   3.748
47104SOL     OW41337   8.229   9.574   5.473
47104SOL    HW141338   8.296   9.513   5.516
47104SOL    HW241339   8.156   9.593   5.538
47105SOL     OW41340   8.336  10.824   4.919
47105SOL    HW141341   8.313  10.799   4.825
47105SOL    HW241342   8.397  10.755   4.958
47106SOL     OW41343   8.799   9.900   5.157
47106SOL    HW141344   8.827   9.857   5.242
47106SOL    HW241345   8.824   9.996   5.158
47107SOL     OW41346   8.251  10.712   4.648
47107SOL    HW141347   8.341  10.726   4.606
47107SOL    HW241348   8.180  10.714   4.577
47108SOL     OW41349   8.370   9.813   4.623
47108SOL    HW141350   8.345   9.804   4.527
47108SOL    HW241351   8.418   9.731   4.654
47109SOL     OW41352   7.987   9.374   4.236
47109SOL    HW141353   7.906   9.375   4.294
47109SOL    HW241354   7.990   9.457   4.181
47110SOL     OW41355   8.882  10.498   3.765
47110SOL    HW141356   8.914  10.422   3.822
47110SOL    HW241357   8.790  10.525   3.795
47111SOL     OW41358   7.745   9.345   3.895
47111SOL    HW141359   7.794   9.429   3.874
47111SOL    HW241360   7.807   9.280   3.940
47112SOL     OW41361   8.383   9.546   4.204
47112SOL    HW141362   8.335   9.587   4.126
47112SOL    HW241363   8.482   9.544   4.185
47113SOL     OW41364   8.524   9.993   5.188
47113SOL    HW141365   8.444   9.932   5.191
47113SOL    HW241366   8.605   9.940   5.164
47114SOL     OW41367   8.675  10.880   4.517
47114SOL    HW141368   8.696  10.954   4.452
47114SOL    HW241369   8.743  10.880   4.590
47115SOL     OW41370   7.907  10.462   4.465
47115SOL    HW141371   7.836  10.435   4.530
47115SOL    HW241372   7.881  10.434   4.372
47116SOL     OW41373   8.719  11.107   4.315
47116SOL    HW141374   8.763  11.171   4.251
47116SOL    HW241375   8.669  11.159   4.385
47117SOL     OW41376   8.480   9.859   3.740
47117SOL    HW141377   8.439   9.941   3.701
47117SOL    HW241378   8.544   9.885   3.813
47118SOL     OW41379   8.009   9.532   4.871
47118SOL    HW141380   8.047   9.448   4.908
47118SOL    HW241381   7.921   9.551   4.915
47119SOL     OW41382   8.314   9.764   4.366
47119SOL    HW141383   8.282   9.836   4.304
47119SOL    HW241384   8.338   9.683   4.313
47120SOL     OW41385   8.465   9.349   4.477
47120SOL    HW141386   8.393   9.354   4.408
47120SOL    HW241387   8.441   9.280   4.546
47121SOL     OW41388   8.877  10.483   4.591
47121SOL    HW141389   8.822  10.399   4.584
47121SOL    HW241390   8.903  10.512   4.499
47122SOL     OW41391   8.914   9.900   4.716
47122SOL    HW141392   8.884   9.805   4.723
47122SOL    HW241393   8.987   9.916   4.782
47123SOL     OW41394   9.305  10.143   4.101
47123SOL    HW141395   9.347  10.079   4.165
47123SOL    HW241396   9.267  10.092   4.023
47124SOL     OW41397   7.936  10.695   3.898
47124SOL    HW141398   7.849  10.680   3.945
47124SOL    HW241399   7.919  10.721   3.803
47125SOL     OW41400   9.112  10.590   4.381
47125SOL    HW141401   9.211  10.598   4.395
47125SOL    HW241402   9.067  10.674   4.412
47126SOL     OW41403   8.838   9.885   3.802
47126SOL    HW141404   8.784   9.864   3.883
47126SOL    HW241405   8.929   9.844   3.811
47127SOL     OW41406   7.975   9.566   4.052
47127SOL    HW141407   8.002   9.507   3.977
47127SOL    HW241408   7.975   9.661   4.021
47128SOL     OW41409   9.202  10.533   5.312
47128SOL    HW141410   9.293  10.494   5.299
47128SOL    HW241411   9.210  10.629   5.336
47129SOL     OW41412   9.040  10.939   5.349
47129SOL    HW141413   9.067  10.973   5.259
47129SOL    HW241414   9.119  10.901   5.395
47130SOL     OW41415   8.559  10.505   4.824
47130SOL    HW141416   8.519  10.549   4.905
47130SOL    HW241417   8.518  10.542   4.741
47131SOL     OW41418   9.086  10.409   4.803
47131SOL    HW141419   9.091  10.490   4.862
47131SOL    HW241420   9.000  10.411   4.752
47132SOL     OW41421   8.363   9.399   5.126
47132SOL    HW141422   8.388   9.379   5.031
47132SOL    HW241423   8.435   9.455   5.168
47133SOL     OW41424   8.428  10.426   5.443
47133SOL    HW141425   8.329  10.432   5.453
47133SOL    HW241426   8.451  10.346   5.387
47134SOL     OW41427   8.153  10.360   4.092
47134SOL    HW141428   8.139  10.367   4.191
47134SOL    HW241429   8.237  10.309   4.074
47135SOL     OW41430   7.858  10.123   4.975
47135SOL    HW141431   7.944  10.135   5.025
47135SOL    HW241432   7.816  10.036   5.002
47136SOL     OW41433   8.722   9.696   4.986
47136SOL    HW141434   8.743   9.770   5.050
47136SOL    HW241435   8.633   9.713   4.943
47137SOL     OW41436   7.512  10.874   5.055
47137SOL    HW141437   7.466  10.956   5.021
47137SOL    HW241438   7.610  10.893   5.064
47138SOL     OW41439   7.815  10.410   4.225
47138SOL    HW141440   7.808  10.493   4.169
47138SOL    HW241441   7.819  10.330   4.165
47139SOL     OW41442   8.014   9.847   4.589
47139SOL    HW141443   8.026   9.913   4.515
47139SOL    HW241444   8.060   9.881   4.672
47140SOL     OW41445   8.700  10.658   4.112
47140SOL    HW141446   8.750  10.735   4.152
47140SOL    HW241447   8.605  10.660   4.144
47141SOL     OW41448   8.720  10.755   4.866
47141SOL    HW141449   8.767  10.768   4.953
47141SOL    HW241450   8.654  10.681   4.875
47142SOL     OW41451   9.030   9.949   4.196
47142SOL    HW141452   8.999  10.010   4.269
47142SOL    HW241453   9.080  10.001   4.127
47143SOL     OW41454   7.802  10.820   5.053
47143SOL    HW141455   7.781  10.776   4.966
47143SOL    HW241456   7.899  10.846   5.056
47144SOL     OW41457   7.850  10.061   5.322
47144SOL    HW141458   7.918  10.116   5.275
47144SOL    HW241459   7.890   9.973   5.349
47145SOL     OW41460   9.035  10.089   5.394
47145SOL    HW141461   8.943  10.127   5.389
47145SOL    HW241462   9.095  10.136   5.329
47146SOL     OW41463   8.461   9.415   5.494
47146SOL    HW141464   8.467   9.500   5.442
47146SOL    HW241465   8.493   9.339   5.437
47147SOL     OW41466   7.952   9.360   5.464
47147SOL    HW141467   7.910   9.303   5.394
47147SOL    HW241468   7.886   9.429   5.496
47148SOL     OW41469   8.021  10.180   4.753
47148SOL    HW141470   8.065  10.269   4.744
47148SOL    HW241471   7.958  10.180   4.830
47149SOL     OW41472   8.808  10.172   4.769
47149SOL    HW141473   8.733  10.172   4.703
47149SOL    HW241474   8.845  10.080   4.778
47150SOL     OW41475   8.657   9.835   3.999
47150SOL    HW141476   8.670   9.751   4.053
47150SOL    HW241477   8.628   9.909   4.059
47151SOL     OW41478   7.755   9.523   4.955
47151SOL    HW141479   7.732   9.560   5.045
47151SOL    HW241480   7.725   9.428   4.949
47152SOL     OW41481   7.485  10.620   5.006
47152SOL    HW141482   7.538  10.571   5.074
47152SOL    HW241483   7.507  10.718   5.011
47153SOL     OW41484   8.180   9.944   4.788
47153SOL    HW141485   8.239   9.918   4.712
47153SOL    HW241486   8.152  10.040   4.777
47154SOL     OW41487   9.176  10.245   5.578
47154SOL    HW141488   9.130  10.238   5.489
47154SOL    HW241489   9.114  10.289   5.644
47155SOL     OW41490   7.755   9.373   4.342
47155SOL    HW141491   7.744   9.467   4.375
47155SOL    HW241492   7.750   9.310   4.419
47156SOL     OW41493   9.070   9.677   4.098
47156SOL    HW141494   9.072   9.601   4.162
47156SOL    HW241495   9.022   9.754   4.138
47157SOL     OW41496   8.471  10.076   4.690
47157SOL    HW141497   8.486  10.097   4.786
47157SOL    HW241498   8.441   9.981   4.681
47158SOL     OW41499   8.428  10.883   5.424
47158SOL    HW141500   8.408  10.927   5.336
47158SOL    HW241501   8.467  10.792   5.408
47159SOL     OW41502   7.798  10.208   5.528
47159SOL    HW141503   7.874  10.252   5.576
47159SOL    HW241504   7.833  10.161   5.446
47160SOL     OW41505   8.988   9.584   3.849
47160SOL    HW141506   8.927   9.509   3.872
47160SOL    HW241507   9.010   9.636   3.932
47161SOL     OW41508   8.751  10.148   3.766
47161SOL    HW141509   8.785  10.055   3.781
47161SOL    HW241510   8.769  10.175   3.671
47162SOL     OW41511   8.516  10.643   4.573
47162SOL    HW141512   8.523  10.559   4.518
47162SOL    HW241513   8.578  10.712   4.537
47163SOL     OW41514   7.767  10.120   4.673
47163SOL    HW141515   7.860  10.156   4.678
47163SOL    HW241516   7.761  10.035   4.725
47164SOL     OW41517   7.787   9.819   4.730
47164SOL    HW141518   7.735   9.736   4.713
47164SOL    HW241519   7.864   9.824   4.666
47165SOL     OW41520   8.586   9.690   5.402
47165SOL    HW141521   8.541   9.753   5.466
47165SOL    HW241522   8.679   9.721   5.385
47166SOL     OW41523   8.608   9.517   5.201
47166SOL    HW141524   8.608   9.581   5.278
47166SOL    HW241525   8.636   9.565   5.118
47167SOL     OW41526   7.456  10.636   3.924
47167SOL    HW141527   7.363  10.657   3.893
47167SOL    HW241528   7.466  10.537   3.937
47168SOL     OW41529   7.536  11.111   4.651
47168SOL    HW141530   7.494  11.025   4.624
47168SOL    HW241531   7.630  11.114   4.617
47169SOL     OW41532   7.952  10.878   4.634
47169SOL    HW141533   8.018  10.952   4.643
47169SOL    HW241534   7.996  10.799   4.592
47170SOL     OW41535   8.450  10.106   4.962
47170SOL    HW141536   8.491  10.074   5.048
47170SOL    HW241537   8.354  10.079   4.959
47171SOL     OW41538   7.488   9.854   4.838
47171SOL    HW141539   7.573   9.821   4.797
47171SOL    HW241540   7.501   9.869   4.936
47172SOL     OW41541   7.637   9.830   5.446
47172SOL    HW141542   7.696   9.790   5.376
47172SOL    HW241543   7.579   9.901   5.405
47173SOL     OW41544   8.817  10.260   5.384
47173SOL    HW141545   8.856  10.349   5.404
47173SOL    HW241546   8.827  10.240   5.287
47174SOL     OW41547   8.263   9.882   4.049
47174SOL    HW141548   8.270   9.793   4.003
47174SOL    HW241549   8.169   9.916   4.041
47175SOL     OW41550   9.105   9.914   4.930
47175SOL    HW141551   9.067   9.845   4.992
47175SOL    HW241552   9.187   9.878   4.886
47176SOL     OW41553   7.700  10.874   5.468
47176SOL    HW141554   7.670  10.931   5.544
47176SOL    HW241555   7.693  10.777   5.494
47177SOL     OW41556   8.119   9.774   4.993
47177SOL    HW141557   8.085   9.685   4.963
47177SOL    HW241558   8.145   9.828   4.913
47178SOL     OW41559   8.378  10.988   5.189
47178SOL    HW141560   8.354  10.970   5.094
47178SOL    HW241561   8.408  11.082   5.199
47179SOL     OW41562   7.921   9.810   3.915
47179SOL    HW141563   7.982   9.890   3.919
47179SOL    HW241564   7.826   9.841   3.922
47180SOL     OW41565   7.607  10.447   5.190
47180SOL    HW141566   7.629  10.386   5.266
47180SOL    HW241567   7.617  10.398   5.104
47181SOL     OW41568   8.795  10.369   4.958
47181SOL    HW141569   8.819  10.306   4.884
47181SOL    HW241570   8.705  10.409   4.940
47182SOL     OW41571   8.750  10.165   4.033
47182SOL    HW141572   8.664  10.134   4.075
47182SOL    HW241573   8.746  10.151   3.934
47183SOL     OW41574   9.207  11.057   4.878
47183SOL    HW141575   9.268  11.087   4.805
47183SOL    HW241576   9.169  10.968   4.856
47184SOL     OW41577   8.700  11.041   4.852
47184SOL    HW141578   8.784  11.046   4.798
47184SOL    HW241579   8.677  10.945   4.870
47185SOL     OW41580   7.531  10.568   4.746
47185SOL    HW141581   7.526  10.567   4.846
47185SOL    HW241582   7.448  10.527   4.708
47186SOL     OW41583   8.136  10.972   5.440
47186SOL    HW141584   8.080  11.053   5.449
47186SOL    HW241585   8.188  10.976   5.354
47187SOL     OW41586   9.174   9.445   4.247
47187SOL    HW141587   9.247   9.428   4.180
47187SOL    HW241588   9.143   9.358   4.285
47188SOL     OW41589   8.836  10.883   4.201
47188SOL    HW141590   8.903  10.895   4.127
47188SOL    HW241591   8.796  10.972   4.224
47189SOL     OW41592   7.578  11.104   5.575
47189SOL    HW141593   7.537  11.030   5.628
47189SOL    HW241594   7.642  11.155   5.633
47190SOL     OW41595   8.728  10.237   4.396
47190SOL    HW141596   8.788  10.156   4.398
47190SOL    HW241597   8.768  10.306   4.336
47191SOL     OW41598   8.278  10.583   5.146
47191SOL    HW141599   8.273  10.616   5.241
47191SOL    HW241600   8.192  10.602   5.100
47192SOL     OW41601   8.120  10.926   3.878
47192SOL    HW141602   8.129  10.936   3.779
47192SOL    HW241603   8.080  10.837   3.899
47193SOL     OW41604   9.098  11.030   5.118
47193SOL    HW141605   9.151  11.040   5.034
47193SOL    HW241606   9.071  11.120   5.152
47194SOL     OW41607   9.289   9.485   4.687
47194SOL    HW141608   9.328   9.400   4.651
47194SOL    HW241609   9.191   9.487   4.668
47195SOL     OW41610   7.711   9.636   4.444
47195SOL    HW141611   7.632   9.687   4.410
47195SOL    HW241612   7.702   9.621   4.542
47196SOL     OW41613   8.642  10.922   3.755
47196SOL    HW141614   8.648  10.829   3.792
47196SOL    HW241615   8.583  10.922   3.675
47197SOL     OW41616   8.270  10.312   5.096
47197SOL    HW141617   8.310  10.311   5.004
47197SOL    HW241618   8.280  10.404   5.136
47198SOL     OW41619   8.364  10.220   4.015
47198SOL    HW141620   8.427  10.258   3.947
47198SOL    HW241621   8.404  10.137   4.054
47199SOL     OW41622   8.952  10.917   3.768
47199SOL    HW141623   8.860  10.954   3.775
47199SOL    HW241624   8.990  10.937   3.678
47200SOL     OW41625   7.820  10.598   5.214
47200SOL    HW141626   7.807  10.691   5.180
47200SOL    HW241627   7.736  10.546   5.201
47201SOL     OW41628   9.062  10.602   5.013
47201SOL    HW141629   9.122  10.605   5.093
47201SOL    HW241630   8.987  10.666   5.026
47202SOL     OW41631   8.487  10.408   4.420
47202SOL    HW141632   8.417  10.361   4.474
47202SOL    HW241633   8.546  10.340   4.377
47203SOL     OW41634   8.462   9.546   4.695
47203SOL    HW141635   8.454   9.510   4.602
47203SOL    HW241636   8.460   9.470   4.760
47204SOL     OW41637   8.038  10.797   4.215
47204SOL    HW141638   8.080  10.739   4.145
47204SOL    HW241639   7.994  10.876   4.171
47205SOL     OW41640   9.157   9.695   5.105
47205SOL    HW141641   9.230   9.764   5.109
47205SOL    HW241642   9.185   9.620   5.046
47206SOL     OW41643   7.703  10.658   4.014
47206SOL    HW141644   7.607  10.659   3.987
47206SOL    HW241645   7.715  10.711   4.098
47207SOL     OW41646   7.553  10.323   5.450
47207SOL    HW141647   7.476  10.290   5.504
47207SOL    HW241648   7.638  10.293   5.492
47208SOL     OW41649   8.120   9.513   5.213
47208SOL    HW141650   8.210   9.497   5.173
47208SOL    HW241651   8.128   9.518   5.312
47209SOL     OW41652   7.523   9.655   3.757
47209SOL    HW141653   7.431   9.627   3.728
47209SOL    HW241654   7.554   9.732   3.701
47210SOL     OW41655   8.888  10.166   5.122
47210SOL    HW141656   8.831  10.218   5.059
47210SOL    HW241657   8.984  10.178   5.098
47211SOL     OW41658   7.520   9.476   4.042
47211SOL    HW141659   7.503   9.559   3.988
47211SOL    HW241660   7.610   9.439   4.020
47212SOL     OW41661   8.631  10.645   3.843
47212SOL    HW141662   8.532  10.634   3.845
47212SOL    HW241663   8.665  10.660   3.936
47213SOL     OW41664   8.061  10.152   5.155
47213SOL    HW141665   8.117  10.233   5.138
47213SOL    HW241666   8.120  10.072   5.158
47214SOL     OW41667   8.164   9.875   5.432
47214SOL    HW141668   8.183   9.940   5.506
47214SOL    HW241669   8.224   9.795   5.441
47215SOL     OW41670   8.898  10.530   5.357
47215SOL    HW141671   8.889  10.520   5.456
47215SOL    HW241672   8.994  10.523   5.331
47216SOL     OW41673   7.838  11.051   5.284
47216SOL    HW141674   7.747  11.092   5.282
47216SOL    HW241675   7.831  10.957   5.316
47217SOL     OW41676   9.122  10.193   4.978
47217SOL    HW141677   9.095  10.104   4.941
47217SOL    HW241678   9.123  10.261   4.905
47218SOL     OW41679   8.673   9.635   4.173
47218SOL    HW141680   8.738   9.561   4.162
47218SOL    HW241681   8.693   9.685   4.257
47219SOL     OW41682   8.042  10.055   4.376
47219SOL    HW141683   8.092  10.140   4.357
47219SOL    HW241684   7.954  10.057   4.328
47220SOL     OW41685   9.225   9.652   5.366
47220SOL    HW141686   9.208   9.683   5.272
47220SOL    HW241687   9.141   9.615   5.404
47221SOL     OW41688   9.178  10.244   5.241
47221SOL    HW141689   9.216  10.335   5.256
47221SOL    HW241690   9.170  10.227   5.142
47222SOL     OW41691   8.307  10.684   3.740
47222SOL    HW141692   8.261  10.699   3.828
47222SOL    HW241693   8.351  10.769   3.710
47223SOL     OW41694   8.109  11.100   4.677
47223SOL    HW141695   8.063  11.188   4.664
47223SOL    HW241696   8.208  11.112   4.670
47224SOL     OW41697   8.307  10.266   4.585
47224SOL    HW141698   8.361  10.197   4.633
47224SOL    HW241699   8.275  10.335   4.651
47225SOL     OW41700   8.531  10.294   3.811
47225SOL    HW141701   8.508  10.347   3.729
47225SOL    HW241702   8.612  10.238   3.792
47226SOL     OW41703   9.309  10.879   4.575
47226SOL    HW141704   9.238  10.867   4.505
47226SOL    HW241705   9.310  10.800   4.635
47227SOL     OW41706   7.669  10.624   5.568
47227SOL    HW141707   7.604  10.551   5.547
47227SOL    HW241708   7.673  10.638   5.666
47228SOL     OW41709   7.527  10.550   4.377
47228SOL    HW141710   7.526  10.503   4.465
47228SOL    HW241711   7.609  10.522   4.326
47229SOL     OW41712   8.120  10.701   5.348
47229SOL    HW141713   8.042  10.651   5.386
47229SOL    HW241714   8.117  10.796   5.379
47230SOL     OW41715   9.272   9.502   4.951
47230SOL    HW141716   9.268   9.412   4.995
47230SOL    HW241717   9.275   9.491   4.852
47231SOL     OW41718   7.876   9.734   4.244
47231SOL    HW141719   7.906   9.662   4.182
47231SOL    HW241720   7.837   9.694   4.327
47232SOL     OW41721   9.153  10.797   4.828
47232SOL    HW141722   9.060  10.772   4.801
47232SOL    HW241723   9.179  10.747   4.910
47233SOL     OW41724   7.765   9.857   5.004
47233SOL    HW141725   7.803   9.798   5.076
47233SOL    HW241726   7.805   9.831   4.916
47234SOL     OW41727   8.260  10.896   4.411
47234SOL    HW141728   8.292  10.906   4.317
47234SOL    HW241729   8.181  10.834   4.413
47235SOL     OW41730   8.872   9.524   4.836
47235SOL    HW141731   8.924   9.459   4.891
47235SOL    HW241732   8.823   9.587   4.897
47236SOL     OW41733   8.449   9.344   4.878
47236SOL    HW141734   8.386   9.272   4.847
47236SOL    HW241735   8.542   9.308   4.878
47237SOL     OW41736   8.218  10.640   4.025
47237SOL    HW141737   8.172  10.553   4.042
47237SOL    HW241738   8.309  10.637   4.066
47238SOL     OW41739   8.066  10.877   5.008
47238SOL    HW141740   8.061  10.959   5.065
47238SOL    HW241741   8.155  10.874   4.963
47239SOL     OW41742   8.800   9.362   3.892
47239SOL    HW141743   8.835   9.321   3.808
47239SOL    HW241744   8.710   9.324   3.912
47240SOL     OW41745   8.748   9.763   4.415
47240SOL    HW141746   8.689   9.843   4.419
47240SOL    HW241747   8.763   9.728   4.508
47241SOL     OW41748   9.041   9.531   4.606
47241SOL    HW141749   8.957   9.530   4.660
47241SOL    HW241750   9.043   9.614   4.550
47242SOL     OW41751   7.487  10.387   4.024
47242SOL    HW141752   7.586  10.376   4.015
47242SOL    HW241753   7.447  10.301   4.056
47243SOL     OW41754   8.323  10.956   4.061
47243SOL    HW141755   8.246  10.921   4.007
47243SOL    HW241756   8.291  11.027   4.123
47244SOL     OW41757   7.678   9.938   5.699
47244SOL    HW141758   7.585   9.936   5.736
47244SOL    HW241759   7.679   9.899   5.607
47245SOL     OW41760   7.673   9.585   6.582
47245SOL    HW141761   7.708   9.568   6.674
47245SOL    HW241762   7.585   9.540   6.570
47246SOL     OW41763   7.467   9.678   6.233
47246SOL    HW141764   7.385   9.721   6.272
47246SOL    HW241765   7.439   9.605   6.170
47247SOL     OW41766   8.017  10.585   6.751
47247SOL    HW141767   7.924  10.578   6.714
47247SOL    HW241768   8.028  10.674   6.795
47248SOL     OW41769   9.003  10.821   6.289
47248SOL    HW141770   8.946  10.805   6.370
47248SOL    HW241771   8.944  10.831   6.209
47249SOL     OW41772   8.583  10.013   6.303
47249SOL    HW141773   8.640  10.091   6.278
47249SOL    HW241774   8.523  10.039   6.379
47250SOL     OW41775   9.203   9.917   5.817
47250SOL    HW141776   9.191   9.904   5.718
47250SOL    HW241777   9.173   9.836   5.866
47251SOL     OW41778   8.216  10.454   6.609
47251SOL    HW141779   8.138  10.471   6.669
47251SOL    HW241780   8.250  10.541   6.573
47252SOL     OW41781   8.298  10.108   7.409
47252SOL    HW141782   8.294  10.184   7.474
47252SOL    HW241783   8.320  10.144   7.318
47253SOL     OW41784   8.133  10.322   6.251
47253SOL    HW141785   8.202  10.306   6.321
47253SOL    HW241786   8.060  10.379   6.289
47254SOL     OW41787   8.134  10.471   7.389
47254SOL    HW141788   8.194  10.550   7.403
47254SOL    HW241789   8.048  10.502   7.348
47255SOL     OW41790   7.783  10.745   6.647
47255SOL    HW141791   7.705  10.714   6.594
47255SOL    HW241792   7.841  10.803   6.590
47256SOL     OW41793   8.908  10.815   6.925
47256SOL    HW141794   8.932  10.909   6.951
47256SOL    HW241795   8.892  10.761   7.007
47257SOL     OW41796   7.886   9.702   7.085
47257SOL    HW141797   7.968   9.646   7.094
47257SOL    HW241798   7.805   9.644   7.089
47258SOL     OW41799   9.051   9.757   6.323
47258SOL    HW141800   8.977   9.803   6.273
47258SOL    HW241801   9.102   9.825   6.376
47259SOL     OW41802   7.679  11.023   6.069
47259SOL    HW141803   7.713  11.100   6.123
47259SOL    HW241804   7.723  11.023   5.979
47260SOL     OW41805   8.575  10.651   7.276
47260SOL    HW141806   8.622  10.651   7.364
47260SOL    HW241807   8.527  10.564   7.265
47261SOL     OW41808   7.678  10.744   6.124
47261SOL    HW141809   7.652  10.840   6.124
47261SOL    HW241810   7.607  10.690   6.169
47262SOL     OW41811   7.688  10.401   6.472
47262SOL    HW141812   7.702  10.317   6.524
47262SOL    HW241813   7.633  10.465   6.527
47263SOL     OW41814   8.068  11.096   7.025
47263SOL    HW141815   7.976  11.079   7.060
47263SOL    HW241816   8.096  11.188   7.051
47264SOL     OW41817   8.054  10.274   5.709
47264SOL    HW141818   8.061  10.358   5.655
47264SOL    HW241819   8.100  10.287   5.797
47265SOL     OW41820   9.042   9.424   7.066
47265SOL    HW141821   9.024   9.491   6.994
47265SOL    HW241822   9.039   9.470   7.155
47266SOL     OW41823   7.570   9.953   6.149
47266SOL    HW141824   7.525   9.865   6.166
47266SOL    HW241825   7.569  10.007   6.233
47267SOL     OW41826   9.290  11.077   5.945
47267SOL    HW141827   9.344  11.048   6.025
47267SOL    HW241828   9.320  11.167   5.916
47268SOL     OW41829   7.475  10.906   5.703
47268SOL    HW141830   7.456  10.810   5.724
47268SOL    HW241831   7.442  10.964   5.778
47269SOL     OW41832   9.137  10.232   6.198
47269SOL    HW141833   9.232  10.203   6.206
47269SOL    HW241834   9.129  10.297   6.123
47270SOL     OW41835   9.089  10.418   6.018
47270SOL    HW141836   9.175  10.420   5.966
47270SOL    HW241837   9.103  10.465   6.106
47271SOL     OW41838   7.561  10.047   7.183
47271SOL    HW141839   7.649  10.034   7.228
47271SOL    HW241840   7.548  10.144   7.161
47272SOL     OW41841   8.061  10.675   6.312
47272SOL    HW141842   8.012  10.588   6.321
47272SOL    HW241843   8.038  10.718   6.225
47273SOL     OW41844   8.741  10.538   7.009
47273SOL    HW141845   8.778  10.465   6.951
47273SOL    HW241846   8.793  10.543   7.094
47274SOL     OW41847   7.645  10.286   6.850
47274SOL    HW141848   7.734  10.241   6.836
47274SOL    HW241849   7.572  10.221   6.831
47275SOL     OW41850   8.973  10.309   5.776
47275SOL    HW141851   8.910  10.233   5.789
47275SOL    HW241852   9.021  10.327   5.862
47276SOL     OW41853   7.765   9.561   7.387
47276SOL    HW141854   7.836   9.632   7.393
47276SOL    HW241855   7.677   9.600   7.415
47277SOL     OW41856   8.914  10.727   6.539
47277SOL    HW141857   8.855  10.733   6.619
47277SOL    HW241858   8.899  10.639   6.493
47278SOL     OW41859   9.115  11.024   6.158
47278SOL    HW141860   9.074  11.001   6.070
47278SOL    HW241861   9.097  10.950   6.223
47279SOL     OW41862   8.046  10.039   5.856
47279SOL    HW141863   8.070  10.108   5.788
47279SOL    HW241864   7.968  10.072   5.910
47280SOL     OW41865   8.729   9.655   6.530
47280SOL    HW141866   8.643   9.605   6.517
47280SOL    HW241867   8.791   9.601   6.586
47281SOL     OW41868   9.024  10.972   5.893
47281SOL    HW141869   9.113  11.018   5.896
47281SOL    HW241870   9.003  10.948   5.798
47282SOL     OW41871   8.255   9.915   7.051
47282SOL    HW141872   8.208   9.912   7.140
47282SOL    HW241873   8.204   9.860   6.985
47283SOL     OW41874   8.842   9.779   7.260
47283SOL    HW141875   8.822   9.822   7.348
47283SOL    HW241876   8.920   9.717   7.269
47284SOL     OW41877   8.421  10.200   7.158
47284SOL    HW141878   8.467  10.116   7.129
47284SOL    HW241879   8.365  10.234   7.083
47285SOL     OW41880   8.439   9.720   6.828
47285SOL    HW141881   8.362   9.754   6.882
47285SOL    HW241882   8.405   9.669   6.749
47286SOL     OW41883   8.489  10.011   6.015
47286SOL    HW141884   8.515  10.007   6.111
47286SOL    HW241885   8.404   9.960   6.001
47287SOL     OW41886   7.524  10.121   6.375
47287SOL    HW141887   7.623  10.109   6.384
47287SOL    HW241888   7.500  10.216   6.396
47288SOL     OW41889   7.578  11.131   7.157
47288SOL    HW141890   7.568  11.116   7.256
47288SOL    HW241891   7.492  11.167   7.121
47289SOL     OW41892   8.313   9.658   5.781
47289SOL    HW141893   8.372   9.721   5.732
47289SOL    HW241894   8.332   9.564   5.752
47290SOL     OW41895   9.167   9.895   7.417
47290SOL    HW141896   9.141   9.984   7.381
47290SOL    HW241897   9.165   9.827   7.344
47291SOL     OW41898   8.810  10.454   6.131
47291SOL    HW141899   8.893  10.425   6.083
47291SOL    HW241900   8.761  10.521   6.075
47292SOL     OW41901   7.998   9.506   6.471
47292SOL    HW141902   7.993   9.501   6.571
47292SOL    HW241903   8.000   9.602   6.442
47293SOL     OW41904   8.456  10.766   6.063
47293SOL    HW141905   8.410  10.838   6.011
47293SOL    HW241906   8.452  10.786   6.161
47294SOL     OW41907   7.799  11.111   6.439
47294SOL    HW141908   7.849  11.025   6.445
47294SOL    HW241909   7.864  11.188   6.436
47295SOL     OW41910   9.243  10.376   6.459
47295SOL    HW141911   9.181  10.361   6.383
47295SOL    HW241912   9.191  10.387   6.544
47296SOL     OW41913   8.675  10.860   7.092
47296SOL    HW141914   8.681  10.783   7.156
47296SOL    HW241915   8.623  10.834   7.012
47297SOL     OW41916   7.769  10.253   5.828
47297SOL    HW141917   7.851  10.292   5.786
47297SOL    HW241918   7.742  10.171   5.779
47298SOL     OW41919   8.906  10.045   6.314
47298SOL    HW141920   8.901   9.980   6.389
47298SOL    HW241921   8.986  10.104   6.327
47299SOL     OW41922   7.909  10.576   7.313
47299SOL    HW141923   7.859  10.577   7.227
47299SOL    HW241924   7.846  10.558   7.389
47300SOL     OW41925   8.559  11.086   5.823
47300SOL    HW141926   8.499  11.024   5.873
47300SOL    HW241927   8.590  11.042   5.738
47301SOL     OW41928   7.650   9.595   7.084
47301SOL    HW141929   7.570   9.655   7.071
47301SOL    HW241930   7.640   9.546   7.170
47302SOL     OW41931   9.080  10.687   5.667
47302SOL    HW141932   9.048  10.781   5.657
47302SOL    HW241933   9.004  10.624   5.655
47303SOL     OW41934   7.912  11.053   5.909
47303SOL    HW141935   7.945  11.092   5.995
47303SOL    HW241936   7.988  11.046   5.844
47304SOL     OW41937   8.848   9.417   6.012
47304SOL    HW141938   8.824   9.380   5.922
47304SOL    HW241939   8.947   9.433   6.016
47305SOL     OW41940   7.697  11.095   6.827
47305SOL    HW141941   7.754  11.030   6.877
47305SOL    HW241942   7.681  11.062   6.734
47306SOL     OW41943   8.388  11.008   6.490
47306SOL    HW141944   8.468  10.951   6.511
47306SOL    HW241945   8.339  10.968   6.413
47307SOL     OW41946   7.830  10.010   6.066
47307SOL    HW141947   7.875   9.920   6.063
47307SOL    HW241948   7.736   9.999   6.099
47308SOL     OW41949   8.995   9.532   7.315
47308SOL    HW141950   8.990   9.569   7.407
47308SOL    HW241951   8.923   9.463   7.303
47309SOL     OW41952   8.062   9.432   5.703
47309SOL    HW141953   8.160   9.410   5.710
47309SOL    HW241954   8.031   9.415   5.610
47310SOL     OW41955   8.229   9.574   7.335
47310SOL    HW141956   8.296   9.513   7.378
47310SOL    HW241957   8.156   9.593   7.400
47311SOL     OW41958   8.336  10.824   6.781
47311SOL    HW141959   8.313  10.799   6.687
47311SOL    HW241960   8.397  10.755   6.820
47312SOL     OW41961   8.799   9.900   7.019
47312SOL    HW141962   8.827   9.857   7.104
47312SOL    HW241963   8.824   9.996   7.020
47313SOL     OW41964   8.251  10.712   6.510
47313SOL    HW141965   8.341  10.726   6.468
47313SOL    HW241966   8.180  10.714   6.439
47314SOL     OW41967   8.370   9.813   6.485
47314SOL    HW141968   8.345   9.804   6.389
47314SOL    HW241969   8.418   9.731   6.516
47315SOL     OW41970   7.987   9.374   6.098
47315SOL    HW141971   7.906   9.375   6.156
47315SOL    HW241972   7.990   9.457   6.043
47316SOL     OW41973   8.882  10.498   5.627
47316SOL    HW141974   8.914  10.422   5.684
47316SOL    HW241975   8.790  10.525   5.657
47317SOL     OW41976   7.745   9.345   5.757
47317SOL    HW141977   7.794   9.429   5.736
47317SOL    HW241978   7.807   9.280   5.802
47318SOL     OW41979   8.383   9.546   6.066
47318SOL    HW141980   8.335   9.587   5.988
47318SOL    HW241981   8.482   9.544   6.047
47319SOL     OW41982   8.524   9.993   7.050
47319SOL    HW141983   8.444   9.932   7.053
47319SOL    HW241984   8.605   9.940   7.026
47320SOL     OW41985   8.675  10.880   6.379
47320SOL    HW141986   8.696  10.954   6.314
47320SOL    HW241987   8.743  10.880   6.452
47321SOL     OW41988   7.907  10.462   6.327
47321SOL    HW141989   7.836  10.435   6.392
47321SOL    HW241990   7.881  10.434   6.234
47322SOL     OW41991   8.719  11.107   6.177
47322SOL    HW141992   8.763  11.171   6.113
47322SOL    HW241993   8.669  11.159   6.247
47323SOL     OW41994   8.480   9.859   5.602
47323SOL    HW141995   8.439   9.941   5.563
47323SOL    HW241996   8.544   9.885   5.675
47324SOL     OW41997   7.526   9.866   6.972
47324SOL    HW141998   7.618   9.865   6.931
47324SOL    HW241999   7.520   9.940   7.039
47325SOL     OW42000   8.009   9.532   6.733
47325SOL    HW142001   8.047   9.448   6.770
47325SOL    HW242002   7.921   9.551   6.777
47326SOL     OW42003   8.314   9.764   6.228
47326SOL    HW142004   8.282   9.836   6.166
47326SOL    HW242005   8.338   9.683   6.175
47327SOL     OW42006   8.465   9.349   6.339
47327SOL    HW142007   8.393   9.354   6.270
47327SOL    HW242008   8.441   9.280   6.408
47328SOL     OW42009   8.877  10.483   6.453
47328SOL    HW142010   8.822  10.399   6.446
47328SOL    HW242011   8.903  10.512   6.361
47329SOL     OW42012   8.914   9.900   6.578
47329SOL    HW142013   8.884   9.805   6.585
47329SOL    HW242014   8.987   9.916   6.644
47330SOL     OW42015   9.305  10.143   5.963
47330SOL    HW142016   9.347  10.079   6.027
47330SOL    HW242017   9.267  10.092   5.885
47331SOL     OW42018   7.936  10.695   5.760
47331SOL    HW142019   7.849  10.680   5.807
47331SOL    HW242020   7.919  10.721   5.665
47332SOL     OW42021   9.112  10.590   6.243
47332SOL    HW142022   9.211  10.598   6.257
47332SOL    HW242023   9.067  10.674   6.274
47333SOL     OW42024   8.838   9.885   5.664
47333SOL    HW142025   8.784   9.864   5.745
47333SOL    HW242026   8.929   9.844   5.673
47334SOL     OW42027   7.975   9.566   5.914
47334SOL    HW142028   8.002   9.507   5.839
47334SOL    HW242029   7.975   9.661   5.883
47335SOL     OW42030   9.202  10.533   7.174
47335SOL    HW142031   9.293  10.494   7.161
47335SOL    HW242032   9.210  10.629   7.198
47336SOL     OW42033   8.512  10.657   6.926
47336SOL    HW142034   8.432  10.634   6.981
47336SOL    HW242035   8.595  10.631   6.975
47337SOL     OW42036   9.040  10.939   7.211
47337SOL    HW142037   9.067  10.973   7.121
47337SOL    HW242038   9.119  10.901   7.257
47338SOL     OW42039   8.559  10.505   6.686
47338SOL    HW142040   8.519  10.549   6.767
47338SOL    HW242041   8.518  10.542   6.603
47339SOL     OW42042   9.086  10.409   6.665
47339SOL    HW142043   9.091  10.490   6.724
47339SOL    HW242044   9.000  10.411   6.614
47340SOL     OW42045   8.363   9.399   6.988
47340SOL    HW142046   8.388   9.379   6.893
47340SOL    HW242047   8.435   9.455   7.030
47341SOL     OW42048   8.428  10.426   7.305
47341SOL    HW142049   8.329  10.432   7.315
47341SOL    HW242050   8.451  10.346   7.249
47342SOL     OW42051   8.153  10.360   5.954
47342SOL    HW142052   8.139  10.367   6.053
47342SOL    HW242053   8.237  10.309   5.936
47343SOL     OW42054   7.858  10.123   6.837
47343SOL    HW142055   7.944  10.135   6.887
47343SOL    HW242056   7.816  10.036   6.864
47344SOL     OW42057   8.722   9.696   6.848
47344SOL    HW142058   8.743   9.770   6.912
47344SOL    HW242059   8.633   9.713   6.805
47345SOL     OW42060   7.512  10.874   6.917
47345SOL    HW142061   7.466  10.956   6.883
47345SOL    HW242062   7.610  10.893   6.926
47346SOL     OW42063   7.815  10.410   6.087
47346SOL    HW142064   7.808  10.493   6.031
47346SOL    HW242065   7.819  10.330   6.027
47347SOL     OW42066   8.014   9.847   6.451
47347SOL    HW142067   8.026   9.913   6.377
47347SOL    HW242068   8.060   9.881   6.534
47348SOL     OW42069   8.700  10.658   5.974
47348SOL    HW142070   8.750  10.735   6.014
47348SOL    HW242071   8.605  10.660   6.006
47349SOL     OW42072   8.720  10.755   6.728
47349SOL    HW142073   8.767  10.768   6.815
47349SOL    HW242074   8.654  10.681   6.737
47350SOL     OW42075   9.030   9.949   6.058
47350SOL    HW142076   8.999  10.010   6.131
47350SOL    HW242077   9.080  10.001   5.989
47351SOL     OW42078   7.802  10.820   6.915
47351SOL    HW142079   7.781  10.776   6.828
47351SOL    HW242080   7.899  10.846   6.918
47352SOL     OW42081   7.850  10.061   7.184
47352SOL    HW142082   7.918  10.116   7.137
47352SOL    HW242083   7.890   9.973   7.211
47353SOL     OW42084   9.035  10.089   7.256
47353SOL    HW142085   8.943  10.127   7.251
47353SOL    HW242086   9.095  10.136   7.191
47354SOL     OW42087   8.461   9.415   7.356
47354SOL    HW142088   8.467   9.500   7.304
47354SOL    HW242089   8.493   9.339   7.299
47355SOL     OW42090   7.952   9.360   7.326
47355SOL    HW142091   7.910   9.303   7.256
47355SOL    HW242092   7.886   9.429   7.358
47356SOL     OW42093   8.021  10.180   6.615
47356SOL    HW142094   8.065  10.269   6.606
47356SOL    HW242095   7.958  10.180   6.692
47357SOL     OW42096   8.808  10.172   6.631
47357SOL    HW142097   8.733  10.172   6.565
47357SOL    HW242098   8.845  10.080   6.640
47358SOL     OW42099   8.657   9.835   5.861
47358SOL    HW142100   8.670   9.751   5.915
47358SOL    HW242101   8.628   9.909   5.921
47359SOL     OW42102   7.755   9.523   6.817
47359SOL    HW142103   7.732   9.560   6.907
47359SOL    HW242104   7.725   9.428   6.811
47360SOL     OW42105   7.485  10.620   6.868
47360SOL    HW142106   7.538  10.571   6.936
47360SOL    HW242107   7.507  10.718   6.873
47361SOL     OW42108   8.180   9.944   6.650
47361SOL    HW142109   8.239   9.918   6.574
47361SOL    HW242110   8.152  10.040   6.639
47362SOL     OW42111   9.176  10.245   7.440
47362SOL    HW142112   9.130  10.238   7.351
47362SOL    HW242113   9.114  10.289   7.506
47363SOL     OW42114   7.755   9.373   6.204
47363SOL    HW142115   7.744   9.467   6.237
47363SOL    HW242116   7.750   9.310   6.281
47364SOL     OW42117   9.070   9.677   5.960
47364SOL    HW142118   9.072   9.601   6.024
47364SOL    HW242119   9.022   9.754   6.000
47365SOL     OW42120   8.471  10.076   6.552
47365SOL    HW142121   8.486  10.097   6.648
47365SOL    HW242122   8.441   9.981   6.543
47366SOL     OW42123   8.428  10.883   7.286
47366SOL    HW142124   8.408  10.927   7.198
47366SOL    HW242125   8.467  10.792   7.270
47367SOL     OW42126   9.307  10.828   7.191
47367SOL    HW142127   9.321  10.855   7.096
47367SOL    HW242128   9.390  10.850   7.244
47368SOL     OW42129   7.798  10.208   7.390
47368SOL    HW142130   7.874  10.252   7.438
47368SOL    HW242131   7.833  10.161   7.308
47369SOL     OW42132   8.988   9.584   5.711
47369SOL    HW142133   8.927   9.509   5.734
47369SOL    HW242134   9.010   9.636   5.794
47370SOL     OW42135   8.751  10.148   5.628
47370SOL    HW142136   8.785  10.055   5.643
47370SOL    HW242137   8.769  10.175   5.533
47371SOL     OW42138   8.516  10.643   6.435
47371SOL    HW142139   8.523  10.559   6.380
47371SOL    HW242140   8.578  10.712   6.399
47372SOL     OW42141   7.767  10.120   6.535
47372SOL    HW142142   7.860  10.156   6.540
47372SOL    HW242143   7.761  10.035   6.587
47373SOL     OW42144   7.787   9.819   6.592
47373SOL    HW142145   7.735   9.736   6.575
47373SOL    HW242146   7.864   9.824   6.528
47374SOL     OW42147   8.586   9.690   7.264
47374SOL    HW142148   8.541   9.753   7.328
47374SOL    HW242149   8.679   9.721   7.247
47375SOL     OW42150   8.608   9.517   7.063
47375SOL    HW142151   8.608   9.581   7.140
47375SOL    HW242152   8.636   9.565   6.980
47376SOL     OW42153   7.456  10.636   5.786
47376SOL    HW142154   7.363  10.657   5.755
47376SOL    HW242155   7.466  10.537   5.799
47377SOL     OW42156   7.536  11.111   6.513
47377SOL    HW142157   7.494  11.025   6.486
47377SOL    HW242158   7.630  11.114   6.479
47378SOL     OW42159   7.952  10.878   6.496
47378SOL    HW142160   8.018  10.952   6.505
47378SOL    HW242161   7.996  10.799   6.454
47379SOL     OW42162   8.450  10.106   6.824
47379SOL    HW142163   8.491  10.074   6.910
47379SOL    HW242164   8.354  10.079   6.821
47380SOL     OW42165   7.488   9.854   6.700
47380SOL    HW142166   7.573   9.821   6.659
47380SOL    HW242167   7.501   9.869   6.798
47381SOL     OW42168   7.637   9.830   7.308
47381SOL    HW142169   7.696   9.790   7.238
47381SOL    HW242170   7.579   9.901   7.267
47382SOL     OW42171   8.817  10.260   7.246
47382SOL    HW142172   8.856  10.349   7.266
47382SOL    HW242173   8.827  10.240   7.149
47383SOL     OW42174   8.263   9.882   5.911
47383SOL    HW142175   8.270   9.793   5.865
47383SOL    HW242176   8.169   9.916   5.903
47384SOL     OW42177   9.105   9.914   6.792
47384SOL    HW142178   9.067   9.845   6.854
47384SOL    HW242179   9.187   9.878   6.748
47385SOL     OW42180   7.700  10.874   7.330
47385SOL    HW142181   7.670  10.931   7.406
47385SOL    HW242182   7.693  10.777   7.356
47386SOL     OW42183   8.119   9.774   6.855
47386SOL    HW142184   8.085   9.685   6.825
47386SOL    HW242185   8.145   9.828   6.775
47387SOL     OW42186   8.378  10.988   7.051
47387SOL    HW142187   8.354  10.970   6.956
47387SOL    HW242188   8.408  11.082   7.061
47388SOL     OW42189   7.921   9.810   5.777
47388SOL    HW142190   7.982   9.890   5.781
47388SOL    HW242191   7.826   9.841   5.784
47389SOL     OW42192   7.607  10.447   7.052
47389SOL    HW142193   7.629  10.386   7.128
47389SOL    HW242194   7.617  10.398   6.966
47390SOL     OW42195   8.795  10.369   6.820
47390SOL    HW142196   8.819  10.306   6.746
47390SOL    HW242197   8.705  10.409   6.802
47391SOL     OW42198   8.750  10.165   5.895
47391SOL    HW142199   8.664  10.134   5.937
47391SOL    HW242200   8.746  10.151   5.796
47392SOL     OW42201   9.207  11.057   6.740
47392SOL    HW142202   9.268  11.087   6.667
47392SOL    HW242203   9.169  10.968   6.718
47393SOL     OW42204   8.700  11.041   6.714
47393SOL    HW142205   8.784  11.046   6.660
47393SOL    HW242206   8.677  10.945   6.732
47394SOL     OW42207   7.531  10.568   6.608
47394SOL    HW142208   7.526  10.567   6.708
47394SOL    HW242209   7.448  10.527   6.570
47395SOL     OW42210   8.136  10.972   7.302
47395SOL    HW142211   8.080  11.053   7.311
47395SOL    HW242212   8.188  10.976   7.216
47396SOL     OW42213   9.174   9.445   6.109
47396SOL    HW142214   9.247   9.428   6.042
47396SOL    HW242215   9.143   9.358   6.147
47397SOL     OW42216   8.836  10.883   6.063
47397SOL    HW142217   8.903  10.895   5.989
47397SOL    HW242218   8.796  10.972   6.086
47398SOL     OW42219   7.578  11.104   7.437
47398SOL    HW142220   7.537  11.030   7.490
47398SOL    HW242221   7.642  11.155   7.495
47399SOL     OW42222   8.728  10.237   6.258
47399SOL    HW142223   8.788  10.156   6.260
47399SOL    HW242224   8.768  10.306   6.198
47400SOL     OW42225   8.278  10.583   7.008
47400SOL    HW142226   8.273  10.616   7.103
47400SOL    HW242227   8.192  10.602   6.962
47401SOL     OW42228   8.120  10.926   5.740
47401SOL    HW142229   8.129  10.936   5.641
47401SOL    HW242230   8.080  10.837   5.761
47402SOL     OW42231   9.098  11.030   6.980
47402SOL    HW142232   9.151  11.040   6.896
47402SOL    HW242233   9.071  11.120   7.014
47403SOL     OW42234   9.289   9.485   6.549
47403SOL    HW142235   9.328   9.400   6.513
47403SOL    HW242236   9.191   9.487   6.530
47404SOL     OW42237   7.711   9.636   6.306
47404SOL    HW142238   7.632   9.687   6.272
47404SOL    HW242239   7.702   9.621   6.404
47405SOL     OW42240   8.642  10.922   5.617
47405SOL    HW142241   8.648  10.829   5.654
47405SOL    HW242242   8.583  10.922   5.537
47406SOL     OW42243   8.270  10.312   6.958
47406SOL    HW142244   8.310  10.311   6.866
47406SOL    HW242245   8.280  10.404   6.998
47407SOL     OW42246   8.364  10.220   5.877
47407SOL    HW142247   8.427  10.258   5.809
47407SOL    HW242248   8.404  10.137   5.916
47408SOL     OW42249   8.952  10.917   5.630
47408SOL    HW142250   8.860  10.954   5.637
47408SOL    HW242251   8.990  10.937   5.540
47409SOL     OW42252   7.820  10.598   7.076
47409SOL    HW142253   7.807  10.691   7.042
47409SOL    HW242254   7.736  10.546   7.063
47410SOL     OW42255   9.062  10.602   6.875
47410SOL    HW142256   9.122  10.605   6.955
47410SOL    HW242257   8.987  10.666   6.888
47411SOL     OW42258   8.487  10.408   6.282
47411SOL    HW142259   8.417  10.361   6.336
47411SOL    HW242260   8.546  10.340   6.239
47412SOL     OW42261   8.462   9.546   6.557
47412SOL    HW142262   8.454   9.510   6.464
47412SOL    HW242263   8.460   9.470   6.622
47413SOL     OW42264   8.038  10.797   6.077
47413SOL    HW142265   8.080  10.739   6.007
47413SOL    HW242266   7.994  10.876   6.033
47414SOL     OW42267   9.157   9.695   6.967
47414SOL    HW142268   9.230   9.764   6.971
47414SOL    HW242269   9.185   9.620   6.908
47415SOL     OW42270   7.703  10.658   5.876
47415SOL    HW142271   7.607  10.659   5.849
47415SOL    HW242272   7.715  10.711   5.960
47416SOL     OW42273   7.553  10.323   7.312
47416SOL    HW142274   7.476  10.290   7.366
47416SOL    HW242275   7.638  10.293   7.354
47417SOL     OW42276   8.120   9.513   7.075
47417SOL    HW142277   8.210   9.497   7.035
47417SOL    HW242278   8.128   9.518   7.174
47418SOL     OW42279   7.523   9.655   5.619
47418SOL    HW142280   7.431   9.627   5.590
47418SOL    HW242281   7.554   9.732   5.563
47419SOL     OW42282   8.888  10.166   6.984
47419SOL    HW142283   8.831  10.218   6.921
47419SOL    HW242284   8.984  10.178   6.960
47420SOL     OW42285   7.520   9.476   5.904
47420SOL    HW142286   7.503   9.559   5.850
47420SOL    HW242287   7.610   9.439   5.882
47421SOL     OW42288   8.631  10.645   5.705
47421SOL    HW142289   8.532  10.634   5.707
47421SOL    HW242290   8.665  10.660   5.798
47422SOL     OW42291   8.061  10.152   7.017
47422SOL    HW142292   8.117  10.233   7.000
47422SOL    HW242293   8.120  10.072   7.020
47423SOL     OW42294   8.941  11.077   6.545
47423SOL    HW142295   8.974  11.141   6.476
47423SOL    HW242296   9.007  11.071   6.620
47424SOL     OW42297   8.164   9.875   7.294
47424SOL    HW142298   8.183   9.940   7.368
47424SOL    HW242299   8.224   9.795   7.303
47425SOL     OW42300   8.898  10.530   7.219
47425SOL    HW142301   8.889  10.520   7.318
47425SOL    HW242302   8.994  10.523   7.193
47426SOL     OW42303   7.838  11.051   7.146
47426SOL    HW142304   7.747  11.092   7.144
47426SOL    HW242305   7.831  10.957   7.178
47427SOL     OW42306   9.122  10.193   6.840
47427SOL    HW142307   9.095  10.104   6.803
47427SOL    HW242308   9.123  10.261   6.767
47428SOL     OW42309   8.673   9.635   6.035
47428SOL    HW142310   8.738   9.561   6.024
47428SOL    HW242311   8.693   9.685   6.119
47429SOL     OW42312   8.042  10.055   6.238
47429SOL    HW142313   8.092  10.140   6.219
47429SOL    HW242314   7.954  10.057   6.190
47430SOL     OW42315   9.225   9.652   7.228
47430SOL    HW142316   9.208   9.683   7.134
47430SOL    HW242317   9.141   9.615   7.266
47431SOL     OW42318   9.178  10.244   7.103
47431SOL    HW142319   9.216  10.335   7.118
47431SOL    HW242320   9.170  10.227   7.004
47432SOL     OW42321   8.307  10.684   5.602
47432SOL    HW142322   8.261  10.699   5.690
47432SOL    HW242323   8.351  10.769   5.572
47433SOL     OW42324   8.109  11.100   6.539
47433SOL    HW142325   8.063  11.188   6.526
47433SOL    HW242326   8.208  11.112   6.532
47434SOL     OW42327   8.307  10.266   6.447
47434SOL    HW142328   8.361  10.197   6.495
47434SOL    HW242329   8.275  10.335   6.513
47435SOL     OW42330   8.531  10.294   5.673
47435SOL    HW142331   8.508  10.347   5.591
47435SOL    HW242332   8.612  10.238   5.654
47436SOL     OW42333   9.309  10.879   6.437
47436SOL    HW142334   9.238  10.867   6.367
47436SOL    HW242335   9.310  10.800   6.497
47437SOL     OW42336   7.669  10.624   7.430
47437SOL    HW142337   7.604  10.551   7.409
47437SOL    HW242338   7.673  10.638   7.528
47438SOL     OW42339   7.527  10.550   6.239
47438SOL    HW142340   7.526  10.503   6.327
47438SOL    HW242341   7.609  10.522   6.188
47439SOL     OW42342   8.120  10.701   7.210
47439SOL    HW142343   8.042  10.651   7.248
47439SOL    HW242344   8.117  10.796   7.241
47440SOL     OW42345   9.272   9.502   6.813
47440SOL    HW142346   9.268   9.412   6.857
47440SOL    HW242347   9.275   9.491   6.714
47441SOL     OW42348   7.876   9.734   6.106
47441SOL    HW142349   7.906   9.662   6.044
47441SOL    HW242350   7.837   9.694   6.189
47442SOL     OW42351   9.153  10.797   6.690
47442SOL    HW142352   9.060  10.772   6.663
47442SOL    HW242353   9.179  10.747   6.772
47443SOL     OW42354   7.765   9.857   6.866
47443SOL    HW142355   7.803   9.798   6.938
47443SOL    HW242356   7.805   9.831   6.778
47444SOL     OW42357   8.260  10.896   6.273
47444SOL    HW142358   8.292  10.906   6.179
47444SOL    HW242359   8.181  10.834   6.275
47445SOL     OW42360   8.872   9.524   6.698
47445SOL    HW142361   8.924   9.459   6.753
47445SOL    HW242362   8.823   9.587   6.759
47446SOL     OW42363   8.449   9.344   6.740
47446SOL    HW142364   8.386   9.272   6.709
47446SOL    HW242365   8.542   9.308   6.740
47447SOL     OW42366   8.218  10.640   5.887
47447SOL    HW142367   8.172  10.553   5.904
47447SOL    HW242368   8.309  10.637   5.928
47448SOL     OW42369   8.066  10.877   6.870
47448SOL    HW142370   8.061  10.959   6.927
47448SOL    HW242371   8.155  10.874   6.825
47449SOL     OW42372   8.800   9.362   5.754
47449SOL    HW142373   8.835   9.321   5.670
47449SOL    HW242374   8.710   9.324   5.774
47450SOL     OW42375   8.748   9.763   6.277
47450SOL    HW142376   8.689   9.843   6.281
47450SOL    HW242377   8.763   9.728   6.370
47451SOL     OW42378   9.041   9.531   6.468
47451SOL    HW142379   8.957   9.530   6.522
47451SOL    HW242380   9.043   9.614   6.412
47452SOL     OW42381   7.487  10.387   5.886
47452SOL    HW142382   7.586  10.376   5.877
47452SOL    HW242383   7.447  10.301   5.918
47453SOL     OW42384   8.323  10.956   5.923
47453SOL    HW142385   8.246  10.921   5.869
47453SOL    HW242386   8.291  11.027   5.985
47454SOL     OW42387   7.678   9.938   7.561
47454SOL    HW142388   7.585   9.936   7.598
47454SOL    HW242389   7.679   9.899   7.469
47455SOL     OW42390   7.673   9.585   8.444
47455SOL    HW142391   7.708   9.568   8.536
47455SOL    HW242392   7.585   9.540   8.432
47456SOL     OW42393   7.467   9.678   8.095
47456SOL    HW142394   7.385   9.721   8.134
47456SOL    HW242395   7.439   9.605   8.032
47457SOL     OW42396   8.017  10.585   8.613
47457SOL    HW142397   7.924  10.578   8.576
47457SOL    HW242398   8.028  10.674   8.657
47458SOL     OW42399   9.003  10.821   8.151
47458SOL    HW142400   8.946  10.805   8.232
47458SOL    HW242401   8.944  10.831   8.071
47459SOL     OW42402   8.583  10.013   8.165
47459SOL    HW142403   8.640  10.091   8.140
47459SOL    HW242404   8.523  10.039   8.241
47460SOL     OW42405   9.203   9.917   7.679
47460SOL    HW142406   9.191   9.904   7.580
47460SOL    HW242407   9.173   9.836   7.728
47461SOL     OW42408   8.216  10.454   8.471
47461SOL    HW142409   8.138  10.471   8.531
47461SOL    HW242410   8.250  10.541   8.435
47462SOL     OW42411   8.298  10.108   9.271
47462SOL    HW142412   8.294  10.184   9.336
47462SOL    HW242413   8.320  10.144   9.180
47463SOL     OW42414   8.133  10.322   8.113
47463SOL    HW142415   8.202  10.306   8.183
47463SOL    HW242416   8.060  10.379   8.151
47464SOL     OW42417   8.134  10.471   9.251
47464SOL    HW142418   8.194  10.550   9.265
47464SOL    HW242419   8.048  10.502   9.210
47465SOL     OW42420   7.783  10.745   8.509
47465SOL    HW142421   7.705  10.714   8.456
47465SOL    HW242422   7.841  10.803   8.452
47466SOL     OW42423   8.908  10.815   8.787
47466SOL    HW142424   8.932  10.909   8.813
47466SOL    HW242425   8.892  10.761   8.869
47467SOL     OW42426   7.886   9.702   8.947
47467SOL    HW142427   7.968   9.646   8.956
47467SOL    HW242428   7.805   9.644   8.951
47468SOL     OW42429   9.051   9.757   8.185
47468SOL    HW142430   8.977   9.803   8.135
47468SOL    HW242431   9.102   9.825   8.238
47469SOL     OW42432   7.679  11.023   7.931
47469SOL    HW142433   7.713  11.100   7.985
47469SOL    HW242434   7.723  11.023   7.841
47470SOL     OW42435   8.575  10.651   9.138
47470SOL    HW142436   8.622  10.651   9.226
47470SOL    HW242437   8.527  10.564   9.127
47471SOL     OW42438   7.678  10.744   7.986
47471SOL    HW142439   7.652  10.840   7.986
47471SOL    HW242440   7.607  10.690   8.031
47472SOL     OW42441   7.688  10.401   8.334
47472SOL    HW142442   7.702  10.317   8.386
47472SOL    HW242443   7.633  10.465   8.389
47473SOL     OW42444   8.068  11.096   8.887
47473SOL    HW142445   7.976  11.079   8.922
47473SOL    HW242446   8.096  11.188   8.913
47474SOL     OW42447   8.054  10.274   7.571
47474SOL    HW142448   8.061  10.358   7.517
47474SOL    HW242449   8.100  10.287   7.659
47475SOL     OW42450   9.042   9.424   8.928
47475SOL    HW142451   9.024   9.491   8.856
47475SOL    HW242452   9.039   9.470   9.017
47476SOL     OW42453   7.570   9.953   8.011
47476SOL    HW142454   7.525   9.865   8.028
47476SOL    HW242455   7.569  10.007   8.095
47477SOL     OW42456   9.290  11.077   7.807
47477SOL    HW142457   9.344  11.048   7.887
47477SOL    HW242458   9.320  11.167   7.778
47478SOL     OW42459   7.475  10.906   7.565
47478SOL    HW142460   7.456  10.810   7.586
47478SOL    HW242461   7.442  10.964   7.640
47479SOL     OW42462   9.137  10.232   8.060
47479SOL    HW142463   9.232  10.203   8.068
47479SOL    HW242464   9.129  10.297   7.985
47480SOL     OW42465   9.089  10.418   7.880
47480SOL    HW142466   9.175  10.420   7.828
47480SOL    HW242467   9.103  10.465   7.968
47481SOL     OW42468   7.561  10.047   9.045
47481SOL    HW142469   7.649  10.034   9.090
47481SOL    HW242470   7.548  10.144   9.023
47482SOL     OW42471   8.061  10.675   8.174
47482SOL    HW142472   8.012  10.588   8.183
47482SOL    HW242473   8.038  10.718   8.087
47483SOL     OW42474   8.741  10.538   8.871
47483SOL    HW142475   8.778  10.465   8.813
47483SOL    HW242476   8.793  10.543   8.956
47484SOL     OW42477   8.257   9.314   7.950
47484SOL    HW142478   8.297   9.405   7.941
47484SOL    HW242479   8.157   9.322   7.956
47485SOL     OW42480   7.645  10.286   8.712
47485SOL    HW142481   7.734  10.241   8.698
47485SOL    HW242482   7.572  10.221   8.693
47486SOL     OW42483   8.973  10.309   7.638
47486SOL    HW142484   8.910  10.233   7.651
47486SOL    HW242485   9.021  10.327   7.724
47487SOL     OW42486   8.635  11.102   9.064
47487SOL    HW142487   8.659  11.162   8.988
47487SOL    HW242488   8.642  11.007   9.034
47488SOL     OW42489   7.765   9.561   9.249
47488SOL    HW142490   7.836   9.632   9.255
47488SOL    HW242491   7.677   9.600   9.277
47489SOL     OW42492   8.914  10.727   8.401
47489SOL    HW142493   8.855  10.733   8.481
47489SOL    HW242494   8.899  10.639   8.355
47490SOL     OW42495   9.115  11.024   8.020
47490SOL    HW142496   9.074  11.001   7.932
47490SOL    HW242497   9.097  10.950   8.085
47491SOL     OW42498   8.046  10.039   7.718
47491SOL    HW142499   8.070  10.108   7.650
47491SOL    HW242500   7.968  10.072   7.772
47492SOL     OW42501   8.729   9.655   8.392
47492SOL    HW142502   8.643   9.605   8.379
47492SOL    HW242503   8.791   9.601   8.448
47493SOL     OW42504   9.024  10.972   7.755
47493SOL    HW142505   9.113  11.018   7.758
47493SOL    HW242506   9.003  10.948   7.660
47494SOL     OW42507   8.255   9.915   8.913
47494SOL    HW142508   8.208   9.912   9.002
47494SOL    HW242509   8.204   9.860   8.847
47495SOL     OW42510   8.842   9.779   9.122
47495SOL    HW142511   8.822   9.822   9.210
47495SOL    HW242512   8.920   9.717   9.131
47496SOL     OW42513   8.421  10.200   9.020
47496SOL    HW142514   8.467  10.116   8.991
47496SOL    HW242515   8.365  10.234   8.945
47497SOL     OW42516   8.439   9.720   8.690
47497SOL    HW142517   8.362   9.754   8.744
47497SOL    HW242518   8.405   9.669   8.611
47498SOL     OW42519   8.489  10.011   7.877
47498SOL    HW142520   8.515  10.007   7.973
47498SOL    HW242521   8.404   9.960   7.863
47499SOL     OW42522   7.524  10.121   8.237
47499SOL    HW142523   7.623  10.109   8.246
47499SOL    HW242524   7.500  10.216   8.258
47500SOL     OW42525   7.578  11.131   9.019
47500SOL    HW142526   7.568  11.116   9.118
47500SOL    HW242527   7.492  11.167   8.983
47501SOL     OW42528   8.313   9.658   7.643
47501SOL    HW142529   8.372   9.721   7.594
47501SOL    HW242530   8.332   9.564   7.614
47502SOL     OW42531   9.167   9.895   9.279
47502SOL    HW142532   9.141   9.984   9.243
47502SOL    HW242533   9.165   9.827   9.206
47503SOL     OW42534   8.810  10.454   7.993
47503SOL    HW142535   8.893  10.425   7.945
47503SOL    HW242536   8.761  10.521   7.937
47504SOL     OW42537   7.998   9.506   8.333
47504SOL    HW142538   7.993   9.501   8.433
47504SOL    HW242539   8.000   9.602   8.304
47505SOL     OW42540   8.456  10.766   7.925
47505SOL    HW142541   8.410  10.838   7.873
47505SOL    HW242542   8.452  10.786   8.023
47506SOL     OW42543   7.799  11.111   8.301
47506SOL    HW142544   7.849  11.025   8.307
47506SOL    HW242545   7.864  11.188   8.298
47507SOL     OW42546   9.243  10.376   8.321
47507SOL    HW142547   9.181  10.361   8.245
47507SOL    HW242548   9.191  10.387   8.406
47508SOL     OW42549   8.675  10.860   8.954
47508SOL    HW142550   8.681  10.783   9.018
47508SOL    HW242551   8.623  10.834   8.874
47509SOL     OW42552   7.769  10.253   7.690
47509SOL    HW142553   7.851  10.292   7.648
47509SOL    HW242554   7.742  10.171   7.641
47510SOL     OW42555   8.906  10.045   8.176
47510SOL    HW142556   8.901   9.980   8.251
47510SOL    HW242557   8.986  10.104   8.189
47511SOL     OW42558   7.909  10.576   9.175
47511SOL    HW142559   7.859  10.577   9.089
47511SOL    HW242560   7.846  10.558   9.251
47512SOL     OW42561   8.559  11.086   7.685
47512SOL    HW142562   8.499  11.024   7.735
47512SOL    HW242563   8.590  11.042   7.600
47513SOL     OW42564   7.650   9.595   8.946
47513SOL    HW142565   7.570   9.655   8.933
47513SOL    HW242566   7.640   9.546   9.032
47514SOL     OW42567   9.080  10.687   7.529
47514SOL    HW142568   9.048  10.781   7.519
47514SOL    HW242569   9.004  10.624   7.517
47515SOL     OW42570   7.912  11.053   7.771
47515SOL    HW142571   7.945  11.092   7.857
47515SOL    HW242572   7.988  11.046   7.706
47516SOL     OW42573   8.848   9.417   7.874
47516SOL    HW142574   8.824   9.380   7.784
47516SOL    HW242575   8.947   9.433   7.878
47517SOL     OW42576   7.697  11.095   8.689
47517SOL    HW142577   7.754  11.030   8.739
47517SOL    HW242578   7.681  11.062   8.596
47518SOL     OW42579   8.388  11.008   8.352
47518SOL    HW142580   8.468  10.951   8.373
47518SOL    HW242581   8.339  10.968   8.275
47519SOL     OW42582   7.830  10.010   7.928
47519SOL    HW142583   7.875   9.920   7.925
47519SOL    HW242584   7.736   9.999   7.961
47520SOL     OW42585   8.995   9.532   9.177
47520SOL    HW142586   8.990   9.569   9.269
47520SOL    HW242587   8.923   9.463   9.165
47521SOL     OW42588   8.062   9.432   7.565
47521SOL    HW142589   8.160   9.410   7.572
47521SOL    HW242590   8.031   9.415   7.472
47522SOL     OW42591   8.229   9.574   9.197
47522SOL    HW142592   8.296   9.513   9.240
47522SOL    HW242593   8.156   9.593   9.262
47523SOL     OW42594   8.336  10.824   8.643
47523SOL    HW142595   8.313  10.799   8.549
47523SOL    HW242596   8.397  10.755   8.682
47524SOL     OW42597   8.799   9.900   8.881
47524SOL    HW142598   8.827   9.857   8.966
47524SOL    HW242599   8.824   9.996   8.882
47525SOL     OW42600   8.251  10.712   8.372
47525SOL    HW142601   8.341  10.726   8.330
47525SOL    HW242602   8.180  10.714   8.301
47526SOL     OW42603   8.370   9.813   8.347
47526SOL    HW142604   8.345   9.804   8.251
47526SOL    HW242605   8.418   9.731   8.378
47527SOL     OW42606   7.987   9.374   7.960
47527SOL    HW142607   7.906   9.375   8.018
47527SOL    HW242608   7.990   9.457   7.905
47528SOL     OW42609   8.882  10.498   7.489
47528SOL    HW142610   8.914  10.422   7.546
47528SOL    HW242611   8.790  10.525   7.519
47529SOL     OW42612   7.745   9.345   7.619
47529SOL    HW142613   7.794   9.429   7.598
47529SOL    HW242614   7.807   9.280   7.664
47530SOL     OW42615   8.383   9.546   7.928
47530SOL    HW142616   8.335   9.587   7.850
47530SOL    HW242617   8.482   9.544   7.909
47531SOL     OW42618   8.524   9.993   8.912
47531SOL    HW142619   8.444   9.932   8.915
47531SOL    HW242620   8.605   9.940   8.888
47532SOL     OW42621   8.675  10.880   8.241
47532SOL    HW142622   8.696  10.954   8.176
47532SOL    HW242623   8.743  10.880   8.314
47533SOL     OW42624   7.907  10.462   8.189
47533SOL    HW142625   7.836  10.435   8.254
47533SOL    HW242626   7.881  10.434   8.096
47534SOL     OW42627   8.719  11.107   8.039
47534SOL    HW142628   8.763  11.171   7.975
47534SOL    HW242629   8.669  11.159   8.109
47535SOL     OW42630   8.480   9.859   7.464
47535SOL    HW142631   8.439   9.941   7.425
47535SOL    HW242632   8.544   9.885   7.537
47536SOL     OW42633   7.526   9.866   8.834
47536SOL    HW142634   7.618   9.865   8.793
47536SOL    HW242635   7.520   9.940   8.901
47537SOL     OW42636   8.009   9.532   8.595
47537SOL    HW142637   8.047   9.448   8.632
47537SOL    HW242638   7.921   9.551   8.639
47538SOL     OW42639   8.314   9.764   8.090
47538SOL    HW142640   8.282   9.836   8.028
47538SOL    HW242641   8.338   9.683   8.037
47539SOL     OW42642   8.465   9.349   8.201
47539SOL    HW142643   8.393   9.354   8.132
47539SOL    HW242644   8.441   9.280   8.270
47540SOL     OW42645   8.877  10.483   8.315
47540SOL    HW142646   8.822  10.399   8.308
47540SOL    HW242647   8.903  10.512   8.223
47541SOL     OW42648   8.914   9.900   8.440
47541SOL    HW142649   8.884   9.805   8.447
47541SOL    HW242650   8.987   9.916   8.506
47542SOL     OW42651   9.305  10.143   7.825
47542SOL    HW142652   9.347  10.079   7.889
47542SOL    HW242653   9.267  10.092   7.747
47543SOL     OW42654   7.936  10.695   7.622
47543SOL    HW142655   7.849  10.680   7.669
47543SOL    HW242656   7.919  10.721   7.527
47544SOL     OW42657   9.112  10.590   8.105
47544SOL    HW142658   9.211  10.598   8.119
47544SOL    HW242659   9.067  10.674   8.136
47545SOL     OW42660   8.838   9.885   7.526
47545SOL    HW142661   8.784   9.864   7.607
47545SOL    HW242662   8.929   9.844   7.535
47546SOL     OW42663   7.975   9.566   7.776
47546SOL    HW142664   8.002   9.507   7.701
47546SOL    HW242665   7.975   9.661   7.745
47547SOL     OW42666   9.202  10.533   9.036
47547SOL    HW142667   9.293  10.494   9.023
47547SOL    HW242668   9.210  10.629   9.060
47548SOL     OW42669   8.512  10.657   8.788
47548SOL    HW142670   8.432  10.634   8.843
47548SOL    HW242671   8.595  10.631   8.837
47549SOL     OW42672   9.040  10.939   9.073
47549SOL    HW142673   9.067  10.973   8.983
47549SOL    HW242674   9.119  10.901   9.119
47550SOL     OW42675   8.559  10.505   8.548
47550SOL    HW142676   8.519  10.549   8.629
47550SOL    HW242677   8.518  10.542   8.465
47551SOL     OW42678   9.086  10.409   8.527
47551SOL    HW142679   9.091  10.490   8.586
47551SOL    HW242680   9.000  10.411   8.476
47552SOL     OW42681   8.363   9.399   8.850
47552SOL    HW142682   8.388   9.379   8.755
47552SOL    HW242683   8.435   9.455   8.892
47553SOL     OW42684   8.428  10.426   9.167
47553SOL    HW142685   8.329  10.432   9.177
47553SOL    HW242686   8.451  10.346   9.111
47554SOL     OW42687   8.153  10.360   7.816
47554SOL    HW142688   8.139  10.367   7.915
47554SOL    HW242689   8.237  10.309   7.798
47555SOL     OW42690   7.858  10.123   8.699
47555SOL    HW142691   7.944  10.135   8.749
47555SOL    HW242692   7.816  10.036   8.726
47556SOL     OW42693   8.722   9.696   8.710
47556SOL    HW142694   8.743   9.770   8.774
47556SOL    HW242695   8.633   9.713   8.667
47557SOL     OW42696   7.512  10.874   8.779
47557SOL    HW142697   7.466  10.956   8.745
47557SOL    HW242698   7.610  10.893   8.788
47558SOL     OW42699   7.815  10.410   7.949
47558SOL    HW142700   7.808  10.493   7.893
47558SOL    HW242701   7.819  10.330   7.889
47559SOL     OW42702   8.014   9.847   8.313
47559SOL    HW142703   8.026   9.913   8.239
47559SOL    HW242704   8.060   9.881   8.396
47560SOL     OW42705   8.700  10.658   7.836
47560SOL    HW142706   8.750  10.735   7.876
47560SOL    HW242707   8.605  10.660   7.868
47561SOL     OW42708   8.720  10.755   8.590
47561SOL    HW142709   8.767  10.768   8.677
47561SOL    HW242710   8.654  10.681   8.599
47562SOL     OW42711   9.030   9.949   7.920
47562SOL    HW142712   8.999  10.010   7.993
47562SOL    HW242713   9.080  10.001   7.851
47563SOL     OW42714   7.802  10.820   8.777
47563SOL    HW142715   7.781  10.776   8.690
47563SOL    HW242716   7.899  10.846   8.780
47564SOL     OW42717   7.850  10.061   9.046
47564SOL    HW142718   7.918  10.116   8.999
47564SOL    HW242719   7.890   9.973   9.073
47565SOL     OW42720   9.035  10.089   9.118
47565SOL    HW142721   8.943  10.127   9.113
47565SOL    HW242722   9.095  10.136   9.053
47566SOL     OW42723   8.461   9.415   9.218
47566SOL    HW142724   8.467   9.500   9.166
47566SOL    HW242725   8.493   9.339   9.161
47567SOL     OW42726   7.952   9.360   9.188
47567SOL    HW142727   7.910   9.303   9.118
47567SOL    HW242728   7.886   9.429   9.220
47568SOL     OW42729   8.021  10.180   8.477
47568SOL    HW142730   8.065  10.269   8.468
47568SOL    HW242731   7.958  10.180   8.554
47569SOL     OW42732   8.808  10.172   8.493
47569SOL    HW142733   8.733  10.172   8.427
47569SOL    HW242734   8.845  10.080   8.502
47570SOL     OW42735   8.657   9.835   7.723
47570SOL    HW142736   8.670   9.751   7.777
47570SOL    HW242737   8.628   9.909   7.783
47571SOL     OW42738   7.755   9.523   8.679
47571SOL    HW142739   7.732   9.560   8.769
47571SOL    HW242740   7.725   9.428   8.673
47572SOL     OW42741   7.485  10.620   8.730
47572SOL    HW142742   7.538  10.571   8.798
47572SOL    HW242743   7.507  10.718   8.735
47573SOL     OW42744   8.180   9.944   8.512
47573SOL    HW142745   8.239   9.918   8.436
47573SOL    HW242746   8.152  10.040   8.501
47574SOL     OW42747   9.176  10.245   9.302
47574SOL    HW142748   9.130  10.238   9.213
47574SOL    HW242749   9.114  10.289   9.368
47575SOL     OW42750   7.755   9.373   8.066
47575SOL    HW142751   7.744   9.467   8.099
47575SOL    HW242752   7.750   9.310   8.143
47576SOL     OW42753   9.070   9.677   7.822
47576SOL    HW142754   9.072   9.601   7.886
47576SOL    HW242755   9.022   9.754   7.862
47577SOL     OW42756   8.471  10.076   8.414
47577SOL    HW142757   8.486  10.097   8.510
47577SOL    HW242758   8.441   9.981   8.405
47578SOL     OW42759   9.307  10.828   9.053
47578SOL    HW142760   9.321  10.855   8.958
47578SOL    HW242761   9.390  10.850   9.106
47579SOL     OW42762   7.798  10.208   9.252
47579SOL    HW142763   7.874  10.252   9.300
47579SOL    HW242764   7.833  10.161   9.170
47580SOL     OW42765   8.988   9.584   7.573
47580SOL    HW142766   8.927   9.509   7.596
47580SOL    HW242767   9.010   9.636   7.656
47581SOL     OW42768   8.751  10.148   7.490
47581SOL    HW142769   8.785  10.055   7.505
47581SOL    HW242770   8.769  10.175   7.395
47582SOL     OW42771   8.516  10.643   8.297
47582SOL    HW142772   8.523  10.559   8.242
47582SOL    HW242773   8.578  10.712   8.261
47583SOL     OW42774   7.767  10.120   8.397
47583SOL    HW142775   7.860  10.156   8.402
47583SOL    HW242776   7.761  10.035   8.449
47584SOL     OW42777   7.787   9.819   8.454
47584SOL    HW142778   7.735   9.736   8.437
47584SOL    HW242779   7.864   9.824   8.390
47585SOL     OW42780   8.586   9.690   9.126
47585SOL    HW142781   8.541   9.753   9.190
47585SOL    HW242782   8.679   9.721   9.109
47586SOL     OW42783   8.608   9.517   8.925
47586SOL    HW142784   8.608   9.581   9.002
47586SOL    HW242785   8.636   9.565   8.842
47587SOL     OW42786   7.456  10.636   7.648
47587SOL    HW142787   7.363  10.657   7.617
47587SOL    HW242788   7.466  10.537   7.661
47588SOL     OW42789   7.536  11.111   8.375
47588SOL    HW142790   7.494  11.025   8.348
47588SOL    HW242791   7.630  11.114   8.341
47589SOL     OW42792   7.952  10.878   8.358
47589SOL    HW142793   8.018  10.952   8.367
47589SOL    HW242794   7.996  10.799   8.316
47590SOL     OW42795   8.450  10.106   8.686
47590SOL    HW142796   8.491  10.074   8.772
47590SOL    HW242797   8.354  10.079   8.683
47591SOL     OW42798   7.488   9.854   8.562
47591SOL    HW142799   7.573   9.821   8.521
47591SOL    HW242800   7.501   9.869   8.660
47592SOL     OW42801   7.637   9.830   9.170
47592SOL    HW142802   7.696   9.790   9.100
47592SOL    HW242803   7.579   9.901   9.129
47593SOL     OW42804   8.817  10.260   9.108
47593SOL    HW142805   8.856  10.349   9.128
47593SOL    HW242806   8.827  10.240   9.011
47594SOL     OW42807   8.263   9.882   7.773
47594SOL    HW142808   8.270   9.793   7.727
47594SOL    HW242809   8.169   9.916   7.765
47595SOL     OW42810   9.105   9.914   8.654
47595SOL    HW142811   9.067   9.845   8.716
47595SOL    HW242812   9.187   9.878   8.610
47596SOL     OW42813   7.700  10.874   9.192
47596SOL    HW142814   7.670  10.931   9.268
47596SOL    HW242815   7.693  10.777   9.218
47597SOL     OW42816   8.119   9.774   8.717
47597SOL    HW142817   8.085   9.685   8.687
47597SOL    HW242818   8.145   9.828   8.637
47598SOL     OW42819   8.378  10.988   8.913
47598SOL    HW142820   8.354  10.970   8.818
47598SOL    HW242821   8.408  11.082   8.923
47599SOL     OW42822   7.921   9.810   7.639
47599SOL    HW142823   7.982   9.890   7.643
47599SOL    HW242824   7.826   9.841   7.646
47600SOL     OW42825   7.607  10.447   8.914
47600SOL    HW142826   7.629  10.386   8.990
47600SOL    HW242827   7.617  10.398   8.828
47601SOL     OW42828   8.795  10.369   8.682
47601SOL    HW142829   8.819  10.306   8.608
47601SOL    HW242830   8.705  10.409   8.664
47602SOL     OW42831   8.750  10.165   7.757
47602SOL    HW142832   8.664  10.134   7.799
47602SOL    HW242833   8.746  10.151   7.658
47603SOL     OW42834   9.207  11.057   8.602
47603SOL    HW142835   9.268  11.087   8.529
47603SOL    HW242836   9.169  10.968   8.580
47604SOL     OW42837   8.700  11.041   8.576
47604SOL    HW142838   8.784  11.046   8.522
47604SOL    HW242839   8.677  10.945   8.594
47605SOL     OW42840   7.531  10.568   8.470
47605SOL    HW142841   7.526  10.567   8.570
47605SOL    HW242842   7.448  10.527   8.432
47606SOL     OW42843   8.136  10.972   9.164
47606SOL    HW142844   8.080  11.053   9.173
47606SOL    HW242845   8.188  10.976   9.078
47607SOL     OW42846   9.174   9.445   7.971
47607SOL    HW142847   9.247   9.428   7.904
47607SOL    HW242848   9.143   9.358   8.009
47608SOL     OW42849   8.836  10.883   7.925
47608SOL    HW142850   8.903  10.895   7.851
47608SOL    HW242851   8.796  10.972   7.948
47609SOL     OW42852   7.578  11.104   9.299
47609SOL    HW142853   7.537  11.030   9.352
47609SOL    HW242854   7.642  11.155   9.357
47610SOL     OW42855   8.728  10.237   8.120
47610SOL    HW142856   8.788  10.156   8.122
47610SOL    HW242857   8.768  10.306   8.060
47611SOL     OW42858   8.278  10.583   8.870
47611SOL    HW142859   8.273  10.616   8.965
47611SOL    HW242860   8.192  10.602   8.824
47612SOL     OW42861   8.120  10.926   7.602
47612SOL    HW142862   8.129  10.936   7.503
47612SOL    HW242863   8.080  10.837   7.623
47613SOL     OW42864   9.098  11.030   8.842
47613SOL    HW142865   9.151  11.040   8.758
47613SOL    HW242866   9.071  11.120   8.876
47614SOL     OW42867   9.289   9.485   8.411
47614SOL    HW142868   9.328   9.400   8.375
47614SOL    HW242869   9.191   9.487   8.392
47615SOL     OW42870   7.711   9.636   8.168
47615SOL    HW142871   7.632   9.687   8.134
47615SOL    HW242872   7.702   9.621   8.266
47616SOL     OW42873   8.642  10.922   7.479
47616SOL    HW142874   8.648  10.829   7.516
47616SOL    HW242875   8.583  10.922   7.399
47617SOL     OW42876   8.270  10.312   8.820
47617SOL    HW142877   8.310  10.311   8.728
47617SOL    HW242878   8.280  10.404   8.860
47618SOL     OW42879   8.364  10.220   7.739
47618SOL    HW142880   8.427  10.258   7.671
47618SOL    HW242881   8.404  10.137   7.778
47619SOL     OW42882   8.952  10.917   7.492
47619SOL    HW142883   8.860  10.954   7.499
47619SOL    HW242884   8.990  10.937   7.402
47620SOL     OW42885   7.820  10.598   8.938
47620SOL    HW142886   7.807  10.691   8.904
47620SOL    HW242887   7.736  10.546   8.925
47621SOL     OW42888   9.062  10.602   8.737
47621SOL    HW142889   9.122  10.605   8.817
47621SOL    HW242890   8.987  10.666   8.750
47622SOL     OW42891   8.487  10.408   8.144
47622SOL    HW142892   8.417  10.361   8.198
47622SOL    HW242893   8.546  10.340   8.101
47623SOL     OW42894   8.462   9.546   8.419
47623SOL    HW142895   8.454   9.510   8.326
47623SOL    HW242896   8.460   9.470   8.484
47624SOL     OW42897   8.038  10.797   7.939
47624SOL    HW142898   8.080  10.739   7.869
47624SOL    HW242899   7.994  10.876   7.895
47625SOL     OW42900   9.157   9.695   8.829
47625SOL    HW142901   9.230   9.764   8.833
47625SOL    HW242902   9.185   9.620   8.770
47626SOL     OW42903   7.703  10.658   7.738
47626SOL    HW142904   7.607  10.659   7.711
47626SOL    HW242905   7.715  10.711   7.822
47627SOL     OW42906   7.553  10.323   9.174
47627SOL    HW142907   7.476  10.290   9.228
47627SOL    HW242908   7.638  10.293   9.216
47628SOL     OW42909   8.120   9.513   8.937
47628SOL    HW142910   8.210   9.497   8.897
47628SOL    HW242911   8.128   9.518   9.036
47629SOL     OW42912   7.523   9.655   7.481
47629SOL    HW142913   7.431   9.627   7.452
47629SOL    HW242914   7.554   9.732   7.425
47630SOL     OW42915   8.888  10.166   8.846
47630SOL    HW142916   8.831  10.218   8.783
47630SOL    HW242917   8.984  10.178   8.822
47631SOL     OW42918   7.520   9.476   7.766
47631SOL    HW142919   7.503   9.559   7.712
47631SOL    HW242920   7.610   9.439   7.744
47632SOL     OW42921   8.631  10.645   7.567
47632SOL    HW142922   8.532  10.634   7.569
47632SOL    HW242923   8.665  10.660   7.660
47633SOL     OW42924   8.061  10.152   8.879
47633SOL    HW142925   8.117  10.233   8.862
47633SOL    HW242926   8.120  10.072   8.882
47634SOL     OW42927   8.941  11.077   8.407
47634SOL    HW142928   8.974  11.141   8.338
47634SOL    HW242929   9.007  11.071   8.482
47635SOL     OW42930   8.164   9.875   9.156
47635SOL    HW142931   8.183   9.940   9.230
47635SOL    HW242932   8.224   9.795   9.165
47636SOL     OW42933   8.898  10.530   9.081
47636SOL    HW142934   8.889  10.520   9.180
47636SOL    HW242935   8.994  10.523   9.055
47637SOL     OW42936   7.838  11.051   9.008
47637SOL    HW142937   7.747  11.092   9.006
47637SOL    HW242938   7.831  10.957   9.040
47638SOL     OW42939   9.122  10.193   8.702
47638SOL    HW142940   9.095  10.104   8.665
47638SOL    HW242941   9.123  10.261   8.629
47639SOL     OW42942   8.673   9.635   7.897
47639SOL    HW142943   8.738   9.561   7.886
47639SOL    HW242944   8.693   9.685   7.981
47640SOL     OW42945   8.042  10.055   8.100
47640SOL    HW142946   8.092  10.140   8.081
47640SOL    HW242947   7.954  10.057   8.052
47641SOL     OW42948   9.225   9.652   9.090
47641SOL    HW142949   9.208   9.683   8.996
47641SOL    HW242950   9.141   9.615   9.128
47642SOL     OW42951   9.178  10.244   8.965
47642SOL    HW142952   9.216  10.335   8.980
47642SOL    HW242953   9.170  10.227   8.866
47643SOL     OW42954   8.307  10.684   7.464
47643SOL    HW142955   8.261  10.699   7.552
47643SOL    HW242956   8.351  10.769   7.434
47644SOL     OW42957   8.109  11.100   8.401
47644SOL    HW142958   8.063  11.188   8.388
47644SOL    HW242959   8.208  11.112   8.394
47645SOL     OW42960   8.307  10.266   8.309
47645SOL    HW142961   8.361  10.197   8.357
47645SOL    HW242962   8.275  10.335   8.375
47646SOL     OW42963   8.531  10.294   7.535
47646SOL    HW142964   8.508  10.347   7.453
47646SOL    HW242965   8.612  10.238   7.516
47647SOL     OW42966   9.309  10.879   8.299
47647SOL    HW142967   9.238  10.867   8.229
47647SOL    HW242968   9.310  10.800   8.359
47648SOL     OW42969   7.669  10.624   9.292
47648SOL    HW142970   7.604  10.551   9.271
47648SOL    HW242971   7.673  10.638   9.390
47649SOL     OW42972   7.527  10.550   8.101
47649SOL    HW142973   7.526  10.503   8.189
47649SOL    HW242974   7.609  10.522   8.050
47650SOL     OW42975   8.120  10.701   9.072
47650SOL    HW142976   8.042  10.651   9.110
47650SOL    HW242977   8.117  10.796   9.103
47651SOL     OW42978   9.272   9.502   8.675
47651SOL    HW142979   9.268   9.412   8.719
47651SOL    HW242980   9.275   9.491   8.576
47652SOL     OW42981   7.876   9.734   7.968
47652SOL    HW142982   7.906   9.662   7.906
47652SOL    HW242983   7.837   9.694   8.051
47653SOL     OW42984   9.153  10.797   8.552
47653SOL    HW142985   9.060  10.772   8.525
47653SOL    HW242986   9.179  10.747   8.634
47654SOL     OW42987   7.765   9.857   8.728
47654SOL    HW142988   7.803   9.798   8.800
47654SOL    HW242989   7.805   9.831   8.640
47655SOL     OW42990   8.260  10.896   8.135
47655SOL    HW142991   8.292  10.906   8.041
47655SOL    HW242992   8.181  10.834   8.137
47656SOL     OW42993   8.872   9.524   8.560
47656SOL    HW142994   8.924   9.459   8.615
47656SOL    HW242995   8.823   9.587   8.621
47657SOL     OW42996   8.449   9.344   8.602
47657SOL    HW142997   8.386   9.272   8.571
47657SOL    HW242998   8.542   9.308   8.602
47658SOL     OW42999   8.218  10.640   7.749
47658SOL    HW143000   8.172  10.553   7.766
47658SOL    HW243001   8.309  10.637   7.790
47659SOL     OW43002   8.066  10.877   8.732
47659SOL    HW143003   8.061  10.959   8.789
47659SOL    HW243004   8.155  10.874   8.687
47660SOL     OW43005   8.800   9.362   7.616
47660SOL    HW143006   8.835   9.321   7.532
47660SOL    HW243007   8.710   9.324   7.636
47661SOL     OW43008   8.748   9.763   8.139
47661SOL    HW143009   8.689   9.843   8.143
47661SOL    HW243010   8.763   9.728   8.232
47662SOL     OW43011   9.041   9.531   8.330
47662SOL    HW143012   8.957   9.530   8.384
47662SOL    HW243013   9.043   9.614   8.274
47663SOL     OW43014   7.487  10.387   7.748
47663SOL    HW143015   7.586  10.376   7.739
47663SOL    HW243016   7.447  10.301   7.780
47664SOL     OW43017   8.323  10.956   7.785
47664SOL    HW143018   8.246  10.921   7.731
47664SOL    HW243019   8.291  11.027   7.847
47665SOL     OW43020   7.678   9.938   9.423
47665SOL    HW143021   7.585   9.936   9.460
47665SOL    HW243022   7.679   9.899   9.331
47666SOL     OW43023   7.673   9.585  10.306
47666SOL    HW143024   7.708   9.568  10.398
47666SOL    HW243025   7.585   9.540  10.294
47667SOL     OW43026   7.467   9.678   9.957
47667SOL    HW143027   7.385   9.721   9.996
47667SOL    HW243028   7.439   9.605   9.894
47668SOL     OW43029   8.017  10.585  10.475
47668SOL    HW143030   7.924  10.578  10.438
47668SOL    HW243031   8.028  10.674  10.519
47669SOL     OW43032   9.003  10.821  10.013
47669SOL    HW143033   8.946  10.805  10.094
47669SOL    HW243034   8.944  10.831   9.933
47670SOL     OW43035   8.583  10.013  10.027
47670SOL    HW143036   8.640  10.091  10.002
47670SOL    HW243037   8.523  10.039  10.103
47671SOL     OW43038   9.203   9.917   9.541
47671SOL    HW143039   9.191   9.904   9.442
47671SOL    HW243040   9.173   9.836   9.590
47672SOL     OW43041   8.216  10.454  10.333
47672SOL    HW143042   8.138  10.471  10.393
47672SOL    HW243043   8.250  10.541  10.297
47673SOL     OW43044   8.298  10.108  11.133
47673SOL    HW143045   8.294  10.184  11.198
47673SOL    HW243046   8.320  10.144  11.042
47674SOL     OW43047   8.133  10.322   9.975
47674SOL    HW143048   8.202  10.306  10.045
47674SOL    HW243049   8.060  10.379  10.013
47675SOL     OW43050   8.134  10.471  11.113
47675SOL    HW143051   8.194  10.550  11.127
47675SOL    HW243052   8.048  10.502  11.072
47676SOL     OW43053   7.783  10.745  10.371
47676SOL    HW143054   7.705  10.714  10.318
47676SOL    HW243055   7.841  10.803  10.314
47677SOL     OW43056   8.908  10.815  10.649
47677SOL    HW143057   8.932  10.909  10.675
47677SOL    HW243058   8.892  10.761  10.731
47678SOL     OW43059   7.886   9.702  10.809
47678SOL    HW143060   7.968   9.646  10.818
47678SOL    HW243061   7.805   9.644  10.813
47679SOL     OW43062   9.051   9.757  10.047
47679SOL    HW143063   8.977   9.803   9.997
47679SOL    HW243064   9.102   9.825  10.100
47680SOL     OW43065   7.679  11.023   9.793
47680SOL    HW143066   7.713  11.100   9.847
47680SOL    HW243067   7.723  11.023   9.703
47681SOL     OW43068   8.575  10.651  11.000
47681SOL    HW143069   8.622  10.651  11.088
47681SOL    HW243070   8.527  10.564  10.989
47682SOL     OW43071   7.678  10.744   9.848
47682SOL    HW143072   7.652  10.840   9.848
47682SOL    HW243073   7.607  10.690   9.893
47683SOL     OW43074   7.688  10.401  10.196
47683SOL    HW143075   7.702  10.317  10.248
47683SOL    HW243076   7.633  10.465  10.251
47684SOL     OW43077   8.068  11.096  10.749
47684SOL    HW143078   7.976  11.079  10.784
47684SOL    HW243079   8.096  11.188  10.775
47685SOL     OW43080   8.054  10.274   9.433
47685SOL    HW143081   8.061  10.358   9.379
47685SOL    HW243082   8.100  10.287   9.521
47686SOL     OW43083   9.042   9.424  10.790
47686SOL    HW143084   9.024   9.491  10.718
47686SOL    HW243085   9.039   9.470  10.879
47687SOL     OW43086   7.570   9.953   9.873
47687SOL    HW143087   7.525   9.865   9.890
47687SOL    HW243088   7.569  10.007   9.957
47688SOL     OW43089   9.290  11.077   9.669
47688SOL    HW143090   9.344  11.048   9.749
47688SOL    HW243091   9.320  11.167   9.640
47689SOL     OW43092   7.475  10.906   9.427
47689SOL    HW143093   7.456  10.810   9.448
47689SOL    HW243094   7.442  10.964   9.502
47690SOL     OW43095   9.137  10.232   9.922
47690SOL    HW143096   9.232  10.203   9.930
47690SOL    HW243097   9.129  10.297   9.847
47691SOL     OW43098   9.089  10.418   9.742
47691SOL    HW143099   9.175  10.420   9.690
47691SOL    HW243100   9.103  10.465   9.830
47692SOL     OW43101   7.561  10.047  10.907
47692SOL    HW143102   7.649  10.034  10.952
47692SOL    HW243103   7.548  10.144  10.885
47693SOL     OW43104   8.061  10.675  10.036
47693SOL    HW143105   8.012  10.588  10.045
47693SOL    HW243106   8.038  10.718   9.949
47694SOL     OW43107   8.741  10.538  10.733
47694SOL    HW143108   8.778  10.465  10.675
47694SOL    HW243109   8.793  10.543  10.818
47695SOL     OW43110   8.257   9.314   9.812
47695SOL    HW143111   8.297   9.405   9.803
47695SOL    HW243112   8.157   9.322   9.818
47696SOL     OW43113   7.645  10.286  10.574
47696SOL    HW143114   7.734  10.241  10.560
47696SOL    HW243115   7.572  10.221  10.555
47697SOL     OW43116   8.973  10.309   9.500
47697SOL    HW143117   8.910  10.233   9.513
47697SOL    HW243118   9.021  10.327   9.586
47698SOL     OW43119   8.635  11.102  10.926
47698SOL    HW143120   8.659  11.162  10.850
47698SOL    HW243121   8.642  11.007  10.896
47699SOL     OW43122   7.765   9.561  11.111
47699SOL    HW143123   7.836   9.632  11.117
47699SOL    HW243124   7.677   9.600  11.139
47700SOL     OW43125   8.914  10.727  10.263
47700SOL    HW143126   8.855  10.733  10.343
47700SOL    HW243127   8.899  10.639  10.217
47701SOL     OW43128   9.115  11.024   9.882
47701SOL    HW143129   9.074  11.001   9.794
47701SOL    HW243130   9.097  10.950   9.947
47702SOL     OW43131   8.046  10.039   9.580
47702SOL    HW143132   8.070  10.108   9.512
47702SOL    HW243133   7.968  10.072   9.634
47703SOL     OW43134   8.729   9.655  10.254
47703SOL    HW143135   8.643   9.605  10.241
47703SOL    HW243136   8.791   9.601  10.310
47704SOL     OW43137   9.024  10.972   9.617
47704SOL    HW143138   9.113  11.018   9.620
47704SOL    HW243139   9.003  10.948   9.522
47705SOL     OW43140   8.255   9.915  10.775
47705SOL    HW143141   8.208   9.912  10.864
47705SOL    HW243142   8.204   9.860  10.709
47706SOL     OW43143   8.842   9.779  10.984
47706SOL    HW143144   8.822   9.822  11.072
47706SOL    HW243145   8.920   9.717  10.993
47707SOL     OW43146   8.421  10.200  10.882
47707SOL    HW143147   8.467  10.116  10.853
47707SOL    HW243148   8.365  10.234  10.807
47708SOL     OW43149   8.439   9.720  10.552
47708SOL    HW143150   8.362   9.754  10.606
47708SOL    HW243151   8.405   9.669  10.473
47709SOL     OW43152   8.489  10.011   9.739
47709SOL    HW143153   8.515  10.007   9.835
47709SOL    HW243154   8.404   9.960   9.725
47710SOL     OW43155   7.524  10.121  10.099
47710SOL    HW143156   7.623  10.109  10.108
47710SOL    HW243157   7.500  10.216  10.120
47711SOL     OW43158   7.578  11.131  10.881
47711SOL    HW143159   7.568  11.116  10.980
47711SOL    HW243160   7.492  11.167  10.845
47712SOL     OW43161   8.313   9.658   9.505
47712SOL    HW143162   8.372   9.721   9.456
47712SOL    HW243163   8.332   9.564   9.476
47713SOL     OW43164   9.167   9.895  11.141
47713SOL    HW143165   9.141   9.984  11.105
47713SOL    HW243166   9.165   9.827  11.068
47714SOL     OW43167   8.810  10.454   9.855
47714SOL    HW143168   8.893  10.425   9.807
47714SOL    HW243169   8.761  10.521   9.799
47715SOL     OW43170   7.998   9.506  10.195
47715SOL    HW143171   7.993   9.501  10.295
47715SOL    HW243172   8.000   9.602  10.166
47716SOL     OW43173   8.456  10.766   9.787
47716SOL    HW143174   8.410  10.838   9.735
47716SOL    HW243175   8.452  10.786   9.885
47717SOL     OW43176   7.799  11.111  10.163
47717SOL    HW143177   7.849  11.025  10.169
47717SOL    HW243178   7.864  11.188  10.160
47718SOL     OW43179   9.243  10.376  10.183
47718SOL    HW143180   9.181  10.361  10.107
47718SOL    HW243181   9.191  10.387  10.268
47719SOL     OW43182   8.675  10.860  10.816
47719SOL    HW143183   8.681  10.783  10.880
47719SOL    HW243184   8.623  10.834  10.736
47720SOL     OW43185   7.769  10.253   9.552
47720SOL    HW143186   7.851  10.292   9.510
47720SOL    HW243187   7.742  10.171   9.503
47721SOL     OW43188   8.906  10.045  10.038
47721SOL    HW143189   8.901   9.980  10.113
47721SOL    HW243190   8.986  10.104  10.051
47722SOL     OW43191   7.909  10.576  11.037
47722SOL    HW143192   7.859  10.577  10.951
47722SOL    HW243193   7.846  10.558  11.113
47723SOL     OW43194   8.559  11.086   9.547
47723SOL    HW143195   8.499  11.024   9.597
47723SOL    HW243196   8.590  11.042   9.462
47724SOL     OW43197   7.650   9.595  10.808
47724SOL    HW143198   7.570   9.655  10.795
47724SOL    HW243199   7.640   9.546  10.894
47725SOL     OW43200   9.080  10.687   9.391
47725SOL    HW143201   9.048  10.781   9.381
47725SOL    HW243202   9.004  10.624   9.379
47726SOL     OW43203   7.912  11.053   9.633
47726SOL    HW143204   7.945  11.092   9.719
47726SOL    HW243205   7.988  11.046   9.568
47727SOL     OW43206   8.848   9.417   9.736
47727SOL    HW143207   8.824   9.380   9.646
47727SOL    HW243208   8.947   9.433   9.740
47728SOL     OW43209   7.697  11.095  10.551
47728SOL    HW143210   7.754  11.030  10.601
47728SOL    HW243211   7.681  11.062  10.458
47729SOL     OW43212   8.388  11.008  10.214
47729SOL    HW143213   8.468  10.951  10.235
47729SOL    HW243214   8.339  10.968  10.137
47730SOL     OW43215   7.830  10.010   9.790
47730SOL    HW143216   7.875   9.920   9.787
47730SOL    HW243217   7.736   9.999   9.823
47731SOL     OW43218   8.995   9.532  11.039
47731SOL    HW143219   8.990   9.569  11.131
47731SOL    HW243220   8.923   9.463  11.027
47732SOL     OW43221   8.062   9.432   9.427
47732SOL    HW143222   8.160   9.410   9.434
47732SOL    HW243223   8.031   9.415   9.334
47733SOL     OW43224   8.229   9.574  11.059
47733SOL    HW143225   8.296   9.513  11.102
47733SOL    HW243226   8.156   9.593  11.124
47734SOL     OW43227   8.336  10.824  10.505
47734SOL    HW143228   8.313  10.799  10.411
47734SOL    HW243229   8.397  10.755  10.544
47735SOL     OW43230   8.799   9.900  10.743
47735SOL    HW143231   8.827   9.857  10.828
47735SOL    HW243232   8.824   9.996  10.744
47736SOL     OW43233   8.251  10.712  10.234
47736SOL    HW143234   8.341  10.726  10.192
47736SOL    HW243235   8.180  10.714  10.163
47737SOL     OW43236   8.370   9.813  10.209
47737SOL    HW143237   8.345   9.804  10.113
47737SOL    HW243238   8.418   9.731  10.240
47738SOL     OW43239   7.987   9.374   9.822
47738SOL    HW143240   7.906   9.375   9.880
47738SOL    HW243241   7.990   9.457   9.767
47739SOL     OW43242   8.882  10.498   9.351
47739SOL    HW143243   8.914  10.422   9.408
47739SOL    HW243244   8.790  10.525   9.381
47740SOL     OW43245   7.745   9.345   9.481
47740SOL    HW143246   7.794   9.429   9.460
47740SOL    HW243247   7.807   9.280   9.526
47741SOL     OW43248   8.383   9.546   9.790
47741SOL    HW143249   8.335   9.587   9.712
47741SOL    HW243250   8.482   9.544   9.771
47742SOL     OW43251   8.524   9.993  10.774
47742SOL    HW143252   8.444   9.932  10.777
47742SOL    HW243253   8.605   9.940  10.750
47743SOL     OW43254   8.675  10.880  10.103
47743SOL    HW143255   8.696  10.954  10.038
47743SOL    HW243256   8.743  10.880  10.176
47744SOL     OW43257   7.907  10.462  10.051
47744SOL    HW143258   7.836  10.435  10.116
47744SOL    HW243259   7.881  10.434   9.958
47745SOL     OW43260   8.719  11.107   9.901
47745SOL    HW143261   8.763  11.171   9.837
47745SOL    HW243262   8.669  11.159   9.971
47746SOL     OW43263   8.480   9.859   9.326
47746SOL    HW143264   8.439   9.941   9.287
47746SOL    HW243265   8.544   9.885   9.399
47747SOL     OW43266   7.526   9.866  10.696
47747SOL    HW143267   7.618   9.865  10.655
47747SOL    HW243268   7.520   9.940  10.763
47748SOL     OW43269   8.009   9.532  10.457
47748SOL    HW143270   8.047   9.448  10.494
47748SOL    HW243271   7.921   9.551  10.501
47749SOL     OW43272   8.314   9.764   9.952
47749SOL    HW143273   8.282   9.836   9.890
47749SOL    HW243274   8.338   9.683   9.899
47750SOL     OW43275   8.465   9.349  10.063
47750SOL    HW143276   8.393   9.354   9.994
47750SOL    HW243277   8.441   9.280  10.132
47751SOL     OW43278   8.877  10.483  10.177
47751SOL    HW143279   8.822  10.399  10.170
47751SOL    HW243280   8.903  10.512  10.085
47752SOL     OW43281   8.914   9.900  10.302
47752SOL    HW143282   8.884   9.805  10.309
47752SOL    HW243283   8.987   9.916  10.368
47753SOL     OW43284   9.305  10.143   9.687
47753SOL    HW143285   9.347  10.079   9.751
47753SOL    HW243286   9.267  10.092   9.609
47754SOL     OW43287   7.936  10.695   9.484
47754SOL    HW143288   7.849  10.680   9.531
47754SOL    HW243289   7.919  10.721   9.389
47755SOL     OW43290   9.112  10.590   9.967
47755SOL    HW143291   9.211  10.598   9.981
47755SOL    HW243292   9.067  10.674   9.998
47756SOL     OW43293   8.838   9.885   9.388
47756SOL    HW143294   8.784   9.864   9.469
47756SOL    HW243295   8.929   9.844   9.397
47757SOL     OW43296   7.975   9.566   9.638
47757SOL    HW143297   8.002   9.507   9.563
47757SOL    HW243298   7.975   9.661   9.607
47758SOL     OW43299   9.202  10.533  10.898
47758SOL    HW143300   9.293  10.494  10.885
47758SOL    HW243301   9.210  10.629  10.922
47759SOL     OW43302   8.512  10.657  10.650
47759SOL    HW143303   8.432  10.634  10.705
47759SOL    HW243304   8.595  10.631  10.699
47760SOL     OW43305   9.040  10.939  10.935
47760SOL    HW143306   9.067  10.973  10.845
47760SOL    HW243307   9.119  10.901  10.981
47761SOL     OW43308   8.559  10.505  10.410
47761SOL    HW143309   8.519  10.549  10.491
47761SOL    HW243310   8.518  10.542  10.327
47762SOL     OW43311   9.086  10.409  10.389
47762SOL    HW143312   9.091  10.490  10.448
47762SOL    HW243313   9.000  10.411  10.338
47763SOL     OW43314   8.363   9.399  10.712
47763SOL    HW143315   8.388   9.379  10.617
47763SOL    HW243316   8.435   9.455  10.754
47764SOL     OW43317   8.428  10.426  11.029
47764SOL    HW143318   8.329  10.432  11.039
47764SOL    HW243319   8.451  10.346  10.973
47765SOL     OW43320   8.153  10.360   9.678
47765SOL    HW143321   8.139  10.367   9.777
47765SOL    HW243322   8.237  10.309   9.660
47766SOL     OW43323   7.858  10.123  10.561
47766SOL    HW143324   7.944  10.135  10.611
47766SOL    HW243325   7.816  10.036  10.588
47767SOL     OW43326   8.722   9.696  10.572
47767SOL    HW143327   8.743   9.770  10.636
47767SOL    HW243328   8.633   9.713  10.529
47768SOL     OW43329   7.512  10.874  10.641
47768SOL    HW143330   7.466  10.956  10.607
47768SOL    HW243331   7.610  10.893  10.650
47769SOL     OW43332   7.815  10.410   9.811
47769SOL    HW143333   7.808  10.493   9.755
47769SOL    HW243334   7.819  10.330   9.751
47770SOL     OW43335   8.014   9.847  10.175
47770SOL    HW143336   8.026   9.913  10.101
47770SOL    HW243337   8.060   9.881  10.258
47771SOL     OW43338   8.700  10.658   9.698
47771SOL    HW143339   8.750  10.735   9.738
47771SOL    HW243340   8.605  10.660   9.730
47772SOL     OW43341   8.720  10.755  10.452
47772SOL    HW143342   8.767  10.768  10.539
47772SOL    HW243343   8.654  10.681  10.461
47773SOL     OW43344   9.030   9.949   9.782
47773SOL    HW143345   8.999  10.010   9.855
47773SOL    HW243346   9.080  10.001   9.713
47774SOL     OW43347   7.802  10.820  10.639
47774SOL    HW143348   7.781  10.776  10.552
47774SOL    HW243349   7.899  10.846  10.642
47775SOL     OW43350   7.850  10.061  10.908
47775SOL    HW143351   7.918  10.116  10.861
47775SOL    HW243352   7.890   9.973  10.935
47776SOL     OW43353   9.035  10.089  10.980
47776SOL    HW143354   8.943  10.127  10.975
47776SOL    HW243355   9.095  10.136  10.915
47777SOL     OW43356   8.461   9.415  11.080
47777SOL    HW143357   8.467   9.500  11.028
47777SOL    HW243358   8.493   9.339  11.023
47778SOL     OW43359   7.952   9.360  11.050
47778SOL    HW143360   7.910   9.303  10.980
47778SOL    HW243361   7.886   9.429  11.082
47779SOL     OW43362   8.021  10.180  10.339
47779SOL    HW143363   8.065  10.269  10.330
47779SOL    HW243364   7.958  10.180  10.416
47780SOL     OW43365   8.808  10.172  10.355
47780SOL    HW143366   8.733  10.172  10.289
47780SOL    HW243367   8.845  10.080  10.364
47781SOL     OW43368   8.657   9.835   9.585
47781SOL    HW143369   8.670   9.751   9.639
47781SOL    HW243370   8.628   9.909   9.645
47782SOL     OW43371   7.755   9.523  10.541
47782SOL    HW143372   7.732   9.560  10.631
47782SOL    HW243373   7.725   9.428  10.535
47783SOL     OW43374   7.485  10.620  10.592
47783SOL    HW143375   7.538  10.571  10.660
47783SOL    HW243376   7.507  10.718  10.597
47784SOL     OW43377   8.180   9.944  10.374
47784SOL    HW143378   8.239   9.918  10.298
47784SOL    HW243379   8.152  10.040  10.363
47785SOL     OW43380   9.176  10.245  11.164
47785SOL    HW143381   9.130  10.238  11.075
47785SOL    HW243382   9.114  10.289  11.230
47786SOL     OW43383   7.755   9.373   9.928
47786SOL    HW143384   7.744   9.467   9.961
47786SOL    HW243385   7.750   9.310  10.005
47787SOL     OW43386   9.070   9.677   9.684
47787SOL    HW143387   9.072   9.601   9.748
47787SOL    HW243388   9.022   9.754   9.724
47788SOL     OW43389   8.471  10.076  10.276
47788SOL    HW143390   8.486  10.097  10.372
47788SOL    HW243391   8.441   9.981  10.267
47789SOL     OW43392   8.428  10.883  11.010
47789SOL    HW143393   8.408  10.927  10.922
47789SOL    HW243394   8.467  10.792  10.994
47790SOL     OW43395   9.307  10.828  10.915
47790SOL    HW143396   9.321  10.855  10.820
47790SOL    HW243397   9.390  10.850  10.968
47791SOL     OW43398   7.798  10.208  11.114
47791SOL    HW143399   7.874  10.252  11.162
47791SOL    HW243400   7.833  10.161  11.032
47792SOL     OW43401   8.988   9.584   9.435
47792SOL    HW143402   8.927   9.509   9.458
47792SOL    HW243403   9.010   9.636   9.518
47793SOL     OW43404   8.751  10.148   9.352
47793SOL    HW143405   8.785  10.055   9.367
47793SOL    HW243406   8.769  10.175   9.257
47794SOL     OW43407   8.516  10.643  10.159
47794SOL    HW143408   8.523  10.559  10.104
47794SOL    HW243409   8.578  10.712  10.123
47795SOL     OW43410   7.767  10.120  10.259
47795SOL    HW143411   7.860  10.156  10.264
47795SOL    HW243412   7.761  10.035  10.311
47796SOL     OW43413   7.787   9.819  10.316
47796SOL    HW143414   7.735   9.736  10.299
47796SOL    HW243415   7.864   9.824  10.252
47797SOL     OW43416   8.586   9.690  10.988
47797SOL    HW143417   8.541   9.753  11.052
47797SOL    HW243418   8.679   9.721  10.971
47798SOL     OW43419   8.608   9.517  10.787
47798SOL    HW143420   8.608   9.581  10.864
47798SOL    HW243421   8.636   9.565  10.704
47799SOL     OW43422   7.456  10.636   9.510
47799SOL    HW143423   7.363  10.657   9.479
47799SOL    HW243424   7.466  10.537   9.523
47800SOL     OW43425   7.536  11.111  10.237
47800SOL    HW143426   7.494  11.025  10.210
47800SOL    HW243427   7.630  11.114  10.203
47801SOL     OW43428   7.952  10.878  10.220
47801SOL    HW143429   8.018  10.952  10.229
47801SOL    HW243430   7.996  10.799  10.178
47802SOL     OW43431   8.450  10.106  10.548
47802SOL    HW143432   8.491  10.074  10.634
47802SOL    HW243433   8.354  10.079  10.545
47803SOL     OW43434   7.488   9.854  10.424
47803SOL    HW143435   7.573   9.821  10.383
47803SOL    HW243436   7.501   9.869  10.522
47804SOL     OW43437   7.637   9.830  11.032
47804SOL    HW143438   7.696   9.790  10.962
47804SOL    HW243439   7.579   9.901  10.991
47805SOL     OW43440   8.817  10.260  10.970
47805SOL    HW143441   8.856  10.349  10.990
47805SOL    HW243442   8.827  10.240  10.873
47806SOL     OW43443   8.263   9.882   9.635
47806SOL    HW143444   8.270   9.793   9.589
47806SOL    HW243445   8.169   9.916   9.627
47807SOL     OW43446   9.105   9.914  10.516
47807SOL    HW143447   9.067   9.845  10.578
47807SOL    HW243448   9.187   9.878  10.472
47808SOL     OW43449   7.700  10.874  11.054
47808SOL    HW143450   7.670  10.931  11.130
47808SOL    HW243451   7.693  10.777  11.080
47809SOL     OW43452   8.119   9.774  10.579
47809SOL    HW143453   8.085   9.685  10.549
47809SOL    HW243454   8.145   9.828  10.499
47810SOL     OW43455   8.378  10.988  10.775
47810SOL    HW143456   8.354  10.970  10.680
47810SOL    HW243457   8.408  11.082  10.785
47811SOL     OW43458   7.921   9.810   9.501
47811SOL    HW143459   7.982   9.890   9.505
47811SOL    HW243460   7.826   9.841   9.508
47812SOL     OW43461   7.607  10.447  10.776
47812SOL    HW143462   7.629  10.386  10.852
47812SOL    HW243463   7.617  10.398  10.690
47813SOL     OW43464   8.795  10.369  10.544
47813SOL    HW143465   8.819  10.306  10.470
47813SOL    HW243466   8.705  10.409  10.526
47814SOL     OW43467   8.750  10.165   9.619
47814SOL    HW143468   8.664  10.134   9.661
47814SOL    HW243469   8.746  10.151   9.520
47815SOL     OW43470   9.207  11.057  10.464
47815SOL    HW143471   9.268  11.087  10.391
47815SOL    HW243472   9.169  10.968  10.442
47816SOL     OW43473   8.700  11.041  10.438
47816SOL    HW143474   8.784  11.046  10.384
47816SOL    HW243475   8.677  10.945  10.456
47817SOL     OW43476   7.531  10.568  10.332
47817SOL    HW143477   7.526  10.567  10.432
47817SOL    HW243478   7.448  10.527  10.294
47818SOL     OW43479   8.136  10.972  11.026
47818SOL    HW143480   8.080  11.053  11.035
47818SOL    HW243481   8.188  10.976  10.940
47819SOL     OW43482   9.174   9.445   9.833
47819SOL    HW143483   9.247   9.428   9.766
47819SOL    HW243484   9.143   9.358   9.871
47820SOL     OW43485   8.836  10.883   9.787
47820SOL    HW143486   8.903  10.895   9.713
47820SOL    HW243487   8.796  10.972   9.810
47821SOL     OW43488   7.578  11.104  11.161
47821SOL    HW143489   7.537  11.030  11.214
47821SOL    HW243490   7.642  11.155  11.219
47822SOL     OW43491   8.728  10.237   9.982
47822SOL    HW143492   8.788  10.156   9.984
47822SOL    HW243493   8.768  10.306   9.922
47823SOL     OW43494   8.278  10.583  10.732
47823SOL    HW143495   8.273  10.616  10.827
47823SOL    HW243496   8.192  10.602  10.686
47824SOL     OW43497   8.120  10.926   9.464
47824SOL    HW143498   8.129  10.936   9.365
47824SOL    HW243499   8.080  10.837   9.485
47825SOL     OW43500   9.098  11.030  10.704
47825SOL    HW143501   9.151  11.040  10.620
47825SOL    HW243502   9.071  11.120  10.738
47826SOL     OW43503   9.289   9.485  10.273
47826SOL    HW143504   9.328   9.400  10.237
47826SOL    HW243505   9.191   9.487  10.254
47827SOL     OW43506   7.711   9.636  10.030
47827SOL    HW143507   7.632   9.687   9.996
47827SOL    HW243508   7.702   9.621  10.128
47828SOL     OW43509   8.642  10.922   9.341
47828SOL    HW143510   8.648  10.829   9.378
47828SOL    HW243511   8.583  10.922   9.261
47829SOL     OW43512   8.270  10.312  10.682
47829SOL    HW143513   8.310  10.311  10.590
47829SOL    HW243514   8.280  10.404  10.722
47830SOL     OW43515   8.364  10.220   9.601
47830SOL    HW143516   8.427  10.258   9.533
47830SOL    HW243517   8.404  10.137   9.640
47831SOL     OW43518   8.952  10.917   9.354
47831SOL    HW143519   8.860  10.954   9.361
47831SOL    HW243520   8.990  10.937   9.264
47832SOL     OW43521   7.820  10.598  10.800
47832SOL    HW143522   7.807  10.691  10.766
47832SOL    HW243523   7.736  10.546  10.787
47833SOL     OW43524   9.062  10.602  10.599
47833SOL    HW143525   9.122  10.605  10.679
47833SOL    HW243526   8.987  10.666  10.612
47834SOL     OW43527   8.487  10.408  10.006
47834SOL    HW143528   8.417  10.361  10.060
47834SOL    HW243529   8.546  10.340   9.963
47835SOL     OW43530   8.462   9.546  10.281
47835SOL    HW143531   8.454   9.510  10.188
47835SOL    HW243532   8.460   9.470  10.346
47836SOL     OW43533   8.038  10.797   9.801
47836SOL    HW143534   8.080  10.739   9.731
47836SOL    HW243535   7.994  10.876   9.757
47837SOL     OW43536   9.157   9.695  10.691
47837SOL    HW143537   9.230   9.764  10.695
47837SOL    HW243538   9.185   9.620  10.632
47838SOL     OW43539   7.703  10.658   9.600
47838SOL    HW143540   7.607  10.659   9.573
47838SOL    HW243541   7.715  10.711   9.684
47839SOL     OW43542   7.553  10.323  11.036
47839SOL    HW143543   7.476  10.290  11.090
47839SOL    HW243544   7.638  10.293  11.078
47840SOL     OW43545   8.120   9.513  10.799
47840SOL    HW143546   8.210   9.497  10.759
47840SOL    HW243547   8.128   9.518  10.898
47841SOL     OW43548   7.523   9.655   9.343
47841SOL    HW143549   7.431   9.627   9.314
47841SOL    HW243550   7.554   9.732   9.287
47842SOL     OW43551   8.888  10.166  10.708
47842SOL    HW143552   8.831  10.218  10.645
47842SOL    HW243553   8.984  10.178  10.684
47843SOL     OW43554   7.520   9.476   9.628
47843SOL    HW143555   7.503   9.559   9.574
47843SOL    HW243556   7.610   9.439   9.606
47844SOL     OW43557   8.631  10.645   9.429
47844SOL    HW143558   8.532  10.634   9.431
47844SOL    HW243559   8.665  10.660   9.522
47845SOL     OW43560   8.061  10.152  10.741
47845SOL    HW143561   8.117  10.233  10.724
47845SOL    HW243562   8.120  10.072  10.744
47846SOL     OW43563   8.941  11.077  10.269
47846SOL    HW143564   8.974  11.141  10.200
47846SOL    HW243565   9.007  11.071  10.344
47847SOL     OW43566   8.164   9.875  11.018
47847SOL    HW143567   8.183   9.940  11.092
47847SOL    HW243568   8.224   9.795  11.027
47848SOL     OW43569   8.898  10.530  10.943
47848SOL    HW143570   8.889  10.520  11.042
47848SOL    HW243571   8.994  10.523  10.917
47849SOL     OW43572   7.838  11.051  10.870
47849SOL    HW143573   7.747  11.092  10.868
47849SOL    HW243574   7.831  10.957  10.902
47850SOL     OW43575   9.122  10.193  10.564
47850SOL    HW143576   9.095  10.104  10.527
47850SOL    HW243577   9.123  10.261  10.491
47851SOL     OW43578   8.673   9.635   9.759
47851SOL    HW143579   8.738   9.561   9.748
47851SOL    HW243580   8.693   9.685   9.843
47852SOL     OW43581   8.042  10.055   9.962
47852SOL    HW143582   8.092  10.140   9.943
47852SOL    HW243583   7.954  10.057   9.914
47853SOL     OW43584   9.225   9.652  10.952
47853SOL    HW143585   9.208   9.683  10.858
47853SOL    HW243586   9.141   9.615  10.990
47854SOL     OW43587   9.178  10.244  10.827
47854SOL    HW143588   9.216  10.335  10.842
47854SOL    HW243589   9.170  10.227  10.728
47855SOL     OW43590   8.307  10.684   9.326
47855SOL    HW143591   8.261  10.699   9.414
47855SOL    HW243592   8.351  10.769   9.296
47856SOL     OW43593   8.109  11.100  10.263
47856SOL    HW143594   8.063  11.188  10.250
47856SOL    HW243595   8.208  11.112  10.256
47857SOL     OW43596   8.307  10.266  10.171
47857SOL    HW143597   8.361  10.197  10.219
47857SOL    HW243598   8.275  10.335  10.237
47858SOL     OW43599   8.531  10.294   9.397
47858SOL    HW143600   8.508  10.347   9.315
47858SOL    HW243601   8.612  10.238   9.378
47859SOL     OW43602   9.309  10.879  10.161
47859SOL    HW143603   9.238  10.867  10.091
47859SOL    HW243604   9.310  10.800  10.221
47860SOL     OW43605   7.669  10.624  11.154
47860SOL    HW143606   7.604  10.551  11.133
47860SOL    HW243607   7.673  10.638  11.252
47861SOL     OW43608   7.527  10.550   9.963
47861SOL    HW143609   7.526  10.503  10.051
47861SOL    HW243610   7.609  10.522   9.912
47862SOL     OW43611   8.120  10.701  10.934
47862SOL    HW143612   8.042  10.651  10.972
47862SOL    HW243613   8.117  10.796  10.965
47863SOL     OW43614   9.272   9.502  10.537
47863SOL    HW143615   9.268   9.412  10.581
47863SOL    HW243616   9.275   9.491  10.438
47864SOL     OW43617   7.876   9.734   9.830
47864SOL    HW143618   7.906   9.662   9.768
47864SOL    HW243619   7.837   9.694   9.913
47865SOL     OW43620   9.153  10.797  10.414
47865SOL    HW143621   9.060  10.772  10.387
47865SOL    HW243622   9.179  10.747  10.496
47866SOL     OW43623   7.765   9.857  10.590
47866SOL    HW143624   7.803   9.798  10.662
47866SOL    HW243625   7.805   9.831  10.502
47867SOL     OW43626   8.260  10.896   9.997
47867SOL    HW143627   8.292  10.906   9.903
47867SOL    HW243628   8.181  10.834   9.999
47868SOL     OW43629   8.872   9.524  10.422
47868SOL    HW143630   8.924   9.459  10.477
47868SOL    HW243631   8.823   9.587  10.483
47869SOL     OW43632   8.449   9.344  10.464
47869SOL    HW143633   8.386   9.272  10.433
47869SOL    HW243634   8.542   9.308  10.464
47870SOL     OW43635   8.218  10.640   9.611
47870SOL    HW143636   8.172  10.553   9.628
47870SOL    HW243637   8.309  10.637   9.652
47871SOL     OW43638   8.066  10.877  10.594
47871SOL    HW143639   8.061  10.959  10.651
47871SOL    HW243640   8.155  10.874  10.549
47872SOL     OW43641   8.800   9.362   9.478
47872SOL    HW143642   8.835   9.321   9.394
47872SOL    HW243643   8.710   9.324   9.498
47873SOL     OW43644   8.748   9.763  10.001
47873SOL    HW143645   8.689   9.843  10.005
47873SOL    HW243646   8.763   9.728  10.094
47874SOL     OW43647   9.041   9.531  10.192
47874SOL    HW143648   8.957   9.530  10.246
47874SOL    HW243649   9.043   9.614  10.136
47875SOL     OW43650   7.487  10.387   9.610
47875SOL    HW143651   7.586  10.376   9.601
47875SOL    HW243652   7.447  10.301   9.642
47876SOL     OW43653   8.323  10.956   9.647
47876SOL    HW143654   8.246  10.921   9.593
47876SOL    HW243655   8.291  11.027   9.709
47877SOL     OW43656   7.678   9.938  11.285
47877SOL    HW143657   7.585   9.936  11.322
47877SOL    HW243658   7.679   9.899  11.193
47878SOL     OW43659   7.673   9.585  12.168
47878SOL    HW143660   7.708   9.568  12.260
47878SOL    HW243661   7.585   9.540  12.156
47879SOL     OW43662   7.467   9.678  11.819
47879SOL    HW143663   7.385   9.721  11.858
47879SOL    HW243664   7.439   9.605  11.756
47880SOL     OW43665   8.017  10.585  12.337
47880SOL    HW143666   7.924  10.578  12.300
47880SOL    HW243667   8.028  10.674  12.381
47881SOL     OW43668   9.003  10.821  11.875
47881SOL    HW143669   8.946  10.805  11.956
47881SOL    HW243670   8.944  10.831  11.795
47882SOL     OW43671   8.583  10.013  11.889
47882SOL    HW143672   8.640  10.091  11.864
47882SOL    HW243673   8.523  10.039  11.965
47883SOL     OW43674   9.203   9.917  11.403
47883SOL    HW143675   9.191   9.904  11.304
47883SOL    HW243676   9.173   9.836  11.452
47884SOL     OW43677   8.216  10.454  12.195
47884SOL    HW143678   8.138  10.471  12.255
47884SOL    HW243679   8.250  10.541  12.159
47885SOL     OW43680   8.133  10.322  11.837
47885SOL    HW143681   8.202  10.306  11.907
47885SOL    HW243682   8.060  10.379  11.875
47886SOL     OW43683   7.783  10.745  12.233
47886SOL    HW143684   7.705  10.714  12.180
47886SOL    HW243685   7.841  10.803  12.176
47887SOL     OW43686   8.908  10.815  12.511
47887SOL    HW143687   8.932  10.909  12.537
47887SOL    HW243688   8.892  10.761  12.593
47888SOL     OW43689   7.886   9.702  12.671
47888SOL    HW143690   7.968   9.646  12.680
47888SOL    HW243691   7.805   9.644  12.675
47889SOL     OW43692   9.051   9.757  11.909
47889SOL    HW143693   8.977   9.803  11.859
47889SOL    HW243694   9.102   9.825  11.962
47890SOL     OW43695   7.679  11.023  11.655
47890SOL    HW143696   7.713  11.100  11.709
47890SOL    HW243697   7.723  11.023  11.565
47891SOL     OW43698   7.678  10.744  11.710
47891SOL    HW143699   7.652  10.840  11.710
47891SOL    HW243700   7.607  10.690  11.755
47892SOL     OW43701   7.688  10.401  12.058
47892SOL    HW143702   7.702  10.317  12.110
47892SOL    HW243703   7.633  10.465  12.113
47893SOL     OW43704   8.068  11.096  12.611
47893SOL    HW143705   7.976  11.079  12.646
47893SOL    HW243706   8.096  11.188  12.637
47894SOL     OW43707   8.054  10.274  11.295
47894SOL    HW143708   8.061  10.358  11.241
47894SOL    HW243709   8.100  10.287  11.383
47895SOL     OW43710   9.042   9.424  12.652
47895SOL    HW143711   9.024   9.491  12.580
47895SOL    HW243712   9.039   9.470  12.741
47896SOL     OW43713   7.570   9.953  11.735
47896SOL    HW143714   7.525   9.865  11.752
47896SOL    HW243715   7.569  10.007  11.819
47897SOL     OW43716   9.290  11.077  11.531
47897SOL    HW143717   9.344  11.048  11.611
47897SOL    HW243718   9.320  11.167  11.502
47898SOL     OW43719   7.475  10.906  11.289
47898SOL    HW143720   7.456  10.810  11.310
47898SOL    HW243721   7.442  10.964  11.364
47899SOL     OW43722   9.137  10.232  11.784
47899SOL    HW143723   9.232  10.203  11.792
47899SOL    HW243724   9.129  10.297  11.709
47900SOL     OW43725   9.089  10.418  11.604
47900SOL    HW143726   9.175  10.420  11.552
47900SOL    HW243727   9.103  10.465  11.692
47901SOL     OW43728   8.061  10.675  11.898
47901SOL    HW143729   8.012  10.588  11.907
47901SOL    HW243730   8.038  10.718  11.811
47902SOL     OW43731   8.257   9.314  11.674
47902SOL    HW143732   8.297   9.405  11.665
47902SOL    HW243733   8.157   9.322  11.680
47903SOL     OW43734   7.645  10.286  12.436
47903SOL    HW143735   7.734  10.241  12.422
47903SOL    HW243736   7.572  10.221  12.417
47904SOL     OW43737   8.973  10.309  11.362
47904SOL    HW143738   8.910  10.233  11.375
47904SOL    HW243739   9.021  10.327  11.448
47905SOL     OW43740   7.765   9.561  12.973
47905SOL    HW143741   7.836   9.632  12.979
47905SOL    HW243742   7.677   9.600  13.001
47906SOL     OW43743   8.914  10.727  12.125
47906SOL    HW143744   8.855  10.733  12.205
47906SOL    HW243745   8.899  10.639  12.079
47907SOL     OW43746   9.115  11.024  11.744
47907SOL    HW143747   9.074  11.001  11.656
47907SOL    HW243748   9.097  10.950  11.809
47908SOL     OW43749   8.046  10.039  11.442
47908SOL    HW143750   8.070  10.108  11.374
47908SOL    HW243751   7.968  10.072  11.496
47909SOL     OW43752   8.729   9.655  12.116
47909SOL    HW143753   8.643   9.605  12.103
47909SOL    HW243754   8.791   9.601  12.172
47910SOL     OW43755   9.024  10.972  11.479
47910SOL    HW143756   9.113  11.018  11.482
47910SOL    HW243757   9.003  10.948  11.384
47911SOL     OW43758   8.255   9.915  12.637
47911SOL    HW143759   8.208   9.912  12.726
47911SOL    HW243760   8.204   9.860  12.571
47912SOL     OW43761   8.439   9.720  12.414
47912SOL    HW143762   8.362   9.754  12.468
47912SOL    HW243763   8.405   9.669  12.335
47913SOL     OW43764   8.489  10.011  11.601
47913SOL    HW143765   8.515  10.007  11.697
47913SOL    HW243766   8.404   9.960  11.587
47914SOL     OW43767   7.524  10.121  11.961
47914SOL    HW143768   7.623  10.109  11.970
47914SOL    HW243769   7.500  10.216  11.982
47915SOL     OW43770   7.578  11.131  12.743
47915SOL    HW143771   7.568  11.116  12.842
47915SOL    HW243772   7.492  11.167  12.707
47916SOL     OW43773   8.313   9.658  11.367
47916SOL    HW143774   8.372   9.721  11.318
47916SOL    HW243775   8.332   9.564  11.338
47917SOL     OW43776   8.810  10.454  11.717
47917SOL    HW143777   8.893  10.425  11.669
47917SOL    HW243778   8.761  10.521  11.661
47918SOL     OW43779   7.998   9.506  12.057
47918SOL    HW143780   7.993   9.501  12.157
47918SOL    HW243781   8.000   9.602  12.028
47919SOL     OW43782   8.456  10.766  11.649
47919SOL    HW143783   8.410  10.838  11.597
47919SOL    HW243784   8.452  10.786  11.747
47920SOL     OW43785   7.799  11.111  12.025
47920SOL    HW143786   7.849  11.025  12.031
47920SOL    HW243787   7.864  11.188  12.022
47921SOL     OW43788   9.243  10.376  12.045
47921SOL    HW143789   9.181  10.361  11.969
47921SOL    HW243790   9.191  10.387  12.130
47922SOL     OW43791   7.769  10.253  11.414
47922SOL    HW143792   7.851  10.292  11.372
47922SOL    HW243793   7.742  10.171  11.365
47923SOL     OW43794   8.906  10.045  11.900
47923SOL    HW143795   8.901   9.980  11.975
47923SOL    HW243796   8.986  10.104  11.913
47924SOL     OW43797   8.559  11.086  11.409
47924SOL    HW143798   8.499  11.024  11.459
47924SOL    HW243799   8.590  11.042  11.324
47925SOL     OW43800   7.650   9.595  12.670
47925SOL    HW143801   7.570   9.655  12.657
47925SOL    HW243802   7.640   9.546  12.756
47926SOL     OW43803   9.080  10.687  11.253
47926SOL    HW143804   9.048  10.781  11.243
47926SOL    HW243805   9.004  10.624  11.241
47927SOL     OW43806   7.912  11.053  11.495
47927SOL    HW143807   7.945  11.092  11.581
47927SOL    HW243808   7.988  11.046  11.430
47928SOL     OW43809   8.848   9.417  11.598
47928SOL    HW143810   8.824   9.380  11.508
47928SOL    HW243811   8.947   9.433  11.602
47929SOL     OW43812   7.697  11.095  12.413
47929SOL    HW143813   7.754  11.030  12.463
47929SOL    HW243814   7.681  11.062  12.320
47930SOL     OW43815   8.388  11.008  12.076
47930SOL    HW143816   8.468  10.951  12.097
47930SOL    HW243817   8.339  10.968  11.999
47931SOL     OW43818   7.830  10.010  11.652
47931SOL    HW143819   7.875   9.920  11.649
47931SOL    HW243820   7.736   9.999  11.685
47932SOL     OW43821   8.062   9.432  11.289
47932SOL    HW143822   8.160   9.410  11.296
47932SOL    HW243823   8.031   9.415  11.196
47933SOL     OW43824   8.336  10.824  12.367
47933SOL    HW143825   8.313  10.799  12.273
47933SOL    HW243826   8.397  10.755  12.406
47934SOL     OW43827   8.251  10.712  12.096
47934SOL    HW143828   8.341  10.726  12.054
47934SOL    HW243829   8.180  10.714  12.025
47935SOL     OW43830   8.370   9.813  12.071
47935SOL    HW143831   8.345   9.804  11.975
47935SOL    HW243832   8.418   9.731  12.102
47936SOL     OW43833   7.987   9.374  11.684
47936SOL    HW143834   7.906   9.375  11.742
47936SOL    HW243835   7.990   9.457  11.629
47937SOL     OW43836   8.882  10.498  11.213
47937SOL    HW143837   8.914  10.422  11.270
47937SOL    HW243838   8.790  10.525  11.243
47938SOL     OW43839   7.745   9.345  11.343
47938SOL    HW143840   7.794   9.429  11.322
47938SOL    HW243841   7.807   9.280  11.388
47939SOL     OW43842   8.383   9.546  11.652
47939SOL    HW143843   8.335   9.587  11.574
47939SOL    HW243844   8.482   9.544  11.633
47940SOL     OW43845   8.675  10.880  11.965
47940SOL    HW143846   8.696  10.954  11.900
47940SOL    HW243847   8.743  10.880  12.038
47941SOL     OW43848   7.907  10.462  11.913
47941SOL    HW143849   7.836  10.435  11.978
47941SOL    HW243850   7.881  10.434  11.820
47942SOL     OW43851   8.719  11.107  11.763
47942SOL    HW143852   8.763  11.171  11.699
47942SOL    HW243853   8.669  11.159  11.833
47943SOL     OW43854   8.480   9.859  11.188
47943SOL    HW143855   8.439   9.941  11.149
47943SOL    HW243856   8.544   9.885  11.261
47944SOL     OW43857   7.526   9.866  12.558
47944SOL    HW143858   7.618   9.865  12.517
47944SOL    HW243859   7.520   9.940  12.625
47945SOL     OW43860   8.009   9.532  12.319
47945SOL    HW143861   8.047   9.448  12.356
47945SOL    HW243862   7.921   9.551  12.363
47946SOL     OW43863   8.314   9.764  11.814
47946SOL    HW143864   8.282   9.836  11.752
47946SOL    HW243865   8.338   9.683  11.761
47947SOL     OW43866   8.465   9.349  11.925
47947SOL    HW143867   8.393   9.354  11.856
47947SOL    HW243868   8.441   9.280  11.994
47948SOL     OW43869   8.877  10.483  12.039
47948SOL    HW143870   8.822  10.399  12.032
47948SOL    HW243871   8.903  10.512  11.947
47949SOL     OW43872   8.914   9.900  12.164
47949SOL    HW143873   8.884   9.805  12.171
47949SOL    HW243874   8.987   9.916  12.230
47950SOL     OW43875   9.305  10.143  11.549
47950SOL    HW143876   9.347  10.079  11.613
47950SOL    HW243877   9.267  10.092  11.471
47951SOL     OW43878   7.936  10.695  11.346
47951SOL    HW143879   7.849  10.680  11.393
47951SOL    HW243880   7.919  10.721  11.251
47952SOL     OW43881   9.112  10.590  11.829
47952SOL    HW143882   9.211  10.598  11.843
47952SOL    HW243883   9.067  10.674  11.860
47953SOL     OW43884   8.838   9.885  11.250
47953SOL    HW143885   8.784   9.864  11.331
47953SOL    HW243886   8.929   9.844  11.259
47954SOL     OW43887   7.975   9.566  11.500
47954SOL    HW143888   8.002   9.507  11.425
47954SOL    HW243889   7.975   9.661  11.469
47955SOL     OW43890   8.512  10.657  12.512
47955SOL    HW143891   8.432  10.634  12.567
47955SOL    HW243892   8.595  10.631  12.561
47956SOL     OW43893   8.559  10.505  12.272
47956SOL    HW143894   8.519  10.549  12.353
47956SOL    HW243895   8.518  10.542  12.189
47957SOL     OW43896   9.086  10.409  12.251
47957SOL    HW143897   9.091  10.490  12.310
47957SOL    HW243898   9.000  10.411  12.200
47958SOL     OW43899   8.363   9.399  12.574
47958SOL    HW143900   8.388   9.379  12.479
47958SOL    HW243901   8.435   9.455  12.616
47959SOL     OW43902   8.153  10.360  11.540
47959SOL    HW143903   8.139  10.367  11.639
47959SOL    HW243904   8.237  10.309  11.522
47960SOL     OW43905   7.858  10.123  12.423
47960SOL    HW143906   7.944  10.135  12.473
47960SOL    HW243907   7.816  10.036  12.450
47961SOL     OW43908   8.722   9.696  12.434
47961SOL    HW143909   8.743   9.770  12.498
47961SOL    HW243910   8.633   9.713  12.391
47962SOL     OW43911   7.512  10.874  12.503
47962SOL    HW143912   7.466  10.956  12.469
47962SOL    HW243913   7.610  10.893  12.512
47963SOL     OW43914   7.815  10.410  11.673
47963SOL    HW143915   7.808  10.493  11.617
47963SOL    HW243916   7.819  10.330  11.613
47964SOL     OW43917   8.014   9.847  12.037
47964SOL    HW143918   8.026   9.913  11.963
47964SOL    HW243919   8.060   9.881  12.120
47965SOL     OW43920   8.700  10.658  11.560
47965SOL    HW143921   8.750  10.735  11.600
47965SOL    HW243922   8.605  10.660  11.592
47966SOL     OW43923   8.720  10.755  12.314
47966SOL    HW143924   8.767  10.768  12.401
47966SOL    HW243925   8.654  10.681  12.323
47967SOL     OW43926   9.030   9.949  11.644
47967SOL    HW143927   8.999  10.010  11.717
47967SOL    HW243928   9.080  10.001  11.575
47968SOL     OW43929   7.802  10.820  12.501
47968SOL    HW143930   7.781  10.776  12.414
47968SOL    HW243931   7.899  10.846  12.504
47969SOL     OW43932   7.850  10.061  12.770
47969SOL    HW143933   7.918  10.116  12.723
47969SOL    HW243934   7.890   9.973  12.797
47970SOL     OW43935   9.035  10.089  12.842
47970SOL    HW143936   8.943  10.127  12.837
47970SOL    HW243937   9.095  10.136  12.777
47971SOL     OW43938   8.021  10.180  12.201
47971SOL    HW143939   8.065  10.269  12.192
47971SOL    HW243940   7.958  10.180  12.278
47972SOL     OW43941   8.808  10.172  12.217
47972SOL    HW143942   8.733  10.172  12.151
47972SOL    HW243943   8.845  10.080  12.226
47973SOL     OW43944   8.657   9.835  11.447
47973SOL    HW143945   8.670   9.751  11.501
47973SOL    HW243946   8.628   9.909  11.507
47974SOL     OW43947   7.755   9.523  12.403
47974SOL    HW143948   7.732   9.560  12.493
47974SOL    HW243949   7.725   9.428  12.397
47975SOL     OW43950   7.485  10.620  12.454
47975SOL    HW143951   7.538  10.571  12.522
47975SOL    HW243952   7.507  10.718  12.459
47976SOL     OW43953   8.180   9.944  12.236
47976SOL    HW143954   8.239   9.918  12.160
47976SOL    HW243955   8.152  10.040  12.225
47977SOL     OW43956   7.755   9.373  11.790
47977SOL    HW143957   7.744   9.467  11.823
47977SOL    HW243958   7.750   9.310  11.867
47978SOL     OW43959   9.070   9.677  11.546
47978SOL    HW143960   9.072   9.601  11.610
47978SOL    HW243961   9.022   9.754  11.586
47979SOL     OW43962   8.471  10.076  12.138
47979SOL    HW143963   8.486  10.097  12.234
47979SOL    HW243964   8.441   9.981  12.129
47980SOL     OW43965   8.428  10.883  12.872
47980SOL    HW143966   8.408  10.927  12.784
47980SOL    HW243967   8.467  10.792  12.856
47981SOL     OW43968   8.988   9.584  11.297
47981SOL    HW143969   8.927   9.509  11.320
47981SOL    HW243970   9.010   9.636  11.380
47982SOL     OW43971   8.751  10.148  11.214
47982SOL    HW143972   8.785  10.055  11.229
47982SOL    HW243973   8.769  10.175  11.119
47983SOL     OW43974   8.516  10.643  12.021
47983SOL    HW143975   8.523  10.559  11.966
47983SOL    HW243976   8.578  10.712  11.985
47984SOL     OW43977   7.767  10.120  12.121
47984SOL    HW143978   7.860  10.156  12.126
47984SOL    HW243979   7.761  10.035  12.173
47985SOL     OW43980   7.787   9.819  12.178
47985SOL    HW143981   7.735   9.736  12.161
47985SOL    HW243982   7.864   9.824  12.114
47986SOL     OW43983   8.586   9.690  12.850
47986SOL    HW143984   8.541   9.753  12.914
47986SOL    HW243985   8.679   9.721  12.833
47987SOL     OW43986   8.608   9.517  12.649
47987SOL    HW143987   8.608   9.581  12.726
47987SOL    HW243988   8.636   9.565  12.566
47988SOL     OW43989   7.456  10.636  11.372
47988SOL    HW143990   7.363  10.657  11.341
47988SOL    HW243991   7.466  10.537  11.385
47989SOL     OW43992   7.536  11.111  12.099
47989SOL    HW143993   7.494  11.025  12.072
47989SOL    HW243994   7.630  11.114  12.065
47990SOL     OW43995   7.952  10.878  12.082
47990SOL    HW143996   8.018  10.952  12.091
47990SOL    HW243997   7.996  10.799  12.040
47991SOL     OW43998   8.450  10.106  12.410
47991SOL    HW143999   8.491  10.074  12.496
47991SOL    HW244000   8.354  10.079  12.407
47992SOL     OW44001   7.488   9.854  12.286
47992SOL    HW144002   7.573   9.821  12.245
47992SOL    HW244003   7.501   9.869  12.384
47993SOL     OW44004   8.263   9.882  11.497
47993SOL    HW144005   8.270   9.793  11.451
47993SOL    HW244006   8.169   9.916  11.489
47994SOL     OW44007   9.105   9.914  12.378
47994SOL    HW144008   9.067   9.845  12.440
47994SOL    HW244009   9.187   9.878  12.334
47995SOL     OW44010   8.119   9.774  12.441
47995SOL    HW144011   8.085   9.685  12.411
47995SOL    HW244012   8.145   9.828  12.361
47996SOL     OW44013   8.378  10.988  12.637
47996SOL    HW144014   8.354  10.970  12.542
47996SOL    HW244015   8.408  11.082  12.647
47997SOL     OW44016   7.921   9.810  11.363
47997SOL    HW144017   7.982   9.890  11.367
47997SOL    HW244018   7.826   9.841  11.370
47998SOL     OW44019   7.607  10.447  12.638
47998SOL    HW144020   7.629  10.386  12.714
47998SOL    HW244021   7.617  10.398  12.552
47999SOL     OW44022   8.795  10.369  12.406
47999SOL    HW144023   8.819  10.306  12.332
47999SOL    HW244024   8.705  10.409  12.388
48000SOL     OW44025   8.750  10.165  11.481
48000SOL    HW144026   8.664  10.134  11.523
48000SOL    HW244027   8.746  10.151  11.382
48001SOL     OW44028   9.207  11.057  12.326
48001SOL    HW144029   9.268  11.087  12.253
48001SOL    HW244030   9.169  10.968  12.304
48002SOL     OW44031   8.700  11.041  12.300
48002SOL    HW144032   8.784  11.046  12.246
48002SOL    HW244033   8.677  10.945  12.318
48003SOL     OW44034   7.531  10.568  12.194
48003SOL    HW144035   7.526  10.567  12.294
48003SOL    HW244036   7.448  10.527  12.156
48004SOL     OW44037   9.174   9.445  11.695
48004SOL    HW144038   9.247   9.428  11.628
48004SOL    HW244039   9.143   9.358  11.733
48005SOL     OW44040   8.836  10.883  11.649
48005SOL    HW144041   8.903  10.895  11.575
48005SOL    HW244042   8.796  10.972  11.672
48006SOL     OW44043   8.728  10.237  11.844
48006SOL    HW144044   8.788  10.156  11.846
48006SOL    HW244045   8.768  10.306  11.784
48007SOL     OW44046   8.120  10.926  11.326
48007SOL    HW144047   8.129  10.936  11.227
48007SOL    HW244048   8.080  10.837  11.347
48008SOL     OW44049   9.098  11.030  12.566
48008SOL    HW144050   9.151  11.040  12.482
48008SOL    HW244051   9.071  11.120  12.600
48009SOL     OW44052   9.289   9.485  12.135
48009SOL    HW144053   9.328   9.400  12.099
48009SOL    HW244054   9.191   9.487  12.116
48010SOL     OW44055   7.711   9.636  11.892
48010SOL    HW144056   7.632   9.687  11.858
48010SOL    HW244057   7.702   9.621  11.990
48011SOL     OW44058   8.642  10.922  11.203
48011SOL    HW144059   8.648  10.829  11.240
48011SOL    HW244060   8.583  10.922  11.123
48012SOL     OW44061   8.270  10.312  12.544
48012SOL    HW144062   8.310  10.311  12.452
48012SOL    HW244063   8.280  10.404  12.584
48013SOL     OW44064   8.364  10.220  11.463
48013SOL    HW144065   8.427  10.258  11.395
48013SOL    HW244066   8.404  10.137  11.502
48014SOL     OW44067   8.952  10.917  11.216
48014SOL    HW144068   8.860  10.954  11.223
48014SOL    HW244069   8.990  10.937  11.126
48015SOL     OW44070   7.820  10.598  12.662
48015SOL    HW144071   7.807  10.691  12.628
48015SOL    HW244072   7.736  10.546  12.649
48016SOL     OW44073   9.062  10.602  12.461
48016SOL    HW144074   9.122  10.605  12.541
48016SOL    HW244075   8.987  10.666  12.474
48017SOL     OW44076   8.487  10.408  11.868
48017SOL    HW144077   8.417  10.361  11.922
48017SOL    HW244078   8.546  10.340  11.825
48018SOL     OW44079   8.462   9.546  12.143
48018SOL    HW144080   8.454   9.510  12.050
48018SOL    HW244081   8.460   9.470  12.208
48019SOL     OW44082   8.038  10.797  11.663
48019SOL    HW144083   8.080  10.739  11.593
48019SOL    HW244084   7.994  10.876  11.619
48020SOL     OW44085   9.157   9.695  12.553
48020SOL    HW144086   9.230   9.764  12.557
48020SOL    HW244087   9.185   9.620  12.494
48021SOL     OW44088   7.703  10.658  11.462
48021SOL    HW144089   7.607  10.659  11.435
48021SOL    HW244090   7.715  10.711  11.546
48022SOL     OW44091   7.523   9.655  11.205
48022SOL    HW144092   7.431   9.627  11.176
48022SOL    HW244093   7.554   9.732  11.149
48023SOL     OW44094   8.888  10.166  12.570
48023SOL    HW144095   8.831  10.218  12.507
48023SOL    HW244096   8.984  10.178  12.546
48024SOL     OW44097   7.520   9.476  11.490
48024SOL    HW144098   7.503   9.559  11.436
48024SOL    HW244099   7.610   9.439  11.468
48025SOL     OW44100   8.631  10.645  11.291
48025SOL    HW144101   8.532  10.634  11.293
48025SOL    HW244102   8.665  10.660  11.384
48026SOL     OW44103   8.061  10.152  12.603
48026SOL    HW144104   8.117  10.233  12.586
48026SOL    HW244105   8.120  10.072  12.606
48027SOL     OW44106   8.941  11.077  12.131
48027SOL    HW144107   8.974  11.141  12.062
48027SOL    HW244108   9.007  11.071  12.206
48028SOL     OW44109   7.838  11.051  12.732
48028SOL    HW144110   7.747  11.092  12.730
48028SOL    HW244111   7.831  10.957  12.764
48029SOL     OW44112   9.122  10.193  12.426
48029SOL    HW144113   9.095  10.104  12.389
48029SOL    HW244114   9.123  10.261  12.353
48030SOL     OW44115   8.673   9.635  11.621
48030SOL    HW144116   8.738   9.561  11.610
48030SOL    HW244117   8.693   9.685  11.705
48031SOL     OW44118   8.042  10.055  11.824
48031SOL    HW144119   8.092  10.140  11.805
48031SOL    HW244120   7.954  10.057  11.776
48032SOL     OW44121   9.225   9.652  12.814
48032SOL    HW144122   9.208   9.683  12.720
48032SOL    HW244123   9.141   9.615  12.852
48033SOL     OW44124   9.178  10.244  12.689
48033SOL    HW144125   9.216  10.335  12.704
48033SOL    HW244126   9.170  10.227  12.590
48034SOL     OW44127   8.307  10.684  11.188
48034SOL    HW144128   8.261  10.699  11.276
48034SOL    HW244129   8.351  10.769  11.158
48035SOL     OW44130   8.109  11.100  12.125
48035SOL    HW144131   8.063  11.188  12.112
48035SOL    HW244132   8.208  11.112  12.118
48036SOL     OW44133   8.307  10.266  12.033
48036SOL    HW144134   8.361  10.197  12.081
48036SOL    HW244135   8.275  10.335  12.099
48037SOL     OW44136   8.531  10.294  11.259
48037SOL    HW144137   8.508  10.347  11.177
48037SOL    HW244138   8.612  10.238  11.240
48038SOL     OW44139   9.309  10.879  12.023
48038SOL    HW144140   9.238  10.867  11.953
48038SOL    HW244141   9.310  10.800  12.083
48039SOL     OW44142   7.527  10.550  11.825
48039SOL    HW144143   7.526  10.503  11.913
48039SOL    HW244144   7.609  10.522  11.774
48040SOL     OW44145   9.272   9.502  12.399
48040SOL    HW144146   9.268   9.412  12.443
48040SOL    HW244147   9.275   9.491  12.300
48041SOL     OW44148   7.876   9.734  11.692
48041SOL    HW144149   7.906   9.662  11.630
48041SOL    HW244150   7.837   9.694  11.775
48042SOL     OW44151   9.153  10.797  12.276
48042SOL    HW144152   9.060  10.772  12.249
48042SOL    HW244153   9.179  10.747  12.358
48043SOL     OW44154   7.765   9.857  12.452
48043SOL    HW144155   7.803   9.798  12.524
48043SOL    HW244156   7.805   9.831  12.364
48044SOL     OW44157   8.260  10.896  11.859
48044SOL    HW144158   8.292  10.906  11.765
48044SOL    HW244159   8.181  10.834  11.861
48045SOL     OW44160   8.872   9.524  12.284
48045SOL    HW144161   8.924   9.459  12.339
48045SOL    HW244162   8.823   9.587  12.345
48046SOL     OW44163   8.449   9.344  12.326
48046SOL    HW144164   8.386   9.272  12.295
48046SOL    HW244165   8.542   9.308  12.326
48047SOL     OW44166   8.218  10.640  11.473
48047SOL    HW144167   8.172  10.553  11.490
48047SOL    HW244168   8.309  10.637  11.514
48048SOL     OW44169   8.066  10.877  12.456
48048SOL    HW144170   8.061  10.959  12.513
48048SOL    HW244171   8.155  10.874  12.411
48049SOL     OW44172   8.800   9.362  11.340
48049SOL    HW144173   8.835   9.321  11.256
48049SOL    HW244174   8.710   9.324  11.360
48050SOL     OW44175   8.748   9.763  11.863
48050SOL    HW144176   8.689   9.843  11.867
48050SOL    HW244177   8.763   9.728  11.956
48051SOL     OW44178   9.041   9.531  12.054
48051SOL    HW144179   8.957   9.530  12.108
48051SOL    HW244180   9.043   9.614  11.998
48052SOL     OW44181   7.487  10.387  11.472
48052SOL    HW144182   7.586  10.376  11.463
48052SOL    HW244183   7.447  10.301  11.504
48053SOL     OW44184   8.323  10.956  11.509
48053SOL    HW144185   8.246  10.921  11.455
48053SOL    HW244186   8.291  11.027  11.571
48054SOL     OW44187   7.678  11.800   0.113
48054SOL    HW144188   7.585  11.798   0.150
48054SOL    HW244189   7.679  11.761   0.021
48055SOL     OW44190   7.673  11.447   0.996
48055SOL    HW144191   7.708  11.430   1.088
48055SOL    HW244192   7.585  11.402   0.984
48056SOL     OW44193   7.467  11.540   0.647
48056SOL    HW144194   7.385  11.583   0.686
48056SOL    HW244195   7.439  11.467   0.584
48057SOL     OW44196   8.017  12.447   1.165
48057SOL    HW144197   7.924  12.440   1.128
48057SOL    HW244198   8.028  12.536   1.209
48058SOL     OW44199   9.003  12.683   0.703
48058SOL    HW144200   8.946  12.667   0.784
48058SOL    HW244201   8.944  12.693   0.623
48059SOL     OW44202   8.583  11.875   0.717
48059SOL    HW144203   8.640  11.953   0.692
48059SOL    HW244204   8.523  11.901   0.793
48060SOL     OW44205   9.203  11.779   0.231
48060SOL    HW144206   9.191  11.766   0.132
48060SOL    HW244207   9.173  11.698   0.280
48061SOL     OW44208   8.216  12.316   1.023
48061SOL    HW144209   8.138  12.333   1.083
48061SOL    HW244210   8.250  12.403   0.987
48062SOL     OW44211   8.298  11.970   1.823
48062SOL    HW144212   8.294  12.046   1.888
48062SOL    HW244213   8.320  12.006   1.732
48063SOL     OW44214   8.133  12.184   0.665
48063SOL    HW144215   8.202  12.168   0.735
48063SOL    HW244216   8.060  12.241   0.703
48064SOL     OW44217   8.134  12.333   1.803
48064SOL    HW144218   8.194  12.412   1.817
48064SOL    HW244219   8.048  12.364   1.762
48065SOL     OW44220   7.783  12.607   1.061
48065SOL    HW144221   7.705  12.576   1.008
48065SOL    HW244222   7.841  12.665   1.004
48066SOL     OW44223   8.908  12.677   1.339
48066SOL    HW144224   8.932  12.771   1.365
48066SOL    HW244225   8.892  12.623   1.421
48067SOL     OW44226   7.886  11.564   1.499
48067SOL    HW144227   7.968  11.508   1.508
48067SOL    HW244228   7.805  11.506   1.503
48068SOL     OW44229   9.051  11.619   0.737
48068SOL    HW144230   8.977  11.665   0.687
48068SOL    HW244231   9.102  11.687   0.790
48069SOL     OW44232   7.679  12.885   0.483
48069SOL    HW144233   7.713  12.962   0.537
48069SOL    HW244234   7.723  12.885   0.393
48070SOL     OW44235   8.575  12.513   1.690
48070SOL    HW144236   8.622  12.513   1.778
48070SOL    HW244237   8.527  12.426   1.679
48071SOL     OW44238   7.678  12.606   0.538
48071SOL    HW144239   7.652  12.702   0.538
48071SOL    HW244240   7.607  12.552   0.583
48072SOL     OW44241   7.688  12.263   0.886
48072SOL    HW144242   7.702  12.179   0.938
48072SOL    HW244243   7.633  12.327   0.941
48073SOL     OW44244   8.054  12.136   0.123
48073SOL    HW144245   8.061  12.220   0.069
48073SOL    HW244246   8.100  12.149   0.211
48074SOL     OW44247   9.042  11.286   1.480
48074SOL    HW144248   9.024  11.353   1.408
48074SOL    HW244249   9.039  11.332   1.569
48075SOL     OW44250   7.570  11.815   0.563
48075SOL    HW144251   7.525  11.727   0.580
48075SOL    HW244252   7.569  11.869   0.647
48076SOL     OW44253   7.475  12.768   0.117
48076SOL    HW144254   7.456  12.672   0.138
48076SOL    HW244255   7.442  12.826   0.192
48077SOL     OW44256   9.137  12.094   0.612
48077SOL    HW144257   9.232  12.065   0.620
48077SOL    HW244258   9.129  12.159   0.537
48078SOL     OW44259   9.089  12.280   0.432
48078SOL    HW144260   9.175  12.282   0.380
48078SOL    HW244261   9.103  12.327   0.520
48079SOL     OW44262   7.561  11.909   1.597
48079SOL    HW144263   7.649  11.896   1.642
48079SOL    HW244264   7.548  12.006   1.575
48080SOL     OW44265   8.061  12.537   0.726
48080SOL    HW144266   8.012  12.450   0.735
48080SOL    HW244267   8.038  12.580   0.639
48081SOL     OW44268   8.741  12.400   1.423
48081SOL    HW144269   8.778  12.327   1.365
48081SOL    HW244270   8.793  12.405   1.508
48082SOL     OW44271   8.257  11.176   0.502
48082SOL    HW144272   8.297  11.267   0.493
48082SOL    HW244273   8.157  11.184   0.508
48083SOL     OW44274   7.645  12.148   1.264
48083SOL    HW144275   7.734  12.103   1.250
48083SOL    HW244276   7.572  12.083   1.245
48084SOL     OW44277   8.973  12.171   0.190
48084SOL    HW144278   8.910  12.095   0.203
48084SOL    HW244279   9.021  12.189   0.276
48085SOL     OW44280   7.765  11.423   1.801
48085SOL    HW144281   7.836  11.494   1.807
48085SOL    HW244282   7.677  11.462   1.829
48086SOL     OW44283   8.914  12.589   0.953
48086SOL    HW144284   8.855  12.595   1.033
48086SOL    HW244285   8.899  12.501   0.907
48087SOL     OW44286   8.046  11.901   0.270
48087SOL    HW144287   8.070  11.970   0.202
48087SOL    HW244288   7.968  11.934   0.324
48088SOL     OW44289   8.729  11.517   0.944
48088SOL    HW144290   8.643  11.467   0.931
48088SOL    HW244291   8.791  11.463   1.000
48089SOL     OW44292   8.255  11.777   1.465
48089SOL    HW144293   8.208  11.774   1.554
48089SOL    HW244294   8.204  11.722   1.399
48090SOL     OW44295   8.842  11.641   1.674
48090SOL    HW144296   8.822  11.684   1.762
48090SOL    HW244297   8.920  11.579   1.683
48091SOL     OW44298   8.421  12.062   1.572
48091SOL    HW144299   8.467  11.978   1.543
48091SOL    HW244300   8.365  12.096   1.497
48092SOL     OW44301   8.439  11.582   1.242
48092SOL    HW144302   8.362  11.616   1.296
48092SOL    HW244303   8.405  11.531   1.163
48093SOL     OW44304   8.489  11.873   0.429
48093SOL    HW144305   8.515  11.869   0.525
48093SOL    HW244306   8.404  11.822   0.415
48094SOL     OW44307   7.524  11.983   0.789
48094SOL    HW144308   7.623  11.971   0.798
48094SOL    HW244309   7.500  12.078   0.810
48095SOL     OW44310   8.313  11.520   0.195
48095SOL    HW144311   8.372  11.583   0.146
48095SOL    HW244312   8.332  11.426   0.166
48096SOL     OW44313   9.167  11.757   1.831
48096SOL    HW144314   9.141  11.846   1.795
48096SOL    HW244315   9.165  11.689   1.758
48097SOL     OW44316   8.810  12.316   0.545
48097SOL    HW144317   8.893  12.287   0.497
48097SOL    HW244318   8.761  12.383   0.489
48098SOL     OW44319   7.998  11.368   0.885
48098SOL    HW144320   7.993  11.363   0.985
48098SOL    HW244321   8.000  11.464   0.856
48099SOL     OW44322   8.456  12.628   0.477
48099SOL    HW144323   8.410  12.700   0.425
48099SOL    HW244324   8.452  12.648   0.575
48100SOL     OW44325   9.243  12.238   0.873
48100SOL    HW144326   9.181  12.223   0.797
48100SOL    HW244327   9.191  12.249   0.958
48101SOL     OW44328   8.675  12.722   1.506
48101SOL    HW144329   8.681  12.645   1.570
48101SOL    HW244330   8.623  12.696   1.426
48102SOL     OW44331   7.769  12.115   0.242
48102SOL    HW144332   7.851  12.154   0.200
48102SOL    HW244333   7.742  12.033   0.193
48103SOL     OW44334   8.906  11.907   0.728
48103SOL    HW144335   8.901  11.842   0.803
48103SOL    HW244336   8.986  11.966   0.741
48104SOL     OW44337   7.909  12.438   1.727
48104SOL    HW144338   7.859  12.439   1.641
48104SOL    HW244339   7.846  12.420   1.803
48105SOL     OW44340   8.559  12.948   0.237
48105SOL    HW144341   8.499  12.886   0.287
48105SOL    HW244342   8.590  12.904   0.152
48106SOL     OW44343   7.650  11.457   1.498
48106SOL    HW144344   7.570  11.517   1.485
48106SOL    HW244345   7.640  11.408   1.584
48107SOL     OW44346   9.080  12.549   0.081
48107SOL    HW144347   9.048  12.643   0.071
48107SOL    HW244348   9.004  12.486   0.069
48108SOL     OW44349   8.848  11.279   0.426
48108SOL    HW144350   8.824  11.242   0.336
48108SOL    HW244351   8.947  11.295   0.430
48109SOL     OW44352   7.830  11.872   0.480
48109SOL    HW144353   7.875  11.782   0.477
48109SOL    HW244354   7.736  11.861   0.513
48110SOL     OW44355   8.995  11.394   1.729
48110SOL    HW144356   8.990  11.431   1.821
48110SOL    HW244357   8.923  11.325   1.717
48111SOL     OW44358   8.062  11.294   0.117
48111SOL    HW144359   8.160  11.272   0.124
48111SOL    HW244360   8.031  11.277   0.024
48112SOL     OW44361   8.229  11.436   1.749
48112SOL    HW144362   8.296  11.375   1.792
48112SOL    HW244363   8.156  11.455   1.814
48113SOL     OW44364   8.799  11.762   1.433
48113SOL    HW144365   8.827  11.719   1.518
48113SOL    HW244366   8.824  11.858   1.434
48114SOL     OW44367   8.251  12.574   0.924
48114SOL    HW144368   8.341  12.588   0.882
48114SOL    HW244369   8.180  12.576   0.853
48115SOL     OW44370   8.370  11.675   0.899
48115SOL    HW144371   8.345  11.666   0.803
48115SOL    HW244372   8.418  11.593   0.930
48116SOL     OW44373   7.987  11.236   0.512
48116SOL    HW144374   7.906  11.237   0.570
48116SOL    HW244375   7.990  11.319   0.457
48117SOL     OW44376   8.882  12.360   0.041
48117SOL    HW144377   8.914  12.284   0.098
48117SOL    HW244378   8.790  12.387   0.071
48118SOL     OW44379   7.745  11.207   0.171
48118SOL    HW144380   7.794  11.291   0.150
48118SOL    HW244381   7.807  11.142   0.216
48119SOL     OW44382   8.383  11.408   0.480
48119SOL    HW144383   8.335  11.449   0.402
48119SOL    HW244384   8.482  11.406   0.461
48120SOL     OW44385   8.524  11.855   1.464
48120SOL    HW144386   8.444  11.794   1.467
48120SOL    HW244387   8.605  11.802   1.440
48121SOL     OW44388   8.675  12.742   0.793
48121SOL    HW144389   8.696  12.816   0.728
48121SOL    HW244390   8.743  12.742   0.866
48122SOL     OW44391   7.907  12.324   0.741
48122SOL    HW144392   7.836  12.297   0.806
48122SOL    HW244393   7.881  12.296   0.648
48123SOL     OW44394   8.480  11.721   0.016
48123SOL    HW144395   8.439  11.803  -0.023
48123SOL    HW244396   8.544  11.747   0.089
48124SOL     OW44397   7.526  11.728   1.386
48124SOL    HW144398   7.618  11.727   1.345
48124SOL    HW244399   7.520  11.802   1.453
48125SOL     OW44400   8.009  11.394   1.147
48125SOL    HW144401   8.047  11.310   1.184
48125SOL    HW244402   7.921  11.413   1.191
48126SOL     OW44403   8.314  11.626   0.642
48126SOL    HW144404   8.282  11.698   0.580
48126SOL    HW244405   8.338  11.545   0.589
48127SOL     OW44406   8.465  11.211   0.753
48127SOL    HW144407   8.393  11.216   0.684
48127SOL    HW244408   8.441  11.142   0.822
48128SOL     OW44409   8.877  12.345   0.867
48128SOL    HW144410   8.822  12.261   0.860
48128SOL    HW244411   8.903  12.374   0.775
48129SOL     OW44412   8.914  11.762   0.992
48129SOL    HW144413   8.884  11.667   0.999
48129SOL    HW244414   8.987  11.778   1.058
48130SOL     OW44415   9.305  12.005   0.377
48130SOL    HW144416   9.347  11.941   0.441
48130SOL    HW244417   9.267  11.954   0.299
48131SOL     OW44418   7.936  12.557   0.174
48131SOL    HW144419   7.849  12.542   0.221
48131SOL    HW244420   7.919  12.583   0.079
48132SOL     OW44421   9.112  12.452   0.657
48132SOL    HW144422   9.211  12.460   0.671
48132SOL    HW244423   9.067  12.536   0.688
48133SOL     OW44424   8.838  11.747   0.078
48133SOL    HW144425   8.784  11.726   0.159
48133SOL    HW244426   8.929  11.706   0.087
48134SOL     OW44427   7.975  11.428   0.328
48134SOL    HW144428   8.002  11.369   0.253
48134SOL    HW244429   7.975  11.523   0.297
48135SOL     OW44430   9.202  12.395   1.588
48135SOL    HW144431   9.293  12.356   1.575
48135SOL    HW244432   9.210  12.491   1.612
48136SOL     OW44433   8.512  12.519   1.340
48136SOL    HW144434   8.432  12.496   1.395
48136SOL    HW244435   8.595  12.493   1.389
48137SOL     OW44436   8.559  12.367   1.100
48137SOL    HW144437   8.519  12.411   1.181
48137SOL    HW244438   8.518  12.404   1.017
48138SOL     OW44439   9.086  12.271   1.079
48138SOL    HW144440   9.091  12.352   1.138
48138SOL    HW244441   9.000  12.273   1.028
48139SOL     OW44442   8.363  11.261   1.402
48139SOL    HW144443   8.388  11.241   1.307
48139SOL    HW244444   8.435  11.317   1.444
48140SOL     OW44445   8.428  12.288   1.719
48140SOL    HW144446   8.329  12.294   1.729
48140SOL    HW244447   8.451  12.208   1.663
48141SOL     OW44448   8.153  12.222   0.368
48141SOL    HW144449   8.139  12.229   0.467
48141SOL    HW244450   8.237  12.171   0.350
48142SOL     OW44451   7.858  11.985   1.251
48142SOL    HW144452   7.944  11.997   1.301
48142SOL    HW244453   7.816  11.898   1.278
48143SOL     OW44454   8.722  11.558   1.262
48143SOL    HW144455   8.743  11.632   1.326
48143SOL    HW244456   8.633  11.575   1.219
48144SOL     OW44457   7.815  12.272   0.501
48144SOL    HW144458   7.808  12.355   0.445
48144SOL    HW244459   7.819  12.192   0.441
48145SOL     OW44460   8.014  11.709   0.865
48145SOL    HW144461   8.026  11.775   0.791
48145SOL    HW244462   8.060  11.743   0.948
48146SOL     OW44463   8.700  12.520   0.388
48146SOL    HW144464   8.750  12.597   0.428
48146SOL    HW244465   8.605  12.522   0.420
48147SOL     OW44466   8.720  12.617   1.142
48147SOL    HW144467   8.767  12.630   1.229
48147SOL    HW244468   8.654  12.543   1.151
48148SOL     OW44469   9.030  11.811   0.472
48148SOL    HW144470   8.999  11.872   0.545
48148SOL    HW244471   9.080  11.863   0.403
48149SOL     OW44472   7.802  12.682   1.329
48149SOL    HW144473   7.781  12.638   1.242
48149SOL    HW244474   7.899  12.708   1.332
48150SOL     OW44475   7.850  11.923   1.598
48150SOL    HW144476   7.918  11.978   1.551
48150SOL    HW244477   7.890  11.835   1.625
48151SOL     OW44478   9.035  11.951   1.670
48151SOL    HW144479   8.943  11.989   1.665
48151SOL    HW244480   9.095  11.998   1.605
48152SOL     OW44481   8.461  11.277   1.770
48152SOL    HW144482   8.467  11.362   1.718
48152SOL    HW244483   8.493  11.201   1.713
48153SOL     OW44484   7.952  11.222   1.740
48153SOL    HW144485   7.910  11.165   1.670
48153SOL    HW244486   7.886  11.291   1.772
48154SOL     OW44487   8.021  12.042   1.029
48154SOL    HW144488   8.065  12.131   1.020
48154SOL    HW244489   7.958  12.042   1.106
48155SOL     OW44490   8.808  12.034   1.045
48155SOL    HW144491   8.733  12.034   0.979
48155SOL    HW244492   8.845  11.942   1.054
48156SOL     OW44493   8.657  11.697   0.275
48156SOL    HW144494   8.670  11.613   0.329
48156SOL    HW244495   8.628  11.771   0.335
48157SOL     OW44496   7.755  11.385   1.231
48157SOL    HW144497   7.732  11.422   1.321
48157SOL    HW244498   7.725  11.290   1.225
48158SOL     OW44499   7.485  12.482   1.282
48158SOL    HW144500   7.538  12.433   1.350
48158SOL    HW244501   7.507  12.580   1.287
48159SOL     OW44502   8.180  11.806   1.064
48159SOL    HW144503   8.239  11.780   0.988
48159SOL    HW244504   8.152  11.902   1.053
48160SOL     OW44505   9.176  12.107   1.854
48160SOL    HW144506   9.130  12.100   1.765
48160SOL    HW244507   9.114  12.151   1.920
48161SOL     OW44508   7.755  11.235   0.618
48161SOL    HW144509   7.744  11.329   0.651
48161SOL    HW244510   7.750  11.172   0.695
48162SOL     OW44511   9.070  11.539   0.374
48162SOL    HW144512   9.072  11.463   0.438
48162SOL    HW244513   9.022  11.616   0.414
48163SOL     OW44514   8.471  11.938   0.966
48163SOL    HW144515   8.486  11.959   1.062
48163SOL    HW244516   8.441  11.843   0.957
48164SOL     OW44517   9.307  12.690   1.605
48164SOL    HW144518   9.321  12.717   1.510
48164SOL    HW244519   9.390  12.712   1.658
48165SOL     OW44520   7.798  12.070   1.804
48165SOL    HW144521   7.874  12.114   1.852
48165SOL    HW244522   7.833  12.023   1.722
48166SOL     OW44523   8.988  11.446   0.125
48166SOL    HW144524   8.927  11.371   0.148
48166SOL    HW244525   9.010  11.498   0.208
48167SOL     OW44526   8.751  12.010   0.042
48167SOL    HW144527   8.785  11.917   0.057
48167SOL    HW244528   8.769  12.037  -0.053
48168SOL     OW44529   8.516  12.505   0.849
48168SOL    HW144530   8.523  12.421   0.794
48168SOL    HW244531   8.578  12.574   0.813
48169SOL     OW44532   7.767  11.982   0.949
48169SOL    HW144533   7.860  12.018   0.954
48169SOL    HW244534   7.761  11.897   1.001
48170SOL     OW44535   7.787  11.681   1.006
48170SOL    HW144536   7.735  11.598   0.989
48170SOL    HW244537   7.864  11.686   0.942
48171SOL     OW44538   8.586  11.552   1.678
48171SOL    HW144539   8.541  11.615   1.742
48171SOL    HW244540   8.679  11.583   1.661
48172SOL     OW44541   8.608  11.379   1.477
48172SOL    HW144542   8.608  11.443   1.554
48172SOL    HW244543   8.636  11.427   1.394
48173SOL     OW44544   7.456  12.498   0.200
48173SOL    HW144545   7.363  12.519   0.169
48173SOL    HW244546   7.466  12.399   0.213
48174SOL     OW44547   8.450  11.968   1.238
48174SOL    HW144548   8.491  11.936   1.324
48174SOL    HW244549   8.354  11.941   1.235
48175SOL     OW44550   7.488  11.716   1.114
48175SOL    HW144551   7.573  11.683   1.073
48175SOL    HW244552   7.501  11.731   1.212
48176SOL     OW44553   7.637  11.692   1.722
48176SOL    HW144554   7.696  11.652   1.652
48176SOL    HW244555   7.579  11.763   1.681
48177SOL     OW44556   8.817  12.122   1.660
48177SOL    HW144557   8.856  12.211   1.680
48177SOL    HW244558   8.827  12.102   1.563
48178SOL     OW44559   8.263  11.744   0.325
48178SOL    HW144560   8.270  11.655   0.279
48178SOL    HW244561   8.169  11.778   0.317
48179SOL     OW44562   9.105  11.776   1.206
48179SOL    HW144563   9.067  11.707   1.268
48179SOL    HW244564   9.187  11.740   1.162
48180SOL     OW44565   7.700  12.736   1.744
48180SOL    HW144566   7.670  12.793   1.820
48180SOL    HW244567   7.693  12.639   1.770
48181SOL     OW44568   8.119  11.636   1.269
48181SOL    HW144569   8.085  11.547   1.239
48181SOL    HW244570   8.145  11.690   1.189
48182SOL     OW44571   7.921  11.672   0.191
48182SOL    HW144572   7.982  11.752   0.195
48182SOL    HW244573   7.826  11.703   0.198
48183SOL     OW44574   7.607  12.309   1.466
48183SOL    HW144575   7.629  12.248   1.542
48183SOL    HW244576   7.617  12.260   1.380
48184SOL     OW44577   8.795  12.231   1.234
48184SOL    HW144578   8.819  12.168   1.160
48184SOL    HW244579   8.705  12.271   1.216
48185SOL     OW44580   8.750  12.027   0.309
48185SOL    HW144581   8.664  11.996   0.351
48185SOL    HW244582   8.746  12.013   0.210
48186SOL     OW44583   7.531  12.430   1.022
48186SOL    HW144584   7.526  12.429   1.122
48186SOL    HW244585   7.448  12.389   0.984
48187SOL     OW44586   8.351  11.258   0.133
48187SOL    HW144587   8.402  11.259   0.047
48187SOL    HW244588   8.407  11.216   0.204
48188SOL     OW44589   9.174  11.307   0.523
48188SOL    HW144590   9.247  11.290   0.456
48188SOL    HW244591   9.143  11.220   0.561
48189SOL     OW44592   8.728  12.099   0.672
48189SOL    HW144593   8.788  12.018   0.674
48189SOL    HW244594   8.768  12.168   0.612
48190SOL     OW44595   8.278  12.445   1.422
48190SOL    HW144596   8.273  12.478   1.517
48190SOL    HW244597   8.192  12.464   1.376
48191SOL     OW44598   9.289  11.347   0.963
48191SOL    HW144599   9.328  11.262   0.927
48191SOL    HW244600   9.191  11.349   0.944
48192SOL     OW44601   7.711  11.498   0.720
48192SOL    HW144602   7.632  11.549   0.686
48192SOL    HW244603   7.702  11.483   0.818
48193SOL     OW44604   8.642  12.784   0.031
48193SOL    HW144605   8.648  12.691   0.068
48193SOL    HW244606   8.583  12.784  -0.049
48194SOL     OW44607   8.270  12.174   1.372
48194SOL    HW144608   8.310  12.173   1.280
48194SOL    HW244609   8.280  12.266   1.412
48195SOL     OW44610   8.364  12.082   0.291
48195SOL    HW144611   8.427  12.120   0.223
48195SOL    HW244612   8.404  11.999   0.330
48196SOL     OW44613   7.820  12.460   1.490
48196SOL    HW144614   7.807  12.553   1.456
48196SOL    HW244615   7.736  12.408   1.477
48197SOL     OW44616   9.062  12.464   1.289
48197SOL    HW144617   9.122  12.467   1.369
48197SOL    HW244618   8.987  12.528   1.302
48198SOL     OW44619   8.487  12.270   0.696
48198SOL    HW144620   8.417  12.223   0.750
48198SOL    HW244621   8.546  12.202   0.653
48199SOL     OW44622   8.462  11.408   0.971
48199SOL    HW144623   8.454  11.372   0.878
48199SOL    HW244624   8.460  11.332   1.036
48200SOL     OW44625   9.157  11.557   1.381
48200SOL    HW144626   9.230  11.626   1.385
48200SOL    HW244627   9.185  11.482   1.322
48201SOL     OW44628   7.703  12.520   0.290
48201SOL    HW144629   7.607  12.521   0.263
48201SOL    HW244630   7.715  12.573   0.374
48202SOL     OW44631   7.553  12.185   1.726
48202SOL    HW144632   7.476  12.152   1.780
48202SOL    HW244633   7.638  12.155   1.768
48203SOL     OW44634   8.120  11.375   1.489
48203SOL    HW144635   8.210  11.359   1.449
48203SOL    HW244636   8.128  11.380   1.588
48204SOL     OW44637   8.888  12.028   1.398
48204SOL    HW144638   8.831  12.080   1.335
48204SOL    HW244639   8.984  12.040   1.374
48205SOL     OW44640   7.520  11.338   0.318
48205SOL    HW144641   7.503  11.421   0.264
48205SOL    HW244642   7.610  11.301   0.296
48206SOL     OW44643   8.631  12.507   0.119
48206SOL    HW144644   8.532  12.496   0.121
48206SOL    HW244645   8.665  12.522   0.212
48207SOL     OW44646   8.061  12.014   1.431
48207SOL    HW144647   8.117  12.095   1.414
48207SOL    HW244648   8.120  11.934   1.434
48208SOL     OW44649   8.164  11.737   1.708
48208SOL    HW144650   8.183  11.802   1.782
48208SOL    HW244651   8.224  11.657   1.717
48209SOL     OW44652   8.898  12.392   1.633
48209SOL    HW144653   8.889  12.382   1.732
48209SOL    HW244654   8.994  12.385   1.607
48210SOL     OW44655   9.122  12.055   1.254
48210SOL    HW144656   9.095  11.966   1.217
48210SOL    HW244657   9.123  12.123   1.181
48211SOL     OW44658   8.673  11.497   0.449
48211SOL    HW144659   8.738  11.423   0.438
48211SOL    HW244660   8.693  11.547   0.533
48212SOL     OW44661   8.042  11.917   0.652
48212SOL    HW144662   8.092  12.002   0.633
48212SOL    HW244663   7.954  11.919   0.604
48213SOL     OW44664   9.225  11.514   1.642
48213SOL    HW144665   9.208  11.545   1.548
48213SOL    HW244666   9.141  11.477   1.680
48214SOL     OW44667   9.178  12.106   1.517
48214SOL    HW144668   9.216  12.197   1.532
48214SOL    HW244669   9.170  12.089   1.418
48215SOL     OW44670   8.307  12.546   0.016
48215SOL    HW144671   8.261  12.561   0.104
48215SOL    HW244672   8.351  12.631  -0.014
48216SOL     OW44673   8.307  12.128   0.861
48216SOL    HW144674   8.361  12.059   0.909
48216SOL    HW244675   8.275  12.197   0.927
48217SOL     OW44676   8.531  12.156   0.087
48217SOL    HW144677   8.508  12.209   0.005
48217SOL    HW244678   8.612  12.100   0.068
48218SOL     OW44679   7.669  12.486   1.844
48218SOL    HW144680   7.604  12.413   1.823
48218SOL    HW244681   7.673  12.500   1.942
48219SOL     OW44682   7.527  12.412   0.653
48219SOL    HW144683   7.526  12.365   0.741
48219SOL    HW244684   7.609  12.384   0.602
48220SOL     OW44685   8.120  12.563   1.624
48220SOL    HW144686   8.042  12.513   1.662
48220SOL    HW244687   8.117  12.658   1.655
48221SOL     OW44688   9.272  11.364   1.227
48221SOL    HW144689   9.268  11.274   1.271
48221SOL    HW244690   9.275  11.353   1.128
48222SOL     OW44691   7.876  11.596   0.520
48222SOL    HW144692   7.906  11.524   0.458
48222SOL    HW244693   7.837  11.556   0.603
48223SOL     OW44694   9.153  12.659   1.104
48223SOL    HW144695   9.060  12.634   1.077
48223SOL    HW244696   9.179  12.609   1.186
48224SOL     OW44697   7.765  11.719   1.280
48224SOL    HW144698   7.803  11.660   1.352
48224SOL    HW244699   7.805  11.693   1.192
48225SOL     OW44700   8.872  11.386   1.112
48225SOL    HW144701   8.924  11.321   1.167
48225SOL    HW244702   8.823  11.449   1.173
48226SOL     OW44703   8.449  11.206   1.154
48226SOL    HW144704   8.386  11.134   1.123
48226SOL    HW244705   8.542  11.170   1.154
48227SOL     OW44706   8.218  12.502   0.301
48227SOL    HW144707   8.172  12.415   0.318
48227SOL    HW244708   8.309  12.499   0.342
48228SOL     OW44709   8.066  12.739   1.284
48228SOL    HW144710   8.061  12.821   1.341
48228SOL    HW244711   8.155  12.736   1.239
48229SOL     OW44712   8.800  11.224   0.168
48229SOL    HW144713   8.835  11.183   0.084
48229SOL    HW244714   8.710  11.186   0.188
48230SOL     OW44715   8.748  11.625   0.691
48230SOL    HW144716   8.689  11.705   0.695
48230SOL    HW244717   8.763  11.590   0.784
48231SOL     OW44718   9.041  11.393   0.882
48231SOL    HW144719   8.957  11.392   0.936
48231SOL    HW244720   9.043  11.476   0.826
48232SOL     OW44721   7.487  12.249   0.300
48232SOL    HW144722   7.586  12.238   0.291
48232SOL    HW244723   7.447  12.163   0.332
48233SOL     OW44724   7.678  11.800   1.975
48233SOL    HW144725   7.585  11.798   2.012
48233SOL    HW244726   7.679  11.761   1.883
48234SOL     OW44727   7.673  11.447   2.858
48234SOL    HW144728   7.708  11.430   2.950
48234SOL    HW244729   7.585  11.402   2.846
48235SOL     OW44730   7.467  11.540   2.509
48235SOL    HW144731   7.385  11.583   2.548
48235SOL    HW244732   7.439  11.467   2.446
48236SOL     OW44733   8.017  12.447   3.027
48236SOL    HW144734   7.924  12.440   2.990
48236SOL    HW244735   8.028  12.536   3.071
48237SOL     OW44736   9.003  12.683   2.565
48237SOL    HW144737   8.946  12.667   2.646
48237SOL    HW244738   8.944  12.693   2.485
48238SOL     OW44739   8.583  11.875   2.579
48238SOL    HW144740   8.640  11.953   2.554
48238SOL    HW244741   8.523  11.901   2.655
48239SOL     OW44742   9.203  11.779   2.093
48239SOL    HW144743   9.191  11.766   1.994
48239SOL    HW244744   9.173  11.698   2.142
48240SOL     OW44745   8.216  12.316   2.885
48240SOL    HW144746   8.138  12.333   2.945
48240SOL    HW244747   8.250  12.403   2.849
48241SOL     OW44748   8.298  11.970   3.685
48241SOL    HW144749   8.294  12.046   3.750
48241SOL    HW244750   8.320  12.006   3.594
48242SOL     OW44751   8.133  12.184   2.527
48242SOL    HW144752   8.202  12.168   2.597
48242SOL    HW244753   8.060  12.241   2.565
48243SOL     OW44754   8.134  12.333   3.665
48243SOL    HW144755   8.194  12.412   3.679
48243SOL    HW244756   8.048  12.364   3.624
48244SOL     OW44757   7.783  12.607   2.923
48244SOL    HW144758   7.705  12.576   2.870
48244SOL    HW244759   7.841  12.665   2.866
48245SOL     OW44760   8.908  12.677   3.201
48245SOL    HW144761   8.932  12.771   3.227
48245SOL    HW244762   8.892  12.623   3.283
48246SOL     OW44763   7.886  11.564   3.361
48246SOL    HW144764   7.968  11.508   3.370
48246SOL    HW244765   7.805  11.506   3.365
48247SOL     OW44766   9.051  11.619   2.599
48247SOL    HW144767   8.977  11.665   2.549
48247SOL    HW244768   9.102  11.687   2.652
48248SOL     OW44769   7.679  12.885   2.345
48248SOL    HW144770   7.713  12.962   2.399
48248SOL    HW244771   7.723  12.885   2.255
48249SOL     OW44772   8.575  12.513   3.552
48249SOL    HW144773   8.622  12.513   3.640
48249SOL    HW244774   8.527  12.426   3.541
48250SOL     OW44775   7.678  12.606   2.400
48250SOL    HW144776   7.652  12.702   2.400
48250SOL    HW244777   7.607  12.552   2.445
48251SOL     OW44778   7.688  12.263   2.748
48251SOL    HW144779   7.702  12.179   2.800
48251SOL    HW244780   7.633  12.327   2.803
48252SOL     OW44781   8.054  12.136   1.985
48252SOL    HW144782   8.061  12.220   1.931
48252SOL    HW244783   8.100  12.149   2.073
48253SOL     OW44784   9.042  11.286   3.342
48253SOL    HW144785   9.024  11.353   3.270
48253SOL    HW244786   9.039  11.332   3.431
48254SOL     OW44787   7.570  11.815   2.425
48254SOL    HW144788   7.525  11.727   2.442
48254SOL    HW244789   7.569  11.869   2.509
48255SOL     OW44790   7.475  12.768   1.979
48255SOL    HW144791   7.456  12.672   2.000
48255SOL    HW244792   7.442  12.826   2.054
48256SOL     OW44793   9.137  12.094   2.474
48256SOL    HW144794   9.232  12.065   2.482
48256SOL    HW244795   9.129  12.159   2.399
48257SOL     OW44796   9.089  12.280   2.294
48257SOL    HW144797   9.175  12.282   2.242
48257SOL    HW244798   9.103  12.327   2.382
48258SOL     OW44799   7.561  11.909   3.459
48258SOL    HW144800   7.649  11.896   3.504
48258SOL    HW244801   7.548  12.006   3.437
48259SOL     OW44802   8.061  12.537   2.588
48259SOL    HW144803   8.012  12.450   2.597
48259SOL    HW244804   8.038  12.580   2.501
48260SOL     OW44805   8.257  11.176   2.364
48260SOL    HW144806   8.297  11.267   2.355
48260SOL    HW244807   8.157  11.184   2.370
48261SOL     OW44808   7.645  12.148   3.126
48261SOL    HW144809   7.734  12.103   3.112
48261SOL    HW244810   7.572  12.083   3.107
48262SOL     OW44811   8.973  12.171   2.052
48262SOL    HW144812   8.910  12.095   2.065
48262SOL    HW244813   9.021  12.189   2.138
48263SOL     OW44814   7.765  11.423   3.663
48263SOL    HW144815   7.836  11.494   3.669
48263SOL    HW244816   7.677  11.462   3.691
48264SOL     OW44817   8.914  12.589   2.815
48264SOL    HW144818   8.855  12.595   2.895
48264SOL    HW244819   8.899  12.501   2.769
48265SOL     OW44820   8.046  11.901   2.132
48265SOL    HW144821   8.070  11.970   2.064
48265SOL    HW244822   7.968  11.934   2.186
48266SOL     OW44823   8.729  11.517   2.806
48266SOL    HW144824   8.643  11.467   2.793
48266SOL    HW244825   8.791  11.463   2.862
48267SOL     OW44826   8.255  11.777   3.327
48267SOL    HW144827   8.208  11.774   3.416
48267SOL    HW244828   8.204  11.722   3.261
48268SOL     OW44829   8.842  11.641   3.536
48268SOL    HW144830   8.822  11.684   3.624
48268SOL    HW244831   8.920  11.579   3.545
48269SOL     OW44832   8.421  12.062   3.434
48269SOL    HW144833   8.467  11.978   3.405
48269SOL    HW244834   8.365  12.096   3.359
48270SOL     OW44835   8.439  11.582   3.104
48270SOL    HW144836   8.362  11.616   3.158
48270SOL    HW244837   8.405  11.531   3.025
48271SOL     OW44838   8.489  11.873   2.291
48271SOL    HW144839   8.515  11.869   2.387
48271SOL    HW244840   8.404  11.822   2.277
48272SOL     OW44841   7.524  11.983   2.651
48272SOL    HW144842   7.623  11.971   2.660
48272SOL    HW244843   7.500  12.078   2.672
48273SOL     OW44844   8.313  11.520   2.057
48273SOL    HW144845   8.372  11.583   2.008
48273SOL    HW244846   8.332  11.426   2.028
48274SOL     OW44847   9.167  11.757   3.693
48274SOL    HW144848   9.141  11.846   3.657
48274SOL    HW244849   9.165  11.689   3.620
48275SOL     OW44850   8.810  12.316   2.407
48275SOL    HW144851   8.893  12.287   2.359
48275SOL    HW244852   8.761  12.383   2.351
48276SOL     OW44853   7.998  11.368   2.747
48276SOL    HW144854   7.993  11.363   2.847
48276SOL    HW244855   8.000  11.464   2.718
48277SOL     OW44856   8.456  12.628   2.339
48277SOL    HW144857   8.410  12.700   2.287
48277SOL    HW244858   8.452  12.648   2.437
48278SOL     OW44859   9.243  12.238   2.735
48278SOL    HW144860   9.181  12.223   2.659
48278SOL    HW244861   9.191  12.249   2.820
48279SOL     OW44862   8.675  12.722   3.368
48279SOL    HW144863   8.681  12.645   3.432
48279SOL    HW244864   8.623  12.696   3.288
48280SOL     OW44865   7.769  12.115   2.104
48280SOL    HW144866   7.851  12.154   2.062
48280SOL    HW244867   7.742  12.033   2.055
48281SOL     OW44868   8.906  11.907   2.590
48281SOL    HW144869   8.901  11.842   2.665
48281SOL    HW244870   8.986  11.966   2.603
48282SOL     OW44871   7.909  12.438   3.589
48282SOL    HW144872   7.859  12.439   3.503
48282SOL    HW244873   7.846  12.420   3.665
48283SOL     OW44874   8.559  12.948   2.099
48283SOL    HW144875   8.499  12.886   2.149
48283SOL    HW244876   8.590  12.904   2.014
48284SOL     OW44877   7.650  11.457   3.360
48284SOL    HW144878   7.570  11.517   3.347
48284SOL    HW244879   7.640  11.408   3.446
48285SOL     OW44880   9.080  12.549   1.943
48285SOL    HW144881   9.048  12.643   1.933
48285SOL    HW244882   9.004  12.486   1.931
48286SOL     OW44883   8.848  11.279   2.288
48286SOL    HW144884   8.824  11.242   2.198
48286SOL    HW244885   8.947  11.295   2.292
48287SOL     OW44886   7.830  11.872   2.342
48287SOL    HW144887   7.875  11.782   2.339
48287SOL    HW244888   7.736  11.861   2.375
48288SOL     OW44889   8.995  11.394   3.591
48288SOL    HW144890   8.990  11.431   3.683
48288SOL    HW244891   8.923  11.325   3.579
48289SOL     OW44892   8.062  11.294   1.979
48289SOL    HW144893   8.160  11.272   1.986
48289SOL    HW244894   8.031  11.277   1.886
48290SOL     OW44895   8.229  11.436   3.611
48290SOL    HW144896   8.296  11.375   3.654
48290SOL    HW244897   8.156  11.455   3.676
48291SOL     OW44898   8.799  11.762   3.295
48291SOL    HW144899   8.827  11.719   3.380
48291SOL    HW244900   8.824  11.858   3.296
48292SOL     OW44901   8.251  12.574   2.786
48292SOL    HW144902   8.341  12.588   2.744
48292SOL    HW244903   8.180  12.576   2.715
48293SOL     OW44904   8.370  11.675   2.761
48293SOL    HW144905   8.345  11.666   2.665
48293SOL    HW244906   8.418  11.593   2.792
48294SOL     OW44907   7.987  11.236   2.374
48294SOL    HW144908   7.906  11.237   2.432
48294SOL    HW244909   7.990  11.319   2.319
48295SOL     OW44910   7.745  11.207   2.033
48295SOL    HW144911   7.794  11.291   2.012
48295SOL    HW244912   7.807  11.142   2.078
48296SOL     OW44913   8.383  11.408   2.342
48296SOL    HW144914   8.335  11.449   2.264
48296SOL    HW244915   8.482  11.406   2.323
48297SOL     OW44916   8.524  11.855   3.326
48297SOL    HW144917   8.444  11.794   3.329
48297SOL    HW244918   8.605  11.802   3.302
48298SOL     OW44919   8.675  12.742   2.655
48298SOL    HW144920   8.696  12.816   2.590
48298SOL    HW244921   8.743  12.742   2.728
48299SOL     OW44922   7.907  12.324   2.603
48299SOL    HW144923   7.836  12.297   2.668
48299SOL    HW244924   7.881  12.296   2.510
48300SOL     OW44925   8.480  11.721   1.878
48300SOL    HW144926   8.439  11.803   1.839
48300SOL    HW244927   8.544  11.747   1.951
48301SOL     OW44928   7.526  11.728   3.248
48301SOL    HW144929   7.618  11.727   3.207
48301SOL    HW244930   7.520  11.802   3.315
48302SOL     OW44931   8.009  11.394   3.009
48302SOL    HW144932   8.047  11.310   3.046
48302SOL    HW244933   7.921  11.413   3.053
48303SOL     OW44934   8.314  11.626   2.504
48303SOL    HW144935   8.282  11.698   2.442
48303SOL    HW244936   8.338  11.545   2.451
48304SOL     OW44937   8.465  11.211   2.615
48304SOL    HW144938   8.393  11.216   2.546
48304SOL    HW244939   8.441  11.142   2.684
48305SOL     OW44940   8.877  12.345   2.729
48305SOL    HW144941   8.822  12.261   2.722
48305SOL    HW244942   8.903  12.374   2.637
48306SOL     OW44943   8.914  11.762   2.854
48306SOL    HW144944   8.884  11.667   2.861
48306SOL    HW244945   8.987  11.778   2.920
48307SOL     OW44946   9.305  12.005   2.239
48307SOL    HW144947   9.347  11.941   2.303
48307SOL    HW244948   9.267  11.954   2.161
48308SOL     OW44949   7.936  12.557   2.036
48308SOL    HW144950   7.849  12.542   2.083
48308SOL    HW244951   7.919  12.583   1.941
48309SOL     OW44952   9.112  12.452   2.519
48309SOL    HW144953   9.211  12.460   2.533
48309SOL    HW244954   9.067  12.536   2.550
48310SOL     OW44955   8.838  11.747   1.940
48310SOL    HW144956   8.784  11.726   2.021
48310SOL    HW244957   8.929  11.706   1.949
48311SOL     OW44958   7.975  11.428   2.190
48311SOL    HW144959   8.002  11.369   2.115
48311SOL    HW244960   7.975  11.523   2.159
48312SOL     OW44961   9.202  12.395   3.450
48312SOL    HW144962   9.293  12.356   3.437
48312SOL    HW244963   9.210  12.491   3.474
48313SOL     OW44964   8.512  12.519   3.202
48313SOL    HW144965   8.432  12.496   3.257
48313SOL    HW244966   8.595  12.493   3.251
48314SOL     OW44967   8.559  12.367   2.962
48314SOL    HW144968   8.519  12.411   3.043
48314SOL    HW244969   8.518  12.404   2.879
48315SOL     OW44970   9.086  12.271   2.941
48315SOL    HW144971   9.091  12.352   3.000
48315SOL    HW244972   9.000  12.273   2.890
48316SOL     OW44973   8.363  11.261   3.264
48316SOL    HW144974   8.388  11.241   3.169
48316SOL    HW244975   8.435  11.317   3.306
48317SOL     OW44976   8.428  12.288   3.581
48317SOL    HW144977   8.329  12.294   3.591
48317SOL    HW244978   8.451  12.208   3.525
48318SOL     OW44979   8.153  12.222   2.230
48318SOL    HW144980   8.139  12.229   2.329
48318SOL    HW244981   8.237  12.171   2.212
48319SOL     OW44982   7.858  11.985   3.113
48319SOL    HW144983   7.944  11.997   3.163
48319SOL    HW244984   7.816  11.898   3.140
48320SOL     OW44985   8.722  11.558   3.124
48320SOL    HW144986   8.743  11.632   3.188
48320SOL    HW244987   8.633  11.575   3.081
48321SOL     OW44988   7.815  12.272   2.363
48321SOL    HW144989   7.808  12.355   2.307
48321SOL    HW244990   7.819  12.192   2.303
48322SOL     OW44991   8.014  11.709   2.727
48322SOL    HW144992   8.026  11.775   2.653
48322SOL    HW244993   8.060  11.743   2.810
48323SOL     OW44994   8.700  12.520   2.250
48323SOL    HW144995   8.750  12.597   2.290
48323SOL    HW244996   8.605  12.522   2.282
48324SOL     OW44997   8.720  12.617   3.004
48324SOL    HW144998   8.767  12.630   3.091
48324SOL    HW244999   8.654  12.543   3.013
48325SOL     OW45000   9.030  11.811   2.334
48325SOL    HW145001   8.999  11.872   2.407
48325SOL    HW245002   9.080  11.863   2.265
48326SOL     OW45003   7.802  12.682   3.191
48326SOL    HW145004   7.781  12.638   3.104
48326SOL    HW245005   7.899  12.708   3.194
48327SOL     OW45006   7.850  11.923   3.460
48327SOL    HW145007   7.918  11.978   3.413
48327SOL    HW245008   7.890  11.835   3.487
48328SOL     OW45009   9.035  11.951   3.532
48328SOL    HW145010   8.943  11.989   3.527
48328SOL    HW245011   9.095  11.998   3.467
48329SOL     OW45012   8.461  11.277   3.632
48329SOL    HW145013   8.467  11.362   3.580
48329SOL    HW245014   8.493  11.201   3.575
48330SOL     OW45015   7.952  11.222   3.602
48330SOL    HW145016   7.910  11.165   3.532
48330SOL    HW245017   7.886  11.291   3.634
48331SOL     OW45018   8.021  12.042   2.891
48331SOL    HW145019   8.065  12.131   2.882
48331SOL    HW245020   7.958  12.042   2.968
48332SOL     OW45021   8.808  12.034   2.907
48332SOL    HW145022   8.733  12.034   2.841
48332SOL    HW245023   8.845  11.942   2.916
48333SOL     OW45024   8.657  11.697   2.137
48333SOL    HW145025   8.670  11.613   2.191
48333SOL    HW245026   8.628  11.771   2.197
48334SOL     OW45027   7.755  11.385   3.093
48334SOL    HW145028   7.732  11.422   3.183
48334SOL    HW245029   7.725  11.290   3.087
48335SOL     OW45030   7.485  12.482   3.144
48335SOL    HW145031   7.538  12.433   3.212
48335SOL    HW245032   7.507  12.580   3.149
48336SOL     OW45033   8.180  11.806   2.926
48336SOL    HW145034   8.239  11.780   2.850
48336SOL    HW245035   8.152  11.902   2.915
48337SOL     OW45036   9.176  12.107   3.716
48337SOL    HW145037   9.130  12.100   3.627
48337SOL    HW245038   9.114  12.151   3.782
48338SOL     OW45039   7.755  11.235   2.480
48338SOL    HW145040   7.744  11.329   2.513
48338SOL    HW245041   7.750  11.172   2.557
48339SOL     OW45042   9.070  11.539   2.236
48339SOL    HW145043   9.072  11.463   2.300
48339SOL    HW245044   9.022  11.616   2.276
48340SOL     OW45045   8.471  11.938   2.828
48340SOL    HW145046   8.486  11.959   2.924
48340SOL    HW245047   8.441  11.843   2.819
48341SOL     OW45048   9.307  12.690   3.467
48341SOL    HW145049   9.321  12.717   3.372
48341SOL    HW245050   9.390  12.712   3.520
48342SOL     OW45051   7.798  12.070   3.666
48342SOL    HW145052   7.874  12.114   3.714
48342SOL    HW245053   7.833  12.023   3.584
48343SOL     OW45054   8.988  11.446   1.987
48343SOL    HW145055   8.927  11.371   2.010
48343SOL    HW245056   9.010  11.498   2.070
48344SOL     OW45057   8.751  12.010   1.904
48344SOL    HW145058   8.785  11.917   1.919
48344SOL    HW245059   8.769  12.037   1.809
48345SOL     OW45060   8.516  12.505   2.711
48345SOL    HW145061   8.523  12.421   2.656
48345SOL    HW245062   8.578  12.574   2.675
48346SOL     OW45063   7.767  11.982   2.811
48346SOL    HW145064   7.860  12.018   2.816
48346SOL    HW245065   7.761  11.897   2.863
48347SOL     OW45066   7.787  11.681   2.868
48347SOL    HW145067   7.735  11.598   2.851
48347SOL    HW245068   7.864  11.686   2.804
48348SOL     OW45069   8.586  11.552   3.540
48348SOL    HW145070   8.541  11.615   3.604
48348SOL    HW245071   8.679  11.583   3.523
48349SOL     OW45072   8.608  11.379   3.339
48349SOL    HW145073   8.608  11.443   3.416
48349SOL    HW245074   8.636  11.427   3.256
48350SOL     OW45075   7.456  12.498   2.062
48350SOL    HW145076   7.363  12.519   2.031
48350SOL    HW245077   7.466  12.399   2.075
48351SOL     OW45078   8.450  11.968   3.100
48351SOL    HW145079   8.491  11.936   3.186
48351SOL    HW245080   8.354  11.941   3.097
48352SOL     OW45081   7.488  11.716   2.976
48352SOL    HW145082   7.573  11.683   2.935
48352SOL    HW245083   7.501  11.731   3.074
48353SOL     OW45084   7.637  11.692   3.584
48353SOL    HW145085   7.696  11.652   3.514
48353SOL    HW245086   7.579  11.763   3.543
48354SOL     OW45087   8.817  12.122   3.522
48354SOL    HW145088   8.856  12.211   3.542
48354SOL    HW245089   8.827  12.102   3.425
48355SOL     OW45090   8.263  11.744   2.187
48355SOL    HW145091   8.270  11.655   2.141
48355SOL    HW245092   8.169  11.778   2.179
48356SOL     OW45093   9.105  11.776   3.068
48356SOL    HW145094   9.067  11.707   3.130
48356SOL    HW245095   9.187  11.740   3.024
48357SOL     OW45096   7.700  12.736   3.606
48357SOL    HW145097   7.670  12.793   3.682
48357SOL    HW245098   7.693  12.639   3.632
48358SOL     OW45099   8.119  11.636   3.131
48358SOL    HW145100   8.085  11.547   3.101
48358SOL    HW245101   8.145  11.690   3.051
48359SOL     OW45102   7.921  11.672   2.053
48359SOL    HW145103   7.982  11.752   2.057
48359SOL    HW245104   7.826  11.703   2.060
48360SOL     OW45105   7.607  12.309   3.328
48360SOL    HW145106   7.629  12.248   3.404
48360SOL    HW245107   7.617  12.260   3.242
48361SOL     OW45108   8.795  12.231   3.096
48361SOL    HW145109   8.819  12.168   3.022
48361SOL    HW245110   8.705  12.271   3.078
48362SOL     OW45111   8.750  12.027   2.171
48362SOL    HW145112   8.664  11.996   2.213
48362SOL    HW245113   8.746  12.013   2.072
48363SOL     OW45114   7.531  12.430   2.884
48363SOL    HW145115   7.526  12.429   2.984
48363SOL    HW245116   7.448  12.389   2.846
48364SOL     OW45117   9.174  11.307   2.385
48364SOL    HW145118   9.247  11.290   2.318
48364SOL    HW245119   9.143  11.220   2.423
48365SOL     OW45120   8.728  12.099   2.534
48365SOL    HW145121   8.788  12.018   2.536
48365SOL    HW245122   8.768  12.168   2.474
48366SOL     OW45123   8.278  12.445   3.284
48366SOL    HW145124   8.273  12.478   3.379
48366SOL    HW245125   8.192  12.464   3.238
48367SOL     OW45126   9.289  11.347   2.825
48367SOL    HW145127   9.328  11.262   2.789
48367SOL    HW245128   9.191  11.349   2.806
48368SOL     OW45129   7.711  11.498   2.582
48368SOL    HW145130   7.632  11.549   2.548
48368SOL    HW245131   7.702  11.483   2.680
48369SOL     OW45132   8.270  12.174   3.234
48369SOL    HW145133   8.310  12.173   3.142
48369SOL    HW245134   8.280  12.266   3.274
48370SOL     OW45135   8.364  12.082   2.153
48370SOL    HW145136   8.427  12.120   2.085
48370SOL    HW245137   8.404  11.999   2.192
48371SOL     OW45138   7.820  12.460   3.352
48371SOL    HW145139   7.807  12.553   3.318
48371SOL    HW245140   7.736  12.408   3.339
48372SOL     OW45141   9.062  12.464   3.151
48372SOL    HW145142   9.122  12.467   3.231
48372SOL    HW245143   8.987  12.528   3.164
48373SOL     OW45144   8.487  12.270   2.558
48373SOL    HW145145   8.417  12.223   2.612
48373SOL    HW245146   8.546  12.202   2.515
48374SOL     OW45147   8.462  11.408   2.833
48374SOL    HW145148   8.454  11.372   2.740
48374SOL    HW245149   8.460  11.332   2.898
48375SOL     OW45150   9.157  11.557   3.243
48375SOL    HW145151   9.230  11.626   3.247
48375SOL    HW245152   9.185  11.482   3.184
48376SOL     OW45153   7.703  12.520   2.152
48376SOL    HW145154   7.607  12.521   2.125
48376SOL    HW245155   7.715  12.573   2.236
48377SOL     OW45156   7.553  12.185   3.588
48377SOL    HW145157   7.476  12.152   3.642
48377SOL    HW245158   7.638  12.155   3.630
48378SOL     OW45159   8.120  11.375   3.351
48378SOL    HW145160   8.210  11.359   3.311
48378SOL    HW245161   8.128  11.380   3.450
48379SOL     OW45162   7.523  11.517   1.895
48379SOL    HW145163   7.431  11.489   1.866
48379SOL    HW245164   7.554  11.594   1.839
48380SOL     OW45165   8.888  12.028   3.260
48380SOL    HW145166   8.831  12.080   3.197
48380SOL    HW245167   8.984  12.040   3.236
48381SOL     OW45168   7.520  11.338   2.180
48381SOL    HW145169   7.503  11.421   2.126
48381SOL    HW245170   7.610  11.301   2.158
48382SOL     OW45171   8.631  12.507   1.981
48382SOL    HW145172   8.532  12.496   1.983
48382SOL    HW245173   8.665  12.522   2.074
48383SOL     OW45174   8.061  12.014   3.293
48383SOL    HW145175   8.117  12.095   3.276
48383SOL    HW245176   8.120  11.934   3.296
48384SOL     OW45177   8.164  11.737   3.570
48384SOL    HW145178   8.183  11.802   3.644
48384SOL    HW245179   8.224  11.657   3.579
48385SOL     OW45180   8.898  12.392   3.495
48385SOL    HW145181   8.889  12.382   3.594
48385SOL    HW245182   8.994  12.385   3.469
48386SOL     OW45183   9.122  12.055   3.116
48386SOL    HW145184   9.095  11.966   3.079
48386SOL    HW245185   9.123  12.123   3.043
48387SOL     OW45186   8.673  11.497   2.311
48387SOL    HW145187   8.738  11.423   2.300
48387SOL    HW245188   8.693  11.547   2.395
48388SOL     OW45189   8.042  11.917   2.514
48388SOL    HW145190   8.092  12.002   2.495
48388SOL    HW245191   7.954  11.919   2.466
48389SOL     OW45192   9.225  11.514   3.504
48389SOL    HW145193   9.208  11.545   3.410
48389SOL    HW245194   9.141  11.477   3.542
48390SOL     OW45195   9.178  12.106   3.379
48390SOL    HW145196   9.216  12.197   3.394
48390SOL    HW245197   9.170  12.089   3.280
48391SOL     OW45198   8.307  12.546   1.878
48391SOL    HW145199   8.261  12.561   1.966
48391SOL    HW245200   8.351  12.631   1.848
48392SOL     OW45201   8.307  12.128   2.723
48392SOL    HW145202   8.361  12.059   2.771
48392SOL    HW245203   8.275  12.197   2.789
48393SOL     OW45204   8.531  12.156   1.949
48393SOL    HW145205   8.508  12.209   1.867
48393SOL    HW245206   8.612  12.100   1.930
48394SOL     OW45207   7.669  12.486   3.706
48394SOL    HW145208   7.604  12.413   3.685
48394SOL    HW245209   7.673  12.500   3.804
48395SOL     OW45210   7.527  12.412   2.515
48395SOL    HW145211   7.526  12.365   2.603
48395SOL    HW245212   7.609  12.384   2.464
48396SOL     OW45213   8.120  12.563   3.486
48396SOL    HW145214   8.042  12.513   3.524
48396SOL    HW245215   8.117  12.658   3.517
48397SOL     OW45216   9.272  11.364   3.089
48397SOL    HW145217   9.268  11.274   3.133
48397SOL    HW245218   9.275  11.353   2.990
48398SOL     OW45219   7.876  11.596   2.382
48398SOL    HW145220   7.906  11.524   2.320
48398SOL    HW245221   7.837  11.556   2.465
48399SOL     OW45222   9.153  12.659   2.966
48399SOL    HW145223   9.060  12.634   2.939
48399SOL    HW245224   9.179  12.609   3.048
48400SOL     OW45225   7.765  11.719   3.142
48400SOL    HW145226   7.803  11.660   3.214
48400SOL    HW245227   7.805  11.693   3.054
48401SOL     OW45228   8.872  11.386   2.974
48401SOL    HW145229   8.924  11.321   3.029
48401SOL    HW245230   8.823  11.449   3.035
48402SOL     OW45231   8.449  11.206   3.016
48402SOL    HW145232   8.386  11.134   2.985
48402SOL    HW245233   8.542  11.170   3.016
48403SOL     OW45234   8.218  12.502   2.163
48403SOL    HW145235   8.172  12.415   2.180
48403SOL    HW245236   8.309  12.499   2.204
48404SOL     OW45237   8.066  12.739   3.146
48404SOL    HW145238   8.061  12.821   3.203
48404SOL    HW245239   8.155  12.736   3.101
48405SOL     OW45240   8.800  11.224   2.030
48405SOL    HW145241   8.835  11.183   1.946
48405SOL    HW245242   8.710  11.186   2.050
48406SOL     OW45243   8.748  11.625   2.553
48406SOL    HW145244   8.689  11.705   2.557
48406SOL    HW245245   8.763  11.590   2.646
48407SOL     OW45246   9.041  11.393   2.744
48407SOL    HW145247   8.957  11.392   2.798
48407SOL    HW245248   9.043  11.476   2.688
48408SOL     OW45249   7.487  12.249   2.162
48408SOL    HW145250   7.586  12.238   2.153
48408SOL    HW245251   7.447  12.163   2.194
48409SOL     OW45252   7.678  11.800   3.837
48409SOL    HW145253   7.585  11.798   3.874
48409SOL    HW245254   7.679  11.761   3.745
48410SOL     OW45255   7.673  11.447   4.720
48410SOL    HW145256   7.708  11.430   4.812
48410SOL    HW245257   7.585  11.402   4.708
48411SOL     OW45258   7.467  11.540   4.371
48411SOL    HW145259   7.385  11.583   4.410
48411SOL    HW245260   7.439  11.467   4.308
48412SOL     OW45261   8.017  12.447   4.889
48412SOL    HW145262   7.924  12.440   4.852
48412SOL    HW245263   8.028  12.536   4.933
48413SOL     OW45264   9.003  12.683   4.427
48413SOL    HW145265   8.946  12.667   4.508
48413SOL    HW245266   8.944  12.693   4.347
48414SOL     OW45267   8.583  11.875   4.441
48414SOL    HW145268   8.640  11.953   4.416
48414SOL    HW245269   8.523  11.901   4.517
48415SOL     OW45270   9.203  11.779   3.955
48415SOL    HW145271   9.191  11.766   3.856
48415SOL    HW245272   9.173  11.698   4.004
48416SOL     OW45273   8.216  12.316   4.747
48416SOL    HW145274   8.138  12.333   4.807
48416SOL    HW245275   8.250  12.403   4.711
48417SOL     OW45276   8.298  11.970   5.547
48417SOL    HW145277   8.294  12.046   5.612
48417SOL    HW245278   8.320  12.006   5.456
48418SOL     OW45279   8.133  12.184   4.389
48418SOL    HW145280   8.202  12.168   4.459
48418SOL    HW245281   8.060  12.241   4.427
48419SOL     OW45282   8.134  12.333   5.527
48419SOL    HW145283   8.194  12.412   5.541
48419SOL    HW245284   8.048  12.364   5.486
48420SOL     OW45285   7.783  12.607   4.785
48420SOL    HW145286   7.705  12.576   4.732
48420SOL    HW245287   7.841  12.665   4.728
48421SOL     OW45288   8.908  12.677   5.063
48421SOL    HW145289   8.932  12.771   5.089
48421SOL    HW245290   8.892  12.623   5.145
48422SOL     OW45291   7.886  11.564   5.223
48422SOL    HW145292   7.968  11.508   5.232
48422SOL    HW245293   7.805  11.506   5.227
48423SOL     OW45294   9.051  11.619   4.461
48423SOL    HW145295   8.977  11.665   4.411
48423SOL    HW245296   9.102  11.687   4.514
48424SOL     OW45297   7.679  12.885   4.207
48424SOL    HW145298   7.713  12.962   4.261
48424SOL    HW245299   7.723  12.885   4.117
48425SOL     OW45300   8.575  12.513   5.414
48425SOL    HW145301   8.622  12.513   5.502
48425SOL    HW245302   8.527  12.426   5.403
48426SOL     OW45303   7.678  12.606   4.262
48426SOL    HW145304   7.652  12.702   4.262
48426SOL    HW245305   7.607  12.552   4.307
48427SOL     OW45306   7.688  12.263   4.610
48427SOL    HW145307   7.702  12.179   4.662
48427SOL    HW245308   7.633  12.327   4.665
48428SOL     OW45309   8.054  12.136   3.847
48428SOL    HW145310   8.061  12.220   3.793
48428SOL    HW245311   8.100  12.149   3.935
48429SOL     OW45312   9.042  11.286   5.204
48429SOL    HW145313   9.024  11.353   5.132
48429SOL    HW245314   9.039  11.332   5.293
48430SOL     OW45315   7.570  11.815   4.287
48430SOL    HW145316   7.525  11.727   4.304
48430SOL    HW245317   7.569  11.869   4.371
48431SOL     OW45318   7.475  12.768   3.841
48431SOL    HW145319   7.456  12.672   3.862
48431SOL    HW245320   7.442  12.826   3.916
48432SOL     OW45321   9.137  12.094   4.336
48432SOL    HW145322   9.232  12.065   4.344
48432SOL    HW245323   9.129  12.159   4.261
48433SOL     OW45324   9.089  12.280   4.156
48433SOL    HW145325   9.175  12.282   4.104
48433SOL    HW245326   9.103  12.327   4.244
48434SOL     OW45327   7.561  11.909   5.321
48434SOL    HW145328   7.649  11.896   5.366
48434SOL    HW245329   7.548  12.006   5.299
48435SOL     OW45330   8.061  12.537   4.450
48435SOL    HW145331   8.012  12.450   4.459
48435SOL    HW245332   8.038  12.580   4.363
48436SOL     OW45333   8.741  12.400   5.147
48436SOL    HW145334   8.778  12.327   5.089
48436SOL    HW245335   8.793  12.405   5.232
48437SOL     OW45336   8.257  11.176   4.226
48437SOL    HW145337   8.297  11.267   4.217
48437SOL    HW245338   8.157  11.184   4.232
48438SOL     OW45339   7.645  12.148   4.988
48438SOL    HW145340   7.734  12.103   4.974
48438SOL    HW245341   7.572  12.083   4.969
48439SOL     OW45342   8.973  12.171   3.914
48439SOL    HW145343   8.910  12.095   3.927
48439SOL    HW245344   9.021  12.189   4.000
48440SOL     OW45345   7.765  11.423   5.525
48440SOL    HW145346   7.836  11.494   5.531
48440SOL    HW245347   7.677  11.462   5.553
48441SOL     OW45348   8.914  12.589   4.677
48441SOL    HW145349   8.855  12.595   4.757
48441SOL    HW245350   8.899  12.501   4.631
48442SOL     OW45351   8.046  11.901   3.994
48442SOL    HW145352   8.070  11.970   3.926
48442SOL    HW245353   7.968  11.934   4.048
48443SOL     OW45354   8.729  11.517   4.668
48443SOL    HW145355   8.643  11.467   4.655
48443SOL    HW245356   8.791  11.463   4.724
48444SOL     OW45357   8.255  11.777   5.189
48444SOL    HW145358   8.208  11.774   5.278
48444SOL    HW245359   8.204  11.722   5.123
48445SOL     OW45360   8.842  11.641   5.398
48445SOL    HW145361   8.822  11.684   5.486
48445SOL    HW245362   8.920  11.579   5.407
48446SOL     OW45363   8.421  12.062   5.296
48446SOL    HW145364   8.467  11.978   5.267
48446SOL    HW245365   8.365  12.096   5.221
48447SOL     OW45366   8.439  11.582   4.966
48447SOL    HW145367   8.362  11.616   5.020
48447SOL    HW245368   8.405  11.531   4.887
48448SOL     OW45369   8.489  11.873   4.153
48448SOL    HW145370   8.515  11.869   4.249
48448SOL    HW245371   8.404  11.822   4.139
48449SOL     OW45372   7.524  11.983   4.513
48449SOL    HW145373   7.623  11.971   4.522
48449SOL    HW245374   7.500  12.078   4.534
48450SOL     OW45375   8.313  11.520   3.919
48450SOL    HW145376   8.372  11.583   3.870
48450SOL    HW245377   8.332  11.426   3.890
48451SOL     OW45378   9.167  11.757   5.555
48451SOL    HW145379   9.141  11.846   5.519
48451SOL    HW245380   9.165  11.689   5.482
48452SOL     OW45381   8.810  12.316   4.269
48452SOL    HW145382   8.893  12.287   4.221
48452SOL    HW245383   8.761  12.383   4.213
48453SOL     OW45384   7.998  11.368   4.609
48453SOL    HW145385   7.993  11.363   4.709
48453SOL    HW245386   8.000  11.464   4.580
48454SOL     OW45387   9.243  12.238   4.597
48454SOL    HW145388   9.181  12.223   4.521
48454SOL    HW245389   9.191  12.249   4.682
48455SOL     OW45390   8.675  12.722   5.230
48455SOL    HW145391   8.681  12.645   5.294
48455SOL    HW245392   8.623  12.696   5.150
48456SOL     OW45393   7.769  12.115   3.966
48456SOL    HW145394   7.851  12.154   3.924
48456SOL    HW245395   7.742  12.033   3.917
48457SOL     OW45396   8.906  11.907   4.452
48457SOL    HW145397   8.901  11.842   4.527
48457SOL    HW245398   8.986  11.966   4.465
48458SOL     OW45399   7.909  12.438   5.451
48458SOL    HW145400   7.859  12.439   5.365
48458SOL    HW245401   7.846  12.420   5.527
48459SOL     OW45402   8.559  12.948   3.961
48459SOL    HW145403   8.499  12.886   4.011
48459SOL    HW245404   8.590  12.904   3.876
48460SOL     OW45405   7.650  11.457   5.222
48460SOL    HW145406   7.570  11.517   5.209
48460SOL    HW245407   7.640  11.408   5.308
48461SOL     OW45408   9.080  12.549   3.805
48461SOL    HW145409   9.048  12.643   3.795
48461SOL    HW245410   9.004  12.486   3.793
48462SOL     OW45411   8.848  11.279   4.150
48462SOL    HW145412   8.824  11.242   4.060
48462SOL    HW245413   8.947  11.295   4.154
48463SOL     OW45414   7.830  11.872   4.204
48463SOL    HW145415   7.875  11.782   4.201
48463SOL    HW245416   7.736  11.861   4.237
48464SOL     OW45417   8.995  11.394   5.453
48464SOL    HW145418   8.990  11.431   5.545
48464SOL    HW245419   8.923  11.325   5.441
48465SOL     OW45420   8.062  11.294   3.841
48465SOL    HW145421   8.160  11.272   3.848
48465SOL    HW245422   8.031  11.277   3.748
48466SOL     OW45423   8.229  11.436   5.473
48466SOL    HW145424   8.296  11.375   5.516
48466SOL    HW245425   8.156  11.455   5.538
48467SOL     OW45426   8.799  11.762   5.157
48467SOL    HW145427   8.827  11.719   5.242
48467SOL    HW245428   8.824  11.858   5.158
48468SOL     OW45429   8.251  12.574   4.648
48468SOL    HW145430   8.341  12.588   4.606
48468SOL    HW245431   8.180  12.576   4.577
48469SOL     OW45432   8.370  11.675   4.623
48469SOL    HW145433   8.345  11.666   4.527
48469SOL    HW245434   8.418  11.593   4.654
48470SOL     OW45435   7.987  11.236   4.236
48470SOL    HW145436   7.906  11.237   4.294
48470SOL    HW245437   7.990  11.319   4.181
48471SOL     OW45438   8.882  12.360   3.765
48471SOL    HW145439   8.914  12.284   3.822
48471SOL    HW245440   8.790  12.387   3.795
48472SOL     OW45441   7.745  11.207   3.895
48472SOL    HW145442   7.794  11.291   3.874
48472SOL    HW245443   7.807  11.142   3.940
48473SOL     OW45444   8.383  11.408   4.204
48473SOL    HW145445   8.335  11.449   4.126
48473SOL    HW245446   8.482  11.406   4.185
48474SOL     OW45447   8.524  11.855   5.188
48474SOL    HW145448   8.444  11.794   5.191
48474SOL    HW245449   8.605  11.802   5.164
48475SOL     OW45450   8.675  12.742   4.517
48475SOL    HW145451   8.696  12.816   4.452
48475SOL    HW245452   8.743  12.742   4.590
48476SOL     OW45453   7.907  12.324   4.465
48476SOL    HW145454   7.836  12.297   4.530
48476SOL    HW245455   7.881  12.296   4.372
48477SOL     OW45456   8.480  11.721   3.740
48477SOL    HW145457   8.439  11.803   3.701
48477SOL    HW245458   8.544  11.747   3.813
48478SOL     OW45459   7.526  11.728   5.110
48478SOL    HW145460   7.618  11.727   5.069
48478SOL    HW245461   7.520  11.802   5.177
48479SOL     OW45462   8.009  11.394   4.871
48479SOL    HW145463   8.047  11.310   4.908
48479SOL    HW245464   7.921  11.413   4.915
48480SOL     OW45465   8.314  11.626   4.366
48480SOL    HW145466   8.282  11.698   4.304
48480SOL    HW245467   8.338  11.545   4.313
48481SOL     OW45468   8.465  11.211   4.477
48481SOL    HW145469   8.393  11.216   4.408
48481SOL    HW245470   8.441  11.142   4.546
48482SOL     OW45471   8.877  12.345   4.591
48482SOL    HW145472   8.822  12.261   4.584
48482SOL    HW245473   8.903  12.374   4.499
48483SOL     OW45474   8.914  11.762   4.716
48483SOL    HW145475   8.884  11.667   4.723
48483SOL    HW245476   8.987  11.778   4.782
48484SOL     OW45477   9.305  12.005   4.101
48484SOL    HW145478   9.347  11.941   4.165
48484SOL    HW245479   9.267  11.954   4.023
48485SOL     OW45480   7.936  12.557   3.898
48485SOL    HW145481   7.849  12.542   3.945
48485SOL    HW245482   7.919  12.583   3.803
48486SOL     OW45483   9.112  12.452   4.381
48486SOL    HW145484   9.211  12.460   4.395
48486SOL    HW245485   9.067  12.536   4.412
48487SOL     OW45486   8.838  11.747   3.802
48487SOL    HW145487   8.784  11.726   3.883
48487SOL    HW245488   8.929  11.706   3.811
48488SOL     OW45489   7.975  11.428   4.052
48488SOL    HW145490   8.002  11.369   3.977
48488SOL    HW245491   7.975  11.523   4.021
48489SOL     OW45492   9.202  12.395   5.312
48489SOL    HW145493   9.293  12.356   5.299
48489SOL    HW245494   9.210  12.491   5.336
48490SOL     OW45495   8.559  12.367   4.824
48490SOL    HW145496   8.519  12.411   4.905
48490SOL    HW245497   8.518  12.404   4.741
48491SOL     OW45498   9.086  12.271   4.803
48491SOL    HW145499   9.091  12.352   4.862
48491SOL    HW245500   9.000  12.273   4.752
48492SOL     OW45501   8.363  11.261   5.126
48492SOL    HW145502   8.388  11.241   5.031
48492SOL    HW245503   8.435  11.317   5.168
48493SOL     OW45504   8.428  12.288   5.443
48493SOL    HW145505   8.329  12.294   5.453
48493SOL    HW245506   8.451  12.208   5.387
48494SOL     OW45507   8.153  12.222   4.092
48494SOL    HW145508   8.139  12.229   4.191
48494SOL    HW245509   8.237  12.171   4.074
48495SOL     OW45510   7.858  11.985   4.975
48495SOL    HW145511   7.944  11.997   5.025
48495SOL    HW245512   7.816  11.898   5.002
48496SOL     OW45513   8.722  11.558   4.986
48496SOL    HW145514   8.743  11.632   5.050
48496SOL    HW245515   8.633  11.575   4.943
48497SOL     OW45516   7.815  12.272   4.225
48497SOL    HW145517   7.808  12.355   4.169
48497SOL    HW245518   7.819  12.192   4.165
48498SOL     OW45519   8.014  11.709   4.589
48498SOL    HW145520   8.026  11.775   4.515
48498SOL    HW245521   8.060  11.743   4.672
48499SOL     OW45522   8.700  12.520   4.112
48499SOL    HW145523   8.750  12.597   4.152
48499SOL    HW245524   8.605  12.522   4.144
48500SOL     OW45525   8.720  12.617   4.866
48500SOL    HW145526   8.767  12.630   4.953
48500SOL    HW245527   8.654  12.543   4.875
48501SOL     OW45528   9.030  11.811   4.196
48501SOL    HW145529   8.999  11.872   4.269
48501SOL    HW245530   9.080  11.863   4.127
48502SOL     OW45531   7.802  12.682   5.053
48502SOL    HW145532   7.781  12.638   4.966
48502SOL    HW245533   7.899  12.708   5.056
48503SOL     OW45534   7.850  11.923   5.322
48503SOL    HW145535   7.918  11.978   5.275
48503SOL    HW245536   7.890  11.835   5.349
48504SOL     OW45537   9.035  11.951   5.394
48504SOL    HW145538   8.943  11.989   5.389
48504SOL    HW245539   9.095  11.998   5.329
48505SOL     OW45540   8.461  11.277   5.494
48505SOL    HW145541   8.467  11.362   5.442
48505SOL    HW245542   8.493  11.201   5.437
48506SOL     OW45543   7.952  11.222   5.464
48506SOL    HW145544   7.910  11.165   5.394
48506SOL    HW245545   7.886  11.291   5.496
48507SOL     OW45546   8.021  12.042   4.753
48507SOL    HW145547   8.065  12.131   4.744
48507SOL    HW245548   7.958  12.042   4.830
48508SOL     OW45549   8.808  12.034   4.769
48508SOL    HW145550   8.733  12.034   4.703
48508SOL    HW245551   8.845  11.942   4.778
48509SOL     OW45552   8.657  11.697   3.999
48509SOL    HW145553   8.670  11.613   4.053
48509SOL    HW245554   8.628  11.771   4.059
48510SOL     OW45555   7.755  11.385   4.955
48510SOL    HW145556   7.732  11.422   5.045
48510SOL    HW245557   7.725  11.290   4.949
48511SOL     OW45558   7.485  12.482   5.006
48511SOL    HW145559   7.538  12.433   5.074
48511SOL    HW245560   7.507  12.580   5.011
48512SOL     OW45561   8.180  11.806   4.788
48512SOL    HW145562   8.239  11.780   4.712
48512SOL    HW245563   8.152  11.902   4.777
48513SOL     OW45564   9.176  12.107   5.578
48513SOL    HW145565   9.130  12.100   5.489
48513SOL    HW245566   9.114  12.151   5.644
48514SOL     OW45567   7.755  11.235   4.342
48514SOL    HW145568   7.744  11.329   4.375
48514SOL    HW245569   7.750  11.172   4.419
48515SOL     OW45570   9.070  11.539   4.098
48515SOL    HW145571   9.072  11.463   4.162
48515SOL    HW245572   9.022  11.616   4.138
48516SOL     OW45573   8.471  11.938   4.690
48516SOL    HW145574   8.486  11.959   4.786
48516SOL    HW245575   8.441  11.843   4.681
48517SOL     OW45576   9.307  12.690   5.329
48517SOL    HW145577   9.321  12.717   5.234
48517SOL    HW245578   9.390  12.712   5.382
48518SOL     OW45579   7.798  12.070   5.528
48518SOL    HW145580   7.874  12.114   5.576
48518SOL    HW245581   7.833  12.023   5.446
48519SOL     OW45582   8.988  11.446   3.849
48519SOL    HW145583   8.927  11.371   3.872
48519SOL    HW245584   9.010  11.498   3.932
48520SOL     OW45585   8.751  12.010   3.766
48520SOL    HW145586   8.785  11.917   3.781
48520SOL    HW245587   8.769  12.037   3.671
48521SOL     OW45588   8.516  12.505   4.573
48521SOL    HW145589   8.523  12.421   4.518
48521SOL    HW245590   8.578  12.574   4.537
48522SOL     OW45591   7.767  11.982   4.673
48522SOL    HW145592   7.860  12.018   4.678
48522SOL    HW245593   7.761  11.897   4.725
48523SOL     OW45594   7.787  11.681   4.730
48523SOL    HW145595   7.735  11.598   4.713
48523SOL    HW245596   7.864  11.686   4.666
48524SOL     OW45597   8.586  11.552   5.402
48524SOL    HW145598   8.541  11.615   5.466
48524SOL    HW245599   8.679  11.583   5.385
48525SOL     OW45600   8.608  11.379   5.201
48525SOL    HW145601   8.608  11.443   5.278
48525SOL    HW245602   8.636  11.427   5.118
48526SOL     OW45603   7.456  12.498   3.924
48526SOL    HW145604   7.363  12.519   3.893
48526SOL    HW245605   7.466  12.399   3.937
48527SOL     OW45606   8.450  11.968   4.962
48527SOL    HW145607   8.491  11.936   5.048
48527SOL    HW245608   8.354  11.941   4.959
48528SOL     OW45609   7.488  11.716   4.838
48528SOL    HW145610   7.573  11.683   4.797
48528SOL    HW245611   7.501  11.731   4.936
48529SOL     OW45612   7.637  11.692   5.446
48529SOL    HW145613   7.696  11.652   5.376
48529SOL    HW245614   7.579  11.763   5.405
48530SOL     OW45615   8.817  12.122   5.384
48530SOL    HW145616   8.856  12.211   5.404
48530SOL    HW245617   8.827  12.102   5.287
48531SOL     OW45618   8.263  11.744   4.049
48531SOL    HW145619   8.270  11.655   4.003
48531SOL    HW245620   8.169  11.778   4.041
48532SOL     OW45621   9.105  11.776   4.930
48532SOL    HW145622   9.067  11.707   4.992
48532SOL    HW245623   9.187  11.740   4.886
48533SOL     OW45624   7.700  12.736   5.468
48533SOL    HW145625   7.670  12.793   5.544
48533SOL    HW245626   7.693  12.639   5.494
48534SOL     OW45627   8.119  11.636   4.993
48534SOL    HW145628   8.085  11.547   4.963
48534SOL    HW245629   8.145  11.690   4.913
48535SOL     OW45630   7.921  11.672   3.915
48535SOL    HW145631   7.982  11.752   3.919
48535SOL    HW245632   7.826  11.703   3.922
48536SOL     OW45633   7.607  12.309   5.190
48536SOL    HW145634   7.629  12.248   5.266
48536SOL    HW245635   7.617  12.260   5.104
48537SOL     OW45636   8.795  12.231   4.958
48537SOL    HW145637   8.819  12.168   4.884
48537SOL    HW245638   8.705  12.271   4.940
48538SOL     OW45639   8.750  12.027   4.033
48538SOL    HW145640   8.664  11.996   4.075
48538SOL    HW245641   8.746  12.013   3.934
48539SOL     OW45642   7.531  12.430   4.746
48539SOL    HW145643   7.526  12.429   4.846
48539SOL    HW245644   7.448  12.389   4.708
48540SOL     OW45645   9.174  11.307   4.247
48540SOL    HW145646   9.247  11.290   4.180
48540SOL    HW245647   9.143  11.220   4.285
48541SOL     OW45648   8.728  12.099   4.396
48541SOL    HW145649   8.788  12.018   4.398
48541SOL    HW245650   8.768  12.168   4.336
48542SOL     OW45651   8.278  12.445   5.146
48542SOL    HW145652   8.273  12.478   5.241
48542SOL    HW245653   8.192  12.464   5.100
48543SOL     OW45654   9.289  11.347   4.687
48543SOL    HW145655   9.328  11.262   4.651
48543SOL    HW245656   9.191  11.349   4.668
48544SOL     OW45657   7.711  11.498   4.444
48544SOL    HW145658   7.632  11.549   4.410
48544SOL    HW245659   7.702  11.483   4.542
48545SOL     OW45660   8.270  12.174   5.096
48545SOL    HW145661   8.310  12.173   5.004
48545SOL    HW245662   8.280  12.266   5.136
48546SOL     OW45663   8.364  12.082   4.015
48546SOL    HW145664   8.427  12.120   3.947
48546SOL    HW245665   8.404  11.999   4.054
48547SOL     OW45666   7.820  12.460   5.214
48547SOL    HW145667   7.807  12.553   5.180
48547SOL    HW245668   7.736  12.408   5.201
48548SOL     OW45669   9.062  12.464   5.013
48548SOL    HW145670   9.122  12.467   5.093
48548SOL    HW245671   8.987  12.528   5.026
48549SOL     OW45672   8.487  12.270   4.420
48549SOL    HW145673   8.417  12.223   4.474
48549SOL    HW245674   8.546  12.202   4.377
48550SOL     OW45675   8.462  11.408   4.695
48550SOL    HW145676   8.454  11.372   4.602
48550SOL    HW245677   8.460  11.332   4.760
48551SOL     OW45678   9.157  11.557   5.105
48551SOL    HW145679   9.230  11.626   5.109
48551SOL    HW245680   9.185  11.482   5.046
48552SOL     OW45681   7.703  12.520   4.014
48552SOL    HW145682   7.607  12.521   3.987
48552SOL    HW245683   7.715  12.573   4.098
48553SOL     OW45684   7.553  12.185   5.450
48553SOL    HW145685   7.476  12.152   5.504
48553SOL    HW245686   7.638  12.155   5.492
48554SOL     OW45687   8.120  11.375   5.213
48554SOL    HW145688   8.210  11.359   5.173
48554SOL    HW245689   8.128  11.380   5.312
48555SOL     OW45690   7.523  11.517   3.757
48555SOL    HW145691   7.431  11.489   3.728
48555SOL    HW245692   7.554  11.594   3.701
48556SOL     OW45693   8.888  12.028   5.122
48556SOL    HW145694   8.831  12.080   5.059
48556SOL    HW245695   8.984  12.040   5.098
48557SOL     OW45696   7.520  11.338   4.042
48557SOL    HW145697   7.503  11.421   3.988
48557SOL    HW245698   7.610  11.301   4.020
48558SOL     OW45699   8.631  12.507   3.843
48558SOL    HW145700   8.532  12.496   3.845
48558SOL    HW245701   8.665  12.522   3.936
48559SOL     OW45702   8.061  12.014   5.155
48559SOL    HW145703   8.117  12.095   5.138
48559SOL    HW245704   8.120  11.934   5.158
48560SOL     OW45705   8.164  11.737   5.432
48560SOL    HW145706   8.183  11.802   5.506
48560SOL    HW245707   8.224  11.657   5.441
48561SOL     OW45708   8.898  12.392   5.357
48561SOL    HW145709   8.889  12.382   5.456
48561SOL    HW245710   8.994  12.385   5.331
48562SOL     OW45711   9.122  12.055   4.978
48562SOL    HW145712   9.095  11.966   4.941
48562SOL    HW245713   9.123  12.123   4.905
48563SOL     OW45714   8.673  11.497   4.173
48563SOL    HW145715   8.738  11.423   4.162
48563SOL    HW245716   8.693  11.547   4.257
48564SOL     OW45717   8.042  11.917   4.376
48564SOL    HW145718   8.092  12.002   4.357
48564SOL    HW245719   7.954  11.919   4.328
48565SOL     OW45720   9.225  11.514   5.366
48565SOL    HW145721   9.208  11.545   5.272
48565SOL    HW245722   9.141  11.477   5.404
48566SOL     OW45723   9.178  12.106   5.241
48566SOL    HW145724   9.216  12.197   5.256
48566SOL    HW245725   9.170  12.089   5.142
48567SOL     OW45726   8.307  12.546   3.740
48567SOL    HW145727   8.261  12.561   3.828
48567SOL    HW245728   8.351  12.631   3.710
48568SOL     OW45729   8.307  12.128   4.585
48568SOL    HW145730   8.361  12.059   4.633
48568SOL    HW245731   8.275  12.197   4.651
48569SOL     OW45732   8.531  12.156   3.811
48569SOL    HW145733   8.508  12.209   3.729
48569SOL    HW245734   8.612  12.100   3.792
48570SOL     OW45735   7.669  12.486   5.568
48570SOL    HW145736   7.604  12.413   5.547
48570SOL    HW245737   7.673  12.500   5.666
48571SOL     OW45738   7.527  12.412   4.377
48571SOL    HW145739   7.526  12.365   4.465
48571SOL    HW245740   7.609  12.384   4.326
48572SOL     OW45741   8.120  12.563   5.348
48572SOL    HW145742   8.042  12.513   5.386
48572SOL    HW245743   8.117  12.658   5.379
48573SOL     OW45744   9.272  11.364   4.951
48573SOL    HW145745   9.268  11.274   4.995
48573SOL    HW245746   9.275  11.353   4.852
48574SOL     OW45747   7.876  11.596   4.244
48574SOL    HW145748   7.906  11.524   4.182
48574SOL    HW245749   7.837  11.556   4.327
48575SOL     OW45750   9.153  12.659   4.828
48575SOL    HW145751   9.060  12.634   4.801
48575SOL    HW245752   9.179  12.609   4.910
48576SOL     OW45753   7.765  11.719   5.004
48576SOL    HW145754   7.803  11.660   5.076
48576SOL    HW245755   7.805  11.693   4.916
48577SOL     OW45756   8.872  11.386   4.836
48577SOL    HW145757   8.924  11.321   4.891
48577SOL    HW245758   8.823  11.449   4.897
48578SOL     OW45759   8.449  11.206   4.878
48578SOL    HW145760   8.386  11.134   4.847
48578SOL    HW245761   8.542  11.170   4.878
48579SOL     OW45762   8.218  12.502   4.025
48579SOL    HW145763   8.172  12.415   4.042
48579SOL    HW245764   8.309  12.499   4.066
48580SOL     OW45765   8.066  12.739   5.008
48580SOL    HW145766   8.061  12.821   5.065
48580SOL    HW245767   8.155  12.736   4.963
48581SOL     OW45768   8.800  11.224   3.892
48581SOL    HW145769   8.835  11.183   3.808
48581SOL    HW245770   8.710  11.186   3.912
48582SOL     OW45771   8.748  11.625   4.415
48582SOL    HW145772   8.689  11.705   4.419
48582SOL    HW245773   8.763  11.590   4.508
48583SOL     OW45774   9.041  11.393   4.606
48583SOL    HW145775   8.957  11.392   4.660
48583SOL    HW245776   9.043  11.476   4.550
48584SOL     OW45777   7.487  12.249   4.024
48584SOL    HW145778   7.586  12.238   4.015
48584SOL    HW245779   7.447  12.163   4.056
48585SOL     OW45780   7.678  11.800   5.699
48585SOL    HW145781   7.585  11.798   5.736
48585SOL    HW245782   7.679  11.761   5.607
48586SOL     OW45783   7.673  11.447   6.582
48586SOL    HW145784   7.708  11.430   6.674
48586SOL    HW245785   7.585  11.402   6.570
48587SOL     OW45786   7.467  11.540   6.233
48587SOL    HW145787   7.385  11.583   6.272
48587SOL    HW245788   7.439  11.467   6.170
48588SOL     OW45789   8.017  12.447   6.751
48588SOL    HW145790   7.924  12.440   6.714
48588SOL    HW245791   8.028  12.536   6.795
48589SOL     OW45792   9.003  12.683   6.289
48589SOL    HW145793   8.946  12.667   6.370
48589SOL    HW245794   8.944  12.693   6.209
48590SOL     OW45795   8.583  11.875   6.303
48590SOL    HW145796   8.640  11.953   6.278
48590SOL    HW245797   8.523  11.901   6.379
48591SOL     OW45798   9.203  11.779   5.817
48591SOL    HW145799   9.191  11.766   5.718
48591SOL    HW245800   9.173  11.698   5.866
48592SOL     OW45801   8.216  12.316   6.609
48592SOL    HW145802   8.138  12.333   6.669
48592SOL    HW245803   8.250  12.403   6.573
48593SOL     OW45804   8.298  11.970   7.409
48593SOL    HW145805   8.294  12.046   7.474
48593SOL    HW245806   8.320  12.006   7.318
48594SOL     OW45807   8.133  12.184   6.251
48594SOL    HW145808   8.202  12.168   6.321
48594SOL    HW245809   8.060  12.241   6.289
48595SOL     OW45810   8.134  12.333   7.389
48595SOL    HW145811   8.194  12.412   7.403
48595SOL    HW245812   8.048  12.364   7.348
48596SOL     OW45813   7.783  12.607   6.647
48596SOL    HW145814   7.705  12.576   6.594
48596SOL    HW245815   7.841  12.665   6.590
48597SOL     OW45816   8.908  12.677   6.925
48597SOL    HW145817   8.932  12.771   6.951
48597SOL    HW245818   8.892  12.623   7.007
48598SOL     OW45819   7.886  11.564   7.085
48598SOL    HW145820   7.968  11.508   7.094
48598SOL    HW245821   7.805  11.506   7.089
48599SOL     OW45822   9.051  11.619   6.323
48599SOL    HW145823   8.977  11.665   6.273
48599SOL    HW245824   9.102  11.687   6.376
48600SOL     OW45825   7.679  12.885   6.069
48600SOL    HW145826   7.713  12.962   6.123
48600SOL    HW245827   7.723  12.885   5.979
48601SOL     OW45828   8.575  12.513   7.276
48601SOL    HW145829   8.622  12.513   7.364
48601SOL    HW245830   8.527  12.426   7.265
48602SOL     OW45831   7.678  12.606   6.124
48602SOL    HW145832   7.652  12.702   6.124
48602SOL    HW245833   7.607  12.552   6.169
48603SOL     OW45834   7.688  12.263   6.472
48603SOL    HW145835   7.702  12.179   6.524
48603SOL    HW245836   7.633  12.327   6.527
48604SOL     OW45837   8.054  12.136   5.709
48604SOL    HW145838   8.061  12.220   5.655
48604SOL    HW245839   8.100  12.149   5.797
48605SOL     OW45840   9.042  11.286   7.066
48605SOL    HW145841   9.024  11.353   6.994
48605SOL    HW245842   9.039  11.332   7.155
48606SOL     OW45843   7.570  11.815   6.149
48606SOL    HW145844   7.525  11.727   6.166
48606SOL    HW245845   7.569  11.869   6.233
48607SOL     OW45846   7.475  12.768   5.703
48607SOL    HW145847   7.456  12.672   5.724
48607SOL    HW245848   7.442  12.826   5.778
48608SOL     OW45849   9.137  12.094   6.198
48608SOL    HW145850   9.232  12.065   6.206
48608SOL    HW245851   9.129  12.159   6.123
48609SOL     OW45852   9.089  12.280   6.018
48609SOL    HW145853   9.175  12.282   5.966
48609SOL    HW245854   9.103  12.327   6.106
48610SOL     OW45855   7.561  11.909   7.183
48610SOL    HW145856   7.649  11.896   7.228
48610SOL    HW245857   7.548  12.006   7.161
48611SOL     OW45858   8.061  12.537   6.312
48611SOL    HW145859   8.012  12.450   6.321
48611SOL    HW245860   8.038  12.580   6.225
48612SOL     OW45861   8.741  12.400   7.009
48612SOL    HW145862   8.778  12.327   6.951
48612SOL    HW245863   8.793  12.405   7.094
48613SOL     OW45864   8.257  11.176   6.088
48613SOL    HW145865   8.297  11.267   6.079
48613SOL    HW245866   8.157  11.184   6.094
48614SOL     OW45867   7.645  12.148   6.850
48614SOL    HW145868   7.734  12.103   6.836
48614SOL    HW245869   7.572  12.083   6.831
48615SOL     OW45870   8.973  12.171   5.776
48615SOL    HW145871   8.910  12.095   5.789
48615SOL    HW245872   9.021  12.189   5.862
48616SOL     OW45873   7.765  11.423   7.387
48616SOL    HW145874   7.836  11.494   7.393
48616SOL    HW245875   7.677  11.462   7.415
48617SOL     OW45876   8.914  12.589   6.539
48617SOL    HW145877   8.855  12.595   6.619
48617SOL    HW245878   8.899  12.501   6.493
48618SOL     OW45879   8.046  11.901   5.856
48618SOL    HW145880   8.070  11.970   5.788
48618SOL    HW245881   7.968  11.934   5.910
48619SOL     OW45882   8.729  11.517   6.530
48619SOL    HW145883   8.643  11.467   6.517
48619SOL    HW245884   8.791  11.463   6.586
48620SOL     OW45885   8.255  11.777   7.051
48620SOL    HW145886   8.208  11.774   7.140
48620SOL    HW245887   8.204  11.722   6.985
48621SOL     OW45888   8.842  11.641   7.260
48621SOL    HW145889   8.822  11.684   7.348
48621SOL    HW245890   8.920  11.579   7.269
48622SOL     OW45891   8.421  12.062   7.158
48622SOL    HW145892   8.467  11.978   7.129
48622SOL    HW245893   8.365  12.096   7.083
48623SOL     OW45894   8.439  11.582   6.828
48623SOL    HW145895   8.362  11.616   6.882
48623SOL    HW245896   8.405  11.531   6.749
48624SOL     OW45897   8.489  11.873   6.015
48624SOL    HW145898   8.515  11.869   6.111
48624SOL    HW245899   8.404  11.822   6.001
48625SOL     OW45900   7.524  11.983   6.375
48625SOL    HW145901   7.623  11.971   6.384
48625SOL    HW245902   7.500  12.078   6.396
48626SOL     OW45903   8.313  11.520   5.781
48626SOL    HW145904   8.372  11.583   5.732
48626SOL    HW245905   8.332  11.426   5.752
48627SOL     OW45906   9.167  11.757   7.417
48627SOL    HW145907   9.141  11.846   7.381
48627SOL    HW245908   9.165  11.689   7.344
48628SOL     OW45909   8.810  12.316   6.131
48628SOL    HW145910   8.893  12.287   6.083
48628SOL    HW245911   8.761  12.383   6.075
48629SOL     OW45912   7.998  11.368   6.471
48629SOL    HW145913   7.993  11.363   6.571
48629SOL    HW245914   8.000  11.464   6.442
48630SOL     OW45915   8.456  12.628   6.063
48630SOL    HW145916   8.410  12.700   6.011
48630SOL    HW245917   8.452  12.648   6.161
48631SOL     OW45918   9.243  12.238   6.459
48631SOL    HW145919   9.181  12.223   6.383
48631SOL    HW245920   9.191  12.249   6.544
48632SOL     OW45921   8.675  12.722   7.092
48632SOL    HW145922   8.681  12.645   7.156
48632SOL    HW245923   8.623  12.696   7.012
48633SOL     OW45924   7.769  12.115   5.828
48633SOL    HW145925   7.851  12.154   5.786
48633SOL    HW245926   7.742  12.033   5.779
48634SOL     OW45927   8.906  11.907   6.314
48634SOL    HW145928   8.901  11.842   6.389
48634SOL    HW245929   8.986  11.966   6.327
48635SOL     OW45930   7.909  12.438   7.313
48635SOL    HW145931   7.859  12.439   7.227
48635SOL    HW245932   7.846  12.420   7.389
48636SOL     OW45933   8.559  12.948   5.823
48636SOL    HW145934   8.499  12.886   5.873
48636SOL    HW245935   8.590  12.904   5.738
48637SOL     OW45936   7.650  11.457   7.084
48637SOL    HW145937   7.570  11.517   7.071
48637SOL    HW245938   7.640  11.408   7.170
48638SOL     OW45939   9.080  12.549   5.667
48638SOL    HW145940   9.048  12.643   5.657
48638SOL    HW245941   9.004  12.486   5.655
48639SOL     OW45942   8.848  11.279   6.012
48639SOL    HW145943   8.824  11.242   5.922
48639SOL    HW245944   8.947  11.295   6.016
48640SOL     OW45945   7.830  11.872   6.066
48640SOL    HW145946   7.875  11.782   6.063
48640SOL    HW245947   7.736  11.861   6.099
48641SOL     OW45948   8.995  11.394   7.315
48641SOL    HW145949   8.990  11.431   7.407
48641SOL    HW245950   8.923  11.325   7.303
48642SOL     OW45951   8.062  11.294   5.703
48642SOL    HW145952   8.160  11.272   5.710
48642SOL    HW245953   8.031  11.277   5.610
48643SOL     OW45954   8.229  11.436   7.335
48643SOL    HW145955   8.296  11.375   7.378
48643SOL    HW245956   8.156  11.455   7.400
48644SOL     OW45957   8.799  11.762   7.019
48644SOL    HW145958   8.827  11.719   7.104
48644SOL    HW245959   8.824  11.858   7.020
48645SOL     OW45960   8.251  12.574   6.510
48645SOL    HW145961   8.341  12.588   6.468
48645SOL    HW245962   8.180  12.576   6.439
48646SOL     OW45963   8.370  11.675   6.485
48646SOL    HW145964   8.345  11.666   6.389
48646SOL    HW245965   8.418  11.593   6.516
48647SOL     OW45966   7.987  11.236   6.098
48647SOL    HW145967   7.906  11.237   6.156
48647SOL    HW245968   7.990  11.319   6.043
48648SOL     OW45969   8.882  12.360   5.627
48648SOL    HW145970   8.914  12.284   5.684
48648SOL    HW245971   8.790  12.387   5.657
48649SOL     OW45972   7.745  11.207   5.757
48649SOL    HW145973   7.794  11.291   5.736
48649SOL    HW245974   7.807  11.142   5.802
48650SOL     OW45975   8.383  11.408   6.066
48650SOL    HW145976   8.335  11.449   5.988
48650SOL    HW245977   8.482  11.406   6.047
48651SOL     OW45978   8.524  11.855   7.050
48651SOL    HW145979   8.444  11.794   7.053
48651SOL    HW245980   8.605  11.802   7.026
48652SOL     OW45981   8.675  12.742   6.379
48652SOL    HW145982   8.696  12.816   6.314
48652SOL    HW245983   8.743  12.742   6.452
48653SOL     OW45984   7.907  12.324   6.327
48653SOL    HW145985   7.836  12.297   6.392
48653SOL    HW245986   7.881  12.296   6.234
48654SOL     OW45987   8.480  11.721   5.602
48654SOL    HW145988   8.439  11.803   5.563
48654SOL    HW245989   8.544  11.747   5.675
48655SOL     OW45990   7.526  11.728   6.972
48655SOL    HW145991   7.618  11.727   6.931
48655SOL    HW245992   7.520  11.802   7.039
48656SOL     OW45993   8.009  11.394   6.733
48656SOL    HW145994   8.047  11.310   6.770
48656SOL    HW245995   7.921  11.413   6.777
48657SOL     OW45996   8.314  11.626   6.228
48657SOL    HW145997   8.282  11.698   6.166
48657SOL    HW245998   8.338  11.545   6.175
48658SOL     OW45999   8.465  11.211   6.339
48658SOL    HW146000   8.393  11.216   6.270
48658SOL    HW246001   8.441  11.142   6.408
48659SOL     OW46002   8.877  12.345   6.453
48659SOL    HW146003   8.822  12.261   6.446
48659SOL    HW246004   8.903  12.374   6.361
48660SOL     OW46005   8.914  11.762   6.578
48660SOL    HW146006   8.884  11.667   6.585
48660SOL    HW246007   8.987  11.778   6.644
48661SOL     OW46008   9.305  12.005   5.963
48661SOL    HW146009   9.347  11.941   6.027
48661SOL    HW246010   9.267  11.954   5.885
48662SOL     OW46011   7.936  12.557   5.760
48662SOL    HW146012   7.849  12.542   5.807
48662SOL    HW246013   7.919  12.583   5.665
48663SOL     OW46014   9.112  12.452   6.243
48663SOL    HW146015   9.211  12.460   6.257
48663SOL    HW246016   9.067  12.536   6.274
48664SOL     OW46017   8.838  11.747   5.664
48664SOL    HW146018   8.784  11.726   5.745
48664SOL    HW246019   8.929  11.706   5.673
48665SOL     OW46020   7.975  11.428   5.914
48665SOL    HW146021   8.002  11.369   5.839
48665SOL    HW246022   7.975  11.523   5.883
48666SOL     OW46023   9.202  12.395   7.174
48666SOL    HW146024   9.293  12.356   7.161
48666SOL    HW246025   9.210  12.491   7.198
48667SOL     OW46026   8.512  12.519   6.926
48667SOL    HW146027   8.432  12.496   6.981
48667SOL    HW246028   8.595  12.493   6.975
48668SOL     OW46029   8.559  12.367   6.686
48668SOL    HW146030   8.519  12.411   6.767
48668SOL    HW246031   8.518  12.404   6.603
48669SOL     OW46032   9.086  12.271   6.665
48669SOL    HW146033   9.091  12.352   6.724
48669SOL    HW246034   9.000  12.273   6.614
48670SOL     OW46035   8.363  11.261   6.988
48670SOL    HW146036   8.388  11.241   6.893
48670SOL    HW246037   8.435  11.317   7.030
48671SOL     OW46038   8.428  12.288   7.305
48671SOL    HW146039   8.329  12.294   7.315
48671SOL    HW246040   8.451  12.208   7.249
48672SOL     OW46041   8.153  12.222   5.954
48672SOL    HW146042   8.139  12.229   6.053
48672SOL    HW246043   8.237  12.171   5.936
48673SOL     OW46044   7.858  11.985   6.837
48673SOL    HW146045   7.944  11.997   6.887
48673SOL    HW246046   7.816  11.898   6.864
48674SOL     OW46047   8.722  11.558   6.848
48674SOL    HW146048   8.743  11.632   6.912
48674SOL    HW246049   8.633  11.575   6.805
48675SOL     OW46050   7.815  12.272   6.087
48675SOL    HW146051   7.808  12.355   6.031
48675SOL    HW246052   7.819  12.192   6.027
48676SOL     OW46053   8.014  11.709   6.451
48676SOL    HW146054   8.026  11.775   6.377
48676SOL    HW246055   8.060  11.743   6.534
48677SOL     OW46056   8.700  12.520   5.974
48677SOL    HW146057   8.750  12.597   6.014
48677SOL    HW246058   8.605  12.522   6.006
48678SOL     OW46059   8.720  12.617   6.728
48678SOL    HW146060   8.767  12.630   6.815
48678SOL    HW246061   8.654  12.543   6.737
48679SOL     OW46062   9.030  11.811   6.058
48679SOL    HW146063   8.999  11.872   6.131
48679SOL    HW246064   9.080  11.863   5.989
48680SOL     OW46065   7.802  12.682   6.915
48680SOL    HW146066   7.781  12.638   6.828
48680SOL    HW246067   7.899  12.708   6.918
48681SOL     OW46068   7.850  11.923   7.184
48681SOL    HW146069   7.918  11.978   7.137
48681SOL    HW246070   7.890  11.835   7.211
48682SOL     OW46071   9.035  11.951   7.256
48682SOL    HW146072   8.943  11.989   7.251
48682SOL    HW246073   9.095  11.998   7.191
48683SOL     OW46074   8.461  11.277   7.356
48683SOL    HW146075   8.467  11.362   7.304
48683SOL    HW246076   8.493  11.201   7.299
48684SOL     OW46077   7.952  11.222   7.326
48684SOL    HW146078   7.910  11.165   7.256
48684SOL    HW246079   7.886  11.291   7.358
48685SOL     OW46080   8.021  12.042   6.615
48685SOL    HW146081   8.065  12.131   6.606
48685SOL    HW246082   7.958  12.042   6.692
48686SOL     OW46083   8.808  12.034   6.631
48686SOL    HW146084   8.733  12.034   6.565
48686SOL    HW246085   8.845  11.942   6.640
48687SOL     OW46086   8.657  11.697   5.861
48687SOL    HW146087   8.670  11.613   5.915
48687SOL    HW246088   8.628  11.771   5.921
48688SOL     OW46089   7.755  11.385   6.817
48688SOL    HW146090   7.732  11.422   6.907
48688SOL    HW246091   7.725  11.290   6.811
48689SOL     OW46092   7.485  12.482   6.868
48689SOL    HW146093   7.538  12.433   6.936
48689SOL    HW246094   7.507  12.580   6.873
48690SOL     OW46095   8.180  11.806   6.650
48690SOL    HW146096   8.239  11.780   6.574
48690SOL    HW246097   8.152  11.902   6.639
48691SOL     OW46098   9.176  12.107   7.440
48691SOL    HW146099   9.130  12.100   7.351
48691SOL    HW246100   9.114  12.151   7.506
48692SOL     OW46101   7.755  11.235   6.204
48692SOL    HW146102   7.744  11.329   6.237
48692SOL    HW246103   7.750  11.172   6.281
48693SOL     OW46104   9.070  11.539   5.960
48693SOL    HW146105   9.072  11.463   6.024
48693SOL    HW246106   9.022  11.616   6.000
48694SOL     OW46107   8.471  11.938   6.552
48694SOL    HW146108   8.486  11.959   6.648
48694SOL    HW246109   8.441  11.843   6.543
48695SOL     OW46110   9.307  12.690   7.191
48695SOL    HW146111   9.321  12.717   7.096
48695SOL    HW246112   9.390  12.712   7.244
48696SOL     OW46113   7.798  12.070   7.390
48696SOL    HW146114   7.874  12.114   7.438
48696SOL    HW246115   7.833  12.023   7.308
48697SOL     OW46116   8.988  11.446   5.711
48697SOL    HW146117   8.927  11.371   5.734
48697SOL    HW246118   9.010  11.498   5.794
48698SOL     OW46119   8.751  12.010   5.628
48698SOL    HW146120   8.785  11.917   5.643
48698SOL    HW246121   8.769  12.037   5.533
48699SOL     OW46122   8.516  12.505   6.435
48699SOL    HW146123   8.523  12.421   6.380
48699SOL    HW246124   8.578  12.574   6.399
48700SOL     OW46125   7.767  11.982   6.535
48700SOL    HW146126   7.860  12.018   6.540
48700SOL    HW246127   7.761  11.897   6.587
48701SOL     OW46128   7.787  11.681   6.592
48701SOL    HW146129   7.735  11.598   6.575
48701SOL    HW246130   7.864  11.686   6.528
48702SOL     OW46131   8.586  11.552   7.264
48702SOL    HW146132   8.541  11.615   7.328
48702SOL    HW246133   8.679  11.583   7.247
48703SOL     OW46134   8.608  11.379   7.063
48703SOL    HW146135   8.608  11.443   7.140
48703SOL    HW246136   8.636  11.427   6.980
48704SOL     OW46137   7.456  12.498   5.786
48704SOL    HW146138   7.363  12.519   5.755
48704SOL    HW246139   7.466  12.399   5.799
48705SOL     OW46140   8.450  11.968   6.824
48705SOL    HW146141   8.491  11.936   6.910
48705SOL    HW246142   8.354  11.941   6.821
48706SOL     OW46143   7.488  11.716   6.700
48706SOL    HW146144   7.573  11.683   6.659
48706SOL    HW246145   7.501  11.731   6.798
48707SOL     OW46146   7.637  11.692   7.308
48707SOL    HW146147   7.696  11.652   7.238
48707SOL    HW246148   7.579  11.763   7.267
48708SOL     OW46149   8.817  12.122   7.246
48708SOL    HW146150   8.856  12.211   7.266
48708SOL    HW246151   8.827  12.102   7.149
48709SOL     OW46152   8.263  11.744   5.911
48709SOL    HW146153   8.270  11.655   5.865
48709SOL    HW246154   8.169  11.778   5.903
48710SOL     OW46155   9.105  11.776   6.792
48710SOL    HW146156   9.067  11.707   6.854
48710SOL    HW246157   9.187  11.740   6.748
48711SOL     OW46158   7.700  12.736   7.330
48711SOL    HW146159   7.670  12.793   7.406
48711SOL    HW246160   7.693  12.639   7.356
48712SOL     OW46161   8.119  11.636   6.855
48712SOL    HW146162   8.085  11.547   6.825
48712SOL    HW246163   8.145  11.690   6.775
48713SOL     OW46164   7.921  11.672   5.777
48713SOL    HW146165   7.982  11.752   5.781
48713SOL    HW246166   7.826  11.703   5.784
48714SOL     OW46167   7.607  12.309   7.052
48714SOL    HW146168   7.629  12.248   7.128
48714SOL    HW246169   7.617  12.260   6.966
48715SOL     OW46170   8.795  12.231   6.820
48715SOL    HW146171   8.819  12.168   6.746
48715SOL    HW246172   8.705  12.271   6.802
48716SOL     OW46173   8.750  12.027   5.895
48716SOL    HW146174   8.664  11.996   5.937
48716SOL    HW246175   8.746  12.013   5.796
48717SOL     OW46176   7.531  12.430   6.608
48717SOL    HW146177   7.526  12.429   6.708
48717SOL    HW246178   7.448  12.389   6.570
48718SOL     OW46179   9.174  11.307   6.109
48718SOL    HW146180   9.247  11.290   6.042
48718SOL    HW246181   9.143  11.220   6.147
48719SOL     OW46182   8.728  12.099   6.258
48719SOL    HW146183   8.788  12.018   6.260
48719SOL    HW246184   8.768  12.168   6.198
48720SOL     OW46185   8.278  12.445   7.008
48720SOL    HW146186   8.273  12.478   7.103
48720SOL    HW246187   8.192  12.464   6.962
48721SOL     OW46188   9.289  11.347   6.549
48721SOL    HW146189   9.328  11.262   6.513
48721SOL    HW246190   9.191  11.349   6.530
48722SOL     OW46191   7.711  11.498   6.306
48722SOL    HW146192   7.632  11.549   6.272
48722SOL    HW246193   7.702  11.483   6.404
48723SOL     OW46194   8.270  12.174   6.958
48723SOL    HW146195   8.310  12.173   6.866
48723SOL    HW246196   8.280  12.266   6.998
48724SOL     OW46197   8.364  12.082   5.877
48724SOL    HW146198   8.427  12.120   5.809
48724SOL    HW246199   8.404  11.999   5.916
48725SOL     OW46200   7.820  12.460   7.076
48725SOL    HW146201   7.807  12.553   7.042
48725SOL    HW246202   7.736  12.408   7.063
48726SOL     OW46203   9.062  12.464   6.875
48726SOL    HW146204   9.122  12.467   6.955
48726SOL    HW246205   8.987  12.528   6.888
48727SOL     OW46206   8.487  12.270   6.282
48727SOL    HW146207   8.417  12.223   6.336
48727SOL    HW246208   8.546  12.202   6.239
48728SOL     OW46209   8.462  11.408   6.557
48728SOL    HW146210   8.454  11.372   6.464
48728SOL    HW246211   8.460  11.332   6.622
48729SOL     OW46212   9.157  11.557   6.967
48729SOL    HW146213   9.230  11.626   6.971
48729SOL    HW246214   9.185  11.482   6.908
48730SOL     OW46215   7.703  12.520   5.876
48730SOL    HW146216   7.607  12.521   5.849
48730SOL    HW246217   7.715  12.573   5.960
48731SOL     OW46218   7.553  12.185   7.312
48731SOL    HW146219   7.476  12.152   7.366
48731SOL    HW246220   7.638  12.155   7.354
48732SOL     OW46221   8.120  11.375   7.075
48732SOL    HW146222   8.210  11.359   7.035
48732SOL    HW246223   8.128  11.380   7.174
48733SOL     OW46224   7.523  11.517   5.619
48733SOL    HW146225   7.431  11.489   5.590
48733SOL    HW246226   7.554  11.594   5.563
48734SOL     OW46227   8.888  12.028   6.984
48734SOL    HW146228   8.831  12.080   6.921
48734SOL    HW246229   8.984  12.040   6.960
48735SOL     OW46230   7.520  11.338   5.904
48735SOL    HW146231   7.503  11.421   5.850
48735SOL    HW246232   7.610  11.301   5.882
48736SOL     OW46233   8.631  12.507   5.705
48736SOL    HW146234   8.532  12.496   5.707
48736SOL    HW246235   8.665  12.522   5.798
48737SOL     OW46236   8.061  12.014   7.017
48737SOL    HW146237   8.117  12.095   7.000
48737SOL    HW246238   8.120  11.934   7.020
48738SOL     OW46239   8.164  11.737   7.294
48738SOL    HW146240   8.183  11.802   7.368
48738SOL    HW246241   8.224  11.657   7.303
48739SOL     OW46242   8.898  12.392   7.219
48739SOL    HW146243   8.889  12.382   7.318
48739SOL    HW246244   8.994  12.385   7.193
48740SOL     OW46245   9.122  12.055   6.840
48740SOL    HW146246   9.095  11.966   6.803
48740SOL    HW246247   9.123  12.123   6.767
48741SOL     OW46248   8.673  11.497   6.035
48741SOL    HW146249   8.738  11.423   6.024
48741SOL    HW246250   8.693  11.547   6.119
48742SOL     OW46251   8.042  11.917   6.238
48742SOL    HW146252   8.092  12.002   6.219
48742SOL    HW246253   7.954  11.919   6.190
48743SOL     OW46254   9.225  11.514   7.228
48743SOL    HW146255   9.208  11.545   7.134
48743SOL    HW246256   9.141  11.477   7.266
48744SOL     OW46257   9.178  12.106   7.103
48744SOL    HW146258   9.216  12.197   7.118
48744SOL    HW246259   9.170  12.089   7.004
48745SOL     OW46260   8.307  12.546   5.602
48745SOL    HW146261   8.261  12.561   5.690
48745SOL    HW246262   8.351  12.631   5.572
48746SOL     OW46263   8.307  12.128   6.447
48746SOL    HW146264   8.361  12.059   6.495
48746SOL    HW246265   8.275  12.197   6.513
48747SOL     OW46266   8.531  12.156   5.673
48747SOL    HW146267   8.508  12.209   5.591
48747SOL    HW246268   8.612  12.100   5.654
48748SOL     OW46269   7.669  12.486   7.430
48748SOL    HW146270   7.604  12.413   7.409
48748SOL    HW246271   7.673  12.500   7.528
48749SOL     OW46272   7.527  12.412   6.239
48749SOL    HW146273   7.526  12.365   6.327
48749SOL    HW246274   7.609  12.384   6.188
48750SOL     OW46275   8.120  12.563   7.210
48750SOL    HW146276   8.042  12.513   7.248
48750SOL    HW246277   8.117  12.658   7.241
48751SOL     OW46278   9.272  11.364   6.813
48751SOL    HW146279   9.268  11.274   6.857
48751SOL    HW246280   9.275  11.353   6.714
48752SOL     OW46281   7.876  11.596   6.106
48752SOL    HW146282   7.906  11.524   6.044
48752SOL    HW246283   7.837  11.556   6.189
48753SOL     OW46284   9.153  12.659   6.690
48753SOL    HW146285   9.060  12.634   6.663
48753SOL    HW246286   9.179  12.609   6.772
48754SOL     OW46287   7.765  11.719   6.866
48754SOL    HW146288   7.803  11.660   6.938
48754SOL    HW246289   7.805  11.693   6.778
48755SOL     OW46290   8.872  11.386   6.698
48755SOL    HW146291   8.924  11.321   6.753
48755SOL    HW246292   8.823  11.449   6.759
48756SOL     OW46293   8.449  11.206   6.740
48756SOL    HW146294   8.386  11.134   6.709
48756SOL    HW246295   8.542  11.170   6.740
48757SOL     OW46296   8.218  12.502   5.887
48757SOL    HW146297   8.172  12.415   5.904
48757SOL    HW246298   8.309  12.499   5.928
48758SOL     OW46299   8.066  12.739   6.870
48758SOL    HW146300   8.061  12.821   6.927
48758SOL    HW246301   8.155  12.736   6.825
48759SOL     OW46302   8.800  11.224   5.754
48759SOL    HW146303   8.835  11.183   5.670
48759SOL    HW246304   8.710  11.186   5.774
48760SOL     OW46305   8.748  11.625   6.277
48760SOL    HW146306   8.689  11.705   6.281
48760SOL    HW246307   8.763  11.590   6.370
48761SOL     OW46308   9.041  11.393   6.468
48761SOL    HW146309   8.957  11.392   6.522
48761SOL    HW246310   9.043  11.476   6.412
48762SOL     OW46311   7.487  12.249   5.886
48762SOL    HW146312   7.586  12.238   5.877
48762SOL    HW246313   7.447  12.163   5.918
48763SOL     OW46314   7.678  11.800   7.561
48763SOL    HW146315   7.585  11.798   7.598
48763SOL    HW246316   7.679  11.761   7.469
48764SOL     OW46317   7.673  11.447   8.444
48764SOL    HW146318   7.708  11.430   8.536
48764SOL    HW246319   7.585  11.402   8.432
48765SOL     OW46320   7.467  11.540   8.095
48765SOL    HW146321   7.385  11.583   8.134
48765SOL    HW246322   7.439  11.467   8.032
48766SOL     OW46323   8.017  12.447   8.613
48766SOL    HW146324   7.924  12.440   8.576
48766SOL    HW246325   8.028  12.536   8.657
48767SOL     OW46326   9.003  12.683   8.151
48767SOL    HW146327   8.946  12.667   8.232
48767SOL    HW246328   8.944  12.693   8.071
48768SOL     OW46329   8.583  11.875   8.165
48768SOL    HW146330   8.640  11.953   8.140
48768SOL    HW246331   8.523  11.901   8.241
48769SOL     OW46332   9.203  11.779   7.679
48769SOL    HW146333   9.191  11.766   7.580
48769SOL    HW246334   9.173  11.698   7.728
48770SOL     OW46335   8.216  12.316   8.471
48770SOL    HW146336   8.138  12.333   8.531
48770SOL    HW246337   8.250  12.403   8.435
48771SOL     OW46338   8.298  11.970   9.271
48771SOL    HW146339   8.294  12.046   9.336
48771SOL    HW246340   8.320  12.006   9.180
48772SOL     OW46341   8.133  12.184   8.113
48772SOL    HW146342   8.202  12.168   8.183
48772SOL    HW246343   8.060  12.241   8.151
48773SOL     OW46344   8.134  12.333   9.251
48773SOL    HW146345   8.194  12.412   9.265
48773SOL    HW246346   8.048  12.364   9.210
48774SOL     OW46347   7.783  12.607   8.509
48774SOL    HW146348   7.705  12.576   8.456
48774SOL    HW246349   7.841  12.665   8.452
48775SOL     OW46350   8.908  12.677   8.787
48775SOL    HW146351   8.932  12.771   8.813
48775SOL    HW246352   8.892  12.623   8.869
48776SOL     OW46353   7.886  11.564   8.947
48776SOL    HW146354   7.968  11.508   8.956
48776SOL    HW246355   7.805  11.506   8.951
48777SOL     OW46356   9.051  11.619   8.185
48777SOL    HW146357   8.977  11.665   8.135
48777SOL    HW246358   9.102  11.687   8.238
48778SOL     OW46359   7.679  12.885   7.931
48778SOL    HW146360   7.713  12.962   7.985
48778SOL    HW246361   7.723  12.885   7.841
48779SOL     OW46362   8.575  12.513   9.138
48779SOL    HW146363   8.622  12.513   9.226
48779SOL    HW246364   8.527  12.426   9.127
48780SOL     OW46365   7.678  12.606   7.986
48780SOL    HW146366   7.652  12.702   7.986
48780SOL    HW246367   7.607  12.552   8.031
48781SOL     OW46368   7.688  12.263   8.334
48781SOL    HW146369   7.702  12.179   8.386
48781SOL    HW246370   7.633  12.327   8.389
48782SOL     OW46371   8.054  12.136   7.571
48782SOL    HW146372   8.061  12.220   7.517
48782SOL    HW246373   8.100  12.149   7.659
48783SOL     OW46374   9.042  11.286   8.928
48783SOL    HW146375   9.024  11.353   8.856
48783SOL    HW246376   9.039  11.332   9.017
48784SOL     OW46377   7.570  11.815   8.011
48784SOL    HW146378   7.525  11.727   8.028
48784SOL    HW246379   7.569  11.869   8.095
48785SOL     OW46380   7.475  12.768   7.565
48785SOL    HW146381   7.456  12.672   7.586
48785SOL    HW246382   7.442  12.826   7.640
48786SOL     OW46383   9.137  12.094   8.060
48786SOL    HW146384   9.232  12.065   8.068
48786SOL    HW246385   9.129  12.159   7.985
48787SOL     OW46386   9.089  12.280   7.880
48787SOL    HW146387   9.175  12.282   7.828
48787SOL    HW246388   9.103  12.327   7.968
48788SOL     OW46389   7.561  11.909   9.045
48788SOL    HW146390   7.649  11.896   9.090
48788SOL    HW246391   7.548  12.006   9.023
48789SOL     OW46392   8.061  12.537   8.174
48789SOL    HW146393   8.012  12.450   8.183
48789SOL    HW246394   8.038  12.580   8.087
48790SOL     OW46395   8.741  12.400   8.871
48790SOL    HW146396   8.778  12.327   8.813
48790SOL    HW246397   8.793  12.405   8.956
48791SOL     OW46398   8.257  11.176   7.950
48791SOL    HW146399   8.297  11.267   7.941
48791SOL    HW246400   8.157  11.184   7.956
48792SOL     OW46401   7.645  12.148   8.712
48792SOL    HW146402   7.734  12.103   8.698
48792SOL    HW246403   7.572  12.083   8.693
48793SOL     OW46404   8.973  12.171   7.638
48793SOL    HW146405   8.910  12.095   7.651
48793SOL    HW246406   9.021  12.189   7.724
48794SOL     OW46407   8.914  12.589   8.401
48794SOL    HW146408   8.855  12.595   8.481
48794SOL    HW246409   8.899  12.501   8.355
48795SOL     OW46410   8.046  11.901   7.718
48795SOL    HW146411   8.070  11.970   7.650
48795SOL    HW246412   7.968  11.934   7.772
48796SOL     OW46413   8.729  11.517   8.392
48796SOL    HW146414   8.643  11.467   8.379
48796SOL    HW246415   8.791  11.463   8.448
48797SOL     OW46416   8.255  11.777   8.913
48797SOL    HW146417   8.208  11.774   9.002
48797SOL    HW246418   8.204  11.722   8.847
48798SOL     OW46419   8.842  11.641   9.122
48798SOL    HW146420   8.822  11.684   9.210
48798SOL    HW246421   8.920  11.579   9.131
48799SOL     OW46422   8.421  12.062   9.020
48799SOL    HW146423   8.467  11.978   8.991
48799SOL    HW246424   8.365  12.096   8.945
48800SOL     OW46425   8.439  11.582   8.690
48800SOL    HW146426   8.362  11.616   8.744
48800SOL    HW246427   8.405  11.531   8.611
48801SOL     OW46428   8.489  11.873   7.877
48801SOL    HW146429   8.515  11.869   7.973
48801SOL    HW246430   8.404  11.822   7.863
48802SOL     OW46431   7.524  11.983   8.237
48802SOL    HW146432   7.623  11.971   8.246
48802SOL    HW246433   7.500  12.078   8.258
48803SOL     OW46434   8.313  11.520   7.643
48803SOL    HW146435   8.372  11.583   7.594
48803SOL    HW246436   8.332  11.426   7.614
48804SOL     OW46437   9.167  11.757   9.279
48804SOL    HW146438   9.141  11.846   9.243
48804SOL    HW246439   9.165  11.689   9.206
48805SOL     OW46440   8.810  12.316   7.993
48805SOL    HW146441   8.893  12.287   7.945
48805SOL    HW246442   8.761  12.383   7.937
48806SOL     OW46443   7.998  11.368   8.333
48806SOL    HW146444   7.993  11.363   8.433
48806SOL    HW246445   8.000  11.464   8.304
48807SOL     OW46446   8.456  12.628   7.925
48807SOL    HW146447   8.410  12.700   7.873
48807SOL    HW246448   8.452  12.648   8.023
48808SOL     OW46449   9.243  12.238   8.321
48808SOL    HW146450   9.181  12.223   8.245
48808SOL    HW246451   9.191  12.249   8.406
48809SOL     OW46452   8.675  12.722   8.954
48809SOL    HW146453   8.681  12.645   9.018
48809SOL    HW246454   8.623  12.696   8.874
48810SOL     OW46455   7.769  12.115   7.690
48810SOL    HW146456   7.851  12.154   7.648
48810SOL    HW246457   7.742  12.033   7.641
48811SOL     OW46458   8.906  11.907   8.176
48811SOL    HW146459   8.901  11.842   8.251
48811SOL    HW246460   8.986  11.966   8.189
48812SOL     OW46461   7.909  12.438   9.175
48812SOL    HW146462   7.859  12.439   9.089
48812SOL    HW246463   7.846  12.420   9.251
48813SOL     OW46464   8.559  12.948   7.685
48813SOL    HW146465   8.499  12.886   7.735
48813SOL    HW246466   8.590  12.904   7.600
48814SOL     OW46467   7.650  11.457   8.946
48814SOL    HW146468   7.570  11.517   8.933
48814SOL    HW246469   7.640  11.408   9.032
48815SOL     OW46470   9.080  12.549   7.529
48815SOL    HW146471   9.048  12.643   7.519
48815SOL    HW246472   9.004  12.486   7.517
48816SOL     OW46473   8.848  11.279   7.874
48816SOL    HW146474   8.824  11.242   7.784
48816SOL    HW246475   8.947  11.295   7.878
48817SOL     OW46476   7.830  11.872   7.928
48817SOL    HW146477   7.875  11.782   7.925
48817SOL    HW246478   7.736  11.861   7.961
48818SOL     OW46479   8.995  11.394   9.177
48818SOL    HW146480   8.990  11.431   9.269
48818SOL    HW246481   8.923  11.325   9.165
48819SOL     OW46482   8.062  11.294   7.565
48819SOL    HW146483   8.160  11.272   7.572
48819SOL    HW246484   8.031  11.277   7.472
48820SOL     OW46485   8.229  11.436   9.197
48820SOL    HW146486   8.296  11.375   9.240
48820SOL    HW246487   8.156  11.455   9.262
48821SOL     OW46488   8.799  11.762   8.881
48821SOL    HW146489   8.827  11.719   8.966
48821SOL    HW246490   8.824  11.858   8.882
48822SOL     OW46491   8.251  12.574   8.372
48822SOL    HW146492   8.341  12.588   8.330
48822SOL    HW246493   8.180  12.576   8.301
48823SOL     OW46494   8.370  11.675   8.347
48823SOL    HW146495   8.345  11.666   8.251
48823SOL    HW246496   8.418  11.593   8.378
48824SOL     OW46497   7.987  11.236   7.960
48824SOL    HW146498   7.906  11.237   8.018
48824SOL    HW246499   7.990  11.319   7.905
48825SOL     OW46500   8.882  12.360   7.489
48825SOL    HW146501   8.914  12.284   7.546
48825SOL    HW246502   8.790  12.387   7.519
48826SOL     OW46503   7.745  11.207   7.619
48826SOL    HW146504   7.794  11.291   7.598
48826SOL    HW246505   7.807  11.142   7.664
48827SOL     OW46506   8.383  11.408   7.928
48827SOL    HW146507   8.335  11.449   7.850
48827SOL    HW246508   8.482  11.406   7.909
48828SOL     OW46509   8.524  11.855   8.912
48828SOL    HW146510   8.444  11.794   8.915
48828SOL    HW246511   8.605  11.802   8.888
48829SOL     OW46512   8.675  12.742   8.241
48829SOL    HW146513   8.696  12.816   8.176
48829SOL    HW246514   8.743  12.742   8.314
48830SOL     OW46515   7.907  12.324   8.189
48830SOL    HW146516   7.836  12.297   8.254
48830SOL    HW246517   7.881  12.296   8.096
48831SOL     OW46518   8.480  11.721   7.464
48831SOL    HW146519   8.439  11.803   7.425
48831SOL    HW246520   8.544  11.747   7.537
48832SOL     OW46521   7.526  11.728   8.834
48832SOL    HW146522   7.618  11.727   8.793
48832SOL    HW246523   7.520  11.802   8.901
48833SOL     OW46524   8.009  11.394   8.595
48833SOL    HW146525   8.047  11.310   8.632
48833SOL    HW246526   7.921  11.413   8.639
48834SOL     OW46527   8.314  11.626   8.090
48834SOL    HW146528   8.282  11.698   8.028
48834SOL    HW246529   8.338  11.545   8.037
48835SOL     OW46530   8.465  11.211   8.201
48835SOL    HW146531   8.393  11.216   8.132
48835SOL    HW246532   8.441  11.142   8.270
48836SOL     OW46533   8.877  12.345   8.315
48836SOL    HW146534   8.822  12.261   8.308
48836SOL    HW246535   8.903  12.374   8.223
48837SOL     OW46536   8.914  11.762   8.440
48837SOL    HW146537   8.884  11.667   8.447
48837SOL    HW246538   8.987  11.778   8.506
48838SOL     OW46539   9.305  12.005   7.825
48838SOL    HW146540   9.347  11.941   7.889
48838SOL    HW246541   9.267  11.954   7.747
48839SOL     OW46542   7.936  12.557   7.622
48839SOL    HW146543   7.849  12.542   7.669
48839SOL    HW246544   7.919  12.583   7.527
48840SOL     OW46545   9.112  12.452   8.105
48840SOL    HW146546   9.211  12.460   8.119
48840SOL    HW246547   9.067  12.536   8.136
48841SOL     OW46548   8.838  11.747   7.526
48841SOL    HW146549   8.784  11.726   7.607
48841SOL    HW246550   8.929  11.706   7.535
48842SOL     OW46551   7.975  11.428   7.776
48842SOL    HW146552   8.002  11.369   7.701
48842SOL    HW246553   7.975  11.523   7.745
48843SOL     OW46554   9.202  12.395   9.036
48843SOL    HW146555   9.293  12.356   9.023
48843SOL    HW246556   9.210  12.491   9.060
48844SOL     OW46557   8.512  12.519   8.788
48844SOL    HW146558   8.432  12.496   8.843
48844SOL    HW246559   8.595  12.493   8.837
48845SOL     OW46560   8.559  12.367   8.548
48845SOL    HW146561   8.519  12.411   8.629
48845SOL    HW246562   8.518  12.404   8.465
48846SOL     OW46563   9.086  12.271   8.527
48846SOL    HW146564   9.091  12.352   8.586
48846SOL    HW246565   9.000  12.273   8.476
48847SOL     OW46566   8.363  11.261   8.850
48847SOL    HW146567   8.388  11.241   8.755
48847SOL    HW246568   8.435  11.317   8.892
48848SOL     OW46569   8.428  12.288   9.167
48848SOL    HW146570   8.329  12.294   9.177
48848SOL    HW246571   8.451  12.208   9.111
48849SOL     OW46572   8.153  12.222   7.816
48849SOL    HW146573   8.139  12.229   7.915
48849SOL    HW246574   8.237  12.171   7.798
48850SOL     OW46575   7.858  11.985   8.699
48850SOL    HW146576   7.944  11.997   8.749
48850SOL    HW246577   7.816  11.898   8.726
48851SOL     OW46578   8.722  11.558   8.710
48851SOL    HW146579   8.743  11.632   8.774
48851SOL    HW246580   8.633  11.575   8.667
48852SOL     OW46581   7.815  12.272   7.949
48852SOL    HW146582   7.808  12.355   7.893
48852SOL    HW246583   7.819  12.192   7.889
48853SOL     OW46584   8.014  11.709   8.313
48853SOL    HW146585   8.026  11.775   8.239
48853SOL    HW246586   8.060  11.743   8.396
48854SOL     OW46587   8.700  12.520   7.836
48854SOL    HW146588   8.750  12.597   7.876
48854SOL    HW246589   8.605  12.522   7.868
48855SOL     OW46590   8.720  12.617   8.590
48855SOL    HW146591   8.767  12.630   8.677
48855SOL    HW246592   8.654  12.543   8.599
48856SOL     OW46593   9.030  11.811   7.920
48856SOL    HW146594   8.999  11.872   7.993
48856SOL    HW246595   9.080  11.863   7.851
48857SOL     OW46596   7.802  12.682   8.777
48857SOL    HW146597   7.781  12.638   8.690
48857SOL    HW246598   7.899  12.708   8.780
48858SOL     OW46599   7.850  11.923   9.046
48858SOL    HW146600   7.918  11.978   8.999
48858SOL    HW246601   7.890  11.835   9.073
48859SOL     OW46602   9.035  11.951   9.118
48859SOL    HW146603   8.943  11.989   9.113
48859SOL    HW246604   9.095  11.998   9.053
48860SOL     OW46605   8.461  11.277   9.218
48860SOL    HW146606   8.467  11.362   9.166
48860SOL    HW246607   8.493  11.201   9.161
48861SOL     OW46608   7.952  11.222   9.188
48861SOL    HW146609   7.910  11.165   9.118
48861SOL    HW246610   7.886  11.291   9.220
48862SOL     OW46611   8.021  12.042   8.477
48862SOL    HW146612   8.065  12.131   8.468
48862SOL    HW246613   7.958  12.042   8.554
48863SOL     OW46614   8.808  12.034   8.493
48863SOL    HW146615   8.733  12.034   8.427
48863SOL    HW246616   8.845  11.942   8.502
48864SOL     OW46617   8.657  11.697   7.723
48864SOL    HW146618   8.670  11.613   7.777
48864SOL    HW246619   8.628  11.771   7.783
48865SOL     OW46620   7.755  11.385   8.679
48865SOL    HW146621   7.732  11.422   8.769
48865SOL    HW246622   7.725  11.290   8.673
48866SOL     OW46623   7.485  12.482   8.730
48866SOL    HW146624   7.538  12.433   8.798
48866SOL    HW246625   7.507  12.580   8.735
48867SOL     OW46626   8.180  11.806   8.512
48867SOL    HW146627   8.239  11.780   8.436
48867SOL    HW246628   8.152  11.902   8.501
48868SOL     OW46629   9.176  12.107   9.302
48868SOL    HW146630   9.130  12.100   9.213
48868SOL    HW246631   9.114  12.151   9.368
48869SOL     OW46632   7.755  11.235   8.066
48869SOL    HW146633   7.744  11.329   8.099
48869SOL    HW246634   7.750  11.172   8.143
48870SOL     OW46635   9.070  11.539   7.822
48870SOL    HW146636   9.072  11.463   7.886
48870SOL    HW246637   9.022  11.616   7.862
48871SOL     OW46638   8.471  11.938   8.414
48871SOL    HW146639   8.486  11.959   8.510
48871SOL    HW246640   8.441  11.843   8.405
48872SOL     OW46641   9.307  12.690   9.053
48872SOL    HW146642   9.321  12.717   8.958
48872SOL    HW246643   9.390  12.712   9.106
48873SOL     OW46644   7.798  12.070   9.252
48873SOL    HW146645   7.874  12.114   9.300
48873SOL    HW246646   7.833  12.023   9.170
48874SOL     OW46647   8.988  11.446   7.573
48874SOL    HW146648   8.927  11.371   7.596
48874SOL    HW246649   9.010  11.498   7.656
48875SOL     OW46650   8.751  12.010   7.490
48875SOL    HW146651   8.785  11.917   7.505
48875SOL    HW246652   8.769  12.037   7.395
48876SOL     OW46653   8.516  12.505   8.297
48876SOL    HW146654   8.523  12.421   8.242
48876SOL    HW246655   8.578  12.574   8.261
48877SOL     OW46656   7.767  11.982   8.397
48877SOL    HW146657   7.860  12.018   8.402
48877SOL    HW246658   7.761  11.897   8.449
48878SOL     OW46659   7.787  11.681   8.454
48878SOL    HW146660   7.735  11.598   8.437
48878SOL    HW246661   7.864  11.686   8.390
48879SOL     OW46662   8.586  11.552   9.126
48879SOL    HW146663   8.541  11.615   9.190
48879SOL    HW246664   8.679  11.583   9.109
48880SOL     OW46665   8.608  11.379   8.925
48880SOL    HW146666   8.608  11.443   9.002
48880SOL    HW246667   8.636  11.427   8.842
48881SOL     OW46668   7.456  12.498   7.648
48881SOL    HW146669   7.363  12.519   7.617
48881SOL    HW246670   7.466  12.399   7.661
48882SOL     OW46671   8.450  11.968   8.686
48882SOL    HW146672   8.491  11.936   8.772
48882SOL    HW246673   8.354  11.941   8.683
48883SOL     OW46674   7.488  11.716   8.562
48883SOL    HW146675   7.573  11.683   8.521
48883SOL    HW246676   7.501  11.731   8.660
48884SOL     OW46677   7.637  11.692   9.170
48884SOL    HW146678   7.696  11.652   9.100
48884SOL    HW246679   7.579  11.763   9.129
48885SOL     OW46680   8.817  12.122   9.108
48885SOL    HW146681   8.856  12.211   9.128
48885SOL    HW246682   8.827  12.102   9.011
48886SOL     OW46683   8.263  11.744   7.773
48886SOL    HW146684   8.270  11.655   7.727
48886SOL    HW246685   8.169  11.778   7.765
48887SOL     OW46686   9.105  11.776   8.654
48887SOL    HW146687   9.067  11.707   8.716
48887SOL    HW246688   9.187  11.740   8.610
48888SOL     OW46689   7.700  12.736   9.192
48888SOL    HW146690   7.670  12.793   9.268
48888SOL    HW246691   7.693  12.639   9.218
48889SOL     OW46692   8.119  11.636   8.717
48889SOL    HW146693   8.085  11.547   8.687
48889SOL    HW246694   8.145  11.690   8.637
48890SOL     OW46695   7.921  11.672   7.639
48890SOL    HW146696   7.982  11.752   7.643
48890SOL    HW246697   7.826  11.703   7.646
48891SOL     OW46698   7.607  12.309   8.914
48891SOL    HW146699   7.629  12.248   8.990
48891SOL    HW246700   7.617  12.260   8.828
48892SOL     OW46701   8.795  12.231   8.682
48892SOL    HW146702   8.819  12.168   8.608
48892SOL    HW246703   8.705  12.271   8.664
48893SOL     OW46704   8.750  12.027   7.757
48893SOL    HW146705   8.664  11.996   7.799
48893SOL    HW246706   8.746  12.013   7.658
48894SOL     OW46707   7.531  12.430   8.470
48894SOL    HW146708   7.526  12.429   8.570
48894SOL    HW246709   7.448  12.389   8.432
48895SOL     OW46710   9.174  11.307   7.971
48895SOL    HW146711   9.247  11.290   7.904
48895SOL    HW246712   9.143  11.220   8.009
48896SOL     OW46713   8.728  12.099   8.120
48896SOL    HW146714   8.788  12.018   8.122
48896SOL    HW246715   8.768  12.168   8.060
48897SOL     OW46716   8.278  12.445   8.870
48897SOL    HW146717   8.273  12.478   8.965
48897SOL    HW246718   8.192  12.464   8.824
48898SOL     OW46719   9.289  11.347   8.411
48898SOL    HW146720   9.328  11.262   8.375
48898SOL    HW246721   9.191  11.349   8.392
48899SOL     OW46722   7.711  11.498   8.168
48899SOL    HW146723   7.632  11.549   8.134
48899SOL    HW246724   7.702  11.483   8.266
48900SOL     OW46725   8.270  12.174   8.820
48900SOL    HW146726   8.310  12.173   8.728
48900SOL    HW246727   8.280  12.266   8.860
48901SOL     OW46728   8.364  12.082   7.739
48901SOL    HW146729   8.427  12.120   7.671
48901SOL    HW246730   8.404  11.999   7.778
48902SOL     OW46731   7.820  12.460   8.938
48902SOL    HW146732   7.807  12.553   8.904
48902SOL    HW246733   7.736  12.408   8.925
48903SOL     OW46734   9.062  12.464   8.737
48903SOL    HW146735   9.122  12.467   8.817
48903SOL    HW246736   8.987  12.528   8.750
48904SOL     OW46737   8.487  12.270   8.144
48904SOL    HW146738   8.417  12.223   8.198
48904SOL    HW246739   8.546  12.202   8.101
48905SOL     OW46740   8.462  11.408   8.419
48905SOL    HW146741   8.454  11.372   8.326
48905SOL    HW246742   8.460  11.332   8.484
48906SOL     OW46743   9.157  11.557   8.829
48906SOL    HW146744   9.230  11.626   8.833
48906SOL    HW246745   9.185  11.482   8.770
48907SOL     OW46746   7.703  12.520   7.738
48907SOL    HW146747   7.607  12.521   7.711
48907SOL    HW246748   7.715  12.573   7.822
48908SOL     OW46749   7.553  12.185   9.174
48908SOL    HW146750   7.476  12.152   9.228
48908SOL    HW246751   7.638  12.155   9.216
48909SOL     OW46752   8.120  11.375   8.937
48909SOL    HW146753   8.210  11.359   8.897
48909SOL    HW246754   8.128  11.380   9.036
48910SOL     OW46755   7.523  11.517   7.481
48910SOL    HW146756   7.431  11.489   7.452
48910SOL    HW246757   7.554  11.594   7.425
48911SOL     OW46758   8.888  12.028   8.846
48911SOL    HW146759   8.831  12.080   8.783
48911SOL    HW246760   8.984  12.040   8.822
48912SOL     OW46761   7.520  11.338   7.766
48912SOL    HW146762   7.503  11.421   7.712
48912SOL    HW246763   7.610  11.301   7.744
48913SOL     OW46764   8.631  12.507   7.567
48913SOL    HW146765   8.532  12.496   7.569
48913SOL    HW246766   8.665  12.522   7.660
48914SOL     OW46767   8.061  12.014   8.879
48914SOL    HW146768   8.117  12.095   8.862
48914SOL    HW246769   8.120  11.934   8.882
48915SOL     OW46770   8.164  11.737   9.156
48915SOL    HW146771   8.183  11.802   9.230
48915SOL    HW246772   8.224  11.657   9.165
48916SOL     OW46773   8.898  12.392   9.081
48916SOL    HW146774   8.889  12.382   9.180
48916SOL    HW246775   8.994  12.385   9.055
48917SOL     OW46776   9.122  12.055   8.702
48917SOL    HW146777   9.095  11.966   8.665
48917SOL    HW246778   9.123  12.123   8.629
48918SOL     OW46779   8.673  11.497   7.897
48918SOL    HW146780   8.738  11.423   7.886
48918SOL    HW246781   8.693  11.547   7.981
48919SOL     OW46782   8.042  11.917   8.100
48919SOL    HW146783   8.092  12.002   8.081
48919SOL    HW246784   7.954  11.919   8.052
48920SOL     OW46785   9.225  11.514   9.090
48920SOL    HW146786   9.208  11.545   8.996
48920SOL    HW246787   9.141  11.477   9.128
48921SOL     OW46788   9.178  12.106   8.965
48921SOL    HW146789   9.216  12.197   8.980
48921SOL    HW246790   9.170  12.089   8.866
48922SOL     OW46791   8.307  12.546   7.464
48922SOL    HW146792   8.261  12.561   7.552
48922SOL    HW246793   8.351  12.631   7.434
48923SOL     OW46794   8.307  12.128   8.309
48923SOL    HW146795   8.361  12.059   8.357
48923SOL    HW246796   8.275  12.197   8.375
48924SOL     OW46797   8.531  12.156   7.535
48924SOL    HW146798   8.508  12.209   7.453
48924SOL    HW246799   8.612  12.100   7.516
48925SOL     OW46800   7.669  12.486   9.292
48925SOL    HW146801   7.604  12.413   9.271
48925SOL    HW246802   7.673  12.500   9.390
48926SOL     OW46803   7.527  12.412   8.101
48926SOL    HW146804   7.526  12.365   8.189
48926SOL    HW246805   7.609  12.384   8.050
48927SOL     OW46806   8.120  12.563   9.072
48927SOL    HW146807   8.042  12.513   9.110
48927SOL    HW246808   8.117  12.658   9.103
48928SOL     OW46809   9.272  11.364   8.675
48928SOL    HW146810   9.268  11.274   8.719
48928SOL    HW246811   9.275  11.353   8.576
48929SOL     OW46812   7.876  11.596   7.968
48929SOL    HW146813   7.906  11.524   7.906
48929SOL    HW246814   7.837  11.556   8.051
48930SOL     OW46815   9.153  12.659   8.552
48930SOL    HW146816   9.060  12.634   8.525
48930SOL    HW246817   9.179  12.609   8.634
48931SOL     OW46818   7.765  11.719   8.728
48931SOL    HW146819   7.803  11.660   8.800
48931SOL    HW246820   7.805  11.693   8.640
48932SOL     OW46821   8.872  11.386   8.560
48932SOL    HW146822   8.924  11.321   8.615
48932SOL    HW246823   8.823  11.449   8.621
48933SOL     OW46824   8.449  11.206   8.602
48933SOL    HW146825   8.386  11.134   8.571
48933SOL    HW246826   8.542  11.170   8.602
48934SOL     OW46827   8.218  12.502   7.749
48934SOL    HW146828   8.172  12.415   7.766
48934SOL    HW246829   8.309  12.499   7.790
48935SOL     OW46830   8.066  12.739   8.732
48935SOL    HW146831   8.061  12.821   8.789
48935SOL    HW246832   8.155  12.736   8.687
48936SOL     OW46833   8.800  11.224   7.616
48936SOL    HW146834   8.835  11.183   7.532
48936SOL    HW246835   8.710  11.186   7.636
48937SOL     OW46836   8.748  11.625   8.139
48937SOL    HW146837   8.689  11.705   8.143
48937SOL    HW246838   8.763  11.590   8.232
48938SOL     OW46839   9.041  11.393   8.330
48938SOL    HW146840   8.957  11.392   8.384
48938SOL    HW246841   9.043  11.476   8.274
48939SOL     OW46842   7.487  12.249   7.748
48939SOL    HW146843   7.586  12.238   7.739
48939SOL    HW246844   7.447  12.163   7.780
48940SOL     OW46845   7.678  11.800   9.423
48940SOL    HW146846   7.585  11.798   9.460
48940SOL    HW246847   7.679  11.761   9.331
48941SOL     OW46848   7.673  11.447  10.306
48941SOL    HW146849   7.708  11.430  10.398
48941SOL    HW246850   7.585  11.402  10.294
48942SOL     OW46851   7.467  11.540   9.957
48942SOL    HW146852   7.385  11.583   9.996
48942SOL    HW246853   7.439  11.467   9.894
48943SOL     OW46854   8.017  12.447  10.475
48943SOL    HW146855   7.924  12.440  10.438
48943SOL    HW246856   8.028  12.536  10.519
48944SOL     OW46857   9.003  12.683  10.013
48944SOL    HW146858   8.946  12.667  10.094
48944SOL    HW246859   8.944  12.693   9.933
48945SOL     OW46860   8.583  11.875  10.027
48945SOL    HW146861   8.640  11.953  10.002
48945SOL    HW246862   8.523  11.901  10.103
48946SOL     OW46863   9.203  11.779   9.541
48946SOL    HW146864   9.191  11.766   9.442
48946SOL    HW246865   9.173  11.698   9.590
48947SOL     OW46866   8.216  12.316  10.333
48947SOL    HW146867   8.138  12.333  10.393
48947SOL    HW246868   8.250  12.403  10.297
48948SOL     OW46869   8.298  11.970  11.133
48948SOL    HW146870   8.294  12.046  11.198
48948SOL    HW246871   8.320  12.006  11.042
48949SOL     OW46872   8.133  12.184   9.975
48949SOL    HW146873   8.202  12.168  10.045
48949SOL    HW246874   8.060  12.241  10.013
48950SOL     OW46875   8.134  12.333  11.113
48950SOL    HW146876   8.194  12.412  11.127
48950SOL    HW246877   8.048  12.364  11.072
48951SOL     OW46878   7.783  12.607  10.371
48951SOL    HW146879   7.705  12.576  10.318
48951SOL    HW246880   7.841  12.665  10.314
48952SOL     OW46881   7.886  11.564  10.809
48952SOL    HW146882   7.968  11.508  10.818
48952SOL    HW246883   7.805  11.506  10.813
48953SOL     OW46884   9.051  11.619  10.047
48953SOL    HW146885   8.977  11.665   9.997
48953SOL    HW246886   9.102  11.687  10.100
48954SOL     OW46887   7.679  12.885   9.793
48954SOL    HW146888   7.713  12.962   9.847
48954SOL    HW246889   7.723  12.885   9.703
48955SOL     OW46890   8.575  12.513  11.000
48955SOL    HW146891   8.622  12.513  11.088
48955SOL    HW246892   8.527  12.426  10.989
48956SOL     OW46893   7.678  12.606   9.848
48956SOL    HW146894   7.652  12.702   9.848
48956SOL    HW246895   7.607  12.552   9.893
48957SOL     OW46896   7.688  12.263  10.196
48957SOL    HW146897   7.702  12.179  10.248
48957SOL    HW246898   7.633  12.327  10.251
48958SOL     OW46899   8.054  12.136   9.433
48958SOL    HW146900   8.061  12.220   9.379
48958SOL    HW246901   8.100  12.149   9.521
48959SOL     OW46902   9.042  11.286  10.790
48959SOL    HW146903   9.024  11.353  10.718
48959SOL    HW246904   9.039  11.332  10.879
48960SOL     OW46905   7.570  11.815   9.873
48960SOL    HW146906   7.525  11.727   9.890
48960SOL    HW246907   7.569  11.869   9.957
48961SOL     OW46908   7.475  12.768   9.427
48961SOL    HW146909   7.456  12.672   9.448
48961SOL    HW246910   7.442  12.826   9.502
48962SOL     OW46911   9.137  12.094   9.922
48962SOL    HW146912   9.232  12.065   9.930
48962SOL    HW246913   9.129  12.159   9.847
48963SOL     OW46914   9.089  12.280   9.742
48963SOL    HW146915   9.175  12.282   9.690
48963SOL    HW246916   9.103  12.327   9.830
48964SOL     OW46917   7.561  11.909  10.907
48964SOL    HW146918   7.649  11.896  10.952
48964SOL    HW246919   7.548  12.006  10.885
48965SOL     OW46920   8.061  12.537  10.036
48965SOL    HW146921   8.012  12.450  10.045
48965SOL    HW246922   8.038  12.580   9.949
48966SOL     OW46923   8.741  12.400  10.733
48966SOL    HW146924   8.778  12.327  10.675
48966SOL    HW246925   8.793  12.405  10.818
48967SOL     OW46926   8.257  11.176   9.812
48967SOL    HW146927   8.297  11.267   9.803
48967SOL    HW246928   8.157  11.184   9.818
48968SOL     OW46929   7.645  12.148  10.574
48968SOL    HW146930   7.734  12.103  10.560
48968SOL    HW246931   7.572  12.083  10.555
48969SOL     OW46932   8.973  12.171   9.500
48969SOL    HW146933   8.910  12.095   9.513
48969SOL    HW246934   9.021  12.189   9.586
48970SOL     OW46935   7.765  11.423  11.111
48970SOL    HW146936   7.836  11.494  11.117
48970SOL    HW246937   7.677  11.462  11.139
48971SOL     OW46938   8.914  12.589  10.263
48971SOL    HW146939   8.855  12.595  10.343
48971SOL    HW246940   8.899  12.501  10.217
48972SOL     OW46941   8.046  11.901   9.580
48972SOL    HW146942   8.070  11.970   9.512
48972SOL    HW246943   7.968  11.934   9.634
48973SOL     OW46944   8.729  11.517  10.254
48973SOL    HW146945   8.643  11.467  10.241
48973SOL    HW246946   8.791  11.463  10.310
48974SOL     OW46947   8.255  11.777  10.775
48974SOL    HW146948   8.208  11.774  10.864
48974SOL    HW246949   8.204  11.722  10.709
48975SOL     OW46950   8.842  11.641  10.984
48975SOL    HW146951   8.822  11.684  11.072
48975SOL    HW246952   8.920  11.579  10.993
48976SOL     OW46953   8.421  12.062  10.882
48976SOL    HW146954   8.467  11.978  10.853
48976SOL    HW246955   8.365  12.096  10.807
48977SOL     OW46956   8.439  11.582  10.552
48977SOL    HW146957   8.362  11.616  10.606
48977SOL    HW246958   8.405  11.531  10.473
48978SOL     OW46959   8.489  11.873   9.739
48978SOL    HW146960   8.515  11.869   9.835
48978SOL    HW246961   8.404  11.822   9.725
48979SOL     OW46962   7.524  11.983  10.099
48979SOL    HW146963   7.623  11.971  10.108
48979SOL    HW246964   7.500  12.078  10.120
48980SOL     OW46965   8.313  11.520   9.505
48980SOL    HW146966   8.372  11.583   9.456
48980SOL    HW246967   8.332  11.426   9.476
48981SOL     OW46968   9.167  11.757  11.141
48981SOL    HW146969   9.141  11.846  11.105
48981SOL    HW246970   9.165  11.689  11.068
48982SOL     OW46971   8.810  12.316   9.855
48982SOL    HW146972   8.893  12.287   9.807
48982SOL    HW246973   8.761  12.383   9.799
48983SOL     OW46974   7.998  11.368  10.195
48983SOL    HW146975   7.993  11.363  10.295
48983SOL    HW246976   8.000  11.464  10.166
48984SOL     OW46977   8.456  12.628   9.787
48984SOL    HW146978   8.410  12.700   9.735
48984SOL    HW246979   8.452  12.648   9.885
48985SOL     OW46980   9.243  12.238  10.183
48985SOL    HW146981   9.181  12.223  10.107
48985SOL    HW246982   9.191  12.249  10.268
48986SOL     OW46983   8.675  12.722  10.816
48986SOL    HW146984   8.681  12.645  10.880
48986SOL    HW246985   8.623  12.696  10.736
48987SOL     OW46986   7.769  12.115   9.552
48987SOL    HW146987   7.851  12.154   9.510
48987SOL    HW246988   7.742  12.033   9.503
48988SOL     OW46989   8.906  11.907  10.038
48988SOL    HW146990   8.901  11.842  10.113
48988SOL    HW246991   8.986  11.966  10.051
48989SOL     OW46992   7.909  12.438  11.037
48989SOL    HW146993   7.859  12.439  10.951
48989SOL    HW246994   7.846  12.420  11.113
48990SOL     OW46995   8.559  12.948   9.547
48990SOL    HW146996   8.499  12.886   9.597
48990SOL    HW246997   8.590  12.904   9.462
48991SOL     OW46998   7.650  11.457  10.808
48991SOL    HW146999   7.570  11.517  10.795
48991SOL    HW247000   7.640  11.408  10.894
48992SOL     OW47001   9.080  12.549   9.391
48992SOL    HW147002   9.048  12.643   9.381
48992SOL    HW247003   9.004  12.486   9.379
48993SOL     OW47004   8.848  11.279   9.736
48993SOL    HW147005   8.824  11.242   9.646
48993SOL    HW247006   8.947  11.295   9.740
48994SOL     OW47007   7.830  11.872   9.790
48994SOL    HW147008   7.875  11.782   9.787
48994SOL    HW247009   7.736  11.861   9.823
48995SOL     OW47010   8.995  11.394  11.039
48995SOL    HW147011   8.990  11.431  11.131
48995SOL    HW247012   8.923  11.325  11.027
48996SOL     OW47013   8.062  11.294   9.427
48996SOL    HW147014   8.160  11.272   9.434
48996SOL    HW247015   8.031  11.277   9.334
48997SOL     OW47016   8.229  11.436  11.059
48997SOL    HW147017   8.296  11.375  11.102
48997SOL    HW247018   8.156  11.455  11.124
48998SOL     OW47019   8.799  11.762  10.743
48998SOL    HW147020   8.827  11.719  10.828
48998SOL    HW247021   8.824  11.858  10.744
48999SOL     OW47022   8.251  12.574  10.234
48999SOL    HW147023   8.341  12.588  10.192
48999SOL    HW247024   8.180  12.576  10.163
49000SOL     OW47025   8.370  11.675  10.209
49000SOL    HW147026   8.345  11.666  10.113
49000SOL    HW247027   8.418  11.593  10.240
49001SOL     OW47028   7.987  11.236   9.822
49001SOL    HW147029   7.906  11.237   9.880
49001SOL    HW247030   7.990  11.319   9.767
49002SOL     OW47031   8.882  12.360   9.351
49002SOL    HW147032   8.914  12.284   9.408
49002SOL    HW247033   8.790  12.387   9.381
49003SOL     OW47034   7.745  11.207   9.481
49003SOL    HW147035   7.794  11.291   9.460
49003SOL    HW247036   7.807  11.142   9.526
49004SOL     OW47037   8.383  11.408   9.790
49004SOL    HW147038   8.335  11.449   9.712
49004SOL    HW247039   8.482  11.406   9.771
49005SOL     OW47040   8.524  11.855  10.774
49005SOL    HW147041   8.444  11.794  10.777
49005SOL    HW247042   8.605  11.802  10.750
49006SOL     OW47043   8.675  12.742  10.103
49006SOL    HW147044   8.696  12.816  10.038
49006SOL    HW247045   8.743  12.742  10.176
49007SOL     OW47046   7.907  12.324  10.051
49007SOL    HW147047   7.836  12.297  10.116
49007SOL    HW247048   7.881  12.296   9.958
49008SOL     OW47049   8.480  11.721   9.326
49008SOL    HW147050   8.439  11.803   9.287
49008SOL    HW247051   8.544  11.747   9.399
49009SOL     OW47052   7.526  11.728  10.696
49009SOL    HW147053   7.618  11.727  10.655
49009SOL    HW247054   7.520  11.802  10.763
49010SOL     OW47055   8.009  11.394  10.457
49010SOL    HW147056   8.047  11.310  10.494
49010SOL    HW247057   7.921  11.413  10.501
49011SOL     OW47058   8.314  11.626   9.952
49011SOL    HW147059   8.282  11.698   9.890
49011SOL    HW247060   8.338  11.545   9.899
49012SOL     OW47061   8.465  11.211  10.063
49012SOL    HW147062   8.393  11.216   9.994
49012SOL    HW247063   8.441  11.142  10.132
49013SOL     OW47064   8.877  12.345  10.177
49013SOL    HW147065   8.822  12.261  10.170
49013SOL    HW247066   8.903  12.374  10.085
49014SOL     OW47067   8.914  11.762  10.302
49014SOL    HW147068   8.884  11.667  10.309
49014SOL    HW247069   8.987  11.778  10.368
49015SOL     OW47070   9.305  12.005   9.687
49015SOL    HW147071   9.347  11.941   9.751
49015SOL    HW247072   9.267  11.954   9.609
49016SOL     OW47073   7.936  12.557   9.484
49016SOL    HW147074   7.849  12.542   9.531
49016SOL    HW247075   7.919  12.583   9.389
49017SOL     OW47076   9.112  12.452   9.967
49017SOL    HW147077   9.211  12.460   9.981
49017SOL    HW247078   9.067  12.536   9.998
49018SOL     OW47079   8.838  11.747   9.388
49018SOL    HW147080   8.784  11.726   9.469
49018SOL    HW247081   8.929  11.706   9.397
49019SOL     OW47082   7.975  11.428   9.638
49019SOL    HW147083   8.002  11.369   9.563
49019SOL    HW247084   7.975  11.523   9.607
49020SOL     OW47085   9.202  12.395  10.898
49020SOL    HW147086   9.293  12.356  10.885
49020SOL    HW247087   9.210  12.491  10.922
49021SOL     OW47088   8.512  12.519  10.650
49021SOL    HW147089   8.432  12.496  10.705
49021SOL    HW247090   8.595  12.493  10.699
49022SOL     OW47091   8.559  12.367  10.410
49022SOL    HW147092   8.519  12.411  10.491
49022SOL    HW247093   8.518  12.404  10.327
49023SOL     OW47094   9.086  12.271  10.389
49023SOL    HW147095   9.091  12.352  10.448
49023SOL    HW247096   9.000  12.273  10.338
49024SOL     OW47097   8.363  11.261  10.712
49024SOL    HW147098   8.388  11.241  10.617
49024SOL    HW247099   8.435  11.317  10.754
49025SOL     OW47100   8.428  12.288  11.029
49025SOL    HW147101   8.329  12.294  11.039
49025SOL    HW247102   8.451  12.208  10.973
49026SOL     OW47103   8.153  12.222   9.678
49026SOL    HW147104   8.139  12.229   9.777
49026SOL    HW247105   8.237  12.171   9.660
49027SOL     OW47106   7.858  11.985  10.561
49027SOL    HW147107   7.944  11.997  10.611
49027SOL    HW247108   7.816  11.898  10.588
49028SOL     OW47109   8.722  11.558  10.572
49028SOL    HW147110   8.743  11.632  10.636
49028SOL    HW247111   8.633  11.575  10.529
49029SOL     OW47112   7.815  12.272   9.811
49029SOL    HW147113   7.808  12.355   9.755
49029SOL    HW247114   7.819  12.192   9.751
49030SOL     OW47115   8.014  11.709  10.175
49030SOL    HW147116   8.026  11.775  10.101
49030SOL    HW247117   8.060  11.743  10.258
49031SOL     OW47118   8.700  12.520   9.698
49031SOL    HW147119   8.750  12.597   9.738
49031SOL    HW247120   8.605  12.522   9.730
49032SOL     OW47121   8.720  12.617  10.452
49032SOL    HW147122   8.767  12.630  10.539
49032SOL    HW247123   8.654  12.543  10.461
49033SOL     OW47124   9.030  11.811   9.782
49033SOL    HW147125   8.999  11.872   9.855
49033SOL    HW247126   9.080  11.863   9.713
49034SOL     OW47127   7.802  12.682  10.639
49034SOL    HW147128   7.781  12.638  10.552
49034SOL    HW247129   7.899  12.708  10.642
49035SOL     OW47130   7.850  11.923  10.908
49035SOL    HW147131   7.918  11.978  10.861
49035SOL    HW247132   7.890  11.835  10.935
49036SOL     OW47133   9.035  11.951  10.980
49036SOL    HW147134   8.943  11.989  10.975
49036SOL    HW247135   9.095  11.998  10.915
49037SOL     OW47136   8.461  11.277  11.080
49037SOL    HW147137   8.467  11.362  11.028
49037SOL    HW247138   8.493  11.201  11.023
49038SOL     OW47139   7.952  11.222  11.050
49038SOL    HW147140   7.910  11.165  10.980
49038SOL    HW247141   7.886  11.291  11.082
49039SOL     OW47142   8.021  12.042  10.339
49039SOL    HW147143   8.065  12.131  10.330
49039SOL    HW247144   7.958  12.042  10.416
49040SOL     OW47145   8.808  12.034  10.355
49040SOL    HW147146   8.733  12.034  10.289
49040SOL    HW247147   8.845  11.942  10.364
49041SOL     OW47148   8.657  11.697   9.585
49041SOL    HW147149   8.670  11.613   9.639
49041SOL    HW247150   8.628  11.771   9.645
49042SOL     OW47151   7.755  11.385  10.541
49042SOL    HW147152   7.732  11.422  10.631
49042SOL    HW247153   7.725  11.290  10.535
49043SOL     OW47154   7.485  12.482  10.592
49043SOL    HW147155   7.538  12.433  10.660
49043SOL    HW247156   7.507  12.580  10.597
49044SOL     OW47157   8.180  11.806  10.374
49044SOL    HW147158   8.239  11.780  10.298
49044SOL    HW247159   8.152  11.902  10.363
49045SOL     OW47160   9.176  12.107  11.164
49045SOL    HW147161   9.130  12.100  11.075
49045SOL    HW247162   9.114  12.151  11.230
49046SOL     OW47163   7.755  11.235   9.928
49046SOL    HW147164   7.744  11.329   9.961
49046SOL    HW247165   7.750  11.172  10.005
49047SOL     OW47166   9.070  11.539   9.684
49047SOL    HW147167   9.072  11.463   9.748
49047SOL    HW247168   9.022  11.616   9.724
49048SOL     OW47169   8.471  11.938  10.276
49048SOL    HW147170   8.486  11.959  10.372
49048SOL    HW247171   8.441  11.843  10.267
49049SOL     OW47172   9.307  12.690  10.915
49049SOL    HW147173   9.321  12.717  10.820
49049SOL    HW247174   9.390  12.712  10.968
49050SOL     OW47175   7.798  12.070  11.114
49050SOL    HW147176   7.874  12.114  11.162
49050SOL    HW247177   7.833  12.023  11.032
49051SOL     OW47178   8.988  11.446   9.435
49051SOL    HW147179   8.927  11.371   9.458
49051SOL    HW247180   9.010  11.498   9.518
49052SOL     OW47181   8.751  12.010   9.352
49052SOL    HW147182   8.785  11.917   9.367
49052SOL    HW247183   8.769  12.037   9.257
49053SOL     OW47184   8.516  12.505  10.159
49053SOL    HW147185   8.523  12.421  10.104
49053SOL    HW247186   8.578  12.574  10.123
49054SOL     OW47187   7.767  11.982  10.259
49054SOL    HW147188   7.860  12.018  10.264
49054SOL    HW247189   7.761  11.897  10.311
49055SOL     OW47190   7.787  11.681  10.316
49055SOL    HW147191   7.735  11.598  10.299
49055SOL    HW247192   7.864  11.686  10.252
49056SOL     OW47193   8.586  11.552  10.988
49056SOL    HW147194   8.541  11.615  11.052
49056SOL    HW247195   8.679  11.583  10.971
49057SOL     OW47196   8.608  11.379  10.787
49057SOL    HW147197   8.608  11.443  10.864
49057SOL    HW247198   8.636  11.427  10.704
49058SOL     OW47199   7.456  12.498   9.510
49058SOL    HW147200   7.363  12.519   9.479
49058SOL    HW247201   7.466  12.399   9.523
49059SOL     OW47202   8.450  11.968  10.548
49059SOL    HW147203   8.491  11.936  10.634
49059SOL    HW247204   8.354  11.941  10.545
49060SOL     OW47205   7.488  11.716  10.424
49060SOL    HW147206   7.573  11.683  10.383
49060SOL    HW247207   7.501  11.731  10.522
49061SOL     OW47208   7.637  11.692  11.032
49061SOL    HW147209   7.696  11.652  10.962
49061SOL    HW247210   7.579  11.763  10.991
49062SOL     OW47211   8.817  12.122  10.970
49062SOL    HW147212   8.856  12.211  10.990
49062SOL    HW247213   8.827  12.102  10.873
49063SOL     OW47214   8.263  11.744   9.635
49063SOL    HW147215   8.270  11.655   9.589
49063SOL    HW247216   8.169  11.778   9.627
49064SOL     OW47217   9.105  11.776  10.516
49064SOL    HW147218   9.067  11.707  10.578
49064SOL    HW247219   9.187  11.740  10.472
49065SOL     OW47220   7.700  12.736  11.054
49065SOL    HW147221   7.670  12.793  11.130
49065SOL    HW247222   7.693  12.639  11.080
49066SOL     OW47223   8.119  11.636  10.579
49066SOL    HW147224   8.085  11.547  10.549
49066SOL    HW247225   8.145  11.690  10.499
49067SOL     OW47226   7.921  11.672   9.501
49067SOL    HW147227   7.982  11.752   9.505
49067SOL    HW247228   7.826  11.703   9.508
49068SOL     OW47229   7.607  12.309  10.776
49068SOL    HW147230   7.629  12.248  10.852
49068SOL    HW247231   7.617  12.260  10.690
49069SOL     OW47232   8.795  12.231  10.544
49069SOL    HW147233   8.819  12.168  10.470
49069SOL    HW247234   8.705  12.271  10.526
49070SOL     OW47235   8.750  12.027   9.619
49070SOL    HW147236   8.664  11.996   9.661
49070SOL    HW247237   8.746  12.013   9.520
49071SOL     OW47238   7.531  12.430  10.332
49071SOL    HW147239   7.526  12.429  10.432
49071SOL    HW247240   7.448  12.389  10.294
49072SOL     OW47241   9.174  11.307   9.833
49072SOL    HW147242   9.247  11.290   9.766
49072SOL    HW247243   9.143  11.220   9.871
49073SOL     OW47244   8.728  12.099   9.982
49073SOL    HW147245   8.788  12.018   9.984
49073SOL    HW247246   8.768  12.168   9.922
49074SOL     OW47247   8.278  12.445  10.732
49074SOL    HW147248   8.273  12.478  10.827
49074SOL    HW247249   8.192  12.464  10.686
49075SOL     OW47250   9.289  11.347  10.273
49075SOL    HW147251   9.328  11.262  10.237
49075SOL    HW247252   9.191  11.349  10.254
49076SOL     OW47253   7.711  11.498  10.030
49076SOL    HW147254   7.632  11.549   9.996
49076SOL    HW247255   7.702  11.483  10.128
49077SOL     OW47256   8.270  12.174  10.682
49077SOL    HW147257   8.310  12.173  10.590
49077SOL    HW247258   8.280  12.266  10.722
49078SOL     OW47259   8.364  12.082   9.601
49078SOL    HW147260   8.427  12.120   9.533
49078SOL    HW247261   8.404  11.999   9.640
49079SOL     OW47262   7.820  12.460  10.800
49079SOL    HW147263   7.807  12.553  10.766
49079SOL    HW247264   7.736  12.408  10.787
49080SOL     OW47265   9.062  12.464  10.599
49080SOL    HW147266   9.122  12.467  10.679
49080SOL    HW247267   8.987  12.528  10.612
49081SOL     OW47268   8.487  12.270  10.006
49081SOL    HW147269   8.417  12.223  10.060
49081SOL    HW247270   8.546  12.202   9.963
49082SOL     OW47271   8.462  11.408  10.281
49082SOL    HW147272   8.454  11.372  10.188
49082SOL    HW247273   8.460  11.332  10.346
49083SOL     OW47274   9.157  11.557  10.691
49083SOL    HW147275   9.230  11.626  10.695
49083SOL    HW247276   9.185  11.482  10.632
49084SOL     OW47277   7.703  12.520   9.600
49084SOL    HW147278   7.607  12.521   9.573
49084SOL    HW247279   7.715  12.573   9.684
49085SOL     OW47280   7.553  12.185  11.036
49085SOL    HW147281   7.476  12.152  11.090
49085SOL    HW247282   7.638  12.155  11.078
49086SOL     OW47283   8.120  11.375  10.799
49086SOL    HW147284   8.210  11.359  10.759
49086SOL    HW247285   8.128  11.380  10.898
49087SOL     OW47286   7.523  11.517   9.343
49087SOL    HW147287   7.431  11.489   9.314
49087SOL    HW247288   7.554  11.594   9.287
49088SOL     OW47289   8.888  12.028  10.708
49088SOL    HW147290   8.831  12.080  10.645
49088SOL    HW247291   8.984  12.040  10.684
49089SOL     OW47292   7.520  11.338   9.628
49089SOL    HW147293   7.503  11.421   9.574
49089SOL    HW247294   7.610  11.301   9.606
49090SOL     OW47295   8.631  12.507   9.429
49090SOL    HW147296   8.532  12.496   9.431
49090SOL    HW247297   8.665  12.522   9.522
49091SOL     OW47298   8.061  12.014  10.741
49091SOL    HW147299   8.117  12.095  10.724
49091SOL    HW247300   8.120  11.934  10.744
49092SOL     OW47301   8.164  11.737  11.018
49092SOL    HW147302   8.183  11.802  11.092
49092SOL    HW247303   8.224  11.657  11.027
49093SOL     OW47304   8.898  12.392  10.943
49093SOL    HW147305   8.889  12.382  11.042
49093SOL    HW247306   8.994  12.385  10.917
49094SOL     OW47307   9.122  12.055  10.564
49094SOL    HW147308   9.095  11.966  10.527
49094SOL    HW247309   9.123  12.123  10.491
49095SOL     OW47310   8.673  11.497   9.759
49095SOL    HW147311   8.738  11.423   9.748
49095SOL    HW247312   8.693  11.547   9.843
49096SOL     OW47313   8.042  11.917   9.962
49096SOL    HW147314   8.092  12.002   9.943
49096SOL    HW247315   7.954  11.919   9.914
49097SOL     OW47316   9.225  11.514  10.952
49097SOL    HW147317   9.208  11.545  10.858
49097SOL    HW247318   9.141  11.477  10.990
49098SOL     OW47319   9.178  12.106  10.827
49098SOL    HW147320   9.216  12.197  10.842
49098SOL    HW247321   9.170  12.089  10.728
49099SOL     OW47322   8.307  12.546   9.326
49099SOL    HW147323   8.261  12.561   9.414
49099SOL    HW247324   8.351  12.631   9.296
49100SOL     OW47325   8.307  12.128  10.171
49100SOL    HW147326   8.361  12.059  10.219
49100SOL    HW247327   8.275  12.197  10.237
49101SOL     OW47328   8.531  12.156   9.397
49101SOL    HW147329   8.508  12.209   9.315
49101SOL    HW247330   8.612  12.100   9.378
49102SOL     OW47331   7.669  12.486  11.154
49102SOL    HW147332   7.604  12.413  11.133
49102SOL    HW247333   7.673  12.500  11.252
49103SOL     OW47334   7.527  12.412   9.963
49103SOL    HW147335   7.526  12.365  10.051
49103SOL    HW247336   7.609  12.384   9.912
49104SOL     OW47337   8.120  12.563  10.934
49104SOL    HW147338   8.042  12.513  10.972
49104SOL    HW247339   8.117  12.658  10.965
49105SOL     OW47340   9.272  11.364  10.537
49105SOL    HW147341   9.268  11.274  10.581
49105SOL    HW247342   9.275  11.353  10.438
49106SOL     OW47343   7.876  11.596   9.830
49106SOL    HW147344   7.906  11.524   9.768
49106SOL    HW247345   7.837  11.556   9.913
49107SOL     OW47346   9.153  12.659  10.414
49107SOL    HW147347   9.060  12.634  10.387
49107SOL    HW247348   9.179  12.609  10.496
49108SOL     OW47349   7.765  11.719  10.590
49108SOL    HW147350   7.803  11.660  10.662
49108SOL    HW247351   7.805  11.693  10.502
49109SOL     OW47352   8.872  11.386  10.422
49109SOL    HW147353   8.924  11.321  10.477
49109SOL    HW247354   8.823  11.449  10.483
49110SOL     OW47355   8.449  11.206  10.464
49110SOL    HW147356   8.386  11.134  10.433
49110SOL    HW247357   8.542  11.170  10.464
49111SOL     OW47358   8.218  12.502   9.611
49111SOL    HW147359   8.172  12.415   9.628
49111SOL    HW247360   8.309  12.499   9.652
49112SOL     OW47361   8.066  12.739  10.594
49112SOL    HW147362   8.061  12.821  10.651
49112SOL    HW247363   8.155  12.736  10.549
49113SOL     OW47364   8.800  11.224   9.478
49113SOL    HW147365   8.835  11.183   9.394
49113SOL    HW247366   8.710  11.186   9.498
49114SOL     OW47367   8.748  11.625  10.001
49114SOL    HW147368   8.689  11.705  10.005
49114SOL    HW247369   8.763  11.590  10.094
49115SOL     OW47370   9.041  11.393  10.192
49115SOL    HW147371   8.957  11.392  10.246
49115SOL    HW247372   9.043  11.476  10.136
49116SOL     OW47373   7.487  12.249   9.610
49116SOL    HW147374   7.586  12.238   9.601
49116SOL    HW247375   7.447  12.163   9.642
49117SOL     OW47376   7.678  11.800  11.285
49117SOL    HW147377   7.585  11.798  11.322
49117SOL    HW247378   7.679  11.761  11.193
49118SOL     OW47379   7.673  11.447  12.168
49118SOL    HW147380   7.708  11.430  12.260
49118SOL    HW247381   7.585  11.402  12.156
49119SOL     OW47382   7.467  11.540  11.819
49119SOL    HW147383   7.385  11.583  11.858
49119SOL    HW247384   7.439  11.467  11.756
49120SOL     OW47385   8.017  12.447  12.337
49120SOL    HW147386   7.924  12.440  12.300
49120SOL    HW247387   8.028  12.536  12.381
49121SOL     OW47388   9.003  12.683  11.875
49121SOL    HW147389   8.946  12.667  11.956
49121SOL    HW247390   8.944  12.693  11.795
49122SOL     OW47391   8.583  11.875  11.889
49122SOL    HW147392   8.640  11.953  11.864
49122SOL    HW247393   8.523  11.901  11.965
49123SOL     OW47394   9.203  11.779  11.403
49123SOL    HW147395   9.191  11.766  11.304
49123SOL    HW247396   9.173  11.698  11.452
49124SOL     OW47397   8.216  12.316  12.195
49124SOL    HW147398   8.138  12.333  12.255
49124SOL    HW247399   8.250  12.403  12.159
49125SOL     OW47400   8.133  12.184  11.837
49125SOL    HW147401   8.202  12.168  11.907
49125SOL    HW247402   8.060  12.241  11.875
49126SOL     OW47403   7.783  12.607  12.233
49126SOL    HW147404   7.705  12.576  12.180
49126SOL    HW247405   7.841  12.665  12.176
49127SOL     OW47406   8.908  12.677  12.511
49127SOL    HW147407   8.932  12.771  12.537
49127SOL    HW247408   8.892  12.623  12.593
49128SOL     OW47409   7.886  11.564  12.671
49128SOL    HW147410   7.968  11.508  12.680
49128SOL    HW247411   7.805  11.506  12.675
49129SOL     OW47412   9.051  11.619  11.909
49129SOL    HW147413   8.977  11.665  11.859
49129SOL    HW247414   9.102  11.687  11.962
49130SOL     OW47415   7.679  12.885  11.655
49130SOL    HW147416   7.713  12.962  11.709
49130SOL    HW247417   7.723  12.885  11.565
49131SOL     OW47418   7.678  12.606  11.710
49131SOL    HW147419   7.652  12.702  11.710
49131SOL    HW247420   7.607  12.552  11.755
49132SOL     OW47421   7.688  12.263  12.058
49132SOL    HW147422   7.702  12.179  12.110
49132SOL    HW247423   7.633  12.327  12.113
49133SOL     OW47424   8.054  12.136  11.295
49133SOL    HW147425   8.061  12.220  11.241
49133SOL    HW247426   8.100  12.149  11.383
49134SOL     OW47427   9.042  11.286  12.652
49134SOL    HW147428   9.024  11.353  12.580
49134SOL    HW247429   9.039  11.332  12.741
49135SOL     OW47430   7.570  11.815  11.735
49135SOL    HW147431   7.525  11.727  11.752
49135SOL    HW247432   7.569  11.869  11.819
49136SOL     OW47433   7.475  12.768  11.289
49136SOL    HW147434   7.456  12.672  11.310
49136SOL    HW247435   7.442  12.826  11.364
49137SOL     OW47436   9.137  12.094  11.784
49137SOL    HW147437   9.232  12.065  11.792
49137SOL    HW247438   9.129  12.159  11.709
49138SOL     OW47439   9.089  12.280  11.604
49138SOL    HW147440   9.175  12.282  11.552
49138SOL    HW247441   9.103  12.327  11.692
49139SOL     OW47442   8.061  12.537  11.898
49139SOL    HW147443   8.012  12.450  11.907
49139SOL    HW247444   8.038  12.580  11.811
49140SOL     OW47445   8.257  11.176  11.674
49140SOL    HW147446   8.297  11.267  11.665
49140SOL    HW247447   8.157  11.184  11.680
49141SOL     OW47448   7.645  12.148  12.436
49141SOL    HW147449   7.734  12.103  12.422
49141SOL    HW247450   7.572  12.083  12.417
49142SOL     OW47451   8.973  12.171  11.362
49142SOL    HW147452   8.910  12.095  11.375
49142SOL    HW247453   9.021  12.189  11.448
49143SOL     OW47454   7.765  11.423  12.973
49143SOL    HW147455   7.836  11.494  12.979
49143SOL    HW247456   7.677  11.462  13.001
49144SOL     OW47457   8.914  12.589  12.125
49144SOL    HW147458   8.855  12.595  12.205
49144SOL    HW247459   8.899  12.501  12.079
49145SOL     OW47460   8.046  11.901  11.442
49145SOL    HW147461   8.070  11.970  11.374
49145SOL    HW247462   7.968  11.934  11.496
49146SOL     OW47463   8.729  11.517  12.116
49146SOL    HW147464   8.643  11.467  12.103
49146SOL    HW247465   8.791  11.463  12.172
49147SOL     OW47466   8.255  11.777  12.637
49147SOL    HW147467   8.208  11.774  12.726
49147SOL    HW247468   8.204  11.722  12.571
49148SOL     OW47469   8.439  11.582  12.414
49148SOL    HW147470   8.362  11.616  12.468
49148SOL    HW247471   8.405  11.531  12.335
49149SOL     OW47472   8.489  11.873  11.601
49149SOL    HW147473   8.515  11.869  11.697
49149SOL    HW247474   8.404  11.822  11.587
49150SOL     OW47475   7.524  11.983  11.961
49150SOL    HW147476   7.623  11.971  11.970
49150SOL    HW247477   7.500  12.078  11.982
49151SOL     OW47478   8.313  11.520  11.367
49151SOL    HW147479   8.372  11.583  11.318
49151SOL    HW247480   8.332  11.426  11.338
49152SOL     OW47481   8.810  12.316  11.717
49152SOL    HW147482   8.893  12.287  11.669
49152SOL    HW247483   8.761  12.383  11.661
49153SOL     OW47484   7.998  11.368  12.057
49153SOL    HW147485   7.993  11.363  12.157
49153SOL    HW247486   8.000  11.464  12.028
49154SOL     OW47487   8.456  12.628  11.649
49154SOL    HW147488   8.410  12.700  11.597
49154SOL    HW247489   8.452  12.648  11.747
49155SOL     OW47490   9.243  12.238  12.045
49155SOL    HW147491   9.181  12.223  11.969
49155SOL    HW247492   9.191  12.249  12.130
49156SOL     OW47493   7.769  12.115  11.414
49156SOL    HW147494   7.851  12.154  11.372
49156SOL    HW247495   7.742  12.033  11.365
49157SOL     OW47496   8.906  11.907  11.900
49157SOL    HW147497   8.901  11.842  11.975
49157SOL    HW247498   8.986  11.966  11.913
49158SOL     OW47499   8.559  12.948  11.409
49158SOL    HW147500   8.499  12.886  11.459
49158SOL    HW247501   8.590  12.904  11.324
49159SOL     OW47502   7.650  11.457  12.670
49159SOL    HW147503   7.570  11.517  12.657
49159SOL    HW247504   7.640  11.408  12.756
49160SOL     OW47505   9.080  12.549  11.253
49160SOL    HW147506   9.048  12.643  11.243
49160SOL    HW247507   9.004  12.486  11.241
49161SOL     OW47508   8.848  11.279  11.598
49161SOL    HW147509   8.824  11.242  11.508
49161SOL    HW247510   8.947  11.295  11.602
49162SOL     OW47511   7.830  11.872  11.652
49162SOL    HW147512   7.875  11.782  11.649
49162SOL    HW247513   7.736  11.861  11.685
49163SOL     OW47514   8.062  11.294  11.289
49163SOL    HW147515   8.160  11.272  11.296
49163SOL    HW247516   8.031  11.277  11.196
49164SOL     OW47517   8.251  12.574  12.096
49164SOL    HW147518   8.341  12.588  12.054
49164SOL    HW247519   8.180  12.576  12.025
49165SOL     OW47520   8.370  11.675  12.071
49165SOL    HW147521   8.345  11.666  11.975
49165SOL    HW247522   8.418  11.593  12.102
49166SOL     OW47523   8.882  12.360  11.213
49166SOL    HW147524   8.914  12.284  11.270
49166SOL    HW247525   8.790  12.387  11.243
49167SOL     OW47526   7.745  11.207  11.343
49167SOL    HW147527   7.794  11.291  11.322
49167SOL    HW247528   7.807  11.142  11.388
49168SOL     OW47529   8.383  11.408  11.652
49168SOL    HW147530   8.335  11.449  11.574
49168SOL    HW247531   8.482  11.406  11.633
49169SOL     OW47532   8.675  12.742  11.965
49169SOL    HW147533   8.696  12.816  11.900
49169SOL    HW247534   8.743  12.742  12.038
49170SOL     OW47535   7.907  12.324  11.913
49170SOL    HW147536   7.836  12.297  11.978
49170SOL    HW247537   7.881  12.296  11.820
49171SOL     OW47538   8.480  11.721  11.188
49171SOL    HW147539   8.439  11.803  11.149
49171SOL    HW247540   8.544  11.747  11.261
49172SOL     OW47541   7.526  11.728  12.558
49172SOL    HW147542   7.618  11.727  12.517
49172SOL    HW247543   7.520  11.802  12.625
49173SOL     OW47544   8.009  11.394  12.319
49173SOL    HW147545   8.047  11.310  12.356
49173SOL    HW247546   7.921  11.413  12.363
49174SOL     OW47547   8.314  11.626  11.814
49174SOL    HW147548   8.282  11.698  11.752
49174SOL    HW247549   8.338  11.545  11.761
49175SOL     OW47550   8.465  11.211  11.925
49175SOL    HW147551   8.393  11.216  11.856
49175SOL    HW247552   8.441  11.142  11.994
49176SOL     OW47553   8.877  12.345  12.039
49176SOL    HW147554   8.822  12.261  12.032
49176SOL    HW247555   8.903  12.374  11.947
49177SOL     OW47556   8.914  11.762  12.164
49177SOL    HW147557   8.884  11.667  12.171
49177SOL    HW247558   8.987  11.778  12.230
49178SOL     OW47559   9.305  12.005  11.549
49178SOL    HW147560   9.347  11.941  11.613
49178SOL    HW247561   9.267  11.954  11.471
49179SOL     OW47562   7.936  12.557  11.346
49179SOL    HW147563   7.849  12.542  11.393
49179SOL    HW247564   7.919  12.583  11.251
49180SOL     OW47565   9.112  12.452  11.829
49180SOL    HW147566   9.211  12.460  11.843
49180SOL    HW247567   9.067  12.536  11.860
49181SOL     OW47568   8.838  11.747  11.250
49181SOL    HW147569   8.784  11.726  11.331
49181SOL    HW247570   8.929  11.706  11.259
49182SOL     OW47571   7.975  11.428  11.500
49182SOL    HW147572   8.002  11.369  11.425
49182SOL    HW247573   7.975  11.523  11.469
49183SOL     OW47574   8.512  12.519  12.512
49183SOL    HW147575   8.432  12.496  12.567
49183SOL    HW247576   8.595  12.493  12.561
49184SOL     OW47577   8.559  12.367  12.272
49184SOL    HW147578   8.519  12.411  12.353
49184SOL    HW247579   8.518  12.404  12.189
49185SOL     OW47580   9.086  12.271  12.251
49185SOL    HW147581   9.091  12.352  12.310
49185SOL    HW247582   9.000  12.273  12.200
49186SOL     OW47583   8.363  11.261  12.574
49186SOL    HW147584   8.388  11.241  12.479
49186SOL    HW247585   8.435  11.317  12.616
49187SOL     OW47586   8.153  12.222  11.540
49187SOL    HW147587   8.139  12.229  11.639
49187SOL    HW247588   8.237  12.171  11.522
49188SOL     OW47589   7.858  11.985  12.423
49188SOL    HW147590   7.944  11.997  12.473
49188SOL    HW247591   7.816  11.898  12.450
49189SOL     OW47592   8.722  11.558  12.434
49189SOL    HW147593   8.743  11.632  12.498
49189SOL    HW247594   8.633  11.575  12.391
49190SOL     OW47595   7.815  12.272  11.673
49190SOL    HW147596   7.808  12.355  11.617
49190SOL    HW247597   7.819  12.192  11.613
49191SOL     OW47598   8.014  11.709  12.037
49191SOL    HW147599   8.026  11.775  11.963
49191SOL    HW247600   8.060  11.743  12.120
49192SOL     OW47601   8.700  12.520  11.560
49192SOL    HW147602   8.750  12.597  11.600
49192SOL    HW247603   8.605  12.522  11.592
49193SOL     OW47604   8.720  12.617  12.314
49193SOL    HW147605   8.767  12.630  12.401
49193SOL    HW247606   8.654  12.543  12.323
49194SOL     OW47607   9.030  11.811  11.644
49194SOL    HW147608   8.999  11.872  11.717
49194SOL    HW247609   9.080  11.863  11.575
49195SOL     OW47610   7.802  12.682  12.501
49195SOL    HW147611   7.781  12.638  12.414
49195SOL    HW247612   7.899  12.708  12.504
49196SOL     OW47613   7.850  11.923  12.770
49196SOL    HW147614   7.918  11.978  12.723
49196SOL    HW247615   7.890  11.835  12.797
49197SOL     OW47616   9.035  11.951  12.842
49197SOL    HW147617   8.943  11.989  12.837
49197SOL    HW247618   9.095  11.998  12.777
49198SOL     OW47619   8.021  12.042  12.201
49198SOL    HW147620   8.065  12.131  12.192
49198SOL    HW247621   7.958  12.042  12.278
49199SOL     OW47622   8.808  12.034  12.217
49199SOL    HW147623   8.733  12.034  12.151
49199SOL    HW247624   8.845  11.942  12.226
49200SOL     OW47625   8.657  11.697  11.447
49200SOL    HW147626   8.670  11.613  11.501
49200SOL    HW247627   8.628  11.771  11.507
49201SOL     OW47628   7.755  11.385  12.403
49201SOL    HW147629   7.732  11.422  12.493
49201SOL    HW247630   7.725  11.290  12.397
49202SOL     OW47631   7.485  12.482  12.454
49202SOL    HW147632   7.538  12.433  12.522
49202SOL    HW247633   7.507  12.580  12.459
49203SOL     OW47634   8.180  11.806  12.236
49203SOL    HW147635   8.239  11.780  12.160
49203SOL    HW247636   8.152  11.902  12.225
49204SOL     OW47637   7.755  11.235  11.790
49204SOL    HW147638   7.744  11.329  11.823
49204SOL    HW247639   7.750  11.172  11.867
49205SOL     OW47640   9.070  11.539  11.546
49205SOL    HW147641   9.072  11.463  11.610
49205SOL    HW247642   9.022  11.616  11.586
49206SOL     OW47643   8.471  11.938  12.138
49206SOL    HW147644   8.486  11.959  12.234
49206SOL    HW247645   8.441  11.843  12.129
49207SOL     OW47646   8.988  11.446  11.297
49207SOL    HW147647   8.927  11.371  11.320
49207SOL    HW247648   9.010  11.498  11.380
49208SOL     OW47649   8.751  12.010  11.214
49208SOL    HW147650   8.785  11.917  11.229
49208SOL    HW247651   8.769  12.037  11.119
49209SOL     OW47652   8.516  12.505  12.021
49209SOL    HW147653   8.523  12.421  11.966
49209SOL    HW247654   8.578  12.574  11.985
49210SOL     OW47655   7.767  11.982  12.121
49210SOL    HW147656   7.860  12.018  12.126
49210SOL    HW247657   7.761  11.897  12.173
49211SOL     OW47658   7.787  11.681  12.178
49211SOL    HW147659   7.735  11.598  12.161
49211SOL    HW247660   7.864  11.686  12.114
49212SOL     OW47661   8.586  11.552  12.850
49212SOL    HW147662   8.541  11.615  12.914
49212SOL    HW247663   8.679  11.583  12.833
49213SOL     OW47664   8.608  11.379  12.649
49213SOL    HW147665   8.608  11.443  12.726
49213SOL    HW247666   8.636  11.427  12.566
49214SOL     OW47667   7.456  12.498  11.372
49214SOL    HW147668   7.363  12.519  11.341
49214SOL    HW247669   7.466  12.399  11.385
49215SOL     OW47670   8.450  11.968  12.410
49215SOL    HW147671   8.491  11.936  12.496
49215SOL    HW247672   8.354  11.941  12.407
49216SOL     OW47673   7.488  11.716  12.286
49216SOL    HW147674   7.573  11.683  12.245
49216SOL    HW247675   7.501  11.731  12.384
49217SOL     OW47676   8.263  11.744  11.497
49217SOL    HW147677   8.270  11.655  11.451
49217SOL    HW247678   8.169  11.778  11.489
49218SOL     OW47679   9.105  11.776  12.378
49218SOL    HW147680   9.067  11.707  12.440
49218SOL    HW247681   9.187  11.740  12.334
49219SOL     OW47682   8.119  11.636  12.441
49219SOL    HW147683   8.085  11.547  12.411
49219SOL    HW247684   8.145  11.690  12.361
49220SOL     OW47685   7.921  11.672  11.363
49220SOL    HW147686   7.982  11.752  11.367
49220SOL    HW247687   7.826  11.703  11.370
49221SOL     OW47688   7.607  12.309  12.638
49221SOL    HW147689   7.629  12.248  12.714
49221SOL    HW247690   7.617  12.260  12.552
49222SOL     OW47691   8.795  12.231  12.406
49222SOL    HW147692   8.819  12.168  12.332
49222SOL    HW247693   8.705  12.271  12.388
49223SOL     OW47694   8.750  12.027  11.481
49223SOL    HW147695   8.664  11.996  11.523
49223SOL    HW247696   8.746  12.013  11.382
49224SOL     OW47697   7.531  12.430  12.194
49224SOL    HW147698   7.526  12.429  12.294
49224SOL    HW247699   7.448  12.389  12.156
49225SOL     OW47700   9.174  11.307  11.695
49225SOL    HW147701   9.247  11.290  11.628
49225SOL    HW247702   9.143  11.220  11.733
49226SOL     OW47703   8.728  12.099  11.844
49226SOL    HW147704   8.788  12.018  11.846
49226SOL    HW247705   8.768  12.168  11.784
49227SOL     OW47706   9.289  11.347  12.135
49227SOL    HW147707   9.328  11.262  12.099
49227SOL    HW247708   9.191  11.349  12.116
49228SOL     OW47709   7.711  11.498  11.892
49228SOL    HW147710   7.632  11.549  11.858
49228SOL    HW247711   7.702  11.483  11.990
49229SOL     OW47712   8.270  12.174  12.544
49229SOL    HW147713   8.310  12.173  12.452
49229SOL    HW247714   8.280  12.266  12.584
49230SOL     OW47715   8.364  12.082  11.463
49230SOL    HW147716   8.427  12.120  11.395
49230SOL    HW247717   8.404  11.999  11.502
49231SOL     OW47718   7.820  12.460  12.662
49231SOL    HW147719   7.807  12.553  12.628
49231SOL    HW247720   7.736  12.408  12.649
49232SOL     OW47721   9.062  12.464  12.461
49232SOL    HW147722   9.122  12.467  12.541
49232SOL    HW247723   8.987  12.528  12.474
49233SOL     OW47724   8.487  12.270  11.868
49233SOL    HW147725   8.417  12.223  11.922
49233SOL    HW247726   8.546  12.202  11.825
49234SOL     OW47727   8.462  11.408  12.143
49234SOL    HW147728   8.454  11.372  12.050
49234SOL    HW247729   8.460  11.332  12.208
49235SOL     OW47730   9.157  11.557  12.553
49235SOL    HW147731   9.230  11.626  12.557
49235SOL    HW247732   9.185  11.482  12.494
49236SOL     OW47733   7.703  12.520  11.462
49236SOL    HW147734   7.607  12.521  11.435
49236SOL    HW247735   7.715  12.573  11.546
49237SOL     OW47736   7.523  11.517  11.205
49237SOL    HW147737   7.431  11.489  11.176
49237SOL    HW247738   7.554  11.594  11.149
49238SOL     OW47739   8.888  12.028  12.570
49238SOL    HW147740   8.831  12.080  12.507
49238SOL    HW247741   8.984  12.040  12.546
49239SOL     OW47742   7.520  11.338  11.490
49239SOL    HW147743   7.503  11.421  11.436
49239SOL    HW247744   7.610  11.301  11.468
49240SOL     OW47745   8.631  12.507  11.291
49240SOL    HW147746   8.532  12.496  11.293
49240SOL    HW247747   8.665  12.522  11.384
49241SOL     OW47748   8.061  12.014  12.603
49241SOL    HW147749   8.117  12.095  12.586
49241SOL    HW247750   8.120  11.934  12.606
49242SOL     OW47751   9.122  12.055  12.426
49242SOL    HW147752   9.095  11.966  12.389
49242SOL    HW247753   9.123  12.123  12.353
49243SOL     OW47754   8.673  11.497  11.621
49243SOL    HW147755   8.738  11.423  11.610
49243SOL    HW247756   8.693  11.547  11.705
49244SOL     OW47757   8.042  11.917  11.824
49244SOL    HW147758   8.092  12.002  11.805
49244SOL    HW247759   7.954  11.919  11.776
49245SOL     OW47760   9.225  11.514  12.814
49245SOL    HW147761   9.208  11.545  12.720
49245SOL    HW247762   9.141  11.477  12.852
49246SOL     OW47763   9.178  12.106  12.689
49246SOL    HW147764   9.216  12.197  12.704
49246SOL    HW247765   9.170  12.089  12.590
49247SOL     OW47766   8.307  12.546  11.188
49247SOL    HW147767   8.261  12.561  11.276
49247SOL    HW247768   8.351  12.631  11.158
49248SOL     OW47769   8.307  12.128  12.033
49248SOL    HW147770   8.361  12.059  12.081
49248SOL    HW247771   8.275  12.197  12.099
49249SOL     OW47772   8.531  12.156  11.259
49249SOL    HW147773   8.508  12.209  11.177
49249SOL    HW247774   8.612  12.100  11.240
49250SOL     OW47775   7.527  12.412  11.825
49250SOL    HW147776   7.526  12.365  11.913
49250SOL    HW247777   7.609  12.384  11.774
49251SOL     OW47778   9.272  11.364  12.399
49251SOL    HW147779   9.268  11.274  12.443
49251SOL    HW247780   9.275  11.353  12.300
49252SOL     OW47781   7.876  11.596  11.692
49252SOL    HW147782   7.906  11.524  11.630
49252SOL    HW247783   7.837  11.556  11.775
49253SOL     OW47784   9.153  12.659  12.276
49253SOL    HW147785   9.060  12.634  12.249
49253SOL    HW247786   9.179  12.609  12.358
49254SOL     OW47787   7.765  11.719  12.452
49254SOL    HW147788   7.803  11.660  12.524
49254SOL    HW247789   7.805  11.693  12.364
49255SOL     OW47790   8.872  11.386  12.284
49255SOL    HW147791   8.924  11.321  12.339
49255SOL    HW247792   8.823  11.449  12.345
49256SOL     OW47793   8.449  11.206  12.326
49256SOL    HW147794   8.386  11.134  12.295
49256SOL    HW247795   8.542  11.170  12.326
49257SOL     OW47796   8.218  12.502  11.473
49257SOL    HW147797   8.172  12.415  11.490
49257SOL    HW247798   8.309  12.499  11.514
49258SOL     OW47799   8.066  12.739  12.456
49258SOL    HW147800   8.061  12.821  12.513
49258SOL    HW247801   8.155  12.736  12.411
49259SOL     OW47802   8.800  11.224  11.340
49259SOL    HW147803   8.835  11.183  11.256
49259SOL    HW247804   8.710  11.186  11.360
49260SOL     OW47805   8.748  11.625  11.863
49260SOL    HW147806   8.689  11.705  11.867
49260SOL    HW247807   8.763  11.590  11.956
49261SOL     OW47808   9.041  11.393  12.054
49261SOL    HW147809   8.957  11.392  12.108
49261SOL    HW247810   9.043  11.476  11.998
49262SOL     OW47811   7.487  12.249  11.472
49262SOL    HW147812   7.586  12.238  11.463
49262SOL    HW247813   7.447  12.163  11.504
49263SOL     OW47814   9.540   0.628   0.113
49263SOL    HW147815   9.447   0.626   0.150
49263SOL    HW247816   9.541   0.589   0.021
49264SOL     OW47817   9.535   0.275   0.996
49264SOL    HW147818   9.570   0.258   1.088
49264SOL    HW247819   9.447   0.230   0.984
49265SOL     OW47820   9.329   0.368   0.647
49265SOL    HW147821   9.247   0.411   0.686
49265SOL    HW247822   9.301   0.295   0.584
49266SOL     OW47823   9.879   1.275   1.165
49266SOL    HW147824   9.786   1.268   1.128
49266SOL    HW247825   9.890   1.364   1.209
49267SOL     OW47826  10.865   1.511   0.703
49267SOL    HW147827  10.808   1.495   0.784
49267SOL    HW247828  10.806   1.521   0.623
49268SOL     OW47829  10.445   0.703   0.717
49268SOL    HW147830  10.502   0.781   0.692
49268SOL    HW247831  10.385   0.729   0.793
49269SOL     OW47832  11.065   0.607   0.231
49269SOL    HW147833  11.053   0.594   0.132
49269SOL    HW247834  11.035   0.526   0.280
49270SOL     OW47835  10.078   1.144   1.023
49270SOL    HW147836  10.000   1.161   1.083
49270SOL    HW247837  10.112   1.231   0.987
49271SOL     OW47838  10.160   0.798   1.823
49271SOL    HW147839  10.156   0.874   1.888
49271SOL    HW247840  10.182   0.834   1.732
49272SOL     OW47841   9.995   1.012   0.665
49272SOL    HW147842  10.064   0.996   0.735
49272SOL    HW247843   9.922   1.069   0.703
49273SOL     OW47844   9.996   1.161   1.803
49273SOL    HW147845  10.056   1.240   1.817
49273SOL    HW247846   9.910   1.192   1.762
49274SOL     OW47847   9.645   1.435   1.061
49274SOL    HW147848   9.567   1.404   1.008
49274SOL    HW247849   9.703   1.493   1.004
49275SOL     OW47850  10.770   1.505   1.339
49275SOL    HW147851  10.794   1.599   1.365
49275SOL    HW247852  10.754   1.451   1.421
49276SOL     OW47853   9.748   0.392   1.499
49276SOL    HW147854   9.830   0.336   1.508
49276SOL    HW247855   9.667   0.334   1.503
49277SOL     OW47856  10.913   0.447   0.737
49277SOL    HW147857  10.839   0.493   0.687
49277SOL    HW247858  10.964   0.515   0.790
49278SOL     OW47859   9.541   1.713   0.483
49278SOL    HW147860   9.575   1.790   0.537
49278SOL    HW247861   9.585   1.713   0.393
49279SOL     OW47862  10.437   1.341   1.690
49279SOL    HW147863  10.484   1.341   1.778
49279SOL    HW247864  10.389   1.254   1.679
49280SOL     OW47865   9.540   1.434   0.538
49280SOL    HW147866   9.514   1.530   0.538
49280SOL    HW247867   9.469   1.380   0.583
49281SOL     OW47868   9.550   1.091   0.886
49281SOL    HW147869   9.564   1.007   0.938
49281SOL    HW247870   9.495   1.155   0.941
49282SOL     OW47871   9.930   1.786   1.439
49282SOL    HW147872   9.838   1.769   1.474
49282SOL    HW247873   9.958   1.878   1.465
49283SOL     OW47874   9.916   0.964   0.123
49283SOL    HW147875   9.923   1.048   0.069
49283SOL    HW247876   9.962   0.977   0.211
49284SOL     OW47877  10.904   0.114   1.480
49284SOL    HW147878  10.886   0.181   1.408
49284SOL    HW247879  10.901   0.160   1.569
49285SOL     OW47880   9.432   0.643   0.563
49285SOL    HW147881   9.387   0.555   0.580
49285SOL    HW247882   9.431   0.697   0.647
49286SOL     OW47883  11.152   1.767   0.359
49286SOL    HW147884  11.206   1.738   0.439
49286SOL    HW247885  11.182   1.857   0.330
49287SOL     OW47886   9.337   1.596   0.117
49287SOL    HW147887   9.318   1.500   0.138
49287SOL    HW247888   9.304   1.654   0.192
49288SOL     OW47889  10.999   0.922   0.612
49288SOL    HW147890  11.094   0.893   0.620
49288SOL    HW247891  10.991   0.987   0.537
49289SOL     OW47892  10.951   1.108   0.432
49289SOL    HW147893  11.037   1.110   0.380
49289SOL    HW247894  10.965   1.155   0.520
49290SOL     OW47895   9.423   0.737   1.597
49290SOL    HW147896   9.511   0.724   1.642
49290SOL    HW247897   9.410   0.834   1.575
49291SOL     OW47898   9.923   1.365   0.726
49291SOL    HW147899   9.874   1.278   0.735
49291SOL    HW247900   9.900   1.408   0.639
49292SOL     OW47901  10.603   1.228   1.423
49292SOL    HW147902  10.640   1.155   1.365
49292SOL    HW247903  10.655   1.233   1.508
49293SOL     OW47904  10.119   0.004   0.502
49293SOL    HW147905  10.159   0.095   0.493
49293SOL    HW247906  10.019   0.012   0.508
49294SOL     OW47907   9.507   0.976   1.264
49294SOL    HW147908   9.596   0.931   1.250
49294SOL    HW247909   9.434   0.911   1.245
49295SOL     OW47910  10.835   0.999   0.190
49295SOL    HW147911  10.772   0.923   0.203
49295SOL    HW247912  10.883   1.017   0.276
49296SOL     OW47913  10.497   1.792   1.616
49296SOL    HW147914  10.521   1.852   1.540
49296SOL    HW247915  10.504   1.697   1.586
49297SOL     OW47916   9.627   0.251   1.801
49297SOL    HW147917   9.698   0.322   1.807
49297SOL    HW247918   9.539   0.290   1.829
49298SOL     OW47919  10.776   1.417   0.953
49298SOL    HW147920  10.717   1.423   1.033
49298SOL    HW247921  10.761   1.329   0.907
49299SOL     OW47922  10.977   1.714   0.572
49299SOL    HW147923  10.936   1.691   0.484
49299SOL    HW247924  10.959   1.640   0.637
49300SOL     OW47925   9.908   0.729   0.270
49300SOL    HW147926   9.932   0.798   0.202
49300SOL    HW247927   9.830   0.762   0.324
49301SOL     OW47928  10.591   0.345   0.944
49301SOL    HW147929  10.505   0.295   0.931
49301SOL    HW247930  10.653   0.291   1.000
49302SOL     OW47931  10.886   1.662   0.307
49302SOL    HW147932  10.975   1.708   0.310
49302SOL    HW247933  10.865   1.638   0.212
49303SOL     OW47934  10.117   0.605   1.465
49303SOL    HW147935  10.070   0.602   1.554
49303SOL    HW247936  10.066   0.550   1.399
49304SOL     OW47937  10.704   0.469   1.674
49304SOL    HW147938  10.684   0.512   1.762
49304SOL    HW247939  10.782   0.407   1.683
49305SOL     OW47940  10.283   0.890   1.572
49305SOL    HW147941  10.329   0.806   1.543
49305SOL    HW247942  10.227   0.924   1.497
49306SOL     OW47943  10.301   0.410   1.242
49306SOL    HW147944  10.224   0.444   1.296
49306SOL    HW247945  10.267   0.359   1.163
49307SOL     OW47946  10.351   0.701   0.429
49307SOL    HW147947  10.377   0.697   0.525
49307SOL    HW247948  10.266   0.650   0.415
49308SOL     OW47949   9.386   0.811   0.789
49308SOL    HW147950   9.485   0.799   0.798
49308SOL    HW247951   9.362   0.906   0.810
49309SOL     OW47952   9.440   1.821   1.571
49309SOL    HW147953   9.430   1.806   1.670
49309SOL    HW247954   9.354   1.857   1.535
49310SOL     OW47955  10.175   0.348   0.195
49310SOL    HW147956  10.234   0.411   0.146
49310SOL    HW247957  10.194   0.254   0.166
49311SOL     OW47958  11.029   0.585   1.831
49311SOL    HW147959  11.003   0.674   1.795
49311SOL    HW247960  11.027   0.517   1.758
49312SOL     OW47961  10.672   1.144   0.545
49312SOL    HW147962  10.755   1.115   0.497
49312SOL    HW247963  10.623   1.211   0.489
49313SOL     OW47964   9.860   0.196   0.885
49313SOL    HW147965   9.855   0.191   0.985
49313SOL    HW247966   9.862   0.292   0.856
49314SOL     OW47967  10.318   1.456   0.477
49314SOL    HW147968  10.272   1.528   0.425
49314SOL    HW247969  10.314   1.476   0.575
49315SOL     OW47970   9.661   1.801   0.853
49315SOL    HW147971   9.711   1.715   0.859
49315SOL    HW247972   9.726   1.878   0.850
49316SOL     OW47973  11.105   1.066   0.873
49316SOL    HW147974  11.043   1.051   0.797
49316SOL    HW247975  11.053   1.077   0.958
49317SOL     OW47976  10.537   1.550   1.506
49317SOL    HW147977  10.543   1.473   1.570
49317SOL    HW247978  10.485   1.524   1.426
49318SOL     OW47979   9.631   0.943   0.242
49318SOL    HW147980   9.713   0.982   0.200
49318SOL    HW247981   9.604   0.861   0.193
49319SOL     OW47982  10.768   0.735   0.728
49319SOL    HW147983  10.763   0.670   0.803
49319SOL    HW247984  10.848   0.794   0.741
49320SOL     OW47985   9.771   1.266   1.727
49320SOL    HW147986   9.721   1.267   1.641
49320SOL    HW247987   9.708   1.248   1.803
49321SOL     OW47988  10.421   1.776   0.237
49321SOL    HW147989  10.361   1.714   0.287
49321SOL    HW247990  10.452   1.732   0.152
49322SOL     OW47991   9.512   0.285   1.498
49322SOL    HW147992   9.432   0.345   1.485
49322SOL    HW247993   9.502   0.236   1.584
49323SOL     OW47994  10.942   1.377   0.081
49323SOL    HW147995  10.910   1.471   0.071
49323SOL    HW247996  10.866   1.314   0.069
49324SOL     OW47997   9.774   1.743   0.323
49324SOL    HW147998   9.807   1.782   0.409
49324SOL    HW247999   9.850   1.736   0.258
49325SOL     OW48000  10.710   0.107   0.426
49325SOL    HW148001  10.686   0.070   0.336
49325SOL    HW248002  10.809   0.123   0.430
49326SOL     OW48003   9.559   1.785   1.241
49326SOL    HW148004   9.616   1.720   1.291
49326SOL    HW248005   9.543   1.752   1.148
49327SOL     OW48006  10.250   1.698   0.904
49327SOL    HW148007  10.330   1.641   0.925
49327SOL    HW248008  10.201   1.658   0.827
49328SOL     OW48009   9.692   0.700   0.480
49328SOL    HW148010   9.737   0.610   0.477
49328SOL    HW248011   9.598   0.689   0.513
49329SOL     OW48012  10.857   0.222   1.729
49329SOL    HW148013  10.852   0.259   1.821
49329SOL    HW248014  10.785   0.153   1.717
49330SOL     OW48015   9.924   0.122   0.117
49330SOL    HW148016  10.022   0.100   0.124
49330SOL    HW248017   9.893   0.105   0.024
49331SOL     OW48018  10.091   0.264   1.749
49331SOL    HW148019  10.158   0.203   1.792
49331SOL    HW248020  10.018   0.283   1.814
49332SOL     OW48021  10.198   1.514   1.195
49332SOL    HW148022  10.175   1.489   1.101
49332SOL    HW248023  10.259   1.445   1.234
49333SOL     OW48024  10.661   0.590   1.433
49333SOL    HW148025  10.689   0.547   1.518
49333SOL    HW248026  10.686   0.686   1.434
49334SOL     OW48027  10.113   1.402   0.924
49334SOL    HW148028  10.203   1.416   0.882
49334SOL    HW248029  10.042   1.404   0.853
49335SOL     OW48030  10.232   0.503   0.899
49335SOL    HW148031  10.207   0.494   0.803
49335SOL    HW248032  10.280   0.421   0.930
49336SOL     OW48033   9.849   0.064   0.512
49336SOL    HW148034   9.768   0.065   0.570
49336SOL    HW248035   9.852   0.147   0.457
49337SOL     OW48036  10.744   1.188   0.041
49337SOL    HW148037  10.776   1.112   0.098
49337SOL    HW248038  10.652   1.215   0.071
49338SOL     OW48039   9.607   0.035   0.171
49338SOL    HW148040   9.656   0.119   0.150
49338SOL    HW248041   9.669  -0.030   0.216
49339SOL     OW48042  10.245   0.236   0.480
49339SOL    HW148043  10.197   0.277   0.402
49339SOL    HW248044  10.344   0.234   0.461
49340SOL     OW48045  10.386   0.683   1.464
49340SOL    HW148046  10.306   0.622   1.467
49340SOL    HW248047  10.467   0.630   1.440
49341SOL     OW48048  10.537   1.570   0.793
49341SOL    HW148049  10.558   1.644   0.728
49341SOL    HW248050  10.605   1.570   0.866
49342SOL     OW48051   9.769   1.152   0.741
49342SOL    HW148052   9.698   1.125   0.806
49342SOL    HW248053   9.743   1.124   0.648
49343SOL     OW48054  10.581   1.797   0.591
49343SOL    HW148055  10.625   1.861   0.527
49343SOL    HW248056  10.531   1.849   0.661
49344SOL     OW48057  10.342   0.549   0.016
49344SOL    HW148058  10.301   0.631  -0.023
49344SOL    HW248059  10.406   0.575   0.089
49345SOL     OW48060   9.388   0.556   1.386
49345SOL    HW148061   9.480   0.555   1.345
49345SOL    HW248062   9.382   0.630   1.453
49346SOL     OW48063   9.871   0.222   1.147
49346SOL    HW148064   9.909   0.138   1.184
49346SOL    HW248065   9.783   0.241   1.191
49347SOL     OW48066  10.176   0.454   0.642
49347SOL    HW148067  10.144   0.526   0.580
49347SOL    HW248068  10.200   0.373   0.589
49348SOL     OW48069  10.327   0.039   0.753
49348SOL    HW148070  10.255   0.044   0.684
49348SOL    HW248071  10.303  -0.030   0.822
49349SOL     OW48072  10.739   1.173   0.867
49349SOL    HW148073  10.684   1.089   0.860
49349SOL    HW248074  10.765   1.202   0.775
49350SOL     OW48075  10.776   0.590   0.992
49350SOL    HW148076  10.746   0.495   0.999
49350SOL    HW248077  10.849   0.606   1.058
49351SOL     OW48078  11.167   0.833   0.377
49351SOL    HW148079  11.209   0.769   0.441
49351SOL    HW248080  11.129   0.782   0.299
49352SOL     OW48081   9.798   1.385   0.174
49352SOL    HW148082   9.711   1.370   0.221
49352SOL    HW248083   9.781   1.411   0.079
49353SOL     OW48084  10.974   1.280   0.657
49353SOL    HW148085  11.073   1.288   0.671
49353SOL    HW248086  10.929   1.364   0.688
49354SOL     OW48087  10.700   0.575   0.078
49354SOL    HW148088  10.646   0.554   0.159
49354SOL    HW248089  10.791   0.534   0.087
49355SOL     OW48090   9.837   0.256   0.328
49355SOL    HW148091   9.864   0.197   0.253
49355SOL    HW248092   9.837   0.351   0.297
49356SOL     OW48093  11.064   1.223   1.588
49356SOL    HW148094  11.155   1.184   1.575
49356SOL    HW248095  11.072   1.319   1.612
49357SOL     OW48096  10.374   1.347   1.340
49357SOL    HW148097  10.294   1.324   1.395
49357SOL    HW248098  10.457   1.321   1.389
49358SOL     OW48099  10.902   1.629   1.625
49358SOL    HW148100  10.929   1.663   1.535
49358SOL    HW248101  10.981   1.591   1.671
49359SOL     OW48102  10.421   1.195   1.100
49359SOL    HW148103  10.381   1.239   1.181
49359SOL    HW248104  10.380   1.232   1.017
49360SOL     OW48105  10.948   1.099   1.079
49360SOL    HW148106  10.953   1.180   1.138
49360SOL    HW248107  10.862   1.101   1.028
49361SOL     OW48108  10.225   0.089   1.402
49361SOL    HW148109  10.250   0.069   1.307
49361SOL    HW248110  10.297   0.145   1.444
49362SOL     OW48111  10.290   1.116   1.719
49362SOL    HW148112  10.191   1.122   1.729
49362SOL    HW248113  10.313   1.036   1.663
49363SOL     OW48114  10.015   1.050   0.368
49363SOL    HW148115  10.001   1.057   0.467
49363SOL    HW248116  10.099   0.999   0.350
49364SOL     OW48117   9.720   0.813   1.251
49364SOL    HW148118   9.806   0.825   1.301
49364SOL    HW248119   9.678   0.726   1.278
49365SOL     OW48120  10.584   0.386   1.262
49365SOL    HW148121  10.605   0.460   1.326
49365SOL    HW248122  10.495   0.403   1.219
49366SOL     OW48123   9.374   1.564   1.331
49366SOL    HW148124   9.328   1.646   1.297
49366SOL    HW248125   9.472   1.583   1.340
49367SOL     OW48126   9.677   1.100   0.501
49367SOL    HW148127   9.670   1.183   0.445
49367SOL    HW248128   9.681   1.020   0.441
49368SOL     OW48129   9.876   0.537   0.865
49368SOL    HW148130   9.888   0.603   0.791
49368SOL    HW248131   9.922   0.571   0.948
49369SOL     OW48132  10.562   1.348   0.388
49369SOL    HW148133  10.612   1.425   0.428
49369SOL    HW248134  10.467   1.350   0.420
49370SOL     OW48135  10.582   1.445   1.142
49370SOL    HW148136  10.629   1.458   1.229
49370SOL    HW248137  10.516   1.371   1.151
49371SOL     OW48138  10.892   0.639   0.472
49371SOL    HW148139  10.861   0.700   0.545
49371SOL    HW248140  10.942   0.691   0.403
49372SOL     OW48141   9.664   1.510   1.329
49372SOL    HW148142   9.643   1.466   1.242
49372SOL    HW248143   9.761   1.536   1.332
49373SOL     OW48144   9.712   0.751   1.598
49373SOL    HW148145   9.780   0.806   1.551
49373SOL    HW248146   9.752   0.663   1.625
49374SOL     OW48147  10.897   0.779   1.670
49374SOL    HW148148  10.805   0.817   1.665
49374SOL    HW248149  10.957   0.826   1.605
49375SOL     OW48150  10.323   0.105   1.770
49375SOL    HW148151  10.329   0.190   1.718
49375SOL    HW248152  10.355   0.029   1.713
49376SOL     OW48153   9.814   0.050   1.740
49376SOL    HW148154   9.772  -0.007   1.670
49376SOL    HW248155   9.748   0.119   1.772
49377SOL     OW48156   9.883   0.870   1.029
49377SOL    HW148157   9.927   0.959   1.020
49377SOL    HW248158   9.820   0.870   1.106
49378SOL     OW48159  10.670   0.862   1.045
49378SOL    HW148160  10.595   0.862   0.979
49378SOL    HW248161  10.707   0.770   1.054
49379SOL     OW48162  10.519   0.525   0.275
49379SOL    HW148163  10.532   0.441   0.329
49379SOL    HW248164  10.490   0.599   0.335
49380SOL     OW48165   9.617   0.213   1.231
49380SOL    HW148166   9.594   0.250   1.321
49380SOL    HW248167   9.587   0.118   1.225
49381SOL     OW48168   9.347   1.310   1.282
49381SOL    HW148169   9.400   1.261   1.350
49381SOL    HW248170   9.369   1.408   1.287
49382SOL     OW48171  10.042   0.634   1.064
49382SOL    HW148172  10.101   0.608   0.988
49382SOL    HW248173  10.014   0.730   1.053
49383SOL     OW48174  11.038   0.935   1.854
49383SOL    HW148175  10.992   0.928   1.765
49383SOL    HW248176  10.976   0.979   1.920
49384SOL     OW48177   9.617   0.063   0.618
49384SOL    HW148178   9.606   0.157   0.651
49384SOL    HW248179   9.612   0.000   0.695
49385SOL     OW48180  10.932   0.367   0.374
49385SOL    HW148181  10.934   0.291   0.438
49385SOL    HW248182  10.884   0.444   0.414
49386SOL     OW48183  10.333   0.766   0.966
49386SOL    HW148184  10.348   0.787   1.062
49386SOL    HW248185  10.303   0.671   0.957
49387SOL     OW48186  10.290   1.573   1.700
49387SOL    HW148187  10.270   1.617   1.612
49387SOL    HW248188  10.329   1.482   1.684
49388SOL     OW48189  11.169   1.518   1.605
49388SOL    HW148190  11.183   1.545   1.510
49388SOL    HW248191  11.252   1.540   1.658
49389SOL     OW48192   9.660   0.898   1.804
49389SOL    HW148193   9.736   0.942   1.852
49389SOL    HW248194   9.695   0.851   1.722
49390SOL     OW48195  10.850   0.274   0.125
49390SOL    HW148196  10.789   0.199   0.148
49390SOL    HW248197  10.872   0.326   0.208
49391SOL     OW48198  10.613   0.838   0.042
49391SOL    HW148199  10.647   0.745   0.057
49391SOL    HW248200  10.631   0.865  -0.053
49392SOL     OW48201  10.378   1.333   0.849
49392SOL    HW148202  10.385   1.249   0.794
49392SOL    HW248203  10.440   1.402   0.813
49393SOL     OW48204   9.629   0.810   0.949
49393SOL    HW148205   9.722   0.846   0.954
49393SOL    HW248206   9.623   0.725   1.001
49394SOL     OW48207   9.649   0.509   1.006
49394SOL    HW148208   9.597   0.426   0.989
49394SOL    HW248209   9.726   0.514   0.942
49395SOL     OW48210  10.448   0.380   1.678
49395SOL    HW148211  10.403   0.443   1.742
49395SOL    HW248212  10.541   0.411   1.661
49396SOL     OW48213  10.470   0.207   1.477
49396SOL    HW148214  10.470   0.271   1.554
49396SOL    HW248215  10.498   0.255   1.394
49397SOL     OW48216   9.318   1.326   0.200
49397SOL    HW148217   9.225   1.347   0.169
49397SOL    HW248218   9.328   1.227   0.213
49398SOL     OW48219   9.398   1.801   0.927
49398SOL    HW148220   9.356   1.715   0.900
49398SOL    HW248221   9.492   1.804   0.893
49399SOL     OW48222   9.814   1.568   0.910
49399SOL    HW148223   9.880   1.642   0.919
49399SOL    HW248224   9.858   1.489   0.868
49400SOL     OW48225  10.312   0.796   1.238
49400SOL    HW148226  10.353   0.764   1.324
49400SOL    HW248227  10.216   0.769   1.235
49401SOL     OW48228   9.350   0.544   1.114
49401SOL    HW148229   9.435   0.511   1.073
49401SOL    HW248230   9.363   0.559   1.212
49402SOL     OW48231   9.499   0.520   1.722
49402SOL    HW148232   9.558   0.480   1.652
49402SOL    HW248233   9.441   0.591   1.681
49403SOL     OW48234  10.679   0.950   1.660
49403SOL    HW148235  10.718   1.039   1.680
49403SOL    HW248236  10.689   0.930   1.563
49404SOL     OW48237  10.125   0.572   0.325
49404SOL    HW148238  10.132   0.483   0.279
49404SOL    HW248239  10.031   0.606   0.317
49405SOL     OW48240  10.967   0.604   1.206
49405SOL    HW148241  10.929   0.535   1.268
49405SOL    HW248242  11.049   0.568   1.162
49406SOL     OW48243   9.562   1.564   1.744
49406SOL    HW148244   9.532   1.621   1.820
49406SOL    HW248245   9.555   1.467   1.770
49407SOL     OW48246   9.981   0.464   1.269
49407SOL    HW148247   9.947   0.375   1.239
49407SOL    HW248248  10.007   0.518   1.189
49408SOL     OW48249  10.240   1.678   1.465
49408SOL    HW148250  10.216   1.660   1.370
49408SOL    HW248251  10.270   1.772   1.475
49409SOL     OW48252   9.783   0.500   0.191
49409SOL    HW148253   9.844   0.580   0.195
49409SOL    HW248254   9.688   0.531   0.198
49410SOL     OW48255   9.469   1.137   1.466
49410SOL    HW148256   9.491   1.076   1.542
49410SOL    HW248257   9.479   1.088   1.380
49411SOL     OW48258  10.657   1.059   1.234
49411SOL    HW148259  10.681   0.996   1.160
49411SOL    HW248260  10.567   1.099   1.216
49412SOL     OW48261  10.612   0.855   0.309
49412SOL    HW148262  10.526   0.824   0.351
49412SOL    HW248263  10.608   0.841   0.210
49413SOL     OW48264  11.069   1.747   1.154
49413SOL    HW148265  11.130   1.777   1.081
49413SOL    HW248266  11.031   1.658   1.132
49414SOL     OW48267  10.562   1.731   1.128
49414SOL    HW148268  10.646   1.736   1.074
49414SOL    HW248269  10.539   1.635   1.146
49415SOL     OW48270   9.393   1.258   1.022
49415SOL    HW148271   9.388   1.257   1.122
49415SOL    HW248272   9.310   1.217   0.984
49416SOL     OW48273   9.998   1.662   1.716
49416SOL    HW148274   9.942   1.743   1.725
49416SOL    HW248275  10.050   1.666   1.630
49417SOL     OW48276  10.213   0.086   0.133
49417SOL    HW148277  10.264   0.087   0.047
49417SOL    HW248278  10.269   0.044   0.204
49418SOL     OW48279  11.036   0.135   0.523
49418SOL    HW148280  11.109   0.118   0.456
49418SOL    HW248281  11.005   0.048   0.561
49419SOL     OW48282  10.698   1.573   0.477
49419SOL    HW148283  10.765   1.585   0.403
49419SOL    HW248284  10.658   1.662   0.500
49420SOL     OW48285   9.440   1.794   1.851
49420SOL    HW148286   9.399   1.720   1.904
49420SOL    HW248287   9.504   1.845   1.909
49421SOL     OW48288  10.590   0.927   0.672
49421SOL    HW148289  10.650   0.846   0.674
49421SOL    HW248290  10.630   0.996   0.612
49422SOL     OW48291  10.140   1.273   1.422
49422SOL    HW148292  10.135   1.306   1.517
49422SOL    HW248293  10.054   1.292   1.376
49423SOL     OW48294   9.982   1.616   0.154
49423SOL    HW148295   9.991   1.626   0.055
49423SOL    HW248296   9.942   1.527   0.175
49424SOL     OW48297  10.960   1.720   1.394
49424SOL    HW148298  11.013   1.730   1.310
49424SOL    HW248299  10.933   1.810   1.428
49425SOL     OW48300  11.151   0.175   0.963
49425SOL    HW148301  11.190   0.090   0.927
49425SOL    HW248302  11.053   0.177   0.944
49426SOL     OW48303   9.573   0.326   0.720
49426SOL    HW148304   9.494   0.377   0.686
49426SOL    HW248305   9.564   0.311   0.818
49427SOL     OW48306  10.504   1.612   0.031
49427SOL    HW148307  10.510   1.519   0.068
49427SOL    HW248308  10.445   1.612  -0.049
49428SOL     OW48309  10.132   1.002   1.372
49428SOL    HW148310  10.172   1.001   1.280
49428SOL    HW248311  10.142   1.094   1.412
49429SOL     OW48312  10.226   0.910   0.291
49429SOL    HW148313  10.289   0.948   0.223
49429SOL    HW248314  10.266   0.827   0.330
49430SOL     OW48315  10.814   1.607   0.044
49430SOL    HW148316  10.722   1.644   0.051
49430SOL    HW248317  10.852   1.627  -0.046
49431SOL     OW48318   9.682   1.288   1.490
49431SOL    HW148319   9.669   1.381   1.456
49431SOL    HW248320   9.598   1.236   1.477
49432SOL     OW48321  10.924   1.292   1.289
49432SOL    HW148322  10.984   1.295   1.369
49432SOL    HW248323  10.849   1.356   1.302
49433SOL     OW48324  10.349   1.098   0.696
49433SOL    HW148325  10.279   1.051   0.750
49433SOL    HW248326  10.408   1.030   0.653
49434SOL     OW48327  10.324   0.236   0.971
49434SOL    HW148328  10.316   0.200   0.878
49434SOL    HW248329  10.322   0.160   1.036
49435SOL     OW48330   9.900   1.487   0.491
49435SOL    HW148331   9.942   1.429   0.421
49435SOL    HW248332   9.856   1.566   0.447
49436SOL     OW48333  11.019   0.385   1.381
49436SOL    HW148334  11.092   0.454   1.385
49436SOL    HW248335  11.047   0.310   1.322
49437SOL     OW48336   9.565   1.348   0.290
49437SOL    HW148337   9.469   1.349   0.263
49437SOL    HW248338   9.577   1.401   0.374
49438SOL     OW48339   9.415   1.013   1.726
49438SOL    HW148340   9.338   0.980   1.780
49438SOL    HW248341   9.500   0.983   1.768
49439SOL     OW48342   9.982   0.203   1.489
49439SOL    HW148343  10.072   0.187   1.449
49439SOL    HW248344   9.990   0.208   1.588
49440SOL     OW48345  10.750   0.856   1.398
49440SOL    HW148346  10.693   0.908   1.335
49440SOL    HW248347  10.846   0.868   1.374
49441SOL     OW48348   9.382   0.166   0.318
49441SOL    HW148349   9.365   0.249   0.264
49441SOL    HW248350   9.472   0.129   0.296
49442SOL     OW48351  10.493   1.335   0.119
49442SOL    HW148352  10.394   1.324   0.121
49442SOL    HW248353  10.527   1.350   0.212
49443SOL     OW48354   9.923   0.842   1.431
49443SOL    HW148355   9.979   0.923   1.414
49443SOL    HW248356   9.982   0.762   1.434
49444SOL     OW48357  10.803   1.767   0.959
49444SOL    HW148358  10.836   1.831   0.890
49444SOL    HW248359  10.869   1.761   1.034
49445SOL     OW48360  10.026   0.565   1.708
49445SOL    HW148361  10.045   0.630   1.782
49445SOL    HW248362  10.086   0.485   1.717
49446SOL     OW48363  10.760   1.220   1.633
49446SOL    HW148364  10.751   1.210   1.732
49446SOL    HW248365  10.856   1.213   1.607
49447SOL     OW48366   9.700   1.741   1.560
49447SOL    HW148367   9.609   1.782   1.558
49447SOL    HW248368   9.693   1.647   1.592
49448SOL     OW48369  10.984   0.883   1.254
49448SOL    HW148370  10.957   0.794   1.217
49448SOL    HW248371  10.985   0.951   1.181
49449SOL     OW48372  10.535   0.325   0.449
49449SOL    HW148373  10.600   0.251   0.438
49449SOL    HW248374  10.555   0.375   0.533
49450SOL     OW48375   9.904   0.745   0.652
49450SOL    HW148376   9.954   0.830   0.633
49450SOL    HW248377   9.816   0.747   0.604
49451SOL     OW48378  11.087   0.342   1.642
49451SOL    HW148379  11.070   0.373   1.548
49451SOL    HW248380  11.003   0.305   1.680
49452SOL     OW48381  11.040   0.934   1.517
49452SOL    HW148382  11.078   1.025   1.532
49452SOL    HW248383  11.032   0.917   1.418
49453SOL     OW48384  10.169   1.374   0.016
49453SOL    HW148385  10.123   1.389   0.104
49453SOL    HW248386  10.213   1.459  -0.014
49454SOL     OW48387   9.971   1.790   0.953
49454SOL    HW148388   9.925   1.878   0.940
49454SOL    HW248389  10.070   1.802   0.946
49455SOL     OW48390  10.169   0.956   0.861
49455SOL    HW148391  10.223   0.887   0.909
49455SOL    HW248392  10.137   1.025   0.927
49456SOL     OW48393  10.393   0.984   0.087
49456SOL    HW148394  10.370   1.037   0.005
49456SOL    HW248395  10.474   0.928   0.068
49457SOL     OW48396  11.171   1.569   0.851
49457SOL    HW148397  11.100   1.557   0.781
49457SOL    HW248398  11.172   1.490   0.911
49458SOL     OW48399   9.531   1.314   1.844
49458SOL    HW148400   9.466   1.241   1.823
49458SOL    HW248401   9.535   1.328   1.942
49459SOL     OW48402   9.389   1.240   0.653
49459SOL    HW148403   9.388   1.193   0.741
49459SOL    HW248404   9.471   1.212   0.602
49460SOL     OW48405   9.982   1.391   1.624
49460SOL    HW148406   9.904   1.341   1.662
49460SOL    HW248407   9.979   1.486   1.655
49461SOL     OW48408  11.134   0.192   1.227
49461SOL    HW148409  11.130   0.102   1.271
49461SOL    HW248410  11.137   0.181   1.128
49462SOL     OW48411   9.738   0.424   0.520
49462SOL    HW148412   9.768   0.352   0.458
49462SOL    HW248413   9.699   0.384   0.603
49463SOL     OW48414  11.015   1.487   1.104
49463SOL    HW148415  10.922   1.462   1.077
49463SOL    HW248416  11.041   1.437   1.186
49464SOL     OW48417   9.627   0.547   1.280
49464SOL    HW148418   9.665   0.488   1.352
49464SOL    HW248419   9.667   0.521   1.192
49465SOL     OW48420  10.122   1.586   0.687
49465SOL    HW148421  10.154   1.596   0.593
49465SOL    HW248422  10.043   1.524   0.689
49466SOL     OW48423  10.734   0.214   1.112
49466SOL    HW148424  10.786   0.149   1.167
49466SOL    HW248425  10.685   0.277   1.173
49467SOL     OW48426  10.311   0.034   1.154
49467SOL    HW148427  10.248  -0.038   1.123
49467SOL    HW248428  10.404  -0.002   1.154
49468SOL     OW48429  10.080   1.330   0.301
49468SOL    HW148430  10.034   1.243   0.318
49468SOL    HW248431  10.171   1.327   0.342
49469SOL     OW48432   9.928   1.567   1.284
49469SOL    HW148433   9.923   1.649   1.341
49469SOL    HW248434  10.017   1.564   1.239
49470SOL     OW48435  10.662   0.052   0.168
49470SOL    HW148436  10.697   0.011   0.084
49470SOL    HW248437  10.572   0.014   0.188
49471SOL     OW48438  10.610   0.453   0.691
49471SOL    HW148439  10.551   0.533   0.695
49471SOL    HW248440  10.625   0.418   0.784
49472SOL     OW48441  10.903   0.221   0.882
49472SOL    HW148442  10.819   0.220   0.936
49472SOL    HW248443  10.905   0.304   0.826
49473SOL     OW48444   9.349   1.077   0.300
49473SOL    HW148445   9.448   1.066   0.291
49473SOL    HW248446   9.309   0.991   0.332
49474SOL     OW48447  10.185   1.646   0.337
49474SOL    HW148448  10.108   1.611   0.283
49474SOL    HW248449  10.153   1.717   0.399
49475SOL     OW48450   9.540   0.628   1.975
49475SOL    HW148451   9.447   0.626   2.012
49475SOL    HW248452   9.541   0.589   1.883
49476SOL     OW48453   9.535   0.275   2.858
49476SOL    HW148454   9.570   0.258   2.950
49476SOL    HW248455   9.447   0.230   2.846
49477SOL     OW48456   9.329   0.368   2.509
49477SOL    HW148457   9.247   0.411   2.548
49477SOL    HW248458   9.301   0.295   2.446
49478SOL     OW48459   9.879   1.275   3.027
49478SOL    HW148460   9.786   1.268   2.990
49478SOL    HW248461   9.890   1.364   3.071
49479SOL     OW48462  10.865   1.511   2.565
49479SOL    HW148463  10.808   1.495   2.646
49479SOL    HW248464  10.806   1.521   2.485
49480SOL     OW48465  10.445   0.703   2.579
49480SOL    HW148466  10.502   0.781   2.554
49480SOL    HW248467  10.385   0.729   2.655
49481SOL     OW48468  11.065   0.607   2.093
49481SOL    HW148469  11.053   0.594   1.994
49481SOL    HW248470  11.035   0.526   2.142
49482SOL     OW48471  10.078   1.144   2.885
49482SOL    HW148472  10.000   1.161   2.945
49482SOL    HW248473  10.112   1.231   2.849
49483SOL     OW48474   9.995   1.012   2.527
49483SOL    HW148475  10.064   0.996   2.597
49483SOL    HW248476   9.922   1.069   2.565
49484SOL     OW48477   9.996   1.161   3.665
49484SOL    HW148478  10.056   1.240   3.679
49484SOL    HW248479   9.910   1.192   3.624
49485SOL     OW48480   9.645   1.435   2.923
49485SOL    HW148481   9.567   1.404   2.870
49485SOL    HW248482   9.703   1.493   2.866
49486SOL     OW48483  10.770   1.505   3.201
49486SOL    HW148484  10.794   1.599   3.227
49486SOL    HW248485  10.754   1.451   3.283
49487SOL     OW48486   9.748   0.392   3.361
49487SOL    HW148487   9.830   0.336   3.370
49487SOL    HW248488   9.667   0.334   3.365
49488SOL     OW48489  10.913   0.447   2.599
49488SOL    HW148490  10.839   0.493   2.549
49488SOL    HW248491  10.964   0.515   2.652
49489SOL     OW48492   9.541   1.713   2.345
49489SOL    HW148493   9.575   1.790   2.399
49489SOL    HW248494   9.585   1.713   2.255
49490SOL     OW48495  10.437   1.341   3.552
49490SOL    HW148496  10.484   1.341   3.640
49490SOL    HW248497  10.389   1.254   3.541
49491SOL     OW48498   9.540   1.434   2.400
49491SOL    HW148499   9.514   1.530   2.400
49491SOL    HW248500   9.469   1.380   2.445
49492SOL     OW48501   9.550   1.091   2.748
49492SOL    HW148502   9.564   1.007   2.800
49492SOL    HW248503   9.495   1.155   2.803
49493SOL     OW48504   9.916   0.964   1.985
49493SOL    HW148505   9.923   1.048   1.931
49493SOL    HW248506   9.962   0.977   2.073
49494SOL     OW48507  10.904   0.114   3.342
49494SOL    HW148508  10.886   0.181   3.270
49494SOL    HW248509  10.901   0.160   3.431
49495SOL     OW48510   9.432   0.643   2.425
49495SOL    HW148511   9.387   0.555   2.442
49495SOL    HW248512   9.431   0.697   2.509
49496SOL     OW48513  11.152   1.767   2.221
49496SOL    HW148514  11.206   1.738   2.301
49496SOL    HW248515  11.182   1.857   2.192
49497SOL     OW48516   9.337   1.596   1.979
49497SOL    HW148517   9.318   1.500   2.000
49497SOL    HW248518   9.304   1.654   2.054
49498SOL     OW48519  10.999   0.922   2.474
49498SOL    HW148520  11.094   0.893   2.482
49498SOL    HW248521  10.991   0.987   2.399
49499SOL     OW48522  10.951   1.108   2.294
49499SOL    HW148523  11.037   1.110   2.242
49499SOL    HW248524  10.965   1.155   2.382
49500SOL     OW48525   9.423   0.737   3.459
49500SOL    HW148526   9.511   0.724   3.504
49500SOL    HW248527   9.410   0.834   3.437
49501SOL     OW48528   9.923   1.365   2.588
49501SOL    HW148529   9.874   1.278   2.597
49501SOL    HW248530   9.900   1.408   2.501
49502SOL     OW48531  10.603   1.228   3.285
49502SOL    HW148532  10.640   1.155   3.227
49502SOL    HW248533  10.655   1.233   3.370
49503SOL     OW48534  10.119   0.004   2.364
49503SOL    HW148535  10.159   0.095   2.355
49503SOL    HW248536  10.019   0.012   2.370
49504SOL     OW48537   9.507   0.976   3.126
49504SOL    HW148538   9.596   0.931   3.112
49504SOL    HW248539   9.434   0.911   3.107
49505SOL     OW48540  10.835   0.999   2.052
49505SOL    HW148541  10.772   0.923   2.065
49505SOL    HW248542  10.883   1.017   2.138
49506SOL     OW48543  10.497   1.792   3.478
49506SOL    HW148544  10.521   1.852   3.402
49506SOL    HW248545  10.504   1.697   3.448
49507SOL     OW48546   9.627   0.251   3.663
49507SOL    HW148547   9.698   0.322   3.669
49507SOL    HW248548   9.539   0.290   3.691
49508SOL     OW48549  10.776   1.417   2.815
49508SOL    HW148550  10.717   1.423   2.895
49508SOL    HW248551  10.761   1.329   2.769
49509SOL     OW48552  10.977   1.714   2.434
49509SOL    HW148553  10.936   1.691   2.346
49509SOL    HW248554  10.959   1.640   2.499
49510SOL     OW48555   9.908   0.729   2.132
49510SOL    HW148556   9.932   0.798   2.064
49510SOL    HW248557   9.830   0.762   2.186
49511SOL     OW48558  10.591   0.345   2.806
49511SOL    HW148559  10.505   0.295   2.793
49511SOL    HW248560  10.653   0.291   2.862
49512SOL     OW48561  10.886   1.662   2.169
49512SOL    HW148562  10.975   1.708   2.172
49512SOL    HW248563  10.865   1.638   2.074
49513SOL     OW48564  10.117   0.605   3.327
49513SOL    HW148565  10.070   0.602   3.416
49513SOL    HW248566  10.066   0.550   3.261
49514SOL     OW48567  10.704   0.469   3.536
49514SOL    HW148568  10.684   0.512   3.624
49514SOL    HW248569  10.782   0.407   3.545
49515SOL     OW48570  10.283   0.890   3.434
49515SOL    HW148571  10.329   0.806   3.405
49515SOL    HW248572  10.227   0.924   3.359
49516SOL     OW48573  10.301   0.410   3.104
49516SOL    HW148574  10.224   0.444   3.158
49516SOL    HW248575  10.267   0.359   3.025
49517SOL     OW48576  10.351   0.701   2.291
49517SOL    HW148577  10.377   0.697   2.387
49517SOL    HW248578  10.266   0.650   2.277
49518SOL     OW48579   9.386   0.811   2.651
49518SOL    HW148580   9.485   0.799   2.660
49518SOL    HW248581   9.362   0.906   2.672
49519SOL     OW48582   9.440   1.821   3.433
49519SOL    HW148583   9.430   1.806   3.532
49519SOL    HW248584   9.354   1.857   3.397
49520SOL     OW48585  10.175   0.348   2.057
49520SOL    HW148586  10.234   0.411   2.008
49520SOL    HW248587  10.194   0.254   2.028
49521SOL     OW48588  11.029   0.585   3.693
49521SOL    HW148589  11.003   0.674   3.657
49521SOL    HW248590  11.027   0.517   3.620
49522SOL     OW48591  10.672   1.144   2.407
49522SOL    HW148592  10.755   1.115   2.359
49522SOL    HW248593  10.623   1.211   2.351
49523SOL     OW48594   9.860   0.196   2.747
49523SOL    HW148595   9.855   0.191   2.847
49523SOL    HW248596   9.862   0.292   2.718
49524SOL     OW48597  10.318   1.456   2.339
49524SOL    HW148598  10.272   1.528   2.287
49524SOL    HW248599  10.314   1.476   2.437
49525SOL     OW48600   9.661   1.801   2.715
49525SOL    HW148601   9.711   1.715   2.721
49525SOL    HW248602   9.726   1.878   2.712
49526SOL     OW48603  11.105   1.066   2.735
49526SOL    HW148604  11.043   1.051   2.659
49526SOL    HW248605  11.053   1.077   2.820
49527SOL     OW48606  10.537   1.550   3.368
49527SOL    HW148607  10.543   1.473   3.432
49527SOL    HW248608  10.485   1.524   3.288
49528SOL     OW48609   9.631   0.943   2.104
49528SOL    HW148610   9.713   0.982   2.062
49528SOL    HW248611   9.604   0.861   2.055
49529SOL     OW48612  10.768   0.735   2.590
49529SOL    HW148613  10.763   0.670   2.665
49529SOL    HW248614  10.848   0.794   2.603
49530SOL     OW48615   9.771   1.266   3.589
49530SOL    HW148616   9.721   1.267   3.503
49530SOL    HW248617   9.708   1.248   3.665
49531SOL     OW48618  10.421   1.776   2.099
49531SOL    HW148619  10.361   1.714   2.149
49531SOL    HW248620  10.452   1.732   2.014
49532SOL     OW48621   9.512   0.285   3.360
49532SOL    HW148622   9.432   0.345   3.347
49532SOL    HW248623   9.502   0.236   3.446
49533SOL     OW48624  10.942   1.377   1.943
49533SOL    HW148625  10.910   1.471   1.933
49533SOL    HW248626  10.866   1.314   1.931
49534SOL     OW48627   9.774   1.743   2.185
49534SOL    HW148628   9.807   1.782   2.271
49534SOL    HW248629   9.850   1.736   2.120
49535SOL     OW48630  10.710   0.107   2.288
49535SOL    HW148631  10.686   0.070   2.198
49535SOL    HW248632  10.809   0.123   2.292
49536SOL     OW48633   9.559   1.785   3.103
49536SOL    HW148634   9.616   1.720   3.153
49536SOL    HW248635   9.543   1.752   3.010
49537SOL     OW48636  10.250   1.698   2.766
49537SOL    HW148637  10.330   1.641   2.787
49537SOL    HW248638  10.201   1.658   2.689
49538SOL     OW48639   9.692   0.700   2.342
49538SOL    HW148640   9.737   0.610   2.339
49538SOL    HW248641   9.598   0.689   2.375
49539SOL     OW48642  10.857   0.222   3.591
49539SOL    HW148643  10.852   0.259   3.683
49539SOL    HW248644  10.785   0.153   3.579
49540SOL     OW48645   9.924   0.122   1.979
49540SOL    HW148646  10.022   0.100   1.986
49540SOL    HW248647   9.893   0.105   1.886
49541SOL     OW48648  10.091   0.264   3.611
49541SOL    HW148649  10.158   0.203   3.654
49541SOL    HW248650  10.018   0.283   3.676
49542SOL     OW48651  10.198   1.514   3.057
49542SOL    HW148652  10.175   1.489   2.963
49542SOL    HW248653  10.259   1.445   3.096
49543SOL     OW48654  10.661   0.590   3.295
49543SOL    HW148655  10.689   0.547   3.380
49543SOL    HW248656  10.686   0.686   3.296
49544SOL     OW48657  10.113   1.402   2.786
49544SOL    HW148658  10.203   1.416   2.744
49544SOL    HW248659  10.042   1.404   2.715
49545SOL     OW48660  10.232   0.503   2.761
49545SOL    HW148661  10.207   0.494   2.665
49545SOL    HW248662  10.280   0.421   2.792
49546SOL     OW48663   9.849   0.064   2.374
49546SOL    HW148664   9.768   0.065   2.432
49546SOL    HW248665   9.852   0.147   2.319
49547SOL     OW48666  10.744   1.188   1.903
49547SOL    HW148667  10.776   1.112   1.960
49547SOL    HW248668  10.652   1.215   1.933
49548SOL     OW48669   9.607   0.035   2.033
49548SOL    HW148670   9.656   0.119   2.012
49548SOL    HW248671   9.669  -0.030   2.078
49549SOL     OW48672  10.245   0.236   2.342
49549SOL    HW148673  10.197   0.277   2.264
49549SOL    HW248674  10.344   0.234   2.323
49550SOL     OW48675  10.386   0.683   3.326
49550SOL    HW148676  10.306   0.622   3.329
49550SOL    HW248677  10.467   0.630   3.302
49551SOL     OW48678  10.537   1.570   2.655
49551SOL    HW148679  10.558   1.644   2.590
49551SOL    HW248680  10.605   1.570   2.728
49552SOL     OW48681   9.769   1.152   2.603
49552SOL    HW148682   9.698   1.125   2.668
49552SOL    HW248683   9.743   1.124   2.510
49553SOL     OW48684  10.581   1.797   2.453
49553SOL    HW148685  10.625   1.861   2.389
49553SOL    HW248686  10.531   1.849   2.523
49554SOL     OW48687  10.342   0.549   1.878
49554SOL    HW148688  10.301   0.631   1.839
49554SOL    HW248689  10.406   0.575   1.951
49555SOL     OW48690   9.388   0.556   3.248
49555SOL    HW148691   9.480   0.555   3.207
49555SOL    HW248692   9.382   0.630   3.315
49556SOL     OW48693   9.871   0.222   3.009
49556SOL    HW148694   9.909   0.138   3.046
49556SOL    HW248695   9.783   0.241   3.053
49557SOL     OW48696  10.176   0.454   2.504
49557SOL    HW148697  10.144   0.526   2.442
49557SOL    HW248698  10.200   0.373   2.451
49558SOL     OW48699  10.327   0.039   2.615
49558SOL    HW148700  10.255   0.044   2.546
49558SOL    HW248701  10.303  -0.030   2.684
49559SOL     OW48702  10.739   1.173   2.729
49559SOL    HW148703  10.684   1.089   2.722
49559SOL    HW248704  10.765   1.202   2.637
49560SOL     OW48705  10.776   0.590   2.854
49560SOL    HW148706  10.746   0.495   2.861
49560SOL    HW248707  10.849   0.606   2.920
49561SOL     OW48708  11.167   0.833   2.239
49561SOL    HW148709  11.209   0.769   2.303
49561SOL    HW248710  11.129   0.782   2.161
49562SOL     OW48711   9.798   1.385   2.036
49562SOL    HW148712   9.711   1.370   2.083
49562SOL    HW248713   9.781   1.411   1.941
49563SOL     OW48714  10.974   1.280   2.519
49563SOL    HW148715  11.073   1.288   2.533
49563SOL    HW248716  10.929   1.364   2.550
49564SOL     OW48717  10.700   0.575   1.940
49564SOL    HW148718  10.646   0.554   2.021
49564SOL    HW248719  10.791   0.534   1.949
49565SOL     OW48720   9.837   0.256   2.190
49565SOL    HW148721   9.864   0.197   2.115
49565SOL    HW248722   9.837   0.351   2.159
49566SOL     OW48723  11.064   1.223   3.450
49566SOL    HW148724  11.155   1.184   3.437
49566SOL    HW248725  11.072   1.319   3.474
49567SOL     OW48726  10.374   1.347   3.202
49567SOL    HW148727  10.294   1.324   3.257
49567SOL    HW248728  10.457   1.321   3.251
49568SOL     OW48729  10.902   1.629   3.487
49568SOL    HW148730  10.929   1.663   3.397
49568SOL    HW248731  10.981   1.591   3.533
49569SOL     OW48732  10.421   1.195   2.962
49569SOL    HW148733  10.381   1.239   3.043
49569SOL    HW248734  10.380   1.232   2.879
49570SOL     OW48735  10.948   1.099   2.941
49570SOL    HW148736  10.953   1.180   3.000
49570SOL    HW248737  10.862   1.101   2.890
49571SOL     OW48738  10.225   0.089   3.264
49571SOL    HW148739  10.250   0.069   3.169
49571SOL    HW248740  10.297   0.145   3.306
49572SOL     OW48741  10.290   1.116   3.581
49572SOL    HW148742  10.191   1.122   3.591
49572SOL    HW248743  10.313   1.036   3.525
49573SOL     OW48744  10.015   1.050   2.230
49573SOL    HW148745  10.001   1.057   2.329
49573SOL    HW248746  10.099   0.999   2.212
49574SOL     OW48747   9.720   0.813   3.113
49574SOL    HW148748   9.806   0.825   3.163
49574SOL    HW248749   9.678   0.726   3.140
49575SOL     OW48750  10.584   0.386   3.124
49575SOL    HW148751  10.605   0.460   3.188
49575SOL    HW248752  10.495   0.403   3.081
49576SOL     OW48753   9.374   1.564   3.193
49576SOL    HW148754   9.328   1.646   3.159
49576SOL    HW248755   9.472   1.583   3.202
49577SOL     OW48756   9.677   1.100   2.363
49577SOL    HW148757   9.670   1.183   2.307
49577SOL    HW248758   9.681   1.020   2.303
49578SOL     OW48759   9.876   0.537   2.727
49578SOL    HW148760   9.888   0.603   2.653
49578SOL    HW248761   9.922   0.571   2.810
49579SOL     OW48762  10.562   1.348   2.250
49579SOL    HW148763  10.612   1.425   2.290
49579SOL    HW248764  10.467   1.350   2.282
49580SOL     OW48765  10.582   1.445   3.004
49580SOL    HW148766  10.629   1.458   3.091
49580SOL    HW248767  10.516   1.371   3.013
49581SOL     OW48768  10.892   0.639   2.334
49581SOL    HW148769  10.861   0.700   2.407
49581SOL    HW248770  10.942   0.691   2.265
49582SOL     OW48771   9.664   1.510   3.191
49582SOL    HW148772   9.643   1.466   3.104
49582SOL    HW248773   9.761   1.536   3.194
49583SOL     OW48774   9.712   0.751   3.460
49583SOL    HW148775   9.780   0.806   3.413
49583SOL    HW248776   9.752   0.663   3.487
49584SOL     OW48777  10.897   0.779   3.532
49584SOL    HW148778  10.805   0.817   3.527
49584SOL    HW248779  10.957   0.826   3.467
49585SOL     OW48780  10.323   0.105   3.632
49585SOL    HW148781  10.329   0.190   3.580
49585SOL    HW248782  10.355   0.029   3.575
49586SOL     OW48783   9.814   0.050   3.602
49586SOL    HW148784   9.772  -0.007   3.532
49586SOL    HW248785   9.748   0.119   3.634
49587SOL     OW48786   9.883   0.870   2.891
49587SOL    HW148787   9.927   0.959   2.882
49587SOL    HW248788   9.820   0.870   2.968
49588SOL     OW48789  10.670   0.862   2.907
49588SOL    HW148790  10.595   0.862   2.841
49588SOL    HW248791  10.707   0.770   2.916
49589SOL     OW48792  10.519   0.525   2.137
49589SOL    HW148793  10.532   0.441   2.191
49589SOL    HW248794  10.490   0.599   2.197
49590SOL     OW48795   9.617   0.213   3.093
49590SOL    HW148796   9.594   0.250   3.183
49590SOL    HW248797   9.587   0.118   3.087
49591SOL     OW48798   9.347   1.310   3.144
49591SOL    HW148799   9.400   1.261   3.212
49591SOL    HW248800   9.369   1.408   3.149
49592SOL     OW48801  10.042   0.634   2.926
49592SOL    HW148802  10.101   0.608   2.850
49592SOL    HW248803  10.014   0.730   2.915
49593SOL     OW48804  11.038   0.935   3.716
49593SOL    HW148805  10.992   0.928   3.627
49593SOL    HW248806  10.976   0.979   3.782
49594SOL     OW48807   9.617   0.063   2.480
49594SOL    HW148808   9.606   0.157   2.513
49594SOL    HW248809   9.612   0.000   2.557
49595SOL     OW48810  10.932   0.367   2.236
49595SOL    HW148811  10.934   0.291   2.300
49595SOL    HW248812  10.884   0.444   2.276
49596SOL     OW48813  10.333   0.766   2.828
49596SOL    HW148814  10.348   0.787   2.924
49596SOL    HW248815  10.303   0.671   2.819
49597SOL     OW48816  10.290   1.573   3.562
49597SOL    HW148817  10.270   1.617   3.474
49597SOL    HW248818  10.329   1.482   3.546
49598SOL     OW48819  11.169   1.518   3.467
49598SOL    HW148820  11.183   1.545   3.372
49598SOL    HW248821  11.252   1.540   3.520
49599SOL     OW48822   9.660   0.898   3.666
49599SOL    HW148823   9.736   0.942   3.714
49599SOL    HW248824   9.695   0.851   3.584
49600SOL     OW48825  10.850   0.274   1.987
49600SOL    HW148826  10.789   0.199   2.010
49600SOL    HW248827  10.872   0.326   2.070
49601SOL     OW48828  10.613   0.838   1.904
49601SOL    HW148829  10.647   0.745   1.919
49601SOL    HW248830  10.631   0.865   1.809
49602SOL     OW48831  10.378   1.333   2.711
49602SOL    HW148832  10.385   1.249   2.656
49602SOL    HW248833  10.440   1.402   2.675
49603SOL     OW48834   9.629   0.810   2.811
49603SOL    HW148835   9.722   0.846   2.816
49603SOL    HW248836   9.623   0.725   2.863
49604SOL     OW48837   9.649   0.509   2.868
49604SOL    HW148838   9.597   0.426   2.851
49604SOL    HW248839   9.726   0.514   2.804
49605SOL     OW48840  10.448   0.380   3.540
49605SOL    HW148841  10.403   0.443   3.604
49605SOL    HW248842  10.541   0.411   3.523
49606SOL     OW48843  10.470   0.207   3.339
49606SOL    HW148844  10.470   0.271   3.416
49606SOL    HW248845  10.498   0.255   3.256
49607SOL     OW48846   9.318   1.326   2.062
49607SOL    HW148847   9.225   1.347   2.031
49607SOL    HW248848   9.328   1.227   2.075
49608SOL     OW48849   9.398   1.801   2.789
49608SOL    HW148850   9.356   1.715   2.762
49608SOL    HW248851   9.492   1.804   2.755
49609SOL     OW48852   9.814   1.568   2.772
49609SOL    HW148853   9.880   1.642   2.781
49609SOL    HW248854   9.858   1.489   2.730
49610SOL     OW48855  10.312   0.796   3.100
49610SOL    HW148856  10.353   0.764   3.186
49610SOL    HW248857  10.216   0.769   3.097
49611SOL     OW48858   9.350   0.544   2.976
49611SOL    HW148859   9.435   0.511   2.935
49611SOL    HW248860   9.363   0.559   3.074
49612SOL     OW48861   9.499   0.520   3.584
49612SOL    HW148862   9.558   0.480   3.514
49612SOL    HW248863   9.441   0.591   3.543
49613SOL     OW48864  10.679   0.950   3.522
49613SOL    HW148865  10.718   1.039   3.542
49613SOL    HW248866  10.689   0.930   3.425
49614SOL     OW48867  10.125   0.572   2.187
49614SOL    HW148868  10.132   0.483   2.141
49614SOL    HW248869  10.031   0.606   2.179
49615SOL     OW48870  10.967   0.604   3.068
49615SOL    HW148871  10.929   0.535   3.130
49615SOL    HW248872  11.049   0.568   3.024
49616SOL     OW48873   9.562   1.564   3.606
49616SOL    HW148874   9.532   1.621   3.682
49616SOL    HW248875   9.555   1.467   3.632
49617SOL     OW48876   9.981   0.464   3.131
49617SOL    HW148877   9.947   0.375   3.101
49617SOL    HW248878  10.007   0.518   3.051
49618SOL     OW48879  10.240   1.678   3.327
49618SOL    HW148880  10.216   1.660   3.232
49618SOL    HW248881  10.270   1.772   3.337
49619SOL     OW48882   9.783   0.500   2.053
49619SOL    HW148883   9.844   0.580   2.057
49619SOL    HW248884   9.688   0.531   2.060
49620SOL     OW48885   9.469   1.137   3.328
49620SOL    HW148886   9.491   1.076   3.404
49620SOL    HW248887   9.479   1.088   3.242
49621SOL     OW48888  10.657   1.059   3.096
49621SOL    HW148889  10.681   0.996   3.022
49621SOL    HW248890  10.567   1.099   3.078
49622SOL     OW48891  10.612   0.855   2.171
49622SOL    HW148892  10.526   0.824   2.213
49622SOL    HW248893  10.608   0.841   2.072
49623SOL     OW48894  11.069   1.747   3.016
49623SOL    HW148895  11.130   1.777   2.943
49623SOL    HW248896  11.031   1.658   2.994
49624SOL     OW48897  10.562   1.731   2.990
49624SOL    HW148898  10.646   1.736   2.936
49624SOL    HW248899  10.539   1.635   3.008
49625SOL     OW48900   9.393   1.258   2.884
49625SOL    HW148901   9.388   1.257   2.984
49625SOL    HW248902   9.310   1.217   2.846
49626SOL     OW48903   9.998   1.662   3.578
49626SOL    HW148904   9.942   1.743   3.587
49626SOL    HW248905  10.050   1.666   3.492
49627SOL     OW48906  11.036   0.135   2.385
49627SOL    HW148907  11.109   0.118   2.318
49627SOL    HW248908  11.005   0.048   2.423
49628SOL     OW48909  10.698   1.573   2.339
49628SOL    HW148910  10.765   1.585   2.265
49628SOL    HW248911  10.658   1.662   2.362
49629SOL     OW48912   9.440   1.794   3.713
49629SOL    HW148913   9.399   1.720   3.766
49629SOL    HW248914   9.504   1.845   3.771
49630SOL     OW48915  10.590   0.927   2.534
49630SOL    HW148916  10.650   0.846   2.536
49630SOL    HW248917  10.630   0.996   2.474
49631SOL     OW48918  10.140   1.273   3.284
49631SOL    HW148919  10.135   1.306   3.379
49631SOL    HW248920  10.054   1.292   3.238
49632SOL     OW48921   9.982   1.616   2.016
49632SOL    HW148922   9.991   1.626   1.917
49632SOL    HW248923   9.942   1.527   2.037
49633SOL     OW48924  10.960   1.720   3.256
49633SOL    HW148925  11.013   1.730   3.172
49633SOL    HW248926  10.933   1.810   3.290
49634SOL     OW48927  11.151   0.175   2.825
49634SOL    HW148928  11.190   0.090   2.789
49634SOL    HW248929  11.053   0.177   2.806
49635SOL     OW48930   9.573   0.326   2.582
49635SOL    HW148931   9.494   0.377   2.548
49635SOL    HW248932   9.564   0.311   2.680
49636SOL     OW48933  10.504   1.612   1.893
49636SOL    HW148934  10.510   1.519   1.930
49636SOL    HW248935  10.445   1.612   1.813
49637SOL     OW48936  10.132   1.002   3.234
49637SOL    HW148937  10.172   1.001   3.142
49637SOL    HW248938  10.142   1.094   3.274
49638SOL     OW48939  10.226   0.910   2.153
49638SOL    HW148940  10.289   0.948   2.085
49638SOL    HW248941  10.266   0.827   2.192
49639SOL     OW48942  10.814   1.607   1.906
49639SOL    HW148943  10.722   1.644   1.913
49639SOL    HW248944  10.852   1.627   1.816
49640SOL     OW48945   9.682   1.288   3.352
49640SOL    HW148946   9.669   1.381   3.318
49640SOL    HW248947   9.598   1.236   3.339
49641SOL     OW48948  10.924   1.292   3.151
49641SOL    HW148949  10.984   1.295   3.231
49641SOL    HW248950  10.849   1.356   3.164
49642SOL     OW48951  10.349   1.098   2.558
49642SOL    HW148952  10.279   1.051   2.612
49642SOL    HW248953  10.408   1.030   2.515
49643SOL     OW48954  10.324   0.236   2.833
49643SOL    HW148955  10.316   0.200   2.740
49643SOL    HW248956  10.322   0.160   2.898
49644SOL     OW48957   9.900   1.487   2.353
49644SOL    HW148958   9.942   1.429   2.283
49644SOL    HW248959   9.856   1.566   2.309
49645SOL     OW48960  11.019   0.385   3.243
49645SOL    HW148961  11.092   0.454   3.247
49645SOL    HW248962  11.047   0.310   3.184
49646SOL     OW48963   9.565   1.348   2.152
49646SOL    HW148964   9.469   1.349   2.125
49646SOL    HW248965   9.577   1.401   2.236
49647SOL     OW48966   9.415   1.013   3.588
49647SOL    HW148967   9.338   0.980   3.642
49647SOL    HW248968   9.500   0.983   3.630
49648SOL     OW48969   9.982   0.203   3.351
49648SOL    HW148970  10.072   0.187   3.311
49648SOL    HW248971   9.990   0.208   3.450
49649SOL     OW48972   9.385   0.345   1.895
49649SOL    HW148973   9.293   0.317   1.866
49649SOL    HW248974   9.416   0.422   1.839
49650SOL     OW48975  10.750   0.856   3.260
49650SOL    HW148976  10.693   0.908   3.197
49650SOL    HW248977  10.846   0.868   3.236
49651SOL     OW48978   9.382   0.166   2.180
49651SOL    HW148979   9.365   0.249   2.126
49651SOL    HW248980   9.472   0.129   2.158
49652SOL     OW48981  10.493   1.335   1.981
49652SOL    HW148982  10.394   1.324   1.983
49652SOL    HW248983  10.527   1.350   2.074
49653SOL     OW48984   9.923   0.842   3.293
49653SOL    HW148985   9.979   0.923   3.276
49653SOL    HW248986   9.982   0.762   3.296
49654SOL     OW48987  10.803   1.767   2.821
49654SOL    HW148988  10.836   1.831   2.752
49654SOL    HW248989  10.869   1.761   2.896
49655SOL     OW48990  10.026   0.565   3.570
49655SOL    HW148991  10.045   0.630   3.644
49655SOL    HW248992  10.086   0.485   3.579
49656SOL     OW48993  10.760   1.220   3.495
49656SOL    HW148994  10.751   1.210   3.594
49656SOL    HW248995  10.856   1.213   3.469
49657SOL     OW48996   9.700   1.741   3.422
49657SOL    HW148997   9.609   1.782   3.420
49657SOL    HW248998   9.693   1.647   3.454
49658SOL     OW48999  10.984   0.883   3.116
49658SOL    HW149000  10.957   0.794   3.079
49658SOL    HW249001  10.985   0.951   3.043
49659SOL     OW49002  10.535   0.325   2.311
49659SOL    HW149003  10.600   0.251   2.300
49659SOL    HW249004  10.555   0.375   2.395
49660SOL     OW49005   9.904   0.745   2.514
49660SOL    HW149006   9.954   0.830   2.495
49660SOL    HW249007   9.816   0.747   2.466
49661SOL     OW49008  11.087   0.342   3.504
49661SOL    HW149009  11.070   0.373   3.410
49661SOL    HW249010  11.003   0.305   3.542
49662SOL     OW49011  11.040   0.934   3.379
49662SOL    HW149012  11.078   1.025   3.394
49662SOL    HW249013  11.032   0.917   3.280
49663SOL     OW49014  10.169   1.374   1.878
49663SOL    HW149015  10.123   1.389   1.966
49663SOL    HW249016  10.213   1.459   1.848
49664SOL     OW49017   9.971   1.790   2.815
49664SOL    HW149018   9.925   1.878   2.802
49664SOL    HW249019  10.070   1.802   2.808
49665SOL     OW49020  10.169   0.956   2.723
49665SOL    HW149021  10.223   0.887   2.771
49665SOL    HW249022  10.137   1.025   2.789
49666SOL     OW49023  10.393   0.984   1.949
49666SOL    HW149024  10.370   1.037   1.867
49666SOL    HW249025  10.474   0.928   1.930
49667SOL     OW49026  11.171   1.569   2.713
49667SOL    HW149027  11.100   1.557   2.643
49667SOL    HW249028  11.172   1.490   2.773
49668SOL     OW49029   9.531   1.314   3.706
49668SOL    HW149030   9.466   1.241   3.685
49668SOL    HW249031   9.535   1.328   3.804
49669SOL     OW49032   9.389   1.240   2.515
49669SOL    HW149033   9.388   1.193   2.603
49669SOL    HW249034   9.471   1.212   2.464
49670SOL     OW49035   9.982   1.391   3.486
49670SOL    HW149036   9.904   1.341   3.524
49670SOL    HW249037   9.979   1.486   3.517
49671SOL     OW49038  11.134   0.192   3.089
49671SOL    HW149039  11.130   0.102   3.133
49671SOL    HW249040  11.137   0.181   2.990
49672SOL     OW49041   9.738   0.424   2.382
49672SOL    HW149042   9.768   0.352   2.320
49672SOL    HW249043   9.699   0.384   2.465
49673SOL     OW49044  11.015   1.487   2.966
49673SOL    HW149045  10.922   1.462   2.939
49673SOL    HW249046  11.041   1.437   3.048
49674SOL     OW49047   9.627   0.547   3.142
49674SOL    HW149048   9.665   0.488   3.214
49674SOL    HW249049   9.667   0.521   3.054
49675SOL     OW49050  10.122   1.586   2.549
49675SOL    HW149051  10.154   1.596   2.455
49675SOL    HW249052  10.043   1.524   2.551
49676SOL     OW49053  10.734   0.214   2.974
49676SOL    HW149054  10.786   0.149   3.029
49676SOL    HW249055  10.685   0.277   3.035
49677SOL     OW49056  10.311   0.034   3.016
49677SOL    HW149057  10.248  -0.038   2.985
49677SOL    HW249058  10.404  -0.002   3.016
49678SOL     OW49059  10.080   1.330   2.163
49678SOL    HW149060  10.034   1.243   2.180
49678SOL    HW249061  10.171   1.327   2.204
49679SOL     OW49062   9.928   1.567   3.146
49679SOL    HW149063   9.923   1.649   3.203
49679SOL    HW249064  10.017   1.564   3.101
49680SOL     OW49065  10.662   0.052   2.030
49680SOL    HW149066  10.697   0.011   1.946
49680SOL    HW249067  10.572   0.014   2.050
49681SOL     OW49068  10.610   0.453   2.553
49681SOL    HW149069  10.551   0.533   2.557
49681SOL    HW249070  10.625   0.418   2.646
49682SOL     OW49071  10.903   0.221   2.744
49682SOL    HW149072  10.819   0.220   2.798
49682SOL    HW249073  10.905   0.304   2.688
49683SOL     OW49074   9.349   1.077   2.162
49683SOL    HW149075   9.448   1.066   2.153
49683SOL    HW249076   9.309   0.991   2.194
49684SOL     OW49077  10.185   1.646   2.199
49684SOL    HW149078  10.108   1.611   2.145
49684SOL    HW249079  10.153   1.717   2.261
49685SOL     OW49080   9.540   0.628   3.837
49685SOL    HW149081   9.447   0.626   3.874
49685SOL    HW249082   9.541   0.589   3.745
49686SOL     OW49083   9.535   0.275   4.720
49686SOL    HW149084   9.570   0.258   4.812
49686SOL    HW249085   9.447   0.230   4.708
49687SOL     OW49086   9.329   0.368   4.371
49687SOL    HW149087   9.247   0.411   4.410
49687SOL    HW249088   9.301   0.295   4.308
49688SOL     OW49089   9.879   1.275   4.889
49688SOL    HW149090   9.786   1.268   4.852
49688SOL    HW249091   9.890   1.364   4.933
49689SOL     OW49092  10.865   1.511   4.427
49689SOL    HW149093  10.808   1.495   4.508
49689SOL    HW249094  10.806   1.521   4.347
49690SOL     OW49095  10.445   0.703   4.441
49690SOL    HW149096  10.502   0.781   4.416
49690SOL    HW249097  10.385   0.729   4.517
49691SOL     OW49098  11.065   0.607   3.955
49691SOL    HW149099  11.053   0.594   3.856
49691SOL    HW249100  11.035   0.526   4.004
49692SOL     OW49101  10.078   1.144   4.747
49692SOL    HW149102  10.000   1.161   4.807
49692SOL    HW249103  10.112   1.231   4.711
49693SOL     OW49104  10.160   0.798   5.547
49693SOL    HW149105  10.156   0.874   5.612
49693SOL    HW249106  10.182   0.834   5.456
49694SOL     OW49107   9.995   1.012   4.389
49694SOL    HW149108  10.064   0.996   4.459
49694SOL    HW249109   9.922   1.069   4.427
49695SOL     OW49110   9.996   1.161   5.527
49695SOL    HW149111  10.056   1.240   5.541
49695SOL    HW249112   9.910   1.192   5.486
49696SOL     OW49113   9.645   1.435   4.785
49696SOL    HW149114   9.567   1.404   4.732
49696SOL    HW249115   9.703   1.493   4.728
49697SOL     OW49116  10.770   1.505   5.063
49697SOL    HW149117  10.794   1.599   5.089
49697SOL    HW249118  10.754   1.451   5.145
49698SOL     OW49119   9.748   0.392   5.223
49698SOL    HW149120   9.830   0.336   5.232
49698SOL    HW249121   9.667   0.334   5.227
49699SOL     OW49122  10.913   0.447   4.461
49699SOL    HW149123  10.839   0.493   4.411
49699SOL    HW249124  10.964   0.515   4.514
49700SOL     OW49125   9.541   1.713   4.207
49700SOL    HW149126   9.575   1.790   4.261
49700SOL    HW249127   9.585   1.713   4.117
49701SOL     OW49128  10.437   1.341   5.414
49701SOL    HW149129  10.484   1.341   5.502
49701SOL    HW249130  10.389   1.254   5.403
49702SOL     OW49131   9.540   1.434   4.262
49702SOL    HW149132   9.514   1.530   4.262
49702SOL    HW249133   9.469   1.380   4.307
49703SOL     OW49134   9.550   1.091   4.610
49703SOL    HW149135   9.564   1.007   4.662
49703SOL    HW249136   9.495   1.155   4.665
49704SOL     OW49137   9.930   1.786   5.163
49704SOL    HW149138   9.838   1.769   5.198
49704SOL    HW249139   9.958   1.878   5.189
49705SOL     OW49140   9.916   0.964   3.847
49705SOL    HW149141   9.923   1.048   3.793
49705SOL    HW249142   9.962   0.977   3.935
49706SOL     OW49143  10.904   0.114   5.204
49706SOL    HW149144  10.886   0.181   5.132
49706SOL    HW249145  10.901   0.160   5.293
49707SOL     OW49146   9.432   0.643   4.287
49707SOL    HW149147   9.387   0.555   4.304
49707SOL    HW249148   9.431   0.697   4.371
49708SOL     OW49149  11.152   1.767   4.083
49708SOL    HW149150  11.206   1.738   4.163
49708SOL    HW249151  11.182   1.857   4.054
49709SOL     OW49152   9.337   1.596   3.841
49709SOL    HW149153   9.318   1.500   3.862
49709SOL    HW249154   9.304   1.654   3.916
49710SOL     OW49155  10.999   0.922   4.336
49710SOL    HW149156  11.094   0.893   4.344
49710SOL    HW249157  10.991   0.987   4.261
49711SOL     OW49158  10.951   1.108   4.156
49711SOL    HW149159  11.037   1.110   4.104
49711SOL    HW249160  10.965   1.155   4.244
49712SOL     OW49161   9.423   0.737   5.321
49712SOL    HW149162   9.511   0.724   5.366
49712SOL    HW249163   9.410   0.834   5.299
49713SOL     OW49164   9.923   1.365   4.450
49713SOL    HW149165   9.874   1.278   4.459
49713SOL    HW249166   9.900   1.408   4.363
49714SOL     OW49167  10.603   1.228   5.147
49714SOL    HW149168  10.640   1.155   5.089
49714SOL    HW249169  10.655   1.233   5.232
49715SOL     OW49170  10.119   0.004   4.226
49715SOL    HW149171  10.159   0.095   4.217
49715SOL    HW249172  10.019   0.012   4.232
49716SOL     OW49173   9.507   0.976   4.988
49716SOL    HW149174   9.596   0.931   4.974
49716SOL    HW249175   9.434   0.911   4.969
49717SOL     OW49176  10.835   0.999   3.914
49717SOL    HW149177  10.772   0.923   3.927
49717SOL    HW249178  10.883   1.017   4.000
49718SOL     OW49179  10.497   1.792   5.340
49718SOL    HW149180  10.521   1.852   5.264
49718SOL    HW249181  10.504   1.697   5.310
49719SOL     OW49182   9.627   0.251   5.525
49719SOL    HW149183   9.698   0.322   5.531
49719SOL    HW249184   9.539   0.290   5.553
49720SOL     OW49185  10.776   1.417   4.677
49720SOL    HW149186  10.717   1.423   4.757
49720SOL    HW249187  10.761   1.329   4.631
49721SOL     OW49188  10.977   1.714   4.296
49721SOL    HW149189  10.936   1.691   4.208
49721SOL    HW249190  10.959   1.640   4.361
49722SOL     OW49191   9.908   0.729   3.994
49722SOL    HW149192   9.932   0.798   3.926
49722SOL    HW249193   9.830   0.762   4.048
49723SOL     OW49194  10.591   0.345   4.668
49723SOL    HW149195  10.505   0.295   4.655
49723SOL    HW249196  10.653   0.291   4.724
49724SOL     OW49197  10.886   1.662   4.031
49724SOL    HW149198  10.975   1.708   4.034
49724SOL    HW249199  10.865   1.638   3.936
49725SOL     OW49200  10.117   0.605   5.189
49725SOL    HW149201  10.070   0.602   5.278
49725SOL    HW249202  10.066   0.550   5.123
49726SOL     OW49203  10.704   0.469   5.398
49726SOL    HW149204  10.684   0.512   5.486
49726SOL    HW249205  10.782   0.407   5.407
49727SOL     OW49206  10.283   0.890   5.296
49727SOL    HW149207  10.329   0.806   5.267
49727SOL    HW249208  10.227   0.924   5.221
49728SOL     OW49209  10.301   0.410   4.966
49728SOL    HW149210  10.224   0.444   5.020
49728SOL    HW249211  10.267   0.359   4.887
49729SOL     OW49212  10.351   0.701   4.153
49729SOL    HW149213  10.377   0.697   4.249
49729SOL    HW249214  10.266   0.650   4.139
49730SOL     OW49215   9.386   0.811   4.513
49730SOL    HW149216   9.485   0.799   4.522
49730SOL    HW249217   9.362   0.906   4.534
49731SOL     OW49218   9.440   1.821   5.295
49731SOL    HW149219   9.430   1.806   5.394
49731SOL    HW249220   9.354   1.857   5.259
49732SOL     OW49221  10.175   0.348   3.919
49732SOL    HW149222  10.234   0.411   3.870
49732SOL    HW249223  10.194   0.254   3.890
49733SOL     OW49224  11.029   0.585   5.555
49733SOL    HW149225  11.003   0.674   5.519
49733SOL    HW249226  11.027   0.517   5.482
49734SOL     OW49227  10.672   1.144   4.269
49734SOL    HW149228  10.755   1.115   4.221
49734SOL    HW249229  10.623   1.211   4.213
49735SOL     OW49230   9.860   0.196   4.609
49735SOL    HW149231   9.855   0.191   4.709
49735SOL    HW249232   9.862   0.292   4.580
49736SOL     OW49233  10.318   1.456   4.201
49736SOL    HW149234  10.272   1.528   4.149
49736SOL    HW249235  10.314   1.476   4.299
49737SOL     OW49236   9.661   1.801   4.577
49737SOL    HW149237   9.711   1.715   4.583
49737SOL    HW249238   9.726   1.878   4.574
49738SOL     OW49239  11.105   1.066   4.597
49738SOL    HW149240  11.043   1.051   4.521
49738SOL    HW249241  11.053   1.077   4.682
49739SOL     OW49242  10.537   1.550   5.230
49739SOL    HW149243  10.543   1.473   5.294
49739SOL    HW249244  10.485   1.524   5.150
49740SOL     OW49245   9.631   0.943   3.966
49740SOL    HW149246   9.713   0.982   3.924
49740SOL    HW249247   9.604   0.861   3.917
49741SOL     OW49248  10.768   0.735   4.452
49741SOL    HW149249  10.763   0.670   4.527
49741SOL    HW249250  10.848   0.794   4.465
49742SOL     OW49251   9.771   1.266   5.451
49742SOL    HW149252   9.721   1.267   5.365
49742SOL    HW249253   9.708   1.248   5.527
49743SOL     OW49254  10.421   1.776   3.961
49743SOL    HW149255  10.361   1.714   4.011
49743SOL    HW249256  10.452   1.732   3.876
49744SOL     OW49257   9.512   0.285   5.222
49744SOL    HW149258   9.432   0.345   5.209
49744SOL    HW249259   9.502   0.236   5.308
49745SOL     OW49260  10.942   1.377   3.805
49745SOL    HW149261  10.910   1.471   3.795
49745SOL    HW249262  10.866   1.314   3.793
49746SOL     OW49263   9.774   1.743   4.047
49746SOL    HW149264   9.807   1.782   4.133
49746SOL    HW249265   9.850   1.736   3.982
49747SOL     OW49266  10.710   0.107   4.150
49747SOL    HW149267  10.686   0.070   4.060
49747SOL    HW249268  10.809   0.123   4.154
49748SOL     OW49269   9.559   1.785   4.965
49748SOL    HW149270   9.616   1.720   5.015
49748SOL    HW249271   9.543   1.752   4.872
49749SOL     OW49272  10.250   1.698   4.628
49749SOL    HW149273  10.330   1.641   4.649
49749SOL    HW249274  10.201   1.658   4.551
49750SOL     OW49275   9.692   0.700   4.204
49750SOL    HW149276   9.737   0.610   4.201
49750SOL    HW249277   9.598   0.689   4.237
49751SOL     OW49278  10.857   0.222   5.453
49751SOL    HW149279  10.852   0.259   5.545
49751SOL    HW249280  10.785   0.153   5.441
49752SOL     OW49281   9.924   0.122   3.841
49752SOL    HW149282  10.022   0.100   3.848
49752SOL    HW249283   9.893   0.105   3.748
49753SOL     OW49284  10.091   0.264   5.473
49753SOL    HW149285  10.158   0.203   5.516
49753SOL    HW249286  10.018   0.283   5.538
49754SOL     OW49287  10.198   1.514   4.919
49754SOL    HW149288  10.175   1.489   4.825
49754SOL    HW249289  10.259   1.445   4.958
49755SOL     OW49290  10.661   0.590   5.157
49755SOL    HW149291  10.689   0.547   5.242
49755SOL    HW249292  10.686   0.686   5.158
49756SOL     OW49293  10.113   1.402   4.648
49756SOL    HW149294  10.203   1.416   4.606
49756SOL    HW249295  10.042   1.404   4.577
49757SOL     OW49296  10.232   0.503   4.623
49757SOL    HW149297  10.207   0.494   4.527
49757SOL    HW249298  10.280   0.421   4.654
49758SOL     OW49299   9.849   0.064   4.236
49758SOL    HW149300   9.768   0.065   4.294
49758SOL    HW249301   9.852   0.147   4.181
49759SOL     OW49302  10.744   1.188   3.765
49759SOL    HW149303  10.776   1.112   3.822
49759SOL    HW249304  10.652   1.215   3.795
49760SOL     OW49305   9.607   0.035   3.895
49760SOL    HW149306   9.656   0.119   3.874
49760SOL    HW249307   9.669  -0.030   3.940
49761SOL     OW49308  10.245   0.236   4.204
49761SOL    HW149309  10.197   0.277   4.126
49761SOL    HW249310  10.344   0.234   4.185
49762SOL     OW49311  10.386   0.683   5.188
49762SOL    HW149312  10.306   0.622   5.191
49762SOL    HW249313  10.467   0.630   5.164
49763SOL     OW49314  10.537   1.570   4.517
49763SOL    HW149315  10.558   1.644   4.452
49763SOL    HW249316  10.605   1.570   4.590
49764SOL     OW49317   9.769   1.152   4.465
49764SOL    HW149318   9.698   1.125   4.530
49764SOL    HW249319   9.743   1.124   4.372
49765SOL     OW49320  10.581   1.797   4.315
49765SOL    HW149321  10.625   1.861   4.251
49765SOL    HW249322  10.531   1.849   4.385
49766SOL     OW49323  10.342   0.549   3.740
49766SOL    HW149324  10.301   0.631   3.701
49766SOL    HW249325  10.406   0.575   3.813
49767SOL     OW49326   9.388   0.556   5.110
49767SOL    HW149327   9.480   0.555   5.069
49767SOL    HW249328   9.382   0.630   5.177
49768SOL     OW49329   9.871   0.222   4.871
49768SOL    HW149330   9.909   0.138   4.908
49768SOL    HW249331   9.783   0.241   4.915
49769SOL     OW49332  10.176   0.454   4.366
49769SOL    HW149333  10.144   0.526   4.304
49769SOL    HW249334  10.200   0.373   4.313
49770SOL     OW49335  10.327   0.039   4.477
49770SOL    HW149336  10.255   0.044   4.408
49770SOL    HW249337  10.303  -0.030   4.546
49771SOL     OW49338  10.739   1.173   4.591
49771SOL    HW149339  10.684   1.089   4.584
49771SOL    HW249340  10.765   1.202   4.499
49772SOL     OW49341  10.776   0.590   4.716
49772SOL    HW149342  10.746   0.495   4.723
49772SOL    HW249343  10.849   0.606   4.782
49773SOL     OW49344  11.167   0.833   4.101
49773SOL    HW149345  11.209   0.769   4.165
49773SOL    HW249346  11.129   0.782   4.023
49774SOL     OW49347   9.798   1.385   3.898
49774SOL    HW149348   9.711   1.370   3.945
49774SOL    HW249349   9.781   1.411   3.803
49775SOL     OW49350  10.974   1.280   4.381
49775SOL    HW149351  11.073   1.288   4.395
49775SOL    HW249352  10.929   1.364   4.412
49776SOL     OW49353  10.700   0.575   3.802
49776SOL    HW149354  10.646   0.554   3.883
49776SOL    HW249355  10.791   0.534   3.811
49777SOL     OW49356   9.837   0.256   4.052
49777SOL    HW149357   9.864   0.197   3.977
49777SOL    HW249358   9.837   0.351   4.021
49778SOL     OW49359  11.064   1.223   5.312
49778SOL    HW149360  11.155   1.184   5.299
49778SOL    HW249361  11.072   1.319   5.336
49779SOL     OW49362  10.374   1.347   5.064
49779SOL    HW149363  10.294   1.324   5.119
49779SOL    HW249364  10.457   1.321   5.113
49780SOL     OW49365  10.902   1.629   5.349
49780SOL    HW149366  10.929   1.663   5.259
49780SOL    HW249367  10.981   1.591   5.395
49781SOL     OW49368  10.421   1.195   4.824
49781SOL    HW149369  10.381   1.239   4.905
49781SOL    HW249370  10.380   1.232   4.741
49782SOL     OW49371  10.948   1.099   4.803
49782SOL    HW149372  10.953   1.180   4.862
49782SOL    HW249373  10.862   1.101   4.752
49783SOL     OW49374  10.225   0.089   5.126
49783SOL    HW149375  10.250   0.069   5.031
49783SOL    HW249376  10.297   0.145   5.168
49784SOL     OW49377  10.290   1.116   5.443
49784SOL    HW149378  10.191   1.122   5.453
49784SOL    HW249379  10.313   1.036   5.387
49785SOL     OW49380  10.015   1.050   4.092
49785SOL    HW149381  10.001   1.057   4.191
49785SOL    HW249382  10.099   0.999   4.074
49786SOL     OW49383   9.720   0.813   4.975
49786SOL    HW149384   9.806   0.825   5.025
49786SOL    HW249385   9.678   0.726   5.002
49787SOL     OW49386  10.584   0.386   4.986
49787SOL    HW149387  10.605   0.460   5.050
49787SOL    HW249388  10.495   0.403   4.943
49788SOL     OW49389   9.374   1.564   5.055
49788SOL    HW149390   9.328   1.646   5.021
49788SOL    HW249391   9.472   1.583   5.064
49789SOL     OW49392   9.677   1.100   4.225
49789SOL    HW149393   9.670   1.183   4.169
49789SOL    HW249394   9.681   1.020   4.165
49790SOL     OW49395   9.876   0.537   4.589
49790SOL    HW149396   9.888   0.603   4.515
49790SOL    HW249397   9.922   0.571   4.672
49791SOL     OW49398  10.562   1.348   4.112
49791SOL    HW149399  10.612   1.425   4.152
49791SOL    HW249400  10.467   1.350   4.144
49792SOL     OW49401  10.582   1.445   4.866
49792SOL    HW149402  10.629   1.458   4.953
49792SOL    HW249403  10.516   1.371   4.875
49793SOL     OW49404  10.892   0.639   4.196
49793SOL    HW149405  10.861   0.700   4.269
49793SOL    HW249406  10.942   0.691   4.127
49794SOL     OW49407   9.664   1.510   5.053
49794SOL    HW149408   9.643   1.466   4.966
49794SOL    HW249409   9.761   1.536   5.056
49795SOL     OW49410   9.712   0.751   5.322
49795SOL    HW149411   9.780   0.806   5.275
49795SOL    HW249412   9.752   0.663   5.349
49796SOL     OW49413  10.897   0.779   5.394
49796SOL    HW149414  10.805   0.817   5.389
49796SOL    HW249415  10.957   0.826   5.329
49797SOL     OW49416  10.323   0.105   5.494
49797SOL    HW149417  10.329   0.190   5.442
49797SOL    HW249418  10.355   0.029   5.437
49798SOL     OW49419   9.814   0.050   5.464
49798SOL    HW149420   9.772  -0.007   5.394
49798SOL    HW249421   9.748   0.119   5.496
49799SOL     OW49422   9.883   0.870   4.753
49799SOL    HW149423   9.927   0.959   4.744
49799SOL    HW249424   9.820   0.870   4.830
49800SOL     OW49425  10.670   0.862   4.769
49800SOL    HW149426  10.595   0.862   4.703
49800SOL    HW249427  10.707   0.770   4.778
49801SOL     OW49428  10.519   0.525   3.999
49801SOL    HW149429  10.532   0.441   4.053
49801SOL    HW249430  10.490   0.599   4.059
49802SOL     OW49431   9.617   0.213   4.955
49802SOL    HW149432   9.594   0.250   5.045
49802SOL    HW249433   9.587   0.118   4.949
49803SOL     OW49434   9.347   1.310   5.006
49803SOL    HW149435   9.400   1.261   5.074
49803SOL    HW249436   9.369   1.408   5.011
49804SOL     OW49437  10.042   0.634   4.788
49804SOL    HW149438  10.101   0.608   4.712
49804SOL    HW249439  10.014   0.730   4.777
49805SOL     OW49440  11.038   0.935   5.578
49805SOL    HW149441  10.992   0.928   5.489
49805SOL    HW249442  10.976   0.979   5.644
49806SOL     OW49443   9.617   0.063   4.342
49806SOL    HW149444   9.606   0.157   4.375
49806SOL    HW249445   9.612   0.000   4.419
49807SOL     OW49446  10.932   0.367   4.098
49807SOL    HW149447  10.934   0.291   4.162
49807SOL    HW249448  10.884   0.444   4.138
49808SOL     OW49449  10.333   0.766   4.690
49808SOL    HW149450  10.348   0.787   4.786
49808SOL    HW249451  10.303   0.671   4.681
49809SOL     OW49452  10.290   1.573   5.424
49809SOL    HW149453  10.270   1.617   5.336
49809SOL    HW249454  10.329   1.482   5.408
49810SOL     OW49455  11.169   1.518   5.329
49810SOL    HW149456  11.183   1.545   5.234
49810SOL    HW249457  11.252   1.540   5.382
49811SOL     OW49458   9.660   0.898   5.528
49811SOL    HW149459   9.736   0.942   5.576
49811SOL    HW249460   9.695   0.851   5.446
49812SOL     OW49461  10.850   0.274   3.849
49812SOL    HW149462  10.789   0.199   3.872
49812SOL    HW249463  10.872   0.326   3.932
49813SOL     OW49464  10.613   0.838   3.766
49813SOL    HW149465  10.647   0.745   3.781
49813SOL    HW249466  10.631   0.865   3.671
49814SOL     OW49467  10.378   1.333   4.573
49814SOL    HW149468  10.385   1.249   4.518
49814SOL    HW249469  10.440   1.402   4.537
49815SOL     OW49470   9.629   0.810   4.673
49815SOL    HW149471   9.722   0.846   4.678
49815SOL    HW249472   9.623   0.725   4.725
49816SOL     OW49473   9.649   0.509   4.730
49816SOL    HW149474   9.597   0.426   4.713
49816SOL    HW249475   9.726   0.514   4.666
49817SOL     OW49476  10.448   0.380   5.402
49817SOL    HW149477  10.403   0.443   5.466
49817SOL    HW249478  10.541   0.411   5.385
49818SOL     OW49479  10.470   0.207   5.201
49818SOL    HW149480  10.470   0.271   5.278
49818SOL    HW249481  10.498   0.255   5.118
49819SOL     OW49482   9.318   1.326   3.924
49819SOL    HW149483   9.225   1.347   3.893
49819SOL    HW249484   9.328   1.227   3.937
49820SOL     OW49485   9.398   1.801   4.651
49820SOL    HW149486   9.356   1.715   4.624
49820SOL    HW249487   9.492   1.804   4.617
49821SOL     OW49488   9.814   1.568   4.634
49821SOL    HW149489   9.880   1.642   4.643
49821SOL    HW249490   9.858   1.489   4.592
49822SOL     OW49491  10.312   0.796   4.962
49822SOL    HW149492  10.353   0.764   5.048
49822SOL    HW249493  10.216   0.769   4.959
49823SOL     OW49494   9.350   0.544   4.838
49823SOL    HW149495   9.435   0.511   4.797
49823SOL    HW249496   9.363   0.559   4.936
49824SOL     OW49497   9.499   0.520   5.446
49824SOL    HW149498   9.558   0.480   5.376
49824SOL    HW249499   9.441   0.591   5.405
49825SOL     OW49500  10.679   0.950   5.384
49825SOL    HW149501  10.718   1.039   5.404
49825SOL    HW249502  10.689   0.930   5.287
49826SOL     OW49503  10.125   0.572   4.049
49826SOL    HW149504  10.132   0.483   4.003
49826SOL    HW249505  10.031   0.606   4.041
49827SOL     OW49506  10.967   0.604   4.930
49827SOL    HW149507  10.929   0.535   4.992
49827SOL    HW249508  11.049   0.568   4.886
49828SOL     OW49509   9.562   1.564   5.468
49828SOL    HW149510   9.532   1.621   5.544
49828SOL    HW249511   9.555   1.467   5.494
49829SOL     OW49512   9.981   0.464   4.993
49829SOL    HW149513   9.947   0.375   4.963
49829SOL    HW249514  10.007   0.518   4.913
49830SOL     OW49515  10.240   1.678   5.189
49830SOL    HW149516  10.216   1.660   5.094
49830SOL    HW249517  10.270   1.772   5.199
49831SOL     OW49518   9.783   0.500   3.915
49831SOL    HW149519   9.844   0.580   3.919
49831SOL    HW249520   9.688   0.531   3.922
49832SOL     OW49521   9.469   1.137   5.190
49832SOL    HW149522   9.491   1.076   5.266
49832SOL    HW249523   9.479   1.088   5.104
49833SOL     OW49524  10.657   1.059   4.958
49833SOL    HW149525  10.681   0.996   4.884
49833SOL    HW249526  10.567   1.099   4.940
49834SOL     OW49527  10.612   0.855   4.033
49834SOL    HW149528  10.526   0.824   4.075
49834SOL    HW249529  10.608   0.841   3.934
49835SOL     OW49530  11.069   1.747   4.878
49835SOL    HW149531  11.130   1.777   4.805
49835SOL    HW249532  11.031   1.658   4.856
49836SOL     OW49533  10.562   1.731   4.852
49836SOL    HW149534  10.646   1.736   4.798
49836SOL    HW249535  10.539   1.635   4.870
49837SOL     OW49536   9.393   1.258   4.746
49837SOL    HW149537   9.388   1.257   4.846
49837SOL    HW249538   9.310   1.217   4.708
49838SOL     OW49539   9.998   1.662   5.440
49838SOL    HW149540   9.942   1.743   5.449
49838SOL    HW249541  10.050   1.666   5.354
49839SOL     OW49542  11.036   0.135   4.247
49839SOL    HW149543  11.109   0.118   4.180
49839SOL    HW249544  11.005   0.048   4.285
49840SOL     OW49545  10.698   1.573   4.201
49840SOL    HW149546  10.765   1.585   4.127
49840SOL    HW249547  10.658   1.662   4.224
49841SOL     OW49548   9.440   1.794   5.575
49841SOL    HW149549   9.399   1.720   5.628
49841SOL    HW249550   9.504   1.845   5.633
49842SOL     OW49551  10.590   0.927   4.396
49842SOL    HW149552  10.650   0.846   4.398
49842SOL    HW249553  10.630   0.996   4.336
49843SOL     OW49554  10.140   1.273   5.146
49843SOL    HW149555  10.135   1.306   5.241
49843SOL    HW249556  10.054   1.292   5.100
49844SOL     OW49557   9.982   1.616   3.878
49844SOL    HW149558   9.991   1.626   3.779
49844SOL    HW249559   9.942   1.527   3.899
49845SOL     OW49560  10.960   1.720   5.118
49845SOL    HW149561  11.013   1.730   5.034
49845SOL    HW249562  10.933   1.810   5.152
49846SOL     OW49563  11.151   0.175   4.687
49846SOL    HW149564  11.190   0.090   4.651
49846SOL    HW249565  11.053   0.177   4.668
49847SOL     OW49566   9.573   0.326   4.444
49847SOL    HW149567   9.494   0.377   4.410
49847SOL    HW249568   9.564   0.311   4.542
49848SOL     OW49569  10.504   1.612   3.755
49848SOL    HW149570  10.510   1.519   3.792
49848SOL    HW249571  10.445   1.612   3.675
49849SOL     OW49572  10.132   1.002   5.096
49849SOL    HW149573  10.172   1.001   5.004
49849SOL    HW249574  10.142   1.094   5.136
49850SOL     OW49575  10.226   0.910   4.015
49850SOL    HW149576  10.289   0.948   3.947
49850SOL    HW249577  10.266   0.827   4.054
49851SOL     OW49578  10.814   1.607   3.768
49851SOL    HW149579  10.722   1.644   3.775
49851SOL    HW249580  10.852   1.627   3.678
49852SOL     OW49581   9.682   1.288   5.214
49852SOL    HW149582   9.669   1.381   5.180
49852SOL    HW249583   9.598   1.236   5.201
49853SOL     OW49584  10.924   1.292   5.013
49853SOL    HW149585  10.984   1.295   5.093
49853SOL    HW249586  10.849   1.356   5.026
49854SOL     OW49587  10.349   1.098   4.420
49854SOL    HW149588  10.279   1.051   4.474
49854SOL    HW249589  10.408   1.030   4.377
49855SOL     OW49590  10.324   0.236   4.695
49855SOL    HW149591  10.316   0.200   4.602
49855SOL    HW249592  10.322   0.160   4.760
49856SOL     OW49593   9.900   1.487   4.215
49856SOL    HW149594   9.942   1.429   4.145
49856SOL    HW249595   9.856   1.566   4.171
49857SOL     OW49596  11.019   0.385   5.105
49857SOL    HW149597  11.092   0.454   5.109
49857SOL    HW249598  11.047   0.310   5.046
49858SOL     OW49599   9.415   1.013   5.450
49858SOL    HW149600   9.338   0.980   5.504
49858SOL    HW249601   9.500   0.983   5.492
49859SOL     OW49602   9.982   0.203   5.213
49859SOL    HW149603  10.072   0.187   5.173
49859SOL    HW249604   9.990   0.208   5.312
49860SOL     OW49605   9.385   0.345   3.757
49860SOL    HW149606   9.293   0.317   3.728
49860SOL    HW249607   9.416   0.422   3.701
49861SOL     OW49608  10.750   0.856   5.122
49861SOL    HW149609  10.693   0.908   5.059
49861SOL    HW249610  10.846   0.868   5.098
49862SOL     OW49611   9.382   0.166   4.042
49862SOL    HW149612   9.365   0.249   3.988
49862SOL    HW249613   9.472   0.129   4.020
49863SOL     OW49614  10.493   1.335   3.843
49863SOL    HW149615  10.394   1.324   3.845
49863SOL    HW249616  10.527   1.350   3.936
49864SOL     OW49617   9.923   0.842   5.155
49864SOL    HW149618   9.979   0.923   5.138
49864SOL    HW249619   9.982   0.762   5.158
49865SOL     OW49620  10.803   1.767   4.683
49865SOL    HW149621  10.836   1.831   4.614
49865SOL    HW249622  10.869   1.761   4.758
49866SOL     OW49623  10.026   0.565   5.432
49866SOL    HW149624  10.045   0.630   5.506
49866SOL    HW249625  10.086   0.485   5.441
49867SOL     OW49626  10.760   1.220   5.357
49867SOL    HW149627  10.751   1.210   5.456
49867SOL    HW249628  10.856   1.213   5.331
49868SOL     OW49629   9.700   1.741   5.284
49868SOL    HW149630   9.609   1.782   5.282
49868SOL    HW249631   9.693   1.647   5.316
49869SOL     OW49632  10.984   0.883   4.978
49869SOL    HW149633  10.957   0.794   4.941
49869SOL    HW249634  10.985   0.951   4.905
49870SOL     OW49635  10.535   0.325   4.173
49870SOL    HW149636  10.600   0.251   4.162
49870SOL    HW249637  10.555   0.375   4.257
49871SOL     OW49638   9.904   0.745   4.376
49871SOL    HW149639   9.954   0.830   4.357
49871SOL    HW249640   9.816   0.747   4.328
49872SOL     OW49641  11.087   0.342   5.366
49872SOL    HW149642  11.070   0.373   5.272
49872SOL    HW249643  11.003   0.305   5.404
49873SOL     OW49644  11.040   0.934   5.241
49873SOL    HW149645  11.078   1.025   5.256
49873SOL    HW249646  11.032   0.917   5.142
49874SOL     OW49647  10.169   1.374   3.740
49874SOL    HW149648  10.123   1.389   3.828
49874SOL    HW249649  10.213   1.459   3.710
49875SOL     OW49650   9.971   1.790   4.677
49875SOL    HW149651   9.925   1.878   4.664
49875SOL    HW249652  10.070   1.802   4.670
49876SOL     OW49653  10.169   0.956   4.585
49876SOL    HW149654  10.223   0.887   4.633
49876SOL    HW249655  10.137   1.025   4.651
49877SOL     OW49656  10.393   0.984   3.811
49877SOL    HW149657  10.370   1.037   3.729
49877SOL    HW249658  10.474   0.928   3.792
49878SOL     OW49659  11.171   1.569   4.575
49878SOL    HW149660  11.100   1.557   4.505
49878SOL    HW249661  11.172   1.490   4.635
49879SOL     OW49662   9.531   1.314   5.568
49879SOL    HW149663   9.466   1.241   5.547
49879SOL    HW249664   9.535   1.328   5.666
49880SOL     OW49665   9.389   1.240   4.377
49880SOL    HW149666   9.388   1.193   4.465
49880SOL    HW249667   9.471   1.212   4.326
49881SOL     OW49668   9.982   1.391   5.348
49881SOL    HW149669   9.904   1.341   5.386
49881SOL    HW249670   9.979   1.486   5.379
49882SOL     OW49671  11.134   0.192   4.951
49882SOL    HW149672  11.130   0.102   4.995
49882SOL    HW249673  11.137   0.181   4.852
49883SOL     OW49674   9.738   0.424   4.244
49883SOL    HW149675   9.768   0.352   4.182
49883SOL    HW249676   9.699   0.384   4.327
49884SOL     OW49677  11.015   1.487   4.828
49884SOL    HW149678  10.922   1.462   4.801
49884SOL    HW249679  11.041   1.437   4.910
49885SOL     OW49680   9.627   0.547   5.004
49885SOL    HW149681   9.665   0.488   5.076
49885SOL    HW249682   9.667   0.521   4.916
49886SOL     OW49683  10.122   1.586   4.411
49886SOL    HW149684  10.154   1.596   4.317
49886SOL    HW249685  10.043   1.524   4.413
49887SOL     OW49686  10.734   0.214   4.836
49887SOL    HW149687  10.786   0.149   4.891
49887SOL    HW249688  10.685   0.277   4.897
49888SOL     OW49689  10.311   0.034   4.878
49888SOL    HW149690  10.248  -0.038   4.847
49888SOL    HW249691  10.404  -0.002   4.878
49889SOL     OW49692  10.080   1.330   4.025
49889SOL    HW149693  10.034   1.243   4.042
49889SOL    HW249694  10.171   1.327   4.066
49890SOL     OW49695  10.662   0.052   3.892
49890SOL    HW149696  10.697   0.011   3.808
49890SOL    HW249697  10.572   0.014   3.912
49891SOL     OW49698  10.610   0.453   4.415
49891SOL    HW149699  10.551   0.533   4.419
49891SOL    HW249700  10.625   0.418   4.508
49892SOL     OW49701  10.903   0.221   4.606
49892SOL    HW149702  10.819   0.220   4.660
49892SOL    HW249703  10.905   0.304   4.550
49893SOL     OW49704   9.349   1.077   4.024
49893SOL    HW149705   9.448   1.066   4.015
49893SOL    HW249706   9.309   0.991   4.056
49894SOL     OW49707  10.185   1.646   4.061
49894SOL    HW149708  10.108   1.611   4.007
49894SOL    HW249709  10.153   1.717   4.123
49895SOL     OW49710   9.540   0.628   5.699
49895SOL    HW149711   9.447   0.626   5.736
49895SOL    HW249712   9.541   0.589   5.607
49896SOL     OW49713   9.535   0.275   6.582
49896SOL    HW149714   9.570   0.258   6.674
49896SOL    HW249715   9.447   0.230   6.570
49897SOL     OW49716   9.329   0.368   6.233
49897SOL    HW149717   9.247   0.411   6.272
49897SOL    HW249718   9.301   0.295   6.170
49898SOL     OW49719   9.879   1.275   6.751
49898SOL    HW149720   9.786   1.268   6.714
49898SOL    HW249721   9.890   1.364   6.795
49899SOL     OW49722  10.865   1.511   6.289
49899SOL    HW149723  10.808   1.495   6.370
49899SOL    HW249724  10.806   1.521   6.209
49900SOL     OW49725  10.445   0.703   6.303
49900SOL    HW149726  10.502   0.781   6.278
49900SOL    HW249727  10.385   0.729   6.379
49901SOL     OW49728  11.065   0.607   5.817
49901SOL    HW149729  11.053   0.594   5.718
49901SOL    HW249730  11.035   0.526   5.866
49902SOL     OW49731  10.078   1.144   6.609
49902SOL    HW149732  10.000   1.161   6.669
49902SOL    HW249733  10.112   1.231   6.573
49903SOL     OW49734  10.160   0.798   7.409
49903SOL    HW149735  10.156   0.874   7.474
49903SOL    HW249736  10.182   0.834   7.318
49904SOL     OW49737   9.995   1.012   6.251
49904SOL    HW149738  10.064   0.996   6.321
49904SOL    HW249739   9.922   1.069   6.289
49905SOL     OW49740   9.996   1.161   7.389
49905SOL    HW149741  10.056   1.240   7.403
49905SOL    HW249742   9.910   1.192   7.348
49906SOL     OW49743   9.645   1.435   6.647
49906SOL    HW149744   9.567   1.404   6.594
49906SOL    HW249745   9.703   1.493   6.590
49907SOL     OW49746  10.770   1.505   6.925
49907SOL    HW149747  10.794   1.599   6.951
49907SOL    HW249748  10.754   1.451   7.007
49908SOL     OW49749   9.748   0.392   7.085
49908SOL    HW149750   9.830   0.336   7.094
49908SOL    HW249751   9.667   0.334   7.089
49909SOL     OW49752  10.913   0.447   6.323
49909SOL    HW149753  10.839   0.493   6.273
49909SOL    HW249754  10.964   0.515   6.376
49910SOL     OW49755   9.541   1.713   6.069
49910SOL    HW149756   9.575   1.790   6.123
49910SOL    HW249757   9.585   1.713   5.979
49911SOL     OW49758  10.437   1.341   7.276
49911SOL    HW149759  10.484   1.341   7.364
49911SOL    HW249760  10.389   1.254   7.265
49912SOL     OW49761   9.540   1.434   6.124
49912SOL    HW149762   9.514   1.530   6.124
49912SOL    HW249763   9.469   1.380   6.169
49913SOL     OW49764   9.550   1.091   6.472
49913SOL    HW149765   9.564   1.007   6.524
49913SOL    HW249766   9.495   1.155   6.527
49914SOL     OW49767   9.930   1.786   7.025
49914SOL    HW149768   9.838   1.769   7.060
49914SOL    HW249769   9.958   1.878   7.051
49915SOL     OW49770   9.916   0.964   5.709
49915SOL    HW149771   9.923   1.048   5.655
49915SOL    HW249772   9.962   0.977   5.797
49916SOL     OW49773  10.904   0.114   7.066
49916SOL    HW149774  10.886   0.181   6.994
49916SOL    HW249775  10.901   0.160   7.155
49917SOL     OW49776   9.432   0.643   6.149
49917SOL    HW149777   9.387   0.555   6.166
49917SOL    HW249778   9.431   0.697   6.233
49918SOL     OW49779  11.152   1.767   5.945
49918SOL    HW149780  11.206   1.738   6.025
49918SOL    HW249781  11.182   1.857   5.916
49919SOL     OW49782   9.337   1.596   5.703
49919SOL    HW149783   9.318   1.500   5.724
49919SOL    HW249784   9.304   1.654   5.778
49920SOL     OW49785  10.999   0.922   6.198
49920SOL    HW149786  11.094   0.893   6.206
49920SOL    HW249787  10.991   0.987   6.123
49921SOL     OW49788  10.951   1.108   6.018
49921SOL    HW149789  11.037   1.110   5.966
49921SOL    HW249790  10.965   1.155   6.106
49922SOL     OW49791   9.423   0.737   7.183
49922SOL    HW149792   9.511   0.724   7.228
49922SOL    HW249793   9.410   0.834   7.161
49923SOL     OW49794   9.923   1.365   6.312
49923SOL    HW149795   9.874   1.278   6.321
49923SOL    HW249796   9.900   1.408   6.225
49924SOL     OW49797  10.603   1.228   7.009
49924SOL    HW149798  10.640   1.155   6.951
49924SOL    HW249799  10.655   1.233   7.094
49925SOL     OW49800  10.119   0.004   6.088
49925SOL    HW149801  10.159   0.095   6.079
49925SOL    HW249802  10.019   0.012   6.094
49926SOL     OW49803   9.507   0.976   6.850
49926SOL    HW149804   9.596   0.931   6.836
49926SOL    HW249805   9.434   0.911   6.831
49927SOL     OW49806  10.835   0.999   5.776
49927SOL    HW149807  10.772   0.923   5.789
49927SOL    HW249808  10.883   1.017   5.862
49928SOL     OW49809  10.497   1.792   7.202
49928SOL    HW149810  10.521   1.852   7.126
49928SOL    HW249811  10.504   1.697   7.172
49929SOL     OW49812   9.627   0.251   7.387
49929SOL    HW149813   9.698   0.322   7.393
49929SOL    HW249814   9.539   0.290   7.415
49930SOL     OW49815  10.776   1.417   6.539
49930SOL    HW149816  10.717   1.423   6.619
49930SOL    HW249817  10.761   1.329   6.493
49931SOL     OW49818  10.977   1.714   6.158
49931SOL    HW149819  10.936   1.691   6.070
49931SOL    HW249820  10.959   1.640   6.223
49932SOL     OW49821   9.908   0.729   5.856
49932SOL    HW149822   9.932   0.798   5.788
49932SOL    HW249823   9.830   0.762   5.910
49933SOL     OW49824  10.591   0.345   6.530
49933SOL    HW149825  10.505   0.295   6.517
49933SOL    HW249826  10.653   0.291   6.586
49934SOL     OW49827  10.886   1.662   5.893
49934SOL    HW149828  10.975   1.708   5.896
49934SOL    HW249829  10.865   1.638   5.798
49935SOL     OW49830  10.117   0.605   7.051
49935SOL    HW149831  10.070   0.602   7.140
49935SOL    HW249832  10.066   0.550   6.985
49936SOL     OW49833  10.704   0.469   7.260
49936SOL    HW149834  10.684   0.512   7.348
49936SOL    HW249835  10.782   0.407   7.269
49937SOL     OW49836  10.283   0.890   7.158
49937SOL    HW149837  10.329   0.806   7.129
49937SOL    HW249838  10.227   0.924   7.083
49938SOL     OW49839  10.301   0.410   6.828
49938SOL    HW149840  10.224   0.444   6.882
49938SOL    HW249841  10.267   0.359   6.749
49939SOL     OW49842  10.351   0.701   6.015
49939SOL    HW149843  10.377   0.697   6.111
49939SOL    HW249844  10.266   0.650   6.001
49940SOL     OW49845   9.386   0.811   6.375
49940SOL    HW149846   9.485   0.799   6.384
49940SOL    HW249847   9.362   0.906   6.396
49941SOL     OW49848   9.440   1.821   7.157
49941SOL    HW149849   9.430   1.806   7.256
49941SOL    HW249850   9.354   1.857   7.121
49942SOL     OW49851  10.175   0.348   5.781
49942SOL    HW149852  10.234   0.411   5.732
49942SOL    HW249853  10.194   0.254   5.752
49943SOL     OW49854  11.029   0.585   7.417
49943SOL    HW149855  11.003   0.674   7.381
49943SOL    HW249856  11.027   0.517   7.344
49944SOL     OW49857  10.672   1.144   6.131
49944SOL    HW149858  10.755   1.115   6.083
49944SOL    HW249859  10.623   1.211   6.075
49945SOL     OW49860   9.860   0.196   6.471
49945SOL    HW149861   9.855   0.191   6.571
49945SOL    HW249862   9.862   0.292   6.442
49946SOL     OW49863  10.318   1.456   6.063
49946SOL    HW149864  10.272   1.528   6.011
49946SOL    HW249865  10.314   1.476   6.161
49947SOL     OW49866   9.661   1.801   6.439
49947SOL    HW149867   9.711   1.715   6.445
49947SOL    HW249868   9.726   1.878   6.436
49948SOL     OW49869  11.105   1.066   6.459
49948SOL    HW149870  11.043   1.051   6.383
49948SOL    HW249871  11.053   1.077   6.544
49949SOL     OW49872  10.537   1.550   7.092
49949SOL    HW149873  10.543   1.473   7.156
49949SOL    HW249874  10.485   1.524   7.012
49950SOL     OW49875   9.631   0.943   5.828
49950SOL    HW149876   9.713   0.982   5.786
49950SOL    HW249877   9.604   0.861   5.779
49951SOL     OW49878  10.768   0.735   6.314
49951SOL    HW149879  10.763   0.670   6.389
49951SOL    HW249880  10.848   0.794   6.327
49952SOL     OW49881   9.771   1.266   7.313
49952SOL    HW149882   9.721   1.267   7.227
49952SOL    HW249883   9.708   1.248   7.389
49953SOL     OW49884  10.421   1.776   5.823
49953SOL    HW149885  10.361   1.714   5.873
49953SOL    HW249886  10.452   1.732   5.738
49954SOL     OW49887   9.512   0.285   7.084
49954SOL    HW149888   9.432   0.345   7.071
49954SOL    HW249889   9.502   0.236   7.170
49955SOL     OW49890  10.942   1.377   5.667
49955SOL    HW149891  10.910   1.471   5.657
49955SOL    HW249892  10.866   1.314   5.655
49956SOL     OW49893   9.774   1.743   5.909
49956SOL    HW149894   9.807   1.782   5.995
49956SOL    HW249895   9.850   1.736   5.844
49957SOL     OW49896  10.710   0.107   6.012
49957SOL    HW149897  10.686   0.070   5.922
49957SOL    HW249898  10.809   0.123   6.016
49958SOL     OW49899   9.559   1.785   6.827
49958SOL    HW149900   9.616   1.720   6.877
49958SOL    HW249901   9.543   1.752   6.734
49959SOL     OW49902  10.250   1.698   6.490
49959SOL    HW149903  10.330   1.641   6.511
49959SOL    HW249904  10.201   1.658   6.413
49960SOL     OW49905   9.692   0.700   6.066
49960SOL    HW149906   9.737   0.610   6.063
49960SOL    HW249907   9.598   0.689   6.099
49961SOL     OW49908  10.857   0.222   7.315
49961SOL    HW149909  10.852   0.259   7.407
49961SOL    HW249910  10.785   0.153   7.303
49962SOL     OW49911   9.924   0.122   5.703
49962SOL    HW149912  10.022   0.100   5.710
49962SOL    HW249913   9.893   0.105   5.610
49963SOL     OW49914  10.091   0.264   7.335
49963SOL    HW149915  10.158   0.203   7.378
49963SOL    HW249916  10.018   0.283   7.400
49964SOL     OW49917  10.198   1.514   6.781
49964SOL    HW149918  10.175   1.489   6.687
49964SOL    HW249919  10.259   1.445   6.820
49965SOL     OW49920  10.661   0.590   7.019
49965SOL    HW149921  10.689   0.547   7.104
49965SOL    HW249922  10.686   0.686   7.020
49966SOL     OW49923  10.113   1.402   6.510
49966SOL    HW149924  10.203   1.416   6.468
49966SOL    HW249925  10.042   1.404   6.439
49967SOL     OW49926  10.232   0.503   6.485
49967SOL    HW149927  10.207   0.494   6.389
49967SOL    HW249928  10.280   0.421   6.516
49968SOL     OW49929   9.849   0.064   6.098
49968SOL    HW149930   9.768   0.065   6.156
49968SOL    HW249931   9.852   0.147   6.043
49969SOL     OW49932  10.744   1.188   5.627
49969SOL    HW149933  10.776   1.112   5.684
49969SOL    HW249934  10.652   1.215   5.657
49970SOL     OW49935   9.607   0.035   5.757
49970SOL    HW149936   9.656   0.119   5.736
49970SOL    HW249937   9.669  -0.030   5.802
49971SOL     OW49938  10.245   0.236   6.066
49971SOL    HW149939  10.197   0.277   5.988
49971SOL    HW249940  10.344   0.234   6.047
49972SOL     OW49941  10.386   0.683   7.050
49972SOL    HW149942  10.306   0.622   7.053
49972SOL    HW249943  10.467   0.630   7.026
49973SOL     OW49944  10.537   1.570   6.379
49973SOL    HW149945  10.558   1.644   6.314
49973SOL    HW249946  10.605   1.570   6.452
49974SOL     OW49947   9.769   1.152   6.327
49974SOL    HW149948   9.698   1.125   6.392
49974SOL    HW249949   9.743   1.124   6.234
49975SOL     OW49950  10.581   1.797   6.177
49975SOL    HW149951  10.625   1.861   6.113
49975SOL    HW249952  10.531   1.849   6.247
49976SOL     OW49953  10.342   0.549   5.602
49976SOL    HW149954  10.301   0.631   5.563
49976SOL    HW249955  10.406   0.575   5.675
49977SOL     OW49956   9.388   0.556   6.972
49977SOL    HW149957   9.480   0.555   6.931
49977SOL    HW249958   9.382   0.630   7.039
49978SOL     OW49959   9.871   0.222   6.733
49978SOL    HW149960   9.909   0.138   6.770
49978SOL    HW249961   9.783   0.241   6.777
49979SOL     OW49962  10.176   0.454   6.228
49979SOL    HW149963  10.144   0.526   6.166
49979SOL    HW249964  10.200   0.373   6.175
49980SOL     OW49965  10.327   0.039   6.339
49980SOL    HW149966  10.255   0.044   6.270
49980SOL    HW249967  10.303  -0.030   6.408
49981SOL     OW49968  10.776   0.590   6.578
49981SOL    HW149969  10.746   0.495   6.585
49981SOL    HW249970  10.849   0.606   6.644
49982SOL     OW49971  11.167   0.833   5.963
49982SOL    HW149972  11.209   0.769   6.027
49982SOL    HW249973  11.129   0.782   5.885
49983SOL     OW49974   9.798   1.385   5.760
49983SOL    HW149975   9.711   1.370   5.807
49983SOL    HW249976   9.781   1.411   5.665
49984SOL     OW49977  10.974   1.280   6.243
49984SOL    HW149978  11.073   1.288   6.257
49984SOL    HW249979  10.929   1.364   6.274
49985SOL     OW49980  10.700   0.575   5.664
49985SOL    HW149981  10.646   0.554   5.745
49985SOL    HW249982  10.791   0.534   5.673
49986SOL     OW49983   9.837   0.256   5.914
49986SOL    HW149984   9.864   0.197   5.839
49986SOL    HW249985   9.837   0.351   5.883
49987SOL     OW49986  11.064   1.223   7.174
49987SOL    HW149987  11.155   1.184   7.161
49987SOL    HW249988  11.072   1.319   7.198
49988SOL     OW49989  10.374   1.347   6.926
49988SOL    HW149990  10.294   1.324   6.981
49988SOL    HW249991  10.457   1.321   6.975
49989SOL     OW49992  10.902   1.629   7.211
49989SOL    HW149993  10.929   1.663   7.121
49989SOL    HW249994  10.981   1.591   7.257
49990SOL     OW49995  10.421   1.195   6.686
49990SOL    HW149996  10.381   1.239   6.767
49990SOL    HW249997  10.380   1.232   6.603
49991SOL     OW49998  10.948   1.099   6.665
49991SOL    HW149999  10.953   1.180   6.724
49991SOL    HW250000  10.862   1.101   6.614
49992SOL     OW50001  10.225   0.089   6.988
49992SOL    HW150002  10.250   0.069   6.893
49992SOL    HW250003  10.297   0.145   7.030
49993SOL     OW50004  10.290   1.116   7.305
49993SOL    HW150005  10.191   1.122   7.315
49993SOL    HW250006  10.313   1.036   7.249
49994SOL     OW50007  10.015   1.050   5.954
49994SOL    HW150008  10.001   1.057   6.053
49994SOL    HW250009  10.099   0.999   5.936
49995SOL     OW50010   9.720   0.813   6.837
49995SOL    HW150011   9.806   0.825   6.887
49995SOL    HW250012   9.678   0.726   6.864
49996SOL     OW50013  10.584   0.386   6.848
49996SOL    HW150014  10.605   0.460   6.912
49996SOL    HW250015  10.495   0.403   6.805
49997SOL     OW50016   9.374   1.564   6.917
49997SOL    HW150017   9.328   1.646   6.883
49997SOL    HW250018   9.472   1.583   6.926
49998SOL     OW50019   9.677   1.100   6.087
49998SOL    HW150020   9.670   1.183   6.031
49998SOL    HW250021   9.681   1.020   6.027
49999SOL     OW50022   9.876   0.537   6.451
49999SOL    HW150023   9.888   0.603   6.377
49999SOL    HW250024   9.922   0.571   6.534
50000SOL     OW50025  10.562   1.348   5.974
50000SOL    HW150026  10.612   1.425   6.014
50000SOL    HW250027  10.467   1.350   6.006
50001SOL     OW50028  10.582   1.445   6.728
50001SOL    HW150029  10.629   1.458   6.815
50001SOL    HW250030  10.516   1.371   6.737
50002SOL     OW50031  10.892   0.639   6.058
50002SOL    HW150032  10.861   0.700   6.131
50002SOL    HW250033  10.942   0.691   5.989
50003SOL     OW50034   9.664   1.510   6.915
50003SOL    HW150035   9.643   1.466   6.828
50003SOL    HW250036   9.761   1.536   6.918
50004SOL     OW50037   9.712   0.751   7.184
50004SOL    HW150038   9.780   0.806   7.137
50004SOL    HW250039   9.752   0.663   7.211
50005SOL     OW50040  10.897   0.779   7.256
50005SOL    HW150041  10.805   0.817   7.251
50005SOL    HW250042  10.957   0.826   7.191
50006SOL     OW50043  10.323   0.105   7.356
50006SOL    HW150044  10.329   0.190   7.304
50006SOL    HW250045  10.355   0.029   7.299
50007SOL     OW50046   9.814   0.050   7.326
50007SOL    HW150047   9.772  -0.007   7.256
50007SOL    HW250048   9.748   0.119   7.358
50008SOL     OW50049   9.883   0.870   6.615
50008SOL    HW150050   9.927   0.959   6.606
50008SOL    HW250051   9.820   0.870   6.692
50009SOL     OW50052  10.670   0.862   6.631
50009SOL    HW150053  10.595   0.862   6.565
50009SOL    HW250054  10.707   0.770   6.640
50010SOL     OW50055  10.519   0.525   5.861
50010SOL    HW150056  10.532   0.441   5.915
50010SOL    HW250057  10.490   0.599   5.921
50011SOL     OW50058   9.617   0.213   6.817
50011SOL    HW150059   9.594   0.250   6.907
50011SOL    HW250060   9.587   0.118   6.811
50012SOL     OW50061   9.347   1.310   6.868
50012SOL    HW150062   9.400   1.261   6.936
50012SOL    HW250063   9.369   1.408   6.873
50013SOL     OW50064  10.042   0.634   6.650
50013SOL    HW150065  10.101   0.608   6.574
50013SOL    HW250066  10.014   0.730   6.639
50014SOL     OW50067  11.038   0.935   7.440
50014SOL    HW150068  10.992   0.928   7.351
50014SOL    HW250069  10.976   0.979   7.506
50015SOL     OW50070   9.617   0.063   6.204
50015SOL    HW150071   9.606   0.157   6.237
50015SOL    HW250072   9.612   0.000   6.281
50016SOL     OW50073  10.932   0.367   5.960
50016SOL    HW150074  10.934   0.291   6.024
50016SOL    HW250075  10.884   0.444   6.000
50017SOL     OW50076  10.333   0.766   6.552
50017SOL    HW150077  10.348   0.787   6.648
50017SOL    HW250078  10.303   0.671   6.543
50018SOL     OW50079  10.290   1.573   7.286
50018SOL    HW150080  10.270   1.617   7.198
50018SOL    HW250081  10.329   1.482   7.270
50019SOL     OW50082  11.169   1.518   7.191
50019SOL    HW150083  11.183   1.545   7.096
50019SOL    HW250084  11.252   1.540   7.244
50020SOL     OW50085   9.660   0.898   7.390
50020SOL    HW150086   9.736   0.942   7.438
50020SOL    HW250087   9.695   0.851   7.308
50021SOL     OW50088  10.850   0.274   5.711
50021SOL    HW150089  10.789   0.199   5.734
50021SOL    HW250090  10.872   0.326   5.794
50022SOL     OW50091  10.613   0.838   5.628
50022SOL    HW150092  10.647   0.745   5.643
50022SOL    HW250093  10.631   0.865   5.533
50023SOL     OW50094  10.378   1.333   6.435
50023SOL    HW150095  10.385   1.249   6.380
50023SOL    HW250096  10.440   1.402   6.399
50024SOL     OW50097   9.629   0.810   6.535
50024SOL    HW150098   9.722   0.846   6.540
50024SOL    HW250099   9.623   0.725   6.587
50025SOL     OW50100   9.649   0.509   6.592
50025SOL    HW150101   9.597   0.426   6.575
50025SOL    HW250102   9.726   0.514   6.528
50026SOL     OW50103  10.448   0.380   7.264
50026SOL    HW150104  10.403   0.443   7.328
50026SOL    HW250105  10.541   0.411   7.247
50027SOL     OW50106  10.470   0.207   7.063
50027SOL    HW150107  10.470   0.271   7.140
50027SOL    HW250108  10.498   0.255   6.980
50028SOL     OW50109   9.318   1.326   5.786
50028SOL    HW150110   9.225   1.347   5.755
50028SOL    HW250111   9.328   1.227   5.799
50029SOL     OW50112   9.398   1.801   6.513
50029SOL    HW150113   9.356   1.715   6.486
50029SOL    HW250114   9.492   1.804   6.479
50030SOL     OW50115   9.814   1.568   6.496
50030SOL    HW150116   9.880   1.642   6.505
50030SOL    HW250117   9.858   1.489   6.454
50031SOL     OW50118  10.312   0.796   6.824
50031SOL    HW150119  10.353   0.764   6.910
50031SOL    HW250120  10.216   0.769   6.821
50032SOL     OW50121   9.350   0.544   6.700
50032SOL    HW150122   9.435   0.511   6.659
50032SOL    HW250123   9.363   0.559   6.798
50033SOL     OW50124   9.499   0.520   7.308
50033SOL    HW150125   9.558   0.480   7.238
50033SOL    HW250126   9.441   0.591   7.267
50034SOL     OW50127  10.679   0.950   7.246
50034SOL    HW150128  10.718   1.039   7.266
50034SOL    HW250129  10.689   0.930   7.149
50035SOL     OW50130  10.125   0.572   5.911
50035SOL    HW150131  10.132   0.483   5.865
50035SOL    HW250132  10.031   0.606   5.903
50036SOL     OW50133  10.967   0.604   6.792
50036SOL    HW150134  10.929   0.535   6.854
50036SOL    HW250135  11.049   0.568   6.748
50037SOL     OW50136   9.562   1.564   7.330
50037SOL    HW150137   9.532   1.621   7.406
50037SOL    HW250138   9.555   1.467   7.356
50038SOL     OW50139   9.981   0.464   6.855
50038SOL    HW150140   9.947   0.375   6.825
50038SOL    HW250141  10.007   0.518   6.775
50039SOL     OW50142  10.240   1.678   7.051
50039SOL    HW150143  10.216   1.660   6.956
50039SOL    HW250144  10.270   1.772   7.061
50040SOL     OW50145   9.783   0.500   5.777
50040SOL    HW150146   9.844   0.580   5.781
50040SOL    HW250147   9.688   0.531   5.784
50041SOL     OW50148   9.469   1.137   7.052
50041SOL    HW150149   9.491   1.076   7.128
50041SOL    HW250150   9.479   1.088   6.966
50042SOL     OW50151  10.657   1.059   6.820
50042SOL    HW150152  10.681   0.996   6.746
50042SOL    HW250153  10.567   1.099   6.802
50043SOL     OW50154  10.612   0.855   5.895
50043SOL    HW150155  10.526   0.824   5.937
50043SOL    HW250156  10.608   0.841   5.796
50044SOL     OW50157  11.069   1.747   6.740
50044SOL    HW150158  11.130   1.777   6.667
50044SOL    HW250159  11.031   1.658   6.718
50045SOL     OW50160  10.562   1.731   6.714
50045SOL    HW150161  10.646   1.736   6.660
50045SOL    HW250162  10.539   1.635   6.732
50046SOL     OW50163   9.393   1.258   6.608
50046SOL    HW150164   9.388   1.257   6.708
50046SOL    HW250165   9.310   1.217   6.570
50047SOL     OW50166   9.998   1.662   7.302
50047SOL    HW150167   9.942   1.743   7.311
50047SOL    HW250168  10.050   1.666   7.216
50048SOL     OW50169  11.036   0.135   6.109
50048SOL    HW150170  11.109   0.118   6.042
50048SOL    HW250171  11.005   0.048   6.147
50049SOL     OW50172  10.698   1.573   6.063
50049SOL    HW150173  10.765   1.585   5.989
50049SOL    HW250174  10.658   1.662   6.086
50050SOL     OW50175   9.440   1.794   7.437
50050SOL    HW150176   9.399   1.720   7.490
50050SOL    HW250177   9.504   1.845   7.495
50051SOL     OW50178  10.590   0.927   6.258
50051SOL    HW150179  10.650   0.846   6.260
50051SOL    HW250180  10.630   0.996   6.198
50052SOL     OW50181  10.140   1.273   7.008
50052SOL    HW150182  10.135   1.306   7.103
50052SOL    HW250183  10.054   1.292   6.962
50053SOL     OW50184   9.982   1.616   5.740
50053SOL    HW150185   9.991   1.626   5.641
50053SOL    HW250186   9.942   1.527   5.761
50054SOL     OW50187  10.960   1.720   6.980
50054SOL    HW150188  11.013   1.730   6.896
50054SOL    HW250189  10.933   1.810   7.014
50055SOL     OW50190  11.151   0.175   6.549
50055SOL    HW150191  11.190   0.090   6.513
50055SOL    HW250192  11.053   0.177   6.530
50056SOL     OW50193   9.573   0.326   6.306
50056SOL    HW150194   9.494   0.377   6.272
50056SOL    HW250195   9.564   0.311   6.404
50057SOL     OW50196  10.504   1.612   5.617
50057SOL    HW150197  10.510   1.519   5.654
50057SOL    HW250198  10.445   1.612   5.537
50058SOL     OW50199  10.132   1.002   6.958
50058SOL    HW150200  10.172   1.001   6.866
50058SOL    HW250201  10.142   1.094   6.998
50059SOL     OW50202  10.226   0.910   5.877
50059SOL    HW150203  10.289   0.948   5.809
50059SOL    HW250204  10.266   0.827   5.916
50060SOL     OW50205  10.814   1.607   5.630
50060SOL    HW150206  10.722   1.644   5.637
50060SOL    HW250207  10.852   1.627   5.540
50061SOL     OW50208   9.682   1.288   7.076
50061SOL    HW150209   9.669   1.381   7.042
50061SOL    HW250210   9.598   1.236   7.063
50062SOL     OW50211  10.924   1.292   6.875
50062SOL    HW150212  10.984   1.295   6.955
50062SOL    HW250213  10.849   1.356   6.888
50063SOL     OW50214  10.349   1.098   6.282
50063SOL    HW150215  10.279   1.051   6.336
50063SOL    HW250216  10.408   1.030   6.239
50064SOL     OW50217  10.324   0.236   6.557
50064SOL    HW150218  10.316   0.200   6.464
50064SOL    HW250219  10.322   0.160   6.622
50065SOL     OW50220   9.900   1.487   6.077
50065SOL    HW150221   9.942   1.429   6.007
50065SOL    HW250222   9.856   1.566   6.033
50066SOL     OW50223  11.019   0.385   6.967
50066SOL    HW150224  11.092   0.454   6.971
50066SOL    HW250225  11.047   0.310   6.908
50067SOL     OW50226   9.565   1.348   5.876
50067SOL    HW150227   9.469   1.349   5.849
50067SOL    HW250228   9.577   1.401   5.960
50068SOL     OW50229   9.415   1.013   7.312
50068SOL    HW150230   9.338   0.980   7.366
50068SOL    HW250231   9.500   0.983   7.354
50069SOL     OW50232   9.982   0.203   7.075
50069SOL    HW150233  10.072   0.187   7.035
50069SOL    HW250234   9.990   0.208   7.174
50070SOL     OW50235   9.385   0.345   5.619
50070SOL    HW150236   9.293   0.317   5.590
50070SOL    HW250237   9.416   0.422   5.563
50071SOL     OW50238  10.750   0.856   6.984
50071SOL    HW150239  10.693   0.908   6.921
50071SOL    HW250240  10.846   0.868   6.960
50072SOL     OW50241   9.382   0.166   5.904
50072SOL    HW150242   9.365   0.249   5.850
50072SOL    HW250243   9.472   0.129   5.882
50073SOL     OW50244  10.493   1.335   5.705
50073SOL    HW150245  10.394   1.324   5.707
50073SOL    HW250246  10.527   1.350   5.798
50074SOL     OW50247   9.923   0.842   7.017
50074SOL    HW150248   9.979   0.923   7.000
50074SOL    HW250249   9.982   0.762   7.020
50075SOL     OW50250  10.803   1.767   6.545
50075SOL    HW150251  10.836   1.831   6.476
50075SOL    HW250252  10.869   1.761   6.620
50076SOL     OW50253  10.026   0.565   7.294
50076SOL    HW150254  10.045   0.630   7.368
50076SOL    HW250255  10.086   0.485   7.303
50077SOL     OW50256  10.760   1.220   7.219
50077SOL    HW150257  10.751   1.210   7.318
50077SOL    HW250258  10.856   1.213   7.193
50078SOL     OW50259   9.700   1.741   7.146
50078SOL    HW150260   9.609   1.782   7.144
50078SOL    HW250261   9.693   1.647   7.178
50079SOL     OW50262  10.984   0.883   6.840
50079SOL    HW150263  10.957   0.794   6.803
50079SOL    HW250264  10.985   0.951   6.767
50080SOL     OW50265  10.535   0.325   6.035
50080SOL    HW150266  10.600   0.251   6.024
50080SOL    HW250267  10.555   0.375   6.119
50081SOL     OW50268   9.904   0.745   6.238
50081SOL    HW150269   9.954   0.830   6.219
50081SOL    HW250270   9.816   0.747   6.190
50082SOL     OW50271  11.087   0.342   7.228
50082SOL    HW150272  11.070   0.373   7.134
50082SOL    HW250273  11.003   0.305   7.266
50083SOL     OW50274  11.040   0.934   7.103
50083SOL    HW150275  11.078   1.025   7.118
50083SOL    HW250276  11.032   0.917   7.004
50084SOL     OW50277  10.169   1.374   5.602
50084SOL    HW150278  10.123   1.389   5.690
50084SOL    HW250279  10.213   1.459   5.572
50085SOL     OW50280   9.971   1.790   6.539
50085SOL    HW150281   9.925   1.878   6.526
50085SOL    HW250282  10.070   1.802   6.532
50086SOL     OW50283  10.169   0.956   6.447
50086SOL    HW150284  10.223   0.887   6.495
50086SOL    HW250285  10.137   1.025   6.513
50087SOL     OW50286  10.393   0.984   5.673
50087SOL    HW150287  10.370   1.037   5.591
50087SOL    HW250288  10.474   0.928   5.654
50088SOL     OW50289  11.171   1.569   6.437
50088SOL    HW150290  11.100   1.557   6.367
50088SOL    HW250291  11.172   1.490   6.497
50089SOL     OW50292   9.531   1.314   7.430
50089SOL    HW150293   9.466   1.241   7.409
50089SOL    HW250294   9.535   1.328   7.528
50090SOL     OW50295   9.389   1.240   6.239
50090SOL    HW150296   9.388   1.193   6.327
50090SOL    HW250297   9.471   1.212   6.188
50091SOL     OW50298   9.982   1.391   7.210
50091SOL    HW150299   9.904   1.341   7.248
50091SOL    HW250300   9.979   1.486   7.241
50092SOL     OW50301  11.134   0.192   6.813
50092SOL    HW150302  11.130   0.102   6.857
50092SOL    HW250303  11.137   0.181   6.714
50093SOL     OW50304   9.738   0.424   6.106
50093SOL    HW150305   9.768   0.352   6.044
50093SOL    HW250306   9.699   0.384   6.189
50094SOL     OW50307  11.015   1.487   6.690
50094SOL    HW150308  10.922   1.462   6.663
50094SOL    HW250309  11.041   1.437   6.772
50095SOL     OW50310   9.627   0.547   6.866
50095SOL    HW150311   9.665   0.488   6.938
50095SOL    HW250312   9.667   0.521   6.778
50096SOL     OW50313  10.122   1.586   6.273
50096SOL    HW150314  10.154   1.596   6.179
50096SOL    HW250315  10.043   1.524   6.275
50097SOL     OW50316  10.734   0.214   6.698
50097SOL    HW150317  10.786   0.149   6.753
50097SOL    HW250318  10.685   0.277   6.759
50098SOL     OW50319  10.311   0.034   6.740
50098SOL    HW150320  10.248  -0.038   6.709
50098SOL    HW250321  10.404  -0.002   6.740
50099SOL     OW50322  10.080   1.330   5.887
50099SOL    HW150323  10.034   1.243   5.904
50099SOL    HW250324  10.171   1.327   5.928
50100SOL     OW50325   9.928   1.567   6.870
50100SOL    HW150326   9.923   1.649   6.927
50100SOL    HW250327  10.017   1.564   6.825
50101SOL     OW50328  10.662   0.052   5.754
50101SOL    HW150329  10.697   0.011   5.670
50101SOL    HW250330  10.572   0.014   5.774
50102SOL     OW50331  10.610   0.453   6.277
50102SOL    HW150332  10.551   0.533   6.281
50102SOL    HW250333  10.625   0.418   6.370
50103SOL     OW50334  10.903   0.221   6.468
50103SOL    HW150335  10.819   0.220   6.522
50103SOL    HW250336  10.905   0.304   6.412
50104SOL     OW50337   9.349   1.077   5.886
50104SOL    HW150338   9.448   1.066   5.877
50104SOL    HW250339   9.309   0.991   5.918
50105SOL     OW50340  10.185   1.646   5.923
50105SOL    HW150341  10.108   1.611   5.869
50105SOL    HW250342  10.153   1.717   5.985
50106SOL     OW50343   9.540   0.628   7.561
50106SOL    HW150344   9.447   0.626   7.598
50106SOL    HW250345   9.541   0.589   7.469
50107SOL     OW50346   9.535   0.275   8.444
50107SOL    HW150347   9.570   0.258   8.536
50107SOL    HW250348   9.447   0.230   8.432
50108SOL     OW50349   9.329   0.368   8.095
50108SOL    HW150350   9.247   0.411   8.134
50108SOL    HW250351   9.301   0.295   8.032
50109SOL     OW50352   9.879   1.275   8.613
50109SOL    HW150353   9.786   1.268   8.576
50109SOL    HW250354   9.890   1.364   8.657
50110SOL     OW50355  10.865   1.511   8.151
50110SOL    HW150356  10.808   1.495   8.232
50110SOL    HW250357  10.806   1.521   8.071
50111SOL     OW50358  10.445   0.703   8.165
50111SOL    HW150359  10.502   0.781   8.140
50111SOL    HW250360  10.385   0.729   8.241
50112SOL     OW50361  11.065   0.607   7.679
50112SOL    HW150362  11.053   0.594   7.580
50112SOL    HW250363  11.035   0.526   7.728
50113SOL     OW50364  10.078   1.144   8.471
50113SOL    HW150365  10.000   1.161   8.531
50113SOL    HW250366  10.112   1.231   8.435
50114SOL     OW50367  10.160   0.798   9.271
50114SOL    HW150368  10.156   0.874   9.336
50114SOL    HW250369  10.182   0.834   9.180
50115SOL     OW50370   9.995   1.012   8.113
50115SOL    HW150371  10.064   0.996   8.183
50115SOL    HW250372   9.922   1.069   8.151
50116SOL     OW50373   9.996   1.161   9.251
50116SOL    HW150374  10.056   1.240   9.265
50116SOL    HW250375   9.910   1.192   9.210
50117SOL     OW50376   9.645   1.435   8.509
50117SOL    HW150377   9.567   1.404   8.456
50117SOL    HW250378   9.703   1.493   8.452
50118SOL     OW50379  10.770   1.505   8.787
50118SOL    HW150380  10.794   1.599   8.813
50118SOL    HW250381  10.754   1.451   8.869
50119SOL     OW50382   9.748   0.392   8.947
50119SOL    HW150383   9.830   0.336   8.956
50119SOL    HW250384   9.667   0.334   8.951
50120SOL     OW50385  10.913   0.447   8.185
50120SOL    HW150386  10.839   0.493   8.135
50120SOL    HW250387  10.964   0.515   8.238
50121SOL     OW50388   9.541   1.713   7.931
50121SOL    HW150389   9.575   1.790   7.985
50121SOL    HW250390   9.585   1.713   7.841
50122SOL     OW50391  10.437   1.341   9.138
50122SOL    HW150392  10.484   1.341   9.226
50122SOL    HW250393  10.389   1.254   9.127
50123SOL     OW50394   9.540   1.434   7.986
50123SOL    HW150395   9.514   1.530   7.986
50123SOL    HW250396   9.469   1.380   8.031
50124SOL     OW50397   9.550   1.091   8.334
50124SOL    HW150398   9.564   1.007   8.386
50124SOL    HW250399   9.495   1.155   8.389
50125SOL     OW50400   9.930   1.786   8.887
50125SOL    HW150401   9.838   1.769   8.922
50125SOL    HW250402   9.958   1.878   8.913
50126SOL     OW50403   9.916   0.964   7.571
50126SOL    HW150404   9.923   1.048   7.517
50126SOL    HW250405   9.962   0.977   7.659
50127SOL     OW50406  10.904   0.114   8.928
50127SOL    HW150407  10.886   0.181   8.856
50127SOL    HW250408  10.901   0.160   9.017
50128SOL     OW50409   9.432   0.643   8.011
50128SOL    HW150410   9.387   0.555   8.028
50128SOL    HW250411   9.431   0.697   8.095
50129SOL     OW50412  11.152   1.767   7.807
50129SOL    HW150413  11.206   1.738   7.887
50129SOL    HW250414  11.182   1.857   7.778
50130SOL     OW50415   9.337   1.596   7.565
50130SOL    HW150416   9.318   1.500   7.586
50130SOL    HW250417   9.304   1.654   7.640
50131SOL     OW50418  10.999   0.922   8.060
50131SOL    HW150419  11.094   0.893   8.068
50131SOL    HW250420  10.991   0.987   7.985
50132SOL     OW50421  10.951   1.108   7.880
50132SOL    HW150422  11.037   1.110   7.828
50132SOL    HW250423  10.965   1.155   7.968
50133SOL     OW50424   9.423   0.737   9.045
50133SOL    HW150425   9.511   0.724   9.090
50133SOL    HW250426   9.410   0.834   9.023
50134SOL     OW50427   9.923   1.365   8.174
50134SOL    HW150428   9.874   1.278   8.183
50134SOL    HW250429   9.900   1.408   8.087
50135SOL     OW50430  10.603   1.228   8.871
50135SOL    HW150431  10.640   1.155   8.813
50135SOL    HW250432  10.655   1.233   8.956
50136SOL     OW50433  10.119   0.004   7.950
50136SOL    HW150434  10.159   0.095   7.941
50136SOL    HW250435  10.019   0.012   7.956
50137SOL     OW50436   9.507   0.976   8.712
50137SOL    HW150437   9.596   0.931   8.698
50137SOL    HW250438   9.434   0.911   8.693
50138SOL     OW50439  10.835   0.999   7.638
50138SOL    HW150440  10.772   0.923   7.651
50138SOL    HW250441  10.883   1.017   7.724
50139SOL     OW50442  10.497   1.792   9.064
50139SOL    HW150443  10.521   1.852   8.988
50139SOL    HW250444  10.504   1.697   9.034
50140SOL     OW50445   9.627   0.251   9.249
50140SOL    HW150446   9.698   0.322   9.255
50140SOL    HW250447   9.539   0.290   9.277
50141SOL     OW50448  10.776   1.417   8.401
50141SOL    HW150449  10.717   1.423   8.481
50141SOL    HW250450  10.761   1.329   8.355
50142SOL     OW50451  10.977   1.714   8.020
50142SOL    HW150452  10.936   1.691   7.932
50142SOL    HW250453  10.959   1.640   8.085
50143SOL     OW50454   9.908   0.729   7.718
50143SOL    HW150455   9.932   0.798   7.650
50143SOL    HW250456   9.830   0.762   7.772
50144SOL     OW50457  10.591   0.345   8.392
50144SOL    HW150458  10.505   0.295   8.379
50144SOL    HW250459  10.653   0.291   8.448
50145SOL     OW50460  10.886   1.662   7.755
50145SOL    HW150461  10.975   1.708   7.758
50145SOL    HW250462  10.865   1.638   7.660
50146SOL     OW50463  10.117   0.605   8.913
50146SOL    HW150464  10.070   0.602   9.002
50146SOL    HW250465  10.066   0.550   8.847
50147SOL     OW50466  10.704   0.469   9.122
50147SOL    HW150467  10.684   0.512   9.210
50147SOL    HW250468  10.782   0.407   9.131
50148SOL     OW50469  10.283   0.890   9.020
50148SOL    HW150470  10.329   0.806   8.991
50148SOL    HW250471  10.227   0.924   8.945
50149SOL     OW50472  10.301   0.410   8.690
50149SOL    HW150473  10.224   0.444   8.744
50149SOL    HW250474  10.267   0.359   8.611
50150SOL     OW50475  10.351   0.701   7.877
50150SOL    HW150476  10.377   0.697   7.973
50150SOL    HW250477  10.266   0.650   7.863
50151SOL     OW50478   9.386   0.811   8.237
50151SOL    HW150479   9.485   0.799   8.246
50151SOL    HW250480   9.362   0.906   8.258
50152SOL     OW50481   9.440   1.821   9.019
50152SOL    HW150482   9.430   1.806   9.118
50152SOL    HW250483   9.354   1.857   8.983
50153SOL     OW50484  10.175   0.348   7.643
50153SOL    HW150485  10.234   0.411   7.594
50153SOL    HW250486  10.194   0.254   7.614
50154SOL     OW50487  11.029   0.585   9.279
50154SOL    HW150488  11.003   0.674   9.243
50154SOL    HW250489  11.027   0.517   9.206
50155SOL     OW50490  10.672   1.144   7.993
50155SOL    HW150491  10.755   1.115   7.945
50155SOL    HW250492  10.623   1.211   7.937
50156SOL     OW50493   9.860   0.196   8.333
50156SOL    HW150494   9.855   0.191   8.433
50156SOL    HW250495   9.862   0.292   8.304
50157SOL     OW50496  10.318   1.456   7.925
50157SOL    HW150497  10.272   1.528   7.873
50157SOL    HW250498  10.314   1.476   8.023
50158SOL     OW50499   9.661   1.801   8.301
50158SOL    HW150500   9.711   1.715   8.307
50158SOL    HW250501   9.726   1.878   8.298
50159SOL     OW50502  11.105   1.066   8.321
50159SOL    HW150503  11.043   1.051   8.245
50159SOL    HW250504  11.053   1.077   8.406
50160SOL     OW50505  10.537   1.550   8.954
50160SOL    HW150506  10.543   1.473   9.018
50160SOL    HW250507  10.485   1.524   8.874
50161SOL     OW50508   9.631   0.943   7.690
50161SOL    HW150509   9.713   0.982   7.648
50161SOL    HW250510   9.604   0.861   7.641
50162SOL     OW50511  10.768   0.735   8.176
50162SOL    HW150512  10.763   0.670   8.251
50162SOL    HW250513  10.848   0.794   8.189
50163SOL     OW50514   9.771   1.266   9.175
50163SOL    HW150515   9.721   1.267   9.089
50163SOL    HW250516   9.708   1.248   9.251
50164SOL     OW50517  10.421   1.776   7.685
50164SOL    HW150518  10.361   1.714   7.735
50164SOL    HW250519  10.452   1.732   7.600
50165SOL     OW50520   9.512   0.285   8.946
50165SOL    HW150521   9.432   0.345   8.933
50165SOL    HW250522   9.502   0.236   9.032
50166SOL     OW50523  10.942   1.377   7.529
50166SOL    HW150524  10.910   1.471   7.519
50166SOL    HW250525  10.866   1.314   7.517
50167SOL     OW50526   9.774   1.743   7.771
50167SOL    HW150527   9.807   1.782   7.857
50167SOL    HW250528   9.850   1.736   7.706
50168SOL     OW50529  10.710   0.107   7.874
50168SOL    HW150530  10.686   0.070   7.784
50168SOL    HW250531  10.809   0.123   7.878
50169SOL     OW50532   9.559   1.785   8.689
50169SOL    HW150533   9.616   1.720   8.739
50169SOL    HW250534   9.543   1.752   8.596
50170SOL     OW50535  10.250   1.698   8.352
50170SOL    HW150536  10.330   1.641   8.373
50170SOL    HW250537  10.201   1.658   8.275
50171SOL     OW50538   9.692   0.700   7.928
50171SOL    HW150539   9.737   0.610   7.925
50171SOL    HW250540   9.598   0.689   7.961
50172SOL     OW50541  10.857   0.222   9.177
50172SOL    HW150542  10.852   0.259   9.269
50172SOL    HW250543  10.785   0.153   9.165
50173SOL     OW50544   9.924   0.122   7.565
50173SOL    HW150545  10.022   0.100   7.572
50173SOL    HW250546   9.893   0.105   7.472
50174SOL     OW50547  10.091   0.264   9.197
50174SOL    HW150548  10.158   0.203   9.240
50174SOL    HW250549  10.018   0.283   9.262
50175SOL     OW50550  10.198   1.514   8.643
50175SOL    HW150551  10.175   1.489   8.549
50175SOL    HW250552  10.259   1.445   8.682
50176SOL     OW50553  10.661   0.590   8.881
50176SOL    HW150554  10.689   0.547   8.966
50176SOL    HW250555  10.686   0.686   8.882
50177SOL     OW50556  10.113   1.402   8.372
50177SOL    HW150557  10.203   1.416   8.330
50177SOL    HW250558  10.042   1.404   8.301
50178SOL     OW50559  10.232   0.503   8.347
50178SOL    HW150560  10.207   0.494   8.251
50178SOL    HW250561  10.280   0.421   8.378
50179SOL     OW50562   9.849   0.064   7.960
50179SOL    HW150563   9.768   0.065   8.018
50179SOL    HW250564   9.852   0.147   7.905
50180SOL     OW50565  10.744   1.188   7.489
50180SOL    HW150566  10.776   1.112   7.546
50180SOL    HW250567  10.652   1.215   7.519
50181SOL     OW50568   9.607   0.035   7.619
50181SOL    HW150569   9.656   0.119   7.598
50181SOL    HW250570   9.669  -0.030   7.664
50182SOL     OW50571  10.245   0.236   7.928
50182SOL    HW150572  10.197   0.277   7.850
50182SOL    HW250573  10.344   0.234   7.909
50183SOL     OW50574  10.386   0.683   8.912
50183SOL    HW150575  10.306   0.622   8.915
50183SOL    HW250576  10.467   0.630   8.888
50184SOL     OW50577  10.537   1.570   8.241
50184SOL    HW150578  10.558   1.644   8.176
50184SOL    HW250579  10.605   1.570   8.314
50185SOL     OW50580   9.769   1.152   8.189
50185SOL    HW150581   9.698   1.125   8.254
50185SOL    HW250582   9.743   1.124   8.096
50186SOL     OW50583  10.581   1.797   8.039
50186SOL    HW150584  10.625   1.861   7.975
50186SOL    HW250585  10.531   1.849   8.109
50187SOL     OW50586  10.342   0.549   7.464
50187SOL    HW150587  10.301   0.631   7.425
50187SOL    HW250588  10.406   0.575   7.537
50188SOL     OW50589   9.388   0.556   8.834
50188SOL    HW150590   9.480   0.555   8.793
50188SOL    HW250591   9.382   0.630   8.901
50189SOL     OW50592   9.871   0.222   8.595
50189SOL    HW150593   9.909   0.138   8.632
50189SOL    HW250594   9.783   0.241   8.639
50190SOL     OW50595  10.176   0.454   8.090
50190SOL    HW150596  10.144   0.526   8.028
50190SOL    HW250597  10.200   0.373   8.037
50191SOL     OW50598  10.327   0.039   8.201
50191SOL    HW150599  10.255   0.044   8.132
50191SOL    HW250600  10.303  -0.030   8.270
50192SOL     OW50601  10.739   1.173   8.315
50192SOL    HW150602  10.684   1.089   8.308
50192SOL    HW250603  10.765   1.202   8.223
50193SOL     OW50604  10.776   0.590   8.440
50193SOL    HW150605  10.746   0.495   8.447
50193SOL    HW250606  10.849   0.606   8.506
50194SOL     OW50607  11.167   0.833   7.825
50194SOL    HW150608  11.209   0.769   7.889
50194SOL    HW250609  11.129   0.782   7.747
50195SOL     OW50610   9.798   1.385   7.622
50195SOL    HW150611   9.711   1.370   7.669
50195SOL    HW250612   9.781   1.411   7.527
50196SOL     OW50613  10.974   1.280   8.105
50196SOL    HW150614  11.073   1.288   8.119
50196SOL    HW250615  10.929   1.364   8.136
50197SOL     OW50616  10.700   0.575   7.526
50197SOL    HW150617  10.646   0.554   7.607
50197SOL    HW250618  10.791   0.534   7.535
50198SOL     OW50619   9.837   0.256   7.776
50198SOL    HW150620   9.864   0.197   7.701
50198SOL    HW250621   9.837   0.351   7.745
50199SOL     OW50622  11.064   1.223   9.036
50199SOL    HW150623  11.155   1.184   9.023
50199SOL    HW250624  11.072   1.319   9.060
50200SOL     OW50625  10.374   1.347   8.788
50200SOL    HW150626  10.294   1.324   8.843
50200SOL    HW250627  10.457   1.321   8.837
50201SOL     OW50628  10.902   1.629   9.073
50201SOL    HW150629  10.929   1.663   8.983
50201SOL    HW250630  10.981   1.591   9.119
50202SOL     OW50631  10.421   1.195   8.548
50202SOL    HW150632  10.381   1.239   8.629
50202SOL    HW250633  10.380   1.232   8.465
50203SOL     OW50634  10.948   1.099   8.527
50203SOL    HW150635  10.953   1.180   8.586
50203SOL    HW250636  10.862   1.101   8.476
50204SOL     OW50637  10.225   0.089   8.850
50204SOL    HW150638  10.250   0.069   8.755
50204SOL    HW250639  10.297   0.145   8.892
50205SOL     OW50640  10.290   1.116   9.167
50205SOL    HW150641  10.191   1.122   9.177
50205SOL    HW250642  10.313   1.036   9.111
50206SOL     OW50643  10.015   1.050   7.816
50206SOL    HW150644  10.001   1.057   7.915
50206SOL    HW250645  10.099   0.999   7.798
50207SOL     OW50646   9.720   0.813   8.699
50207SOL    HW150647   9.806   0.825   8.749
50207SOL    HW250648   9.678   0.726   8.726
50208SOL     OW50649  10.584   0.386   8.710
50208SOL    HW150650  10.605   0.460   8.774
50208SOL    HW250651  10.495   0.403   8.667
50209SOL     OW50652   9.374   1.564   8.779
50209SOL    HW150653   9.328   1.646   8.745
50209SOL    HW250654   9.472   1.583   8.788
50210SOL     OW50655   9.677   1.100   7.949
50210SOL    HW150656   9.670   1.183   7.893
50210SOL    HW250657   9.681   1.020   7.889
50211SOL     OW50658   9.876   0.537   8.313
50211SOL    HW150659   9.888   0.603   8.239
50211SOL    HW250660   9.922   0.571   8.396
50212SOL     OW50661  10.562   1.348   7.836
50212SOL    HW150662  10.612   1.425   7.876
50212SOL    HW250663  10.467   1.350   7.868
50213SOL     OW50664  10.582   1.445   8.590
50213SOL    HW150665  10.629   1.458   8.677
50213SOL    HW250666  10.516   1.371   8.599
50214SOL     OW50667  10.892   0.639   7.920
50214SOL    HW150668  10.861   0.700   7.993
50214SOL    HW250669  10.942   0.691   7.851
50215SOL     OW50670   9.664   1.510   8.777
50215SOL    HW150671   9.643   1.466   8.690
50215SOL    HW250672   9.761   1.536   8.780
50216SOL     OW50673   9.712   0.751   9.046
50216SOL    HW150674   9.780   0.806   8.999
50216SOL    HW250675   9.752   0.663   9.073
50217SOL     OW50676  10.897   0.779   9.118
50217SOL    HW150677  10.805   0.817   9.113
50217SOL    HW250678  10.957   0.826   9.053
50218SOL     OW50679  10.323   0.105   9.218
50218SOL    HW150680  10.329   0.190   9.166
50218SOL    HW250681  10.355   0.029   9.161
50219SOL     OW50682   9.814   0.050   9.188
50219SOL    HW150683   9.772  -0.007   9.118
50219SOL    HW250684   9.748   0.119   9.220
50220SOL     OW50685   9.883   0.870   8.477
50220SOL    HW150686   9.927   0.959   8.468
50220SOL    HW250687   9.820   0.870   8.554
50221SOL     OW50688  10.670   0.862   8.493
50221SOL    HW150689  10.595   0.862   8.427
50221SOL    HW250690  10.707   0.770   8.502
50222SOL     OW50691  10.519   0.525   7.723
50222SOL    HW150692  10.532   0.441   7.777
50222SOL    HW250693  10.490   0.599   7.783
50223SOL     OW50694   9.617   0.213   8.679
50223SOL    HW150695   9.594   0.250   8.769
50223SOL    HW250696   9.587   0.118   8.673
50224SOL     OW50697   9.347   1.310   8.730
50224SOL    HW150698   9.400   1.261   8.798
50224SOL    HW250699   9.369   1.408   8.735
50225SOL     OW50700  10.042   0.634   8.512
50225SOL    HW150701  10.101   0.608   8.436
50225SOL    HW250702  10.014   0.730   8.501
50226SOL     OW50703  11.038   0.935   9.302
50226SOL    HW150704  10.992   0.928   9.213
50226SOL    HW250705  10.976   0.979   9.368
50227SOL     OW50706   9.617   0.063   8.066
50227SOL    HW150707   9.606   0.157   8.099
50227SOL    HW250708   9.612   0.000   8.143
50228SOL     OW50709  10.932   0.367   7.822
50228SOL    HW150710  10.934   0.291   7.886
50228SOL    HW250711  10.884   0.444   7.862
50229SOL     OW50712  10.290   1.573   9.148
50229SOL    HW150713  10.270   1.617   9.060
50229SOL    HW250714  10.329   1.482   9.132
50230SOL     OW50715  11.169   1.518   9.053
50230SOL    HW150716  11.183   1.545   8.958
50230SOL    HW250717  11.252   1.540   9.106
50231SOL     OW50718   9.660   0.898   9.252
50231SOL    HW150719   9.736   0.942   9.300
50231SOL    HW250720   9.695   0.851   9.170
50232SOL     OW50721  10.850   0.274   7.573
50232SOL    HW150722  10.789   0.199   7.596
50232SOL    HW250723  10.872   0.326   7.656
50233SOL     OW50724  10.613   0.838   7.490
50233SOL    HW150725  10.647   0.745   7.505
50233SOL    HW250726  10.631   0.865   7.395
50234SOL     OW50727  10.378   1.333   8.297
50234SOL    HW150728  10.385   1.249   8.242
50234SOL    HW250729  10.440   1.402   8.261
50235SOL     OW50730   9.629   0.810   8.397
50235SOL    HW150731   9.722   0.846   8.402
50235SOL    HW250732   9.623   0.725   8.449
50236SOL     OW50733   9.649   0.509   8.454
50236SOL    HW150734   9.597   0.426   8.437
50236SOL    HW250735   9.726   0.514   8.390
50237SOL     OW50736  10.448   0.380   9.126
50237SOL    HW150737  10.403   0.443   9.190
50237SOL    HW250738  10.541   0.411   9.109
50238SOL     OW50739  10.470   0.207   8.925
50238SOL    HW150740  10.470   0.271   9.002
50238SOL    HW250741  10.498   0.255   8.842
50239SOL     OW50742   9.318   1.326   7.648
50239SOL    HW150743   9.225   1.347   7.617
50239SOL    HW250744   9.328   1.227   7.661
50240SOL     OW50745   9.398   1.801   8.375
50240SOL    HW150746   9.356   1.715   8.348
50240SOL    HW250747   9.492   1.804   8.341
50241SOL     OW50748   9.814   1.568   8.358
50241SOL    HW150749   9.880   1.642   8.367
50241SOL    HW250750   9.858   1.489   8.316
50242SOL     OW50751  10.312   0.796   8.686
50242SOL    HW150752  10.353   0.764   8.772
50242SOL    HW250753  10.216   0.769   8.683
50243SOL     OW50754   9.350   0.544   8.562
50243SOL    HW150755   9.435   0.511   8.521
50243SOL    HW250756   9.363   0.559   8.660
50244SOL     OW50757  10.679   0.950   9.108
50244SOL    HW150758  10.718   1.039   9.128
50244SOL    HW250759  10.689   0.930   9.011
50245SOL     OW50760  10.125   0.572   7.773
50245SOL    HW150761  10.132   0.483   7.727
50245SOL    HW250762  10.031   0.606   7.765
50246SOL     OW50763  10.967   0.604   8.654
50246SOL    HW150764  10.929   0.535   8.716
50246SOL    HW250765  11.049   0.568   8.610
50247SOL     OW50766   9.562   1.564   9.192
50247SOL    HW150767   9.532   1.621   9.268
50247SOL    HW250768   9.555   1.467   9.218
50248SOL     OW50769   9.981   0.464   8.717
50248SOL    HW150770   9.947   0.375   8.687
50248SOL    HW250771  10.007   0.518   8.637
50249SOL     OW50772  10.240   1.678   8.913
50249SOL    HW150773  10.216   1.660   8.818
50249SOL    HW250774  10.270   1.772   8.923
50250SOL     OW50775   9.783   0.500   7.639
50250SOL    HW150776   9.844   0.580   7.643
50250SOL    HW250777   9.688   0.531   7.646
50251SOL     OW50778   9.469   1.137   8.914
50251SOL    HW150779   9.491   1.076   8.990
50251SOL    HW250780   9.479   1.088   8.828
50252SOL     OW50781  10.657   1.059   8.682
50252SOL    HW150782  10.681   0.996   8.608
50252SOL    HW250783  10.567   1.099   8.664
50253SOL     OW50784  10.612   0.855   7.757
50253SOL    HW150785  10.526   0.824   7.799
50253SOL    HW250786  10.608   0.841   7.658
50254SOL     OW50787  11.069   1.747   8.602
50254SOL    HW150788  11.130   1.777   8.529
50254SOL    HW250789  11.031   1.658   8.580
50255SOL     OW50790  10.562   1.731   8.576
50255SOL    HW150791  10.646   1.736   8.522
50255SOL    HW250792  10.539   1.635   8.594
50256SOL     OW50793   9.393   1.258   8.470
50256SOL    HW150794   9.388   1.257   8.570
50256SOL    HW250795   9.310   1.217   8.432
50257SOL     OW50796   9.998   1.662   9.164
50257SOL    HW150797   9.942   1.743   9.173
50257SOL    HW250798  10.050   1.666   9.078
50258SOL     OW50799  11.036   0.135   7.971
50258SOL    HW150800  11.109   0.118   7.904
50258SOL    HW250801  11.005   0.048   8.009
50259SOL     OW50802  10.698   1.573   7.925
50259SOL    HW150803  10.765   1.585   7.851
50259SOL    HW250804  10.658   1.662   7.948
50260SOL     OW50805   9.440   1.794   9.299
50260SOL    HW150806   9.399   1.720   9.352
50260SOL    HW250807   9.504   1.845   9.357
50261SOL     OW50808  10.590   0.927   8.120
50261SOL    HW150809  10.650   0.846   8.122
50261SOL    HW250810  10.630   0.996   8.060
50262SOL     OW50811  10.140   1.273   8.870
50262SOL    HW150812  10.135   1.306   8.965
50262SOL    HW250813  10.054   1.292   8.824
50263SOL     OW50814   9.982   1.616   7.602
50263SOL    HW150815   9.991   1.626   7.503
50263SOL    HW250816   9.942   1.527   7.623
50264SOL     OW50817  10.960   1.720   8.842
50264SOL    HW150818  11.013   1.730   8.758
50264SOL    HW250819  10.933   1.810   8.876
50265SOL     OW50820  11.151   0.175   8.411
50265SOL    HW150821  11.190   0.090   8.375
50265SOL    HW250822  11.053   0.177   8.392
50266SOL     OW50823   9.573   0.326   8.168
50266SOL    HW150824   9.494   0.377   8.134
50266SOL    HW250825   9.564   0.311   8.266
50267SOL     OW50826  10.504   1.612   7.479
50267SOL    HW150827  10.510   1.519   7.516
50267SOL    HW250828  10.445   1.612   7.399
50268SOL     OW50829  10.132   1.002   8.820
50268SOL    HW150830  10.172   1.001   8.728
50268SOL    HW250831  10.142   1.094   8.860
50269SOL     OW50832  10.226   0.910   7.739
50269SOL    HW150833  10.289   0.948   7.671
50269SOL    HW250834  10.266   0.827   7.778
50270SOL     OW50835  10.814   1.607   7.492
50270SOL    HW150836  10.722   1.644   7.499
50270SOL    HW250837  10.852   1.627   7.402
50271SOL     OW50838   9.682   1.288   8.938
50271SOL    HW150839   9.669   1.381   8.904
50271SOL    HW250840   9.598   1.236   8.925
50272SOL     OW50841  10.924   1.292   8.737
50272SOL    HW150842  10.984   1.295   8.817
50272SOL    HW250843  10.849   1.356   8.750
50273SOL     OW50844  10.349   1.098   8.144
50273SOL    HW150845  10.279   1.051   8.198
50273SOL    HW250846  10.408   1.030   8.101
50274SOL     OW50847  10.324   0.236   8.419
50274SOL    HW150848  10.316   0.200   8.326
50274SOL    HW250849  10.322   0.160   8.484
50275SOL     OW50850   9.900   1.487   7.939
50275SOL    HW150851   9.942   1.429   7.869
50275SOL    HW250852   9.856   1.566   7.895
50276SOL     OW50853  11.019   0.385   8.829
50276SOL    HW150854  11.092   0.454   8.833
50276SOL    HW250855  11.047   0.310   8.770
50277SOL     OW50856   9.565   1.348   7.738
50277SOL    HW150857   9.469   1.349   7.711
50277SOL    HW250858   9.577   1.401   7.822
50278SOL     OW50859   9.415   1.013   9.174
50278SOL    HW150860   9.338   0.980   9.228
50278SOL    HW250861   9.500   0.983   9.216
50279SOL     OW50862   9.982   0.203   8.937
50279SOL    HW150863  10.072   0.187   8.897
50279SOL    HW250864   9.990   0.208   9.036
50280SOL     OW50865  10.750   0.856   8.846
50280SOL    HW150866  10.693   0.908   8.783
50280SOL    HW250867  10.846   0.868   8.822
50281SOL     OW50868   9.382   0.166   7.766
50281SOL    HW150869   9.365   0.249   7.712
50281SOL    HW250870   9.472   0.129   7.744
50282SOL     OW50871  10.493   1.335   7.567
50282SOL    HW150872  10.394   1.324   7.569
50282SOL    HW250873  10.527   1.350   7.660
50283SOL     OW50874   9.923   0.842   8.879
50283SOL    HW150875   9.979   0.923   8.862
50283SOL    HW250876   9.982   0.762   8.882
50284SOL     OW50877  10.803   1.767   8.407
50284SOL    HW150878  10.836   1.831   8.338
50284SOL    HW250879  10.869   1.761   8.482
50285SOL     OW50880  10.026   0.565   9.156
50285SOL    HW150881  10.045   0.630   9.230
50285SOL    HW250882  10.086   0.485   9.165
50286SOL     OW50883  10.760   1.220   9.081
50286SOL    HW150884  10.751   1.210   9.180
50286SOL    HW250885  10.856   1.213   9.055
50287SOL     OW50886   9.700   1.741   9.008
50287SOL    HW150887   9.609   1.782   9.006
50287SOL    HW250888   9.693   1.647   9.040
50288SOL     OW50889  10.984   0.883   8.702
50288SOL    HW150890  10.957   0.794   8.665
50288SOL    HW250891  10.985   0.951   8.629
50289SOL     OW50892  10.535   0.325   7.897
50289SOL    HW150893  10.600   0.251   7.886
50289SOL    HW250894  10.555   0.375   7.981
50290SOL     OW50895   9.904   0.745   8.100
50290SOL    HW150896   9.954   0.830   8.081
50290SOL    HW250897   9.816   0.747   8.052
50291SOL     OW50898  11.087   0.342   9.090
50291SOL    HW150899  11.070   0.373   8.996
50291SOL    HW250900  11.003   0.305   9.128
50292SOL     OW50901  11.040   0.934   8.965
50292SOL    HW150902  11.078   1.025   8.980
50292SOL    HW250903  11.032   0.917   8.866
50293SOL     OW50904  10.169   1.374   7.464
50293SOL    HW150905  10.123   1.389   7.552
50293SOL    HW250906  10.213   1.459   7.434
50294SOL     OW50907   9.971   1.790   8.401
50294SOL    HW150908   9.925   1.878   8.388
50294SOL    HW250909  10.070   1.802   8.394
50295SOL     OW50910  10.169   0.956   8.309
50295SOL    HW150911  10.223   0.887   8.357
50295SOL    HW250912  10.137   1.025   8.375
50296SOL     OW50913  10.393   0.984   7.535
50296SOL    HW150914  10.370   1.037   7.453
50296SOL    HW250915  10.474   0.928   7.516
50297SOL     OW50916  11.171   1.569   8.299
50297SOL    HW150917  11.100   1.557   8.229
50297SOL    HW250918  11.172   1.490   8.359
50298SOL     OW50919   9.531   1.314   9.292
50298SOL    HW150920   9.466   1.241   9.271
50298SOL    HW250921   9.535   1.328   9.390
50299SOL     OW50922   9.389   1.240   8.101
50299SOL    HW150923   9.388   1.193   8.189
50299SOL    HW250924   9.471   1.212   8.050
50300SOL     OW50925   9.982   1.391   9.072
50300SOL    HW150926   9.904   1.341   9.110
50300SOL    HW250927   9.979   1.486   9.103
50301SOL     OW50928  11.134   0.192   8.675
50301SOL    HW150929  11.130   0.102   8.719
50301SOL    HW250930  11.137   0.181   8.576
50302SOL     OW50931   9.738   0.424   7.968
50302SOL    HW150932   9.768   0.352   7.906
50302SOL    HW250933   9.699   0.384   8.051
50303SOL     OW50934  11.015   1.487   8.552
50303SOL    HW150935  10.922   1.462   8.525
50303SOL    HW250936  11.041   1.437   8.634
50304SOL     OW50937   9.627   0.547   8.728
50304SOL    HW150938   9.665   0.488   8.800
50304SOL    HW250939   9.667   0.521   8.640
50305SOL     OW50940  10.122   1.586   8.135
50305SOL    HW150941  10.154   1.596   8.041
50305SOL    HW250942  10.043   1.524   8.137
50306SOL     OW50943  10.734   0.214   8.560
50306SOL    HW150944  10.786   0.149   8.615
50306SOL    HW250945  10.685   0.277   8.621
50307SOL     OW50946  10.311   0.034   8.602
50307SOL    HW150947  10.248  -0.038   8.571
50307SOL    HW250948  10.404  -0.002   8.602
50308SOL     OW50949  10.080   1.330   7.749
50308SOL    HW150950  10.034   1.243   7.766
50308SOL    HW250951  10.171   1.327   7.790
50309SOL     OW50952   9.928   1.567   8.732
50309SOL    HW150953   9.923   1.649   8.789
50309SOL    HW250954  10.017   1.564   8.687
50310SOL     OW50955  10.662   0.052   7.616
50310SOL    HW150956  10.697   0.011   7.532
50310SOL    HW250957  10.572   0.014   7.636
50311SOL     OW50958  10.610   0.453   8.139
50311SOL    HW150959  10.551   0.533   8.143
50311SOL    HW250960  10.625   0.418   8.232
50312SOL     OW50961  10.903   0.221   8.330
50312SOL    HW150962  10.819   0.220   8.384
50312SOL    HW250963  10.905   0.304   8.274
50313SOL     OW50964   9.349   1.077   7.748
50313SOL    HW150965   9.448   1.066   7.739
50313SOL    HW250966   9.309   0.991   7.780
50314SOL     OW50967  10.185   1.646   7.785
50314SOL    HW150968  10.108   1.611   7.731
50314SOL    HW250969  10.153   1.717   7.847
50315SOL     OW50970   9.540   0.628   9.423
50315SOL    HW150971   9.447   0.626   9.460
50315SOL    HW250972   9.541   0.589   9.331
50316SOL     OW50973   9.535   0.275  10.306
50316SOL    HW150974   9.570   0.258  10.398
50316SOL    HW250975   9.447   0.230  10.294
50317SOL     OW50976   9.329   0.368   9.957
50317SOL    HW150977   9.247   0.411   9.996
50317SOL    HW250978   9.301   0.295   9.894
50318SOL     OW50979   9.879   1.275  10.475
50318SOL    HW150980   9.786   1.268  10.438
50318SOL    HW250981   9.890   1.364  10.519
50319SOL     OW50982  10.865   1.511  10.013
50319SOL    HW150983  10.808   1.495  10.094
50319SOL    HW250984  10.806   1.521   9.933
50320SOL     OW50985  10.445   0.703  10.027
50320SOL    HW150986  10.502   0.781  10.002
50320SOL    HW250987  10.385   0.729  10.103
50321SOL     OW50988  11.065   0.607   9.541
50321SOL    HW150989  11.053   0.594   9.442
50321SOL    HW250990  11.035   0.526   9.590
50322SOL     OW50991  10.078   1.144  10.333
50322SOL    HW150992  10.000   1.161  10.393
50322SOL    HW250993  10.112   1.231  10.297
50323SOL     OW50994  10.160   0.798  11.133
50323SOL    HW150995  10.156   0.874  11.198
50323SOL    HW250996  10.182   0.834  11.042
50324SOL     OW50997   9.995   1.012   9.975
50324SOL    HW150998  10.064   0.996  10.045
50324SOL    HW250999   9.922   1.069  10.013
50325SOL     OW51000   9.996   1.161  11.113
50325SOL    HW151001  10.056   1.240  11.127
50325SOL    HW251002   9.910   1.192  11.072
50326SOL     OW51003   9.645   1.435  10.371
50326SOL    HW151004   9.567   1.404  10.318
50326SOL    HW251005   9.703   1.493  10.314
50327SOL     OW51006  10.770   1.505  10.649
50327SOL    HW151007  10.794   1.599  10.675
50327SOL    HW251008  10.754   1.451  10.731
50328SOL     OW51009   9.748   0.392  10.809
50328SOL    HW151010   9.830   0.336  10.818
50328SOL    HW251011   9.667   0.334  10.813
50329SOL     OW51012  10.913   0.447  10.047
50329SOL    HW151013  10.839   0.493   9.997
50329SOL    HW251014  10.964   0.515  10.100
50330SOL     OW51015   9.541   1.713   9.793
50330SOL    HW151016   9.575   1.790   9.847
50330SOL    HW251017   9.585   1.713   9.703
50331SOL     OW51018  10.437   1.341  11.000
50331SOL    HW151019  10.484   1.341  11.088
50331SOL    HW251020  10.389   1.254  10.989
50332SOL     OW51021   9.540   1.434   9.848
50332SOL    HW151022   9.514   1.530   9.848
50332SOL    HW251023   9.469   1.380   9.893
50333SOL     OW51024   9.550   1.091  10.196
50333SOL    HW151025   9.564   1.007  10.248
50333SOL    HW251026   9.495   1.155  10.251
50334SOL     OW51027   9.930   1.786  10.749
50334SOL    HW151028   9.838   1.769  10.784
50334SOL    HW251029   9.958   1.878  10.775
50335SOL     OW51030   9.916   0.964   9.433
50335SOL    HW151031   9.923   1.048   9.379
50335SOL    HW251032   9.962   0.977   9.521
50336SOL     OW51033  10.904   0.114  10.790
50336SOL    HW151034  10.886   0.181  10.718
50336SOL    HW251035  10.901   0.160  10.879
50337SOL     OW51036   9.432   0.643   9.873
50337SOL    HW151037   9.387   0.555   9.890
50337SOL    HW251038   9.431   0.697   9.957
50338SOL     OW51039  11.152   1.767   9.669
50338SOL    HW151040  11.206   1.738   9.749
50338SOL    HW251041  11.182   1.857   9.640
50339SOL     OW51042   9.337   1.596   9.427
50339SOL    HW151043   9.318   1.500   9.448
50339SOL    HW251044   9.304   1.654   9.502
50340SOL     OW51045  10.999   0.922   9.922
50340SOL    HW151046  11.094   0.893   9.930
50340SOL    HW251047  10.991   0.987   9.847
50341SOL     OW51048  10.951   1.108   9.742
50341SOL    HW151049  11.037   1.110   9.690
50341SOL    HW251050  10.965   1.155   9.830
50342SOL     OW51051   9.423   0.737  10.907
50342SOL    HW151052   9.511   0.724  10.952
50342SOL    HW251053   9.410   0.834  10.885
50343SOL     OW51054   9.923   1.365  10.036
50343SOL    HW151055   9.874   1.278  10.045
50343SOL    HW251056   9.900   1.408   9.949
50344SOL     OW51057  10.603   1.228  10.733
50344SOL    HW151058  10.640   1.155  10.675
50344SOL    HW251059  10.655   1.233  10.818
50345SOL     OW51060  10.119   0.004   9.812
50345SOL    HW151061  10.159   0.095   9.803
50345SOL    HW251062  10.019   0.012   9.818
50346SOL     OW51063   9.507   0.976  10.574
50346SOL    HW151064   9.596   0.931  10.560
50346SOL    HW251065   9.434   0.911  10.555
50347SOL     OW51066  10.835   0.999   9.500
50347SOL    HW151067  10.772   0.923   9.513
50347SOL    HW251068  10.883   1.017   9.586
50348SOL     OW51069  10.497   1.792  10.926
50348SOL    HW151070  10.521   1.852  10.850
50348SOL    HW251071  10.504   1.697  10.896
50349SOL     OW51072   9.627   0.251  11.111
50349SOL    HW151073   9.698   0.322  11.117
50349SOL    HW251074   9.539   0.290  11.139
50350SOL     OW51075  10.776   1.417  10.263
50350SOL    HW151076  10.717   1.423  10.343
50350SOL    HW251077  10.761   1.329  10.217
50351SOL     OW51078  10.977   1.714   9.882
50351SOL    HW151079  10.936   1.691   9.794
50351SOL    HW251080  10.959   1.640   9.947
50352SOL     OW51081   9.908   0.729   9.580
50352SOL    HW151082   9.932   0.798   9.512
50352SOL    HW251083   9.830   0.762   9.634
50353SOL     OW51084  10.591   0.345  10.254
50353SOL    HW151085  10.505   0.295  10.241
50353SOL    HW251086  10.653   0.291  10.310
50354SOL     OW51087  10.886   1.662   9.617
50354SOL    HW151088  10.975   1.708   9.620
50354SOL    HW251089  10.865   1.638   9.522
50355SOL     OW51090  10.117   0.605  10.775
50355SOL    HW151091  10.070   0.602  10.864
50355SOL    HW251092  10.066   0.550  10.709
50356SOL     OW51093  10.704   0.469  10.984
50356SOL    HW151094  10.684   0.512  11.072
50356SOL    HW251095  10.782   0.407  10.993
50357SOL     OW51096  10.283   0.890  10.882
50357SOL    HW151097  10.329   0.806  10.853
50357SOL    HW251098  10.227   0.924  10.807
50358SOL     OW51099  10.301   0.410  10.552
50358SOL    HW151100  10.224   0.444  10.606
50358SOL    HW251101  10.267   0.359  10.473
50359SOL     OW51102  10.351   0.701   9.739
50359SOL    HW151103  10.377   0.697   9.835
50359SOL    HW251104  10.266   0.650   9.725
50360SOL     OW51105   9.386   0.811  10.099
50360SOL    HW151106   9.485   0.799  10.108
50360SOL    HW251107   9.362   0.906  10.120
50361SOL     OW51108   9.440   1.821  10.881
50361SOL    HW151109   9.430   1.806  10.980
50361SOL    HW251110   9.354   1.857  10.845
50362SOL     OW51111  10.175   0.348   9.505
50362SOL    HW151112  10.234   0.411   9.456
50362SOL    HW251113  10.194   0.254   9.476
50363SOL     OW51114  11.029   0.585  11.141
50363SOL    HW151115  11.003   0.674  11.105
50363SOL    HW251116  11.027   0.517  11.068
50364SOL     OW51117  10.672   1.144   9.855
50364SOL    HW151118  10.755   1.115   9.807
50364SOL    HW251119  10.623   1.211   9.799
50365SOL     OW51120   9.860   0.196  10.195
50365SOL    HW151121   9.855   0.191  10.295
50365SOL    HW251122   9.862   0.292  10.166
50366SOL     OW51123  10.318   1.456   9.787
50366SOL    HW151124  10.272   1.528   9.735
50366SOL    HW251125  10.314   1.476   9.885
50367SOL     OW51126   9.661   1.801  10.163
50367SOL    HW151127   9.711   1.715  10.169
50367SOL    HW251128   9.726   1.878  10.160
50368SOL     OW51129  11.105   1.066  10.183
50368SOL    HW151130  11.043   1.051  10.107
50368SOL    HW251131  11.053   1.077  10.268
50369SOL     OW51132  10.537   1.550  10.816
50369SOL    HW151133  10.543   1.473  10.880
50369SOL    HW251134  10.485   1.524  10.736
50370SOL     OW51135   9.631   0.943   9.552
50370SOL    HW151136   9.713   0.982   9.510
50370SOL    HW251137   9.604   0.861   9.503
50371SOL     OW51138  10.768   0.735  10.038
50371SOL    HW151139  10.763   0.670  10.113
50371SOL    HW251140  10.848   0.794  10.051
50372SOL     OW51141   9.771   1.266  11.037
50372SOL    HW151142   9.721   1.267  10.951
50372SOL    HW251143   9.708   1.248  11.113
50373SOL     OW51144  10.421   1.776   9.547
50373SOL    HW151145  10.361   1.714   9.597
50373SOL    HW251146  10.452   1.732   9.462
50374SOL     OW51147   9.512   0.285  10.808
50374SOL    HW151148   9.432   0.345  10.795
50374SOL    HW251149   9.502   0.236  10.894
50375SOL     OW51150  10.942   1.377   9.391
50375SOL    HW151151  10.910   1.471   9.381
50375SOL    HW251152  10.866   1.314   9.379
50376SOL     OW51153   9.774   1.743   9.633
50376SOL    HW151154   9.807   1.782   9.719
50376SOL    HW251155   9.850   1.736   9.568
50377SOL     OW51156  10.710   0.107   9.736
50377SOL    HW151157  10.686   0.070   9.646
50377SOL    HW251158  10.809   0.123   9.740
50378SOL     OW51159   9.559   1.785  10.551
50378SOL    HW151160   9.616   1.720  10.601
50378SOL    HW251161   9.543   1.752  10.458
50379SOL     OW51162  10.250   1.698  10.214
50379SOL    HW151163  10.330   1.641  10.235
50379SOL    HW251164  10.201   1.658  10.137
50380SOL     OW51165   9.692   0.700   9.790
50380SOL    HW151166   9.737   0.610   9.787
50380SOL    HW251167   9.598   0.689   9.823
50381SOL     OW51168  10.857   0.222  11.039
50381SOL    HW151169  10.852   0.259  11.131
50381SOL    HW251170  10.785   0.153  11.027
50382SOL     OW51171   9.924   0.122   9.427
50382SOL    HW151172  10.022   0.100   9.434
50382SOL    HW251173   9.893   0.105   9.334
50383SOL     OW51174  10.091   0.264  11.059
50383SOL    HW151175  10.158   0.203  11.102
50383SOL    HW251176  10.018   0.283  11.124
50384SOL     OW51177  10.198   1.514  10.505
50384SOL    HW151178  10.175   1.489  10.411
50384SOL    HW251179  10.259   1.445  10.544
50385SOL     OW51180  10.661   0.590  10.743
50385SOL    HW151181  10.689   0.547  10.828
50385SOL    HW251182  10.686   0.686  10.744
50386SOL     OW51183  10.113   1.402  10.234
50386SOL    HW151184  10.203   1.416  10.192
50386SOL    HW251185  10.042   1.404  10.163
50387SOL     OW51186  10.232   0.503  10.209
50387SOL    HW151187  10.207   0.494  10.113
50387SOL    HW251188  10.280   0.421  10.240
50388SOL     OW51189   9.849   0.064   9.822
50388SOL    HW151190   9.768   0.065   9.880
50388SOL    HW251191   9.852   0.147   9.767
50389SOL     OW51192  10.744   1.188   9.351
50389SOL    HW151193  10.776   1.112   9.408
50389SOL    HW251194  10.652   1.215   9.381
50390SOL     OW51195   9.607   0.035   9.481
50390SOL    HW151196   9.656   0.119   9.460
50390SOL    HW251197   9.669  -0.030   9.526
50391SOL     OW51198  10.245   0.236   9.790
50391SOL    HW151199  10.197   0.277   9.712
50391SOL    HW251200  10.344   0.234   9.771
50392SOL     OW51201  10.386   0.683  10.774
50392SOL    HW151202  10.306   0.622  10.777
50392SOL    HW251203  10.467   0.630  10.750
50393SOL     OW51204  10.537   1.570  10.103
50393SOL    HW151205  10.558   1.644  10.038
50393SOL    HW251206  10.605   1.570  10.176
50394SOL     OW51207   9.769   1.152  10.051
50394SOL    HW151208   9.698   1.125  10.116
50394SOL    HW251209   9.743   1.124   9.958
50395SOL     OW51210  10.581   1.797   9.901
50395SOL    HW151211  10.625   1.861   9.837
50395SOL    HW251212  10.531   1.849   9.971
50396SOL     OW51213  10.342   0.549   9.326
50396SOL    HW151214  10.301   0.631   9.287
50396SOL    HW251215  10.406   0.575   9.399
50397SOL     OW51216   9.388   0.556  10.696
50397SOL    HW151217   9.480   0.555  10.655
50397SOL    HW251218   9.382   0.630  10.763
50398SOL     OW51219   9.871   0.222  10.457
50398SOL    HW151220   9.909   0.138  10.494
50398SOL    HW251221   9.783   0.241  10.501
50399SOL     OW51222  10.176   0.454   9.952
50399SOL    HW151223  10.144   0.526   9.890
50399SOL    HW251224  10.200   0.373   9.899
50400SOL     OW51225  10.327   0.039  10.063
50400SOL    HW151226  10.255   0.044   9.994
50400SOL    HW251227  10.303  -0.030  10.132
50401SOL     OW51228  10.739   1.173  10.177
50401SOL    HW151229  10.684   1.089  10.170
50401SOL    HW251230  10.765   1.202  10.085
50402SOL     OW51231  10.776   0.590  10.302
50402SOL    HW151232  10.746   0.495  10.309
50402SOL    HW251233  10.849   0.606  10.368
50403SOL     OW51234  11.167   0.833   9.687
50403SOL    HW151235  11.209   0.769   9.751
50403SOL    HW251236  11.129   0.782   9.609
50404SOL     OW51237   9.798   1.385   9.484
50404SOL    HW151238   9.711   1.370   9.531
50404SOL    HW251239   9.781   1.411   9.389
50405SOL     OW51240  10.974   1.280   9.967
50405SOL    HW151241  11.073   1.288   9.981
50405SOL    HW251242  10.929   1.364   9.998
50406SOL     OW51243  10.700   0.575   9.388
50406SOL    HW151244  10.646   0.554   9.469
50406SOL    HW251245  10.791   0.534   9.397
50407SOL     OW51246   9.837   0.256   9.638
50407SOL    HW151247   9.864   0.197   9.563
50407SOL    HW251248   9.837   0.351   9.607
50408SOL     OW51249  11.064   1.223  10.898
50408SOL    HW151250  11.155   1.184  10.885
50408SOL    HW251251  11.072   1.319  10.922
50409SOL     OW51252  10.374   1.347  10.650
50409SOL    HW151253  10.294   1.324  10.705
50409SOL    HW251254  10.457   1.321  10.699
50410SOL     OW51255  10.902   1.629  10.935
50410SOL    HW151256  10.929   1.663  10.845
50410SOL    HW251257  10.981   1.591  10.981
50411SOL     OW51258  10.421   1.195  10.410
50411SOL    HW151259  10.381   1.239  10.491
50411SOL    HW251260  10.380   1.232  10.327
50412SOL     OW51261  10.948   1.099  10.389
50412SOL    HW151262  10.953   1.180  10.448
50412SOL    HW251263  10.862   1.101  10.338
50413SOL     OW51264  10.225   0.089  10.712
50413SOL    HW151265  10.250   0.069  10.617
50413SOL    HW251266  10.297   0.145  10.754
50414SOL     OW51267  10.290   1.116  11.029
50414SOL    HW151268  10.191   1.122  11.039
50414SOL    HW251269  10.313   1.036  10.973
50415SOL     OW51270  10.015   1.050   9.678
50415SOL    HW151271  10.001   1.057   9.777
50415SOL    HW251272  10.099   0.999   9.660
50416SOL     OW51273   9.720   0.813  10.561
50416SOL    HW151274   9.806   0.825  10.611
50416SOL    HW251275   9.678   0.726  10.588
50417SOL     OW51276  10.584   0.386  10.572
50417SOL    HW151277  10.605   0.460  10.636
50417SOL    HW251278  10.495   0.403  10.529
50418SOL     OW51279   9.374   1.564  10.641
50418SOL    HW151280   9.328   1.646  10.607
50418SOL    HW251281   9.472   1.583  10.650
50419SOL     OW51282   9.677   1.100   9.811
50419SOL    HW151283   9.670   1.183   9.755
50419SOL    HW251284   9.681   1.020   9.751
50420SOL     OW51285   9.876   0.537  10.175
50420SOL    HW151286   9.888   0.603  10.101
50420SOL    HW251287   9.922   0.571  10.258
50421SOL     OW51288  10.562   1.348   9.698
50421SOL    HW151289  10.612   1.425   9.738
50421SOL    HW251290  10.467   1.350   9.730
50422SOL     OW51291  10.582   1.445  10.452
50422SOL    HW151292  10.629   1.458  10.539
50422SOL    HW251293  10.516   1.371  10.461
50423SOL     OW51294  10.892   0.639   9.782
50423SOL    HW151295  10.861   0.700   9.855
50423SOL    HW251296  10.942   0.691   9.713
50424SOL     OW51297   9.664   1.510  10.639
50424SOL    HW151298   9.643   1.466  10.552
50424SOL    HW251299   9.761   1.536  10.642
50425SOL     OW51300   9.712   0.751  10.908
50425SOL    HW151301   9.780   0.806  10.861
50425SOL    HW251302   9.752   0.663  10.935
50426SOL     OW51303  10.897   0.779  10.980
50426SOL    HW151304  10.805   0.817  10.975
50426SOL    HW251305  10.957   0.826  10.915
50427SOL     OW51306  10.323   0.105  11.080
50427SOL    HW151307  10.329   0.190  11.028
50427SOL    HW251308  10.355   0.029  11.023
50428SOL     OW51309   9.814   0.050  11.050
50428SOL    HW151310   9.772  -0.007  10.980
50428SOL    HW251311   9.748   0.119  11.082
50429SOL     OW51312   9.883   0.870  10.339
50429SOL    HW151313   9.927   0.959  10.330
50429SOL    HW251314   9.820   0.870  10.416
50430SOL     OW51315  10.670   0.862  10.355
50430SOL    HW151316  10.595   0.862  10.289
50430SOL    HW251317  10.707   0.770  10.364
50431SOL     OW51318  10.519   0.525   9.585
50431SOL    HW151319  10.532   0.441   9.639
50431SOL    HW251320  10.490   0.599   9.645
50432SOL     OW51321   9.617   0.213  10.541
50432SOL    HW151322   9.594   0.250  10.631
50432SOL    HW251323   9.587   0.118  10.535
50433SOL     OW51324   9.347   1.310  10.592
50433SOL    HW151325   9.400   1.261  10.660
50433SOL    HW251326   9.369   1.408  10.597
50434SOL     OW51327  10.042   0.634  10.374
50434SOL    HW151328  10.101   0.608  10.298
50434SOL    HW251329  10.014   0.730  10.363
50435SOL     OW51330  11.038   0.935  11.164
50435SOL    HW151331  10.992   0.928  11.075
50435SOL    HW251332  10.976   0.979  11.230
50436SOL     OW51333   9.617   0.063   9.928
50436SOL    HW151334   9.606   0.157   9.961
50436SOL    HW251335   9.612   0.000  10.005
50437SOL     OW51336  10.932   0.367   9.684
50437SOL    HW151337  10.934   0.291   9.748
50437SOL    HW251338  10.884   0.444   9.724
50438SOL     OW51339  10.333   0.766  10.276
50438SOL    HW151340  10.348   0.787  10.372
50438SOL    HW251341  10.303   0.671  10.267
50439SOL     OW51342  10.290   1.573  11.010
50439SOL    HW151343  10.270   1.617  10.922
50439SOL    HW251344  10.329   1.482  10.994
50440SOL     OW51345  11.169   1.518  10.915
50440SOL    HW151346  11.183   1.545  10.820
50440SOL    HW251347  11.252   1.540  10.968
50441SOL     OW51348   9.660   0.898  11.114
50441SOL    HW151349   9.736   0.942  11.162
50441SOL    HW251350   9.695   0.851  11.032
50442SOL     OW51351  10.850   0.274   9.435
50442SOL    HW151352  10.789   0.199   9.458
50442SOL    HW251353  10.872   0.326   9.518
50443SOL     OW51354  10.613   0.838   9.352
50443SOL    HW151355  10.647   0.745   9.367
50443SOL    HW251356  10.631   0.865   9.257
50444SOL     OW51357  10.378   1.333  10.159
50444SOL    HW151358  10.385   1.249  10.104
50444SOL    HW251359  10.440   1.402  10.123
50445SOL     OW51360   9.629   0.810  10.259
50445SOL    HW151361   9.722   0.846  10.264
50445SOL    HW251362   9.623   0.725  10.311
50446SOL     OW51363   9.649   0.509  10.316
50446SOL    HW151364   9.597   0.426  10.299
50446SOL    HW251365   9.726   0.514  10.252
50447SOL     OW51366  10.448   0.380  10.988
50447SOL    HW151367  10.403   0.443  11.052
50447SOL    HW251368  10.541   0.411  10.971
50448SOL     OW51369  10.470   0.207  10.787
50448SOL    HW151370  10.470   0.271  10.864
50448SOL    HW251371  10.498   0.255  10.704
50449SOL     OW51372   9.318   1.326   9.510
50449SOL    HW151373   9.225   1.347   9.479
50449SOL    HW251374   9.328   1.227   9.523
50450SOL     OW51375   9.398   1.801  10.237
50450SOL    HW151376   9.356   1.715  10.210
50450SOL    HW251377   9.492   1.804  10.203
50451SOL     OW51378   9.814   1.568  10.220
50451SOL    HW151379   9.880   1.642  10.229
50451SOL    HW251380   9.858   1.489  10.178
50452SOL     OW51381  10.312   0.796  10.548
50452SOL    HW151382  10.353   0.764  10.634
50452SOL    HW251383  10.216   0.769  10.545
50453SOL     OW51384   9.350   0.544  10.424
50453SOL    HW151385   9.435   0.511  10.383
50453SOL    HW251386   9.363   0.559  10.522
50454SOL     OW51387   9.499   0.520  11.032
50454SOL    HW151388   9.558   0.480  10.962
50454SOL    HW251389   9.441   0.591  10.991
50455SOL     OW51390  10.679   0.950  10.970
50455SOL    HW151391  10.718   1.039  10.990
50455SOL    HW251392  10.689   0.930  10.873
50456SOL     OW51393  10.125   0.572   9.635
50456SOL    HW151394  10.132   0.483   9.589
50456SOL    HW251395  10.031   0.606   9.627
50457SOL     OW51396  10.967   0.604  10.516
50457SOL    HW151397  10.929   0.535  10.578
50457SOL    HW251398  11.049   0.568  10.472
50458SOL     OW51399   9.562   1.564  11.054
50458SOL    HW151400   9.532   1.621  11.130
50458SOL    HW251401   9.555   1.467  11.080
50459SOL     OW51402   9.981   0.464  10.579
50459SOL    HW151403   9.947   0.375  10.549
50459SOL    HW251404  10.007   0.518  10.499
50460SOL     OW51405  10.240   1.678  10.775
50460SOL    HW151406  10.216   1.660  10.680
50460SOL    HW251407  10.270   1.772  10.785
50461SOL     OW51408   9.783   0.500   9.501
50461SOL    HW151409   9.844   0.580   9.505
50461SOL    HW251410   9.688   0.531   9.508
50462SOL     OW51411   9.469   1.137  10.776
50462SOL    HW151412   9.491   1.076  10.852
50462SOL    HW251413   9.479   1.088  10.690
50463SOL     OW51414  10.657   1.059  10.544
50463SOL    HW151415  10.681   0.996  10.470
50463SOL    HW251416  10.567   1.099  10.526
50464SOL     OW51417  10.612   0.855   9.619
50464SOL    HW151418  10.526   0.824   9.661
50464SOL    HW251419  10.608   0.841   9.520
50465SOL     OW51420  11.069   1.747  10.464
50465SOL    HW151421  11.130   1.777  10.391
50465SOL    HW251422  11.031   1.658  10.442
50466SOL     OW51423  10.562   1.731  10.438
50466SOL    HW151424  10.646   1.736  10.384
50466SOL    HW251425  10.539   1.635  10.456
50467SOL     OW51426   9.393   1.258  10.332
50467SOL    HW151427   9.388   1.257  10.432
50467SOL    HW251428   9.310   1.217  10.294
50468SOL     OW51429   9.998   1.662  11.026
50468SOL    HW151430   9.942   1.743  11.035
50468SOL    HW251431  10.050   1.666  10.940
50469SOL     OW51432  11.036   0.135   9.833
50469SOL    HW151433  11.109   0.118   9.766
50469SOL    HW251434  11.005   0.048   9.871
50470SOL     OW51435  10.698   1.573   9.787
50470SOL    HW151436  10.765   1.585   9.713
50470SOL    HW251437  10.658   1.662   9.810
50471SOL     OW51438   9.440   1.794  11.161
50471SOL    HW151439   9.399   1.720  11.214
50471SOL    HW251440   9.504   1.845  11.219
50472SOL     OW51441  10.590   0.927   9.982
50472SOL    HW151442  10.650   0.846   9.984
50472SOL    HW251443  10.630   0.996   9.922
50473SOL     OW51444  10.140   1.273  10.732
50473SOL    HW151445  10.135   1.306  10.827
50473SOL    HW251446  10.054   1.292  10.686
50474SOL     OW51447   9.982   1.616   9.464
50474SOL    HW151448   9.991   1.626   9.365
50474SOL    HW251449   9.942   1.527   9.485
50475SOL     OW51450  10.960   1.720  10.704
50475SOL    HW151451  11.013   1.730  10.620
50475SOL    HW251452  10.933   1.810  10.738
50476SOL     OW51453  11.151   0.175  10.273
50476SOL    HW151454  11.190   0.090  10.237
50476SOL    HW251455  11.053   0.177  10.254
50477SOL     OW51456   9.573   0.326  10.030
50477SOL    HW151457   9.494   0.377   9.996
50477SOL    HW251458   9.564   0.311  10.128
50478SOL     OW51459  10.504   1.612   9.341
50478SOL    HW151460  10.510   1.519   9.378
50478SOL    HW251461  10.445   1.612   9.261
50479SOL     OW51462  10.132   1.002  10.682
50479SOL    HW151463  10.172   1.001  10.590
50479SOL    HW251464  10.142   1.094  10.722
50480SOL     OW51465  10.226   0.910   9.601
50480SOL    HW151466  10.289   0.948   9.533
50480SOL    HW251467  10.266   0.827   9.640
50481SOL     OW51468  10.814   1.607   9.354
50481SOL    HW151469  10.722   1.644   9.361
50481SOL    HW251470  10.852   1.627   9.264
50482SOL     OW51471   9.682   1.288  10.800
50482SOL    HW151472   9.669   1.381  10.766
50482SOL    HW251473   9.598   1.236  10.787
50483SOL     OW51474  10.924   1.292  10.599
50483SOL    HW151475  10.984   1.295  10.679
50483SOL    HW251476  10.849   1.356  10.612
50484SOL     OW51477  10.349   1.098  10.006
50484SOL    HW151478  10.279   1.051  10.060
50484SOL    HW251479  10.408   1.030   9.963
50485SOL     OW51480  10.324   0.236  10.281
50485SOL    HW151481  10.316   0.200  10.188
50485SOL    HW251482  10.322   0.160  10.346
50486SOL     OW51483   9.900   1.487   9.801
50486SOL    HW151484   9.942   1.429   9.731
50486SOL    HW251485   9.856   1.566   9.757
50487SOL     OW51486  11.019   0.385  10.691
50487SOL    HW151487  11.092   0.454  10.695
50487SOL    HW251488  11.047   0.310  10.632
50488SOL     OW51489   9.565   1.348   9.600
50488SOL    HW151490   9.469   1.349   9.573
50488SOL    HW251491   9.577   1.401   9.684
50489SOL     OW51492   9.415   1.013  11.036
50489SOL    HW151493   9.338   0.980  11.090
50489SOL    HW251494   9.500   0.983  11.078
50490SOL     OW51495   9.982   0.203  10.799
50490SOL    HW151496  10.072   0.187  10.759
50490SOL    HW251497   9.990   0.208  10.898
50491SOL     OW51498   9.385   0.345   9.343
50491SOL    HW151499   9.293   0.317   9.314
50491SOL    HW251500   9.416   0.422   9.287
50492SOL     OW51501  10.750   0.856  10.708
50492SOL    HW151502  10.693   0.908  10.645
50492SOL    HW251503  10.846   0.868  10.684
50493SOL     OW51504   9.382   0.166   9.628
50493SOL    HW151505   9.365   0.249   9.574
50493SOL    HW251506   9.472   0.129   9.606
50494SOL     OW51507  10.493   1.335   9.429
50494SOL    HW151508  10.394   1.324   9.431
50494SOL    HW251509  10.527   1.350   9.522
50495SOL     OW51510   9.923   0.842  10.741
50495SOL    HW151511   9.979   0.923  10.724
50495SOL    HW251512   9.982   0.762  10.744
50496SOL     OW51513  10.803   1.767  10.269
50496SOL    HW151514  10.836   1.831  10.200
50496SOL    HW251515  10.869   1.761  10.344
50497SOL     OW51516  10.026   0.565  11.018
50497SOL    HW151517  10.045   0.630  11.092
50497SOL    HW251518  10.086   0.485  11.027
50498SOL     OW51519  10.760   1.220  10.943
50498SOL    HW151520  10.751   1.210  11.042
50498SOL    HW251521  10.856   1.213  10.917
50499SOL     OW51522   9.700   1.741  10.870
50499SOL    HW151523   9.609   1.782  10.868
50499SOL    HW251524   9.693   1.647  10.902
50500SOL     OW51525  10.984   0.883  10.564
50500SOL    HW151526  10.957   0.794  10.527
50500SOL    HW251527  10.985   0.951  10.491
50501SOL     OW51528  10.535   0.325   9.759
50501SOL    HW151529  10.600   0.251   9.748
50501SOL    HW251530  10.555   0.375   9.843
50502SOL     OW51531   9.904   0.745   9.962
50502SOL    HW151532   9.954   0.830   9.943
50502SOL    HW251533   9.816   0.747   9.914
50503SOL     OW51534  11.087   0.342  10.952
50503SOL    HW151535  11.070   0.373  10.858
50503SOL    HW251536  11.003   0.305  10.990
50504SOL     OW51537  11.040   0.934  10.827
50504SOL    HW151538  11.078   1.025  10.842
50504SOL    HW251539  11.032   0.917  10.728
50505SOL     OW51540  10.169   1.374   9.326
50505SOL    HW151541  10.123   1.389   9.414
50505SOL    HW251542  10.213   1.459   9.296
50506SOL     OW51543   9.971   1.790  10.263
50506SOL    HW151544   9.925   1.878  10.250
50506SOL    HW251545  10.070   1.802  10.256
50507SOL     OW51546  10.169   0.956  10.171
50507SOL    HW151547  10.223   0.887  10.219
50507SOL    HW251548  10.137   1.025  10.237
50508SOL     OW51549  10.393   0.984   9.397
50508SOL    HW151550  10.370   1.037   9.315
50508SOL    HW251551  10.474   0.928   9.378
50509SOL     OW51552  11.171   1.569  10.161
50509SOL    HW151553  11.100   1.557  10.091
50509SOL    HW251554  11.172   1.490  10.221
50510SOL     OW51555   9.531   1.314  11.154
50510SOL    HW151556   9.466   1.241  11.133
50510SOL    HW251557   9.535   1.328  11.252
50511SOL     OW51558   9.389   1.240   9.963
50511SOL    HW151559   9.388   1.193  10.051
50511SOL    HW251560   9.471   1.212   9.912
50512SOL     OW51561   9.982   1.391  10.934
50512SOL    HW151562   9.904   1.341  10.972
50512SOL    HW251563   9.979   1.486  10.965
50513SOL     OW51564  11.134   0.192  10.537
50513SOL    HW151565  11.130   0.102  10.581
50513SOL    HW251566  11.137   0.181  10.438
50514SOL     OW51567   9.738   0.424   9.830
50514SOL    HW151568   9.768   0.352   9.768
50514SOL    HW251569   9.699   0.384   9.913
50515SOL     OW51570  11.015   1.487  10.414
50515SOL    HW151571  10.922   1.462  10.387
50515SOL    HW251572  11.041   1.437  10.496
50516SOL     OW51573   9.627   0.547  10.590
50516SOL    HW151574   9.665   0.488  10.662
50516SOL    HW251575   9.667   0.521  10.502
50517SOL     OW51576  10.122   1.586   9.997
50517SOL    HW151577  10.154   1.596   9.903
50517SOL    HW251578  10.043   1.524   9.999
50518SOL     OW51579  10.734   0.214  10.422
50518SOL    HW151580  10.786   0.149  10.477
50518SOL    HW251581  10.685   0.277  10.483
50519SOL     OW51582  10.311   0.034  10.464
50519SOL    HW151583  10.248  -0.038  10.433
50519SOL    HW251584  10.404  -0.002  10.464
50520SOL     OW51585  10.080   1.330   9.611
50520SOL    HW151586  10.034   1.243   9.628
50520SOL    HW251587  10.171   1.327   9.652
50521SOL     OW51588   9.928   1.567  10.594
50521SOL    HW151589   9.923   1.649  10.651
50521SOL    HW251590  10.017   1.564  10.549
50522SOL     OW51591  10.662   0.052   9.478
50522SOL    HW151592  10.697   0.011   9.394
50522SOL    HW251593  10.572   0.014   9.498
50523SOL     OW51594  10.610   0.453  10.001
50523SOL    HW151595  10.551   0.533  10.005
50523SOL    HW251596  10.625   0.418  10.094
50524SOL     OW51597  10.903   0.221  10.192
50524SOL    HW151598  10.819   0.220  10.246
50524SOL    HW251599  10.905   0.304  10.136
50525SOL     OW51600   9.349   1.077   9.610
50525SOL    HW151601   9.448   1.066   9.601
50525SOL    HW251602   9.309   0.991   9.642
50526SOL     OW51603  10.185   1.646   9.647
50526SOL    HW151604  10.108   1.611   9.593
50526SOL    HW251605  10.153   1.717   9.709
50527SOL     OW51606   9.540   0.628  11.285
50527SOL    HW151607   9.447   0.626  11.322
50527SOL    HW251608   9.541   0.589  11.193
50528SOL     OW51609   9.535   0.275  12.168
50528SOL    HW151610   9.570   0.258  12.260
50528SOL    HW251611   9.447   0.230  12.156
50529SOL     OW51612   9.329   0.368  11.819
50529SOL    HW151613   9.247   0.411  11.858
50529SOL    HW251614   9.301   0.295  11.756
50530SOL     OW51615   9.879   1.275  12.337
50530SOL    HW151616   9.786   1.268  12.300
50530SOL    HW251617   9.890   1.364  12.381
50531SOL     OW51618  10.865   1.511  11.875
50531SOL    HW151619  10.808   1.495  11.956
50531SOL    HW251620  10.806   1.521  11.795
50532SOL     OW51621  10.445   0.703  11.889
50532SOL    HW151622  10.502   0.781  11.864
50532SOL    HW251623  10.385   0.729  11.965
50533SOL     OW51624  11.065   0.607  11.403
50533SOL    HW151625  11.053   0.594  11.304
50533SOL    HW251626  11.035   0.526  11.452
50534SOL     OW51627  10.078   1.144  12.195
50534SOL    HW151628  10.000   1.161  12.255
50534SOL    HW251629  10.112   1.231  12.159
50535SOL     OW51630   9.995   1.012  11.837
50535SOL    HW151631  10.064   0.996  11.907
50535SOL    HW251632   9.922   1.069  11.875
50536SOL     OW51633   9.645   1.435  12.233
50536SOL    HW151634   9.567   1.404  12.180
50536SOL    HW251635   9.703   1.493  12.176
50537SOL     OW51636  10.770   1.505  12.511
50537SOL    HW151637  10.794   1.599  12.537
50537SOL    HW251638  10.754   1.451  12.593
50538SOL     OW51639   9.748   0.392  12.671
50538SOL    HW151640   9.830   0.336  12.680
50538SOL    HW251641   9.667   0.334  12.675
50539SOL     OW51642  10.913   0.447  11.909
50539SOL    HW151643  10.839   0.493  11.859
50539SOL    HW251644  10.964   0.515  11.962
50540SOL     OW51645   9.541   1.713  11.655
50540SOL    HW151646   9.575   1.790  11.709
50540SOL    HW251647   9.585   1.713  11.565
50541SOL     OW51648   9.540   1.434  11.710
50541SOL    HW151649   9.514   1.530  11.710
50541SOL    HW251650   9.469   1.380  11.755
50542SOL     OW51651   9.550   1.091  12.058
50542SOL    HW151652   9.564   1.007  12.110
50542SOL    HW251653   9.495   1.155  12.113
50543SOL     OW51654   9.930   1.786  12.611
50543SOL    HW151655   9.838   1.769  12.646
50543SOL    HW251656   9.958   1.878  12.637
50544SOL     OW51657   9.916   0.964  11.295
50544SOL    HW151658   9.923   1.048  11.241
50544SOL    HW251659   9.962   0.977  11.383
50545SOL     OW51660  10.904   0.114  12.652
50545SOL    HW151661  10.886   0.181  12.580
50545SOL    HW251662  10.901   0.160  12.741
50546SOL     OW51663   9.432   0.643  11.735
50546SOL    HW151664   9.387   0.555  11.752
50546SOL    HW251665   9.431   0.697  11.819
50547SOL     OW51666  11.152   1.767  11.531
50547SOL    HW151667  11.206   1.738  11.611
50547SOL    HW251668  11.182   1.857  11.502
50548SOL     OW51669   9.337   1.596  11.289
50548SOL    HW151670   9.318   1.500  11.310
50548SOL    HW251671   9.304   1.654  11.364
50549SOL     OW51672  10.999   0.922  11.784
50549SOL    HW151673  11.094   0.893  11.792
50549SOL    HW251674  10.991   0.987  11.709
50550SOL     OW51675  10.951   1.108  11.604
50550SOL    HW151676  11.037   1.110  11.552
50550SOL    HW251677  10.965   1.155  11.692
50551SOL     OW51678   9.923   1.365  11.898
50551SOL    HW151679   9.874   1.278  11.907
50551SOL    HW251680   9.900   1.408  11.811
50552SOL     OW51681  10.119   0.004  11.674
50552SOL    HW151682  10.159   0.095  11.665
50552SOL    HW251683  10.019   0.012  11.680
50553SOL     OW51684   9.507   0.976  12.436
50553SOL    HW151685   9.596   0.931  12.422
50553SOL    HW251686   9.434   0.911  12.417
50554SOL     OW51687  10.835   0.999  11.362
50554SOL    HW151688  10.772   0.923  11.375
50554SOL    HW251689  10.883   1.017  11.448
50555SOL     OW51690   9.627   0.251  12.973
50555SOL    HW151691   9.698   0.322  12.979
50555SOL    HW251692   9.539   0.290  13.001
50556SOL     OW51693  10.776   1.417  12.125
50556SOL    HW151694  10.717   1.423  12.205
50556SOL    HW251695  10.761   1.329  12.079
50557SOL     OW51696  10.977   1.714  11.744
50557SOL    HW151697  10.936   1.691  11.656
50557SOL    HW251698  10.959   1.640  11.809
50558SOL     OW51699   9.908   0.729  11.442
50558SOL    HW151700   9.932   0.798  11.374
50558SOL    HW251701   9.830   0.762  11.496
50559SOL     OW51702  10.591   0.345  12.116
50559SOL    HW151703  10.505   0.295  12.103
50559SOL    HW251704  10.653   0.291  12.172
50560SOL     OW51705  10.886   1.662  11.479
50560SOL    HW151706  10.975   1.708  11.482
50560SOL    HW251707  10.865   1.638  11.384
50561SOL     OW51708  10.117   0.605  12.637
50561SOL    HW151709  10.070   0.602  12.726
50561SOL    HW251710  10.066   0.550  12.571
50562SOL     OW51711  10.301   0.410  12.414
50562SOL    HW151712  10.224   0.444  12.468
50562SOL    HW251713  10.267   0.359  12.335
50563SOL     OW51714  10.351   0.701  11.601
50563SOL    HW151715  10.377   0.697  11.697
50563SOL    HW251716  10.266   0.650  11.587
50564SOL     OW51717   9.386   0.811  11.961
50564SOL    HW151718   9.485   0.799  11.970
50564SOL    HW251719   9.362   0.906  11.982
50565SOL     OW51720   9.440   1.821  12.743
50565SOL    HW151721   9.430   1.806  12.842
50565SOL    HW251722   9.354   1.857  12.707
50566SOL     OW51723  10.175   0.348  11.367
50566SOL    HW151724  10.234   0.411  11.318
50566SOL    HW251725  10.194   0.254  11.338
50567SOL     OW51726  10.672   1.144  11.717
50567SOL    HW151727  10.755   1.115  11.669
50567SOL    HW251728  10.623   1.211  11.661
50568SOL     OW51729   9.860   0.196  12.057
50568SOL    HW151730   9.855   0.191  12.157
50568SOL    HW251731   9.862   0.292  12.028
50569SOL     OW51732  10.318   1.456  11.649
50569SOL    HW151733  10.272   1.528  11.597
50569SOL    HW251734  10.314   1.476  11.747
50570SOL     OW51735   9.661   1.801  12.025
50570SOL    HW151736   9.711   1.715  12.031
50570SOL    HW251737   9.726   1.878  12.022
50571SOL     OW51738  11.105   1.066  12.045
50571SOL    HW151739  11.043   1.051  11.969
50571SOL    HW251740  11.053   1.077  12.130
50572SOL     OW51741   9.631   0.943  11.414
50572SOL    HW151742   9.713   0.982  11.372
50572SOL    HW251743   9.604   0.861  11.365
50573SOL     OW51744  10.768   0.735  11.900
50573SOL    HW151745  10.763   0.670  11.975
50573SOL    HW251746  10.848   0.794  11.913
50574SOL     OW51747  10.421   1.776  11.409
50574SOL    HW151748  10.361   1.714  11.459
50574SOL    HW251749  10.452   1.732  11.324
50575SOL     OW51750   9.512   0.285  12.670
50575SOL    HW151751   9.432   0.345  12.657
50575SOL    HW251752   9.502   0.236  12.756
50576SOL     OW51753  10.942   1.377  11.253
50576SOL    HW151754  10.910   1.471  11.243
50576SOL    HW251755  10.866   1.314  11.241
50577SOL     OW51756   9.774   1.743  11.495
50577SOL    HW151757   9.807   1.782  11.581
50577SOL    HW251758   9.850   1.736  11.430
50578SOL     OW51759  10.710   0.107  11.598
50578SOL    HW151760  10.686   0.070  11.508
50578SOL    HW251761  10.809   0.123  11.602
50579SOL     OW51762   9.559   1.785  12.413
50579SOL    HW151763   9.616   1.720  12.463
50579SOL    HW251764   9.543   1.752  12.320
50580SOL     OW51765  10.250   1.698  12.076
50580SOL    HW151766  10.330   1.641  12.097
50580SOL    HW251767  10.201   1.658  11.999
50581SOL     OW51768   9.692   0.700  11.652
50581SOL    HW151769   9.737   0.610  11.649
50581SOL    HW251770   9.598   0.689  11.685
50582SOL     OW51771   9.924   0.122  11.289
50582SOL    HW151772  10.022   0.100  11.296
50582SOL    HW251773   9.893   0.105  11.196
50583SOL     OW51774  10.198   1.514  12.367
50583SOL    HW151775  10.175   1.489  12.273
50583SOL    HW251776  10.259   1.445  12.406
50584SOL     OW51777  10.113   1.402  12.096
50584SOL    HW151778  10.203   1.416  12.054
50584SOL    HW251779  10.042   1.404  12.025
50585SOL     OW51780  10.232   0.503  12.071
50585SOL    HW151781  10.207   0.494  11.975
50585SOL    HW251782  10.280   0.421  12.102
50586SOL     OW51783   9.849   0.064  11.684
50586SOL    HW151784   9.768   0.065  11.742
50586SOL    HW251785   9.852   0.147  11.629
50587SOL     OW51786  10.744   1.188  11.213
50587SOL    HW151787  10.776   1.112  11.270
50587SOL    HW251788  10.652   1.215  11.243
50588SOL     OW51789   9.607   0.035  11.343
50588SOL    HW151790   9.656   0.119  11.322
50588SOL    HW251791   9.669  -0.030  11.388
50589SOL     OW51792  10.245   0.236  11.652
50589SOL    HW151793  10.197   0.277  11.574
50589SOL    HW251794  10.344   0.234  11.633
50590SOL     OW51795  10.537   1.570  11.965
50590SOL    HW151796  10.558   1.644  11.900
50590SOL    HW251797  10.605   1.570  12.038
50591SOL     OW51798   9.769   1.152  11.913
50591SOL    HW151799   9.698   1.125  11.978
50591SOL    HW251800   9.743   1.124  11.820
50592SOL     OW51801  10.581   1.797  11.763
50592SOL    HW151802  10.625   1.861  11.699
50592SOL    HW251803  10.531   1.849  11.833
50593SOL     OW51804  10.342   0.549  11.188
50593SOL    HW151805  10.301   0.631  11.149
50593SOL    HW251806  10.406   0.575  11.261
50594SOL     OW51807   9.388   0.556  12.558
50594SOL    HW151808   9.480   0.555  12.517
50594SOL    HW251809   9.382   0.630  12.625
50595SOL     OW51810   9.871   0.222  12.319
50595SOL    HW151811   9.909   0.138  12.356
50595SOL    HW251812   9.783   0.241  12.363
50596SOL     OW51813  10.176   0.454  11.814
50596SOL    HW151814  10.144   0.526  11.752
50596SOL    HW251815  10.200   0.373  11.761
50597SOL     OW51816  10.327   0.039  11.925
50597SOL    HW151817  10.255   0.044  11.856
50597SOL    HW251818  10.303  -0.030  11.994
50598SOL     OW51819  10.739   1.173  12.039
50598SOL    HW151820  10.684   1.089  12.032
50598SOL    HW251821  10.765   1.202  11.947
50599SOL     OW51822  10.776   0.590  12.164
50599SOL    HW151823  10.746   0.495  12.171
50599SOL    HW251824  10.849   0.606  12.230
50600SOL     OW51825  11.167   0.833  11.549
50600SOL    HW151826  11.209   0.769  11.613
50600SOL    HW251827  11.129   0.782  11.471
50601SOL     OW51828   9.798   1.385  11.346
50601SOL    HW151829   9.711   1.370  11.393
50601SOL    HW251830   9.781   1.411  11.251
50602SOL     OW51831  10.974   1.280  11.829
50602SOL    HW151832  11.073   1.288  11.843
50602SOL    HW251833  10.929   1.364  11.860
50603SOL     OW51834  10.700   0.575  11.250
50603SOL    HW151835  10.646   0.554  11.331
50603SOL    HW251836  10.791   0.534  11.259
50604SOL     OW51837   9.837   0.256  11.500
50604SOL    HW151838   9.864   0.197  11.425
50604SOL    HW251839   9.837   0.351  11.469
50605SOL     OW51840  10.374   1.347  12.512
50605SOL    HW151841  10.294   1.324  12.567
50605SOL    HW251842  10.457   1.321  12.561
50606SOL     OW51843  10.421   1.195  12.272
50606SOL    HW151844  10.381   1.239  12.353
50606SOL    HW251845  10.380   1.232  12.189
50607SOL     OW51846  10.948   1.099  12.251
50607SOL    HW151847  10.953   1.180  12.310
50607SOL    HW251848  10.862   1.101  12.200
50608SOL     OW51849  10.225   0.089  12.574
50608SOL    HW151850  10.250   0.069  12.479
50608SOL    HW251851  10.297   0.145  12.616
50609SOL     OW51852  10.015   1.050  11.540
50609SOL    HW151853  10.001   1.057  11.639
50609SOL    HW251854  10.099   0.999  11.522
50610SOL     OW51855   9.720   0.813  12.423
50610SOL    HW151856   9.806   0.825  12.473
50610SOL    HW251857   9.678   0.726  12.450
50611SOL     OW51858  10.584   0.386  12.434
50611SOL    HW151859  10.605   0.460  12.498
50611SOL    HW251860  10.495   0.403  12.391
50612SOL     OW51861   9.374   1.564  12.503
50612SOL    HW151862   9.328   1.646  12.469
50612SOL    HW251863   9.472   1.583  12.512
50613SOL     OW51864   9.677   1.100  11.673
50613SOL    HW151865   9.670   1.183  11.617
50613SOL    HW251866   9.681   1.020  11.613
50614SOL     OW51867   9.876   0.537  12.037
50614SOL    HW151868   9.888   0.603  11.963
50614SOL    HW251869   9.922   0.571  12.120
50615SOL     OW51870  10.562   1.348  11.560
50615SOL    HW151871  10.612   1.425  11.600
50615SOL    HW251872  10.467   1.350  11.592
50616SOL     OW51873  10.582   1.445  12.314
50616SOL    HW151874  10.629   1.458  12.401
50616SOL    HW251875  10.516   1.371  12.323
50617SOL     OW51876  10.892   0.639  11.644
50617SOL    HW151877  10.861   0.700  11.717
50617SOL    HW251878  10.942   0.691  11.575
50618SOL     OW51879   9.664   1.510  12.501
50618SOL    HW151880   9.643   1.466  12.414
50618SOL    HW251881   9.761   1.536  12.504
50619SOL     OW51882   9.712   0.751  12.770
50619SOL    HW151883   9.780   0.806  12.723
50619SOL    HW251884   9.752   0.663  12.797
50620SOL     OW51885  10.897   0.779  12.842
50620SOL    HW151886  10.805   0.817  12.837
50620SOL    HW251887  10.957   0.826  12.777
50621SOL     OW51888   9.883   0.870  12.201
50621SOL    HW151889   9.927   0.959  12.192
50621SOL    HW251890   9.820   0.870  12.278
50622SOL     OW51891  10.670   0.862  12.217
50622SOL    HW151892  10.595   0.862  12.151
50622SOL    HW251893  10.707   0.770  12.226
50623SOL     OW51894  10.519   0.525  11.447
50623SOL    HW151895  10.532   0.441  11.501
50623SOL    HW251896  10.490   0.599  11.507
50624SOL     OW51897   9.617   0.213  12.403
50624SOL    HW151898   9.594   0.250  12.493
50624SOL    HW251899   9.587   0.118  12.397
50625SOL     OW51900   9.347   1.310  12.454
50625SOL    HW151901   9.400   1.261  12.522
50625SOL    HW251902   9.369   1.408  12.459
50626SOL     OW51903  10.042   0.634  12.236
50626SOL    HW151904  10.101   0.608  12.160
50626SOL    HW251905  10.014   0.730  12.225
50627SOL     OW51906   9.617   0.063  11.790
50627SOL    HW151907   9.606   0.157  11.823
50627SOL    HW251908   9.612   0.000  11.867
50628SOL     OW51909  10.932   0.367  11.546
50628SOL    HW151910  10.934   0.291  11.610
50628SOL    HW251911  10.884   0.444  11.586
50629SOL     OW51912  10.333   0.766  12.138
50629SOL    HW151913  10.348   0.787  12.234
50629SOL    HW251914  10.303   0.671  12.129
50630SOL     OW51915  10.290   1.573  12.872
50630SOL    HW151916  10.270   1.617  12.784
50630SOL    HW251917  10.329   1.482  12.856
50631SOL     OW51918  10.850   0.274  11.297
50631SOL    HW151919  10.789   0.199  11.320
50631SOL    HW251920  10.872   0.326  11.380
50632SOL     OW51921  10.613   0.838  11.214
50632SOL    HW151922  10.647   0.745  11.229
50632SOL    HW251923  10.631   0.865  11.119
50633SOL     OW51924  10.378   1.333  12.021
50633SOL    HW151925  10.385   1.249  11.966
50633SOL    HW251926  10.440   1.402  11.985
50634SOL     OW51927   9.629   0.810  12.121
50634SOL    HW151928   9.722   0.846  12.126
50634SOL    HW251929   9.623   0.725  12.173
50635SOL     OW51930   9.649   0.509  12.178
50635SOL    HW151931   9.597   0.426  12.161
50635SOL    HW251932   9.726   0.514  12.114
50636SOL     OW51933  10.448   0.380  12.850
50636SOL    HW151934  10.403   0.443  12.914
50636SOL    HW251935  10.541   0.411  12.833
50637SOL     OW51936  10.470   0.207  12.649
50637SOL    HW151937  10.470   0.271  12.726
50637SOL    HW251938  10.498   0.255  12.566
50638SOL     OW51939   9.318   1.326  11.372
50638SOL    HW151940   9.225   1.347  11.341
50638SOL    HW251941   9.328   1.227  11.385
50639SOL     OW51942   9.398   1.801  12.099
50639SOL    HW151943   9.356   1.715  12.072
50639SOL    HW251944   9.492   1.804  12.065
50640SOL     OW51945   9.814   1.568  12.082
50640SOL    HW151946   9.880   1.642  12.091
50640SOL    HW251947   9.858   1.489  12.040
50641SOL     OW51948  10.312   0.796  12.410
50641SOL    HW151949  10.353   0.764  12.496
50641SOL    HW251950  10.216   0.769  12.407
50642SOL     OW51951   9.350   0.544  12.286
50642SOL    HW151952   9.435   0.511  12.245
50642SOL    HW251953   9.363   0.559  12.384
50643SOL     OW51954  10.125   0.572  11.497
50643SOL    HW151955  10.132   0.483  11.451
50643SOL    HW251956  10.031   0.606  11.489
50644SOL     OW51957  10.967   0.604  12.378
50644SOL    HW151958  10.929   0.535  12.440
50644SOL    HW251959  11.049   0.568  12.334
50645SOL     OW51960   9.981   0.464  12.441
50645SOL    HW151961   9.947   0.375  12.411
50645SOL    HW251962  10.007   0.518  12.361
50646SOL     OW51963  10.240   1.678  12.637
50646SOL    HW151964  10.216   1.660  12.542
50646SOL    HW251965  10.270   1.772  12.647
50647SOL     OW51966   9.783   0.500  11.363
50647SOL    HW151967   9.844   0.580  11.367
50647SOL    HW251968   9.688   0.531  11.370
50648SOL     OW51969   9.469   1.137  12.638
50648SOL    HW151970   9.491   1.076  12.714
50648SOL    HW251971   9.479   1.088  12.552
50649SOL     OW51972  10.657   1.059  12.406
50649SOL    HW151973  10.681   0.996  12.332
50649SOL    HW251974  10.567   1.099  12.388
50650SOL     OW51975  10.612   0.855  11.481
50650SOL    HW151976  10.526   0.824  11.523
50650SOL    HW251977  10.608   0.841  11.382
50651SOL     OW51978  11.069   1.747  12.326
50651SOL    HW151979  11.130   1.777  12.253
50651SOL    HW251980  11.031   1.658  12.304
50652SOL     OW51981  10.562   1.731  12.300
50652SOL    HW151982  10.646   1.736  12.246
50652SOL    HW251983  10.539   1.635  12.318
50653SOL     OW51984   9.393   1.258  12.194
50653SOL    HW151985   9.388   1.257  12.294
50653SOL    HW251986   9.310   1.217  12.156
50654SOL     OW51987  11.036   0.135  11.695
50654SOL    HW151988  11.109   0.118  11.628
50654SOL    HW251989  11.005   0.048  11.733
50655SOL     OW51990  10.698   1.573  11.649
50655SOL    HW151991  10.765   1.585  11.575
50655SOL    HW251992  10.658   1.662  11.672
50656SOL     OW51993  10.590   0.927  11.844
50656SOL    HW151994  10.650   0.846  11.846
50656SOL    HW251995  10.630   0.996  11.784
50657SOL     OW51996   9.982   1.616  11.326
50657SOL    HW151997   9.991   1.626  11.227
50657SOL    HW251998   9.942   1.527  11.347
50658SOL     OW51999  10.960   1.720  12.566
50658SOL    HW152000  11.013   1.730  12.482
50658SOL    HW252001  10.933   1.810  12.600
50659SOL     OW52002  11.151   0.175  12.135
50659SOL    HW152003  11.190   0.090  12.099
50659SOL    HW252004  11.053   0.177  12.116
50660SOL     OW52005   9.573   0.326  11.892
50660SOL    HW152006   9.494   0.377  11.858
50660SOL    HW252007   9.564   0.311  11.990
50661SOL     OW52008  10.504   1.612  11.203
50661SOL    HW152009  10.510   1.519  11.240
50661SOL    HW252010  10.445   1.612  11.123
50662SOL     OW52011  10.132   1.002  12.544
50662SOL    HW152012  10.172   1.001  12.452
50662SOL    HW252013  10.142   1.094  12.584
50663SOL     OW52014  10.226   0.910  11.463
50663SOL    HW152015  10.289   0.948  11.395
50663SOL    HW252016  10.266   0.827  11.502
50664SOL     OW52017  10.814   1.607  11.216
50664SOL    HW152018  10.722   1.644  11.223
50664SOL    HW252019  10.852   1.627  11.126
50665SOL     OW52020   9.682   1.288  12.662
50665SOL    HW152021   9.669   1.381  12.628
50665SOL    HW252022   9.598   1.236  12.649
50666SOL     OW52023  10.924   1.292  12.461
50666SOL    HW152024  10.984   1.295  12.541
50666SOL    HW252025  10.849   1.356  12.474
50667SOL     OW52026  10.349   1.098  11.868
50667SOL    HW152027  10.279   1.051  11.922
50667SOL    HW252028  10.408   1.030  11.825
50668SOL     OW52029  10.324   0.236  12.143
50668SOL    HW152030  10.316   0.200  12.050
50668SOL    HW252031  10.322   0.160  12.208
50669SOL     OW52032   9.900   1.487  11.663
50669SOL    HW152033   9.942   1.429  11.593
50669SOL    HW252034   9.856   1.566  11.619
50670SOL     OW52035  11.019   0.385  12.553
50670SOL    HW152036  11.092   0.454  12.557
50670SOL    HW252037  11.047   0.310  12.494
50671SOL     OW52038   9.565   1.348  11.462
50671SOL    HW152039   9.469   1.349  11.435
50671SOL    HW252040   9.577   1.401  11.546
50672SOL     OW52041   9.385   0.345  11.205
50672SOL    HW152042   9.293   0.317  11.176
50672SOL    HW252043   9.416   0.422  11.149
50673SOL     OW52044  10.750   0.856  12.570
50673SOL    HW152045  10.693   0.908  12.507
50673SOL    HW252046  10.846   0.868  12.546
50674SOL     OW52047   9.382   0.166  11.490
50674SOL    HW152048   9.365   0.249  11.436
50674SOL    HW252049   9.472   0.129  11.468
50675SOL     OW52050  10.493   1.335  11.291
50675SOL    HW152051  10.394   1.324  11.293
50675SOL    HW252052  10.527   1.350  11.384
50676SOL     OW52053   9.923   0.842  12.603
50676SOL    HW152054   9.979   0.923  12.586
50676SOL    HW252055   9.982   0.762  12.606
50677SOL     OW52056  10.803   1.767  12.131
50677SOL    HW152057  10.836   1.831  12.062
50677SOL    HW252058  10.869   1.761  12.206
50678SOL     OW52059   9.700   1.741  12.732
50678SOL    HW152060   9.609   1.782  12.730
50678SOL    HW252061   9.693   1.647  12.764
50679SOL     OW52062  10.984   0.883  12.426
50679SOL    HW152063  10.957   0.794  12.389
50679SOL    HW252064  10.985   0.951  12.353
50680SOL     OW52065  10.535   0.325  11.621
50680SOL    HW152066  10.600   0.251  11.610
50680SOL    HW252067  10.555   0.375  11.705
50681SOL     OW52068  11.087   0.342  12.814
50681SOL    HW152069  11.070   0.373  12.720
50681SOL    HW252070  11.003   0.305  12.852
50682SOL     OW52071  10.169   1.374  11.188
50682SOL    HW152072  10.123   1.389  11.276
50682SOL    HW252073  10.213   1.459  11.158
50683SOL     OW52074   9.971   1.790  12.125
50683SOL    HW152075   9.925   1.878  12.112
50683SOL    HW252076  10.070   1.802  12.118
50684SOL     OW52077  10.169   0.956  12.033
50684SOL    HW152078  10.223   0.887  12.081
50684SOL    HW252079  10.137   1.025  12.099
50685SOL     OW52080  10.393   0.984  11.259
50685SOL    HW152081  10.370   1.037  11.177
50685SOL    HW252082  10.474   0.928  11.240
50686SOL     OW52083  11.171   1.569  12.023
50686SOL    HW152084  11.100   1.557  11.953
50686SOL    HW252085  11.172   1.490  12.083
50687SOL     OW52086   9.389   1.240  11.825
50687SOL    HW152087   9.388   1.193  11.913
50687SOL    HW252088   9.471   1.212  11.774
50688SOL     OW52089  11.134   0.192  12.399
50688SOL    HW152090  11.130   0.102  12.443
50688SOL    HW252091  11.137   0.181  12.300
50689SOL     OW52092   9.738   0.424  11.692
50689SOL    HW152093   9.768   0.352  11.630
50689SOL    HW252094   9.699   0.384  11.775
50690SOL     OW52095  11.015   1.487  12.276
50690SOL    HW152096  10.922   1.462  12.249
50690SOL    HW252097  11.041   1.437  12.358
50691SOL     OW52098   9.627   0.547  12.452
50691SOL    HW152099   9.665   0.488  12.524
50691SOL    HW252100   9.667   0.521  12.364
50692SOL     OW52101  10.122   1.586  11.859
50692SOL    HW152102  10.154   1.596  11.765
50692SOL    HW252103  10.043   1.524  11.861
50693SOL     OW52104  10.734   0.214  12.284
50693SOL    HW152105  10.786   0.149  12.339
50693SOL    HW252106  10.685   0.277  12.345
50694SOL     OW52107  10.311   0.034  12.326
50694SOL    HW152108  10.248  -0.038  12.295
50694SOL    HW252109  10.404  -0.002  12.326
50695SOL     OW52110  10.080   1.330  11.473
50695SOL    HW152111  10.034   1.243  11.490
50695SOL    HW252112  10.171   1.327  11.514
50696SOL     OW52113   9.928   1.567  12.456
50696SOL    HW152114   9.923   1.649  12.513
50696SOL    HW252115  10.017   1.564  12.411
50697SOL     OW52116  10.662   0.052  11.340
50697SOL    HW152117  10.697   0.011  11.256
50697SOL    HW252118  10.572   0.014  11.360
50698SOL     OW52119  10.610   0.453  11.863
50698SOL    HW152120  10.551   0.533  11.867
50698SOL    HW252121  10.625   0.418  11.956
50699SOL     OW52122  10.903   0.221  12.054
50699SOL    HW152123  10.819   0.220  12.108
50699SOL    HW252124  10.905   0.304  11.998
50700SOL     OW52125   9.349   1.077  11.472
50700SOL    HW152126   9.448   1.066  11.463
50700SOL    HW252127   9.309   0.991  11.504
50701SOL     OW52128  10.185   1.646  11.509
50701SOL    HW152129  10.108   1.611  11.455
50701SOL    HW252130  10.153   1.717  11.571
50702SOL     OW52131   9.540   2.490   0.113
50702SOL    HW152132   9.447   2.488   0.150
50702SOL    HW252133   9.541   2.451   0.021
50703SOL     OW52134   9.535   2.137   0.996
50703SOL    HW152135   9.570   2.120   1.088
50703SOL    HW252136   9.447   2.092   0.984
50704SOL     OW52137   9.329   2.230   0.647
50704SOL    HW152138   9.247   2.273   0.686
50704SOL    HW252139   9.301   2.157   0.584
50705SOL     OW52140   9.879   3.137   1.165
50705SOL    HW152141   9.786   3.130   1.128
50705SOL    HW252142   9.890   3.226   1.209
50706SOL     OW52143  10.865   3.373   0.703
50706SOL    HW152144  10.808   3.357   0.784
50706SOL    HW252145  10.806   3.383   0.623
50707SOL     OW52146  10.445   2.565   0.717
50707SOL    HW152147  10.502   2.643   0.692
50707SOL    HW252148  10.385   2.591   0.793
50708SOL     OW52149  11.065   2.469   0.231
50708SOL    HW152150  11.053   2.456   0.132
50708SOL    HW252151  11.035   2.388   0.280
50709SOL     OW52152  10.078   3.006   1.023
50709SOL    HW152153  10.000   3.023   1.083
50709SOL    HW252154  10.112   3.093   0.987
50710SOL     OW52155  10.160   2.660   1.823
50710SOL    HW152156  10.156   2.736   1.888
50710SOL    HW252157  10.182   2.696   1.732
50711SOL     OW52158   9.995   2.874   0.665
50711SOL    HW152159  10.064   2.858   0.735
50711SOL    HW252160   9.922   2.931   0.703
50712SOL     OW52161   9.996   3.023   1.803
50712SOL    HW152162  10.056   3.102   1.817
50712SOL    HW252163   9.910   3.054   1.762
50713SOL     OW52164   9.645   3.297   1.061
50713SOL    HW152165   9.567   3.266   1.008
50713SOL    HW252166   9.703   3.355   1.004
50714SOL     OW52167  10.770   3.367   1.339
50714SOL    HW152168  10.794   3.461   1.365
50714SOL    HW252169  10.754   3.313   1.421
50715SOL     OW52170   9.748   2.254   1.499
50715SOL    HW152171   9.830   2.198   1.508
50715SOL    HW252172   9.667   2.196   1.503
50716SOL     OW52173  10.913   2.309   0.737
50716SOL    HW152174  10.839   2.355   0.687
50716SOL    HW252175  10.964   2.377   0.790
50717SOL     OW52176   9.541   3.575   0.483
50717SOL    HW152177   9.575   3.652   0.537
50717SOL    HW252178   9.585   3.575   0.393
50718SOL     OW52179  10.437   3.203   1.690
50718SOL    HW152180  10.484   3.203   1.778
50718SOL    HW252181  10.389   3.116   1.679
50719SOL     OW52182   9.540   3.296   0.538
50719SOL    HW152183   9.514   3.392   0.538
50719SOL    HW252184   9.469   3.242   0.583
50720SOL     OW52185   9.550   2.953   0.886
50720SOL    HW152186   9.564   2.869   0.938
50720SOL    HW252187   9.495   3.017   0.941
50721SOL     OW52188   9.930   3.648   1.439
50721SOL    HW152189   9.838   3.631   1.474
50721SOL    HW252190   9.958   3.740   1.465
50722SOL     OW52191   9.916   2.826   0.123
50722SOL    HW152192   9.923   2.910   0.069
50722SOL    HW252193   9.962   2.839   0.211
50723SOL     OW52194  10.904   1.976   1.480
50723SOL    HW152195  10.886   2.043   1.408
50723SOL    HW252196  10.901   2.022   1.569
50724SOL     OW52197   9.432   2.505   0.563
50724SOL    HW152198   9.387   2.417   0.580
50724SOL    HW252199   9.431   2.559   0.647
50725SOL     OW52200  11.152   3.629   0.359
50725SOL    HW152201  11.206   3.600   0.439
50725SOL    HW252202  11.182   3.719   0.330
50726SOL     OW52203   9.337   3.458   0.117
50726SOL    HW152204   9.318   3.362   0.138
50726SOL    HW252205   9.304   3.516   0.192
50727SOL     OW52206  10.999   2.784   0.612
50727SOL    HW152207  11.094   2.755   0.620
50727SOL    HW252208  10.991   2.849   0.537
50728SOL     OW52209  10.951   2.970   0.432
50728SOL    HW152210  11.037   2.972   0.380
50728SOL    HW252211  10.965   3.017   0.520
50729SOL     OW52212   9.423   2.599   1.597
50729SOL    HW152213   9.511   2.586   1.642
50729SOL    HW252214   9.410   2.696   1.575
50730SOL     OW52215   9.923   3.227   0.726
50730SOL    HW152216   9.874   3.140   0.735
50730SOL    HW252217   9.900   3.270   0.639
50731SOL     OW52218  10.603   3.090   1.423
50731SOL    HW152219  10.640   3.017   1.365
50731SOL    HW252220  10.655   3.095   1.508
50732SOL     OW52221  10.119   1.866   0.502
50732SOL    HW152222  10.159   1.957   0.493
50732SOL    HW252223  10.019   1.874   0.508
50733SOL     OW52224   9.507   2.838   1.264
50733SOL    HW152225   9.596   2.793   1.250
50733SOL    HW252226   9.434   2.773   1.245
50734SOL     OW52227  10.835   2.861   0.190
50734SOL    HW152228  10.772   2.785   0.203
50734SOL    HW252229  10.883   2.879   0.276
50735SOL     OW52230  10.497   3.654   1.616
50735SOL    HW152231  10.521   3.714   1.540
50735SOL    HW252232  10.504   3.559   1.586
50736SOL     OW52233   9.627   2.113   1.801
50736SOL    HW152234   9.698   2.184   1.807
50736SOL    HW252235   9.539   2.152   1.829
50737SOL     OW52236  10.776   3.279   0.953
50737SOL    HW152237  10.717   3.285   1.033
50737SOL    HW252238  10.761   3.191   0.907
50738SOL     OW52239  10.977   3.576   0.572
50738SOL    HW152240  10.936   3.553   0.484
50738SOL    HW252241  10.959   3.502   0.637
50739SOL     OW52242   9.908   2.591   0.270
50739SOL    HW152243   9.932   2.660   0.202
50739SOL    HW252244   9.830   2.624   0.324
50740SOL     OW52245  10.591   2.207   0.944
50740SOL    HW152246  10.505   2.157   0.931
50740SOL    HW252247  10.653   2.153   1.000
50741SOL     OW52248  10.886   3.524   0.307
50741SOL    HW152249  10.975   3.570   0.310
50741SOL    HW252250  10.865   3.500   0.212
50742SOL     OW52251  10.117   2.467   1.465
50742SOL    HW152252  10.070   2.464   1.554
50742SOL    HW252253  10.066   2.412   1.399
50743SOL     OW52254  10.704   2.331   1.674
50743SOL    HW152255  10.684   2.374   1.762
50743SOL    HW252256  10.782   2.269   1.683
50744SOL     OW52257  10.283   2.752   1.572
50744SOL    HW152258  10.329   2.668   1.543
50744SOL    HW252259  10.227   2.786   1.497
50745SOL     OW52260  10.301   2.272   1.242
50745SOL    HW152261  10.224   2.306   1.296
50745SOL    HW252262  10.267   2.221   1.163
50746SOL     OW52263  10.351   2.563   0.429
50746SOL    HW152264  10.377   2.559   0.525
50746SOL    HW252265  10.266   2.512   0.415
50747SOL     OW52266   9.386   2.673   0.789
50747SOL    HW152267   9.485   2.661   0.798
50747SOL    HW252268   9.362   2.768   0.810
50748SOL     OW52269   9.440   3.683   1.571
50748SOL    HW152270   9.430   3.668   1.670
50748SOL    HW252271   9.354   3.719   1.535
50749SOL     OW52272  10.175   2.210   0.195
50749SOL    HW152273  10.234   2.273   0.146
50749SOL    HW252274  10.194   2.116   0.166
50750SOL     OW52275  11.029   2.447   1.831
50750SOL    HW152276  11.003   2.536   1.795
50750SOL    HW252277  11.027   2.379   1.758
50751SOL     OW52278  10.672   3.006   0.545
50751SOL    HW152279  10.755   2.977   0.497
50751SOL    HW252280  10.623   3.073   0.489
50752SOL     OW52281   9.860   2.058   0.885
50752SOL    HW152282   9.855   2.053   0.985
50752SOL    HW252283   9.862   2.154   0.856
50753SOL     OW52284  10.318   3.318   0.477
50753SOL    HW152285  10.272   3.390   0.425
50753SOL    HW252286  10.314   3.338   0.575
50754SOL     OW52287   9.661   3.663   0.853
50754SOL    HW152288   9.711   3.577   0.859
50754SOL    HW252289   9.726   3.740   0.850
50755SOL     OW52290  11.105   2.928   0.873
50755SOL    HW152291  11.043   2.913   0.797
50755SOL    HW252292  11.053   2.939   0.958
50756SOL     OW52293  10.537   3.412   1.506
50756SOL    HW152294  10.543   3.335   1.570
50756SOL    HW252295  10.485   3.386   1.426
50757SOL     OW52296   9.631   2.805   0.242
50757SOL    HW152297   9.713   2.844   0.200
50757SOL    HW252298   9.604   2.723   0.193
50758SOL     OW52299  10.768   2.597   0.728
50758SOL    HW152300  10.763   2.532   0.803
50758SOL    HW252301  10.848   2.656   0.741
50759SOL     OW52302   9.771   3.128   1.727
50759SOL    HW152303   9.721   3.129   1.641
50759SOL    HW252304   9.708   3.110   1.803
50760SOL     OW52305  10.421   3.638   0.237
50760SOL    HW152306  10.361   3.576   0.287
50760SOL    HW252307  10.452   3.594   0.152
50761SOL     OW52308   9.512   2.147   1.498
50761SOL    HW152309   9.432   2.207   1.485
50761SOL    HW252310   9.502   2.098   1.584
50762SOL     OW52311  10.942   3.239   0.081
50762SOL    HW152312  10.910   3.333   0.071
50762SOL    HW252313  10.866   3.176   0.069
50763SOL     OW52314   9.774   3.605   0.323
50763SOL    HW152315   9.807   3.644   0.409
50763SOL    HW252316   9.850   3.598   0.258
50764SOL     OW52317  10.710   1.969   0.426
50764SOL    HW152318  10.686   1.932   0.336
50764SOL    HW252319  10.809   1.985   0.430
50765SOL     OW52320   9.559   3.647   1.241
50765SOL    HW152321   9.616   3.582   1.291
50765SOL    HW252322   9.543   3.614   1.148
50766SOL     OW52323  10.250   3.560   0.904
50766SOL    HW152324  10.330   3.503   0.925
50766SOL    HW252325  10.201   3.520   0.827
50767SOL     OW52326   9.692   2.562   0.480
50767SOL    HW152327   9.737   2.472   0.477
50767SOL    HW252328   9.598   2.551   0.513
50768SOL     OW52329  10.857   2.084   1.729
50768SOL    HW152330  10.852   2.121   1.821
50768SOL    HW252331  10.785   2.015   1.717
50769SOL     OW52332   9.924   1.984   0.117
50769SOL    HW152333  10.022   1.962   0.124
50769SOL    HW252334   9.893   1.967   0.024
50770SOL     OW52335  10.091   2.126   1.749
50770SOL    HW152336  10.158   2.065   1.792
50770SOL    HW252337  10.018   2.145   1.814
50771SOL     OW52338  10.198   3.376   1.195
50771SOL    HW152339  10.175   3.351   1.101
50771SOL    HW252340  10.259   3.307   1.234
50772SOL     OW52341  10.661   2.452   1.433
50772SOL    HW152342  10.689   2.409   1.518
50772SOL    HW252343  10.686   2.548   1.434
50773SOL     OW52344  10.113   3.264   0.924
50773SOL    HW152345  10.203   3.278   0.882
50773SOL    HW252346  10.042   3.266   0.853
50774SOL     OW52347  10.232   2.365   0.899
50774SOL    HW152348  10.207   2.356   0.803
50774SOL    HW252349  10.280   2.283   0.930
50775SOL     OW52350   9.849   1.926   0.512
50775SOL    HW152351   9.768   1.927   0.570
50775SOL    HW252352   9.852   2.009   0.457
50776SOL     OW52353  10.744   3.050   0.041
50776SOL    HW152354  10.776   2.974   0.098
50776SOL    HW252355  10.652   3.077   0.071
50777SOL     OW52356   9.607   1.897   0.171
50777SOL    HW152357   9.656   1.981   0.150
50777SOL    HW252358   9.669   1.832   0.216
50778SOL     OW52359  10.245   2.098   0.480
50778SOL    HW152360  10.197   2.139   0.402
50778SOL    HW252361  10.344   2.096   0.461
50779SOL     OW52362  10.386   2.545   1.464
50779SOL    HW152363  10.306   2.484   1.467
50779SOL    HW252364  10.467   2.492   1.440
50780SOL     OW52365  10.537   3.432   0.793
50780SOL    HW152366  10.558   3.506   0.728
50780SOL    HW252367  10.605   3.432   0.866
50781SOL     OW52368   9.769   3.014   0.741
50781SOL    HW152369   9.698   2.987   0.806
50781SOL    HW252370   9.743   2.986   0.648
50782SOL     OW52371  10.581   3.659   0.591
50782SOL    HW152372  10.625   3.723   0.527
50782SOL    HW252373  10.531   3.711   0.661
50783SOL     OW52374  10.342   2.411   0.016
50783SOL    HW152375  10.301   2.493  -0.023
50783SOL    HW252376  10.406   2.437   0.089
50784SOL     OW52377   9.388   2.418   1.386
50784SOL    HW152378   9.480   2.417   1.345
50784SOL    HW252379   9.382   2.492   1.453
50785SOL     OW52380   9.871   2.084   1.147
50785SOL    HW152381   9.909   2.000   1.184
50785SOL    HW252382   9.783   2.103   1.191
50786SOL     OW52383  10.176   2.316   0.642
50786SOL    HW152384  10.144   2.388   0.580
50786SOL    HW252385  10.200   2.235   0.589
50787SOL     OW52386  10.327   1.901   0.753
50787SOL    HW152387  10.255   1.906   0.684
50787SOL    HW252388  10.303   1.832   0.822
50788SOL     OW52389  10.739   3.035   0.867
50788SOL    HW152390  10.684   2.951   0.860
50788SOL    HW252391  10.765   3.064   0.775
50789SOL     OW52392  10.776   2.452   0.992
50789SOL    HW152393  10.746   2.357   0.999
50789SOL    HW252394  10.849   2.468   1.058
50790SOL     OW52395  11.167   2.695   0.377
50790SOL    HW152396  11.209   2.631   0.441
50790SOL    HW252397  11.129   2.644   0.299
50791SOL     OW52398   9.798   3.247   0.174
50791SOL    HW152399   9.711   3.232   0.221
50791SOL    HW252400   9.781   3.273   0.079
50792SOL     OW52401  10.974   3.142   0.657
50792SOL    HW152402  11.073   3.150   0.671
50792SOL    HW252403  10.929   3.226   0.688
50793SOL     OW52404  10.700   2.437   0.078
50793SOL    HW152405  10.646   2.416   0.159
50793SOL    HW252406  10.791   2.396   0.087
50794SOL     OW52407   9.837   2.118   0.328
50794SOL    HW152408   9.864   2.059   0.253
50794SOL    HW252409   9.837   2.213   0.297
50795SOL     OW52410  11.064   3.085   1.588
50795SOL    HW152411  11.155   3.046   1.575
50795SOL    HW252412  11.072   3.181   1.612
50796SOL     OW52413  10.374   3.209   1.340
50796SOL    HW152414  10.294   3.186   1.395
50796SOL    HW252415  10.457   3.183   1.389
50797SOL     OW52416  10.902   3.491   1.625
50797SOL    HW152417  10.929   3.525   1.535
50797SOL    HW252418  10.981   3.453   1.671
50798SOL     OW52419  10.421   3.057   1.100
50798SOL    HW152420  10.381   3.101   1.181
50798SOL    HW252421  10.380   3.094   1.017
50799SOL     OW52422  10.948   2.961   1.079
50799SOL    HW152423  10.953   3.042   1.138
50799SOL    HW252424  10.862   2.963   1.028
50800SOL     OW52425  10.225   1.951   1.402
50800SOL    HW152426  10.250   1.931   1.307
50800SOL    HW252427  10.297   2.007   1.444
50801SOL     OW52428  10.290   2.978   1.719
50801SOL    HW152429  10.191   2.984   1.729
50801SOL    HW252430  10.313   2.898   1.663
50802SOL     OW52431  10.015   2.912   0.368
50802SOL    HW152432  10.001   2.919   0.467
50802SOL    HW252433  10.099   2.861   0.350
50803SOL     OW52434   9.720   2.675   1.251
50803SOL    HW152435   9.806   2.687   1.301
50803SOL    HW252436   9.678   2.588   1.278
50804SOL     OW52437  10.584   2.248   1.262
50804SOL    HW152438  10.605   2.322   1.326
50804SOL    HW252439  10.495   2.265   1.219
50805SOL     OW52440   9.374   3.426   1.331
50805SOL    HW152441   9.328   3.508   1.297
50805SOL    HW252442   9.472   3.445   1.340
50806SOL     OW52443   9.677   2.962   0.501
50806SOL    HW152444   9.670   3.045   0.445
50806SOL    HW252445   9.681   2.882   0.441
50807SOL     OW52446   9.876   2.399   0.865
50807SOL    HW152447   9.888   2.465   0.791
50807SOL    HW252448   9.922   2.433   0.948
50808SOL     OW52449  10.562   3.210   0.388
50808SOL    HW152450  10.612   3.287   0.428
50808SOL    HW252451  10.467   3.212   0.420
50809SOL     OW52452  10.582   3.307   1.142
50809SOL    HW152453  10.629   3.320   1.229
50809SOL    HW252454  10.516   3.233   1.151
50810SOL     OW52455  10.892   2.501   0.472
50810SOL    HW152456  10.861   2.562   0.545
50810SOL    HW252457  10.942   2.553   0.403
50811SOL     OW52458   9.664   3.372   1.329
50811SOL    HW152459   9.643   3.328   1.242
50811SOL    HW252460   9.761   3.398   1.332
50812SOL     OW52461   9.712   2.613   1.598
50812SOL    HW152462   9.780   2.668   1.551
50812SOL    HW252463   9.752   2.525   1.625
50813SOL     OW52464  10.897   2.641   1.670
50813SOL    HW152465  10.805   2.679   1.665
50813SOL    HW252466  10.957   2.688   1.605
50814SOL     OW52467  10.323   1.967   1.770
50814SOL    HW152468  10.329   2.052   1.718
50814SOL    HW252469  10.355   1.891   1.713
50815SOL     OW52470   9.814   1.912   1.740
50815SOL    HW152471   9.772   1.855   1.670
50815SOL    HW252472   9.748   1.981   1.772
50816SOL     OW52473   9.883   2.732   1.029
50816SOL    HW152474   9.927   2.821   1.020
50816SOL    HW252475   9.820   2.732   1.106
50817SOL     OW52476  10.670   2.724   1.045
50817SOL    HW152477  10.595   2.724   0.979
50817SOL    HW252478  10.707   2.632   1.054
50818SOL     OW52479  10.519   2.387   0.275
50818SOL    HW152480  10.532   2.303   0.329
50818SOL    HW252481  10.490   2.461   0.335
50819SOL     OW52482   9.617   2.075   1.231
50819SOL    HW152483   9.594   2.112   1.321
50819SOL    HW252484   9.587   1.980   1.225
50820SOL     OW52485   9.347   3.172   1.282
50820SOL    HW152486   9.400   3.123   1.350
50820SOL    HW252487   9.369   3.270   1.287
50821SOL     OW52488  10.042   2.496   1.064
50821SOL    HW152489  10.101   2.470   0.988
50821SOL    HW252490  10.014   2.592   1.053
50822SOL     OW52491  11.038   2.797   1.854
50822SOL    HW152492  10.992   2.790   1.765
50822SOL    HW252493  10.976   2.841   1.920
50823SOL     OW52494   9.617   1.925   0.618
50823SOL    HW152495   9.606   2.019   0.651
50823SOL    HW252496   9.612   1.862   0.695
50824SOL     OW52497  10.932   2.229   0.374
50824SOL    HW152498  10.934   2.153   0.438
50824SOL    HW252499  10.884   2.306   0.414
50825SOL     OW52500  10.333   2.628   0.966
50825SOL    HW152501  10.348   2.649   1.062
50825SOL    HW252502  10.303   2.533   0.957
50826SOL     OW52503  10.290   3.435   1.700
50826SOL    HW152504  10.270   3.479   1.612
50826SOL    HW252505  10.329   3.344   1.684
50827SOL     OW52506  11.169   3.380   1.605
50827SOL    HW152507  11.183   3.407   1.510
50827SOL    HW252508  11.252   3.402   1.658
50828SOL     OW52509   9.660   2.760   1.804
50828SOL    HW152510   9.736   2.804   1.852
50828SOL    HW252511   9.695   2.713   1.722
50829SOL     OW52512  10.850   2.136   0.125
50829SOL    HW152513  10.789   2.061   0.148
50829SOL    HW252514  10.872   2.188   0.208
50830SOL     OW52515  10.613   2.700   0.042
50830SOL    HW152516  10.647   2.607   0.057
50830SOL    HW252517  10.631   2.727  -0.053
50831SOL     OW52518  10.378   3.195   0.849
50831SOL    HW152519  10.385   3.111   0.794
50831SOL    HW252520  10.440   3.264   0.813
50832SOL     OW52521   9.629   2.672   0.949
50832SOL    HW152522   9.722   2.708   0.954
50832SOL    HW252523   9.623   2.587   1.001
50833SOL     OW52524   9.649   2.371   1.006
50833SOL    HW152525   9.597   2.288   0.989
50833SOL    HW252526   9.726   2.376   0.942
50834SOL     OW52527  10.448   2.242   1.678
50834SOL    HW152528  10.403   2.305   1.742
50834SOL    HW252529  10.541   2.273   1.661
50835SOL     OW52530  10.470   2.069   1.477
50835SOL    HW152531  10.470   2.133   1.554
50835SOL    HW252532  10.498   2.117   1.394
50836SOL     OW52533   9.318   3.188   0.200
50836SOL    HW152534   9.225   3.209   0.169
50836SOL    HW252535   9.328   3.089   0.213
50837SOL     OW52536   9.398   3.663   0.927
50837SOL    HW152537   9.356   3.577   0.900
50837SOL    HW252538   9.492   3.666   0.893
50838SOL     OW52539   9.814   3.430   0.910
50838SOL    HW152540   9.880   3.504   0.919
50838SOL    HW252541   9.858   3.351   0.868
50839SOL     OW52542  10.312   2.658   1.238
50839SOL    HW152543  10.353   2.626   1.324
50839SOL    HW252544  10.216   2.631   1.235
50840SOL     OW52545   9.350   2.406   1.114
50840SOL    HW152546   9.435   2.373   1.073
50840SOL    HW252547   9.363   2.421   1.212
50841SOL     OW52548   9.499   2.382   1.722
50841SOL    HW152549   9.558   2.342   1.652
50841SOL    HW252550   9.441   2.453   1.681
50842SOL     OW52551  10.679   2.812   1.660
50842SOL    HW152552  10.718   2.901   1.680
50842SOL    HW252553  10.689   2.792   1.563
50843SOL     OW52554  10.125   2.434   0.325
50843SOL    HW152555  10.132   2.345   0.279
50843SOL    HW252556  10.031   2.468   0.317
50844SOL     OW52557  10.967   2.466   1.206
50844SOL    HW152558  10.929   2.397   1.268
50844SOL    HW252559  11.049   2.430   1.162
50845SOL     OW52560   9.562   3.426   1.744
50845SOL    HW152561   9.532   3.483   1.820
50845SOL    HW252562   9.555   3.329   1.770
50846SOL     OW52563   9.981   2.326   1.269
50846SOL    HW152564   9.947   2.237   1.239
50846SOL    HW252565  10.007   2.380   1.189
50847SOL     OW52566  10.240   3.540   1.465
50847SOL    HW152567  10.216   3.522   1.370
50847SOL    HW252568  10.270   3.634   1.475
50848SOL     OW52569   9.783   2.362   0.191
50848SOL    HW152570   9.844   2.442   0.195
50848SOL    HW252571   9.688   2.393   0.198
50849SOL     OW52572   9.469   2.999   1.466
50849SOL    HW152573   9.491   2.938   1.542
50849SOL    HW252574   9.479   2.950   1.380
50850SOL     OW52575  10.657   2.921   1.234
50850SOL    HW152576  10.681   2.858   1.160
50850SOL    HW252577  10.567   2.961   1.216
50851SOL     OW52578  10.612   2.717   0.309
50851SOL    HW152579  10.526   2.686   0.351
50851SOL    HW252580  10.608   2.703   0.210
50852SOL     OW52581  11.069   3.609   1.154
50852SOL    HW152582  11.130   3.639   1.081
50852SOL    HW252583  11.031   3.520   1.132
50853SOL     OW52584  10.562   3.593   1.128
50853SOL    HW152585  10.646   3.598   1.074
50853SOL    HW252586  10.539   3.497   1.146
50854SOL     OW52587   9.393   3.120   1.022
50854SOL    HW152588   9.388   3.119   1.122
50854SOL    HW252589   9.310   3.079   0.984
50855SOL     OW52590   9.998   3.524   1.716
50855SOL    HW152591   9.942   3.605   1.725
50855SOL    HW252592  10.050   3.528   1.630
50856SOL     OW52593  10.213   1.948   0.133
50856SOL    HW152594  10.264   1.949   0.047
50856SOL    HW252595  10.269   1.906   0.204
50857SOL     OW52596  10.698   3.435   0.477
50857SOL    HW152597  10.765   3.447   0.403
50857SOL    HW252598  10.658   3.524   0.500
50858SOL     OW52599   9.440   3.656   1.851
50858SOL    HW152600   9.399   3.582   1.904
50858SOL    HW252601   9.504   3.707   1.909
50859SOL     OW52602  10.590   2.789   0.672
50859SOL    HW152603  10.650   2.708   0.674
50859SOL    HW252604  10.630   2.858   0.612
50860SOL     OW52605  10.140   3.135   1.422
50860SOL    HW152606  10.135   3.168   1.517
50860SOL    HW252607  10.054   3.154   1.376
50861SOL     OW52608   9.982   3.478   0.154
50861SOL    HW152609   9.991   3.488   0.055
50861SOL    HW252610   9.942   3.389   0.175
50862SOL     OW52611  10.960   3.582   1.394
50862SOL    HW152612  11.013   3.592   1.310
50862SOL    HW252613  10.933   3.672   1.428
50863SOL     OW52614  11.151   2.037   0.963
50863SOL    HW152615  11.190   1.952   0.927
50863SOL    HW252616  11.053   2.039   0.944
50864SOL     OW52617   9.573   2.188   0.720
50864SOL    HW152618   9.494   2.239   0.686
50864SOL    HW252619   9.564   2.173   0.818
50865SOL     OW52620  10.504   3.474   0.031
50865SOL    HW152621  10.510   3.381   0.068
50865SOL    HW252622  10.445   3.474  -0.049
50866SOL     OW52623  10.132   2.864   1.372
50866SOL    HW152624  10.172   2.863   1.280
50866SOL    HW252625  10.142   2.956   1.412
50867SOL     OW52626  10.226   2.772   0.291
50867SOL    HW152627  10.289   2.810   0.223
50867SOL    HW252628  10.266   2.689   0.330
50868SOL     OW52629  10.814   3.469   0.044
50868SOL    HW152630  10.722   3.506   0.051
50868SOL    HW252631  10.852   3.489  -0.046
50869SOL     OW52632   9.682   3.150   1.490
50869SOL    HW152633   9.669   3.243   1.456
50869SOL    HW252634   9.598   3.098   1.477
50870SOL     OW52635  10.924   3.154   1.289
50870SOL    HW152636  10.984   3.157   1.369
50870SOL    HW252637  10.849   3.218   1.302
50871SOL     OW52638  10.349   2.960   0.696
50871SOL    HW152639  10.279   2.913   0.750
50871SOL    HW252640  10.408   2.892   0.653
50872SOL     OW52641   9.900   3.349   0.491
50872SOL    HW152642   9.942   3.291   0.421
50872SOL    HW252643   9.856   3.428   0.447
50873SOL     OW52644  11.019   2.247   1.381
50873SOL    HW152645  11.092   2.316   1.385
50873SOL    HW252646  11.047   2.172   1.322
50874SOL     OW52647   9.565   3.210   0.290
50874SOL    HW152648   9.469   3.211   0.263
50874SOL    HW252649   9.577   3.263   0.374
50875SOL     OW52650   9.415   2.875   1.726
50875SOL    HW152651   9.338   2.842   1.780
50875SOL    HW252652   9.500   2.845   1.768
50876SOL     OW52653   9.982   2.065   1.489
50876SOL    HW152654  10.072   2.049   1.449
50876SOL    HW252655   9.990   2.070   1.588
50877SOL     OW52656  10.750   2.718   1.398
50877SOL    HW152657  10.693   2.770   1.335
50877SOL    HW252658  10.846   2.730   1.374
50878SOL     OW52659   9.382   2.028   0.318
50878SOL    HW152660   9.365   2.111   0.264
50878SOL    HW252661   9.472   1.991   0.296
50879SOL     OW52662  10.493   3.197   0.119
50879SOL    HW152663  10.394   3.186   0.121
50879SOL    HW252664  10.527   3.212   0.212
50880SOL     OW52665   9.923   2.704   1.431
50880SOL    HW152666   9.979   2.785   1.414
50880SOL    HW252667   9.982   2.624   1.434
50881SOL     OW52668  10.803   3.629   0.959
50881SOL    HW152669  10.836   3.693   0.890
50881SOL    HW252670  10.869   3.623   1.034
50882SOL     OW52671  10.026   2.427   1.708
50882SOL    HW152672  10.045   2.492   1.782
50882SOL    HW252673  10.086   2.347   1.717
50883SOL     OW52674  10.760   3.082   1.633
50883SOL    HW152675  10.751   3.072   1.732
50883SOL    HW252676  10.856   3.075   1.607
50884SOL     OW52677   9.700   3.603   1.560
50884SOL    HW152678   9.609   3.644   1.558
50884SOL    HW252679   9.693   3.509   1.592
50885SOL     OW52680  10.984   2.745   1.254
50885SOL    HW152681  10.957   2.656   1.217
50885SOL    HW252682  10.985   2.813   1.181
50886SOL     OW52683  10.535   2.187   0.449
50886SOL    HW152684  10.600   2.113   0.438
50886SOL    HW252685  10.555   2.237   0.533
50887SOL     OW52686   9.904   2.607   0.652
50887SOL    HW152687   9.954   2.692   0.633
50887SOL    HW252688   9.816   2.609   0.604
50888SOL     OW52689  11.087   2.204   1.642
50888SOL    HW152690  11.070   2.235   1.548
50888SOL    HW252691  11.003   2.167   1.680
50889SOL     OW52692  11.040   2.796   1.517
50889SOL    HW152693  11.078   2.887   1.532
50889SOL    HW252694  11.032   2.779   1.418
50890SOL     OW52695  10.169   3.236   0.016
50890SOL    HW152696  10.123   3.251   0.104
50890SOL    HW252697  10.213   3.321  -0.014
50891SOL     OW52698   9.971   3.652   0.953
50891SOL    HW152699   9.925   3.740   0.940
50891SOL    HW252700  10.070   3.664   0.946
50892SOL     OW52701  10.169   2.818   0.861
50892SOL    HW152702  10.223   2.749   0.909
50892SOL    HW252703  10.137   2.887   0.927
50893SOL     OW52704  10.393   2.846   0.087
50893SOL    HW152705  10.370   2.899   0.005
50893SOL    HW252706  10.474   2.790   0.068
50894SOL     OW52707  11.171   3.431   0.851
50894SOL    HW152708  11.100   3.419   0.781
50894SOL    HW252709  11.172   3.352   0.911
50895SOL     OW52710   9.531   3.176   1.844
50895SOL    HW152711   9.466   3.103   1.823
50895SOL    HW252712   9.535   3.190   1.942
50896SOL     OW52713   9.389   3.102   0.653
50896SOL    HW152714   9.388   3.055   0.741
50896SOL    HW252715   9.471   3.074   0.602
50897SOL     OW52716   9.982   3.253   1.624
50897SOL    HW152717   9.904   3.203   1.662
50897SOL    HW252718   9.979   3.348   1.655
50898SOL     OW52719  11.134   2.054   1.227
50898SOL    HW152720  11.130   1.964   1.271
50898SOL    HW252721  11.137   2.043   1.128
50899SOL     OW52722   9.738   2.286   0.520
50899SOL    HW152723   9.768   2.214   0.458
50899SOL    HW252724   9.699   2.246   0.603
50900SOL     OW52725  11.015   3.349   1.104
50900SOL    HW152726  10.922   3.324   1.077
50900SOL    HW252727  11.041   3.299   1.186
50901SOL     OW52728   9.627   2.409   1.280
50901SOL    HW152729   9.665   2.350   1.352
50901SOL    HW252730   9.667   2.383   1.192
50902SOL     OW52731  10.122   3.448   0.687
50902SOL    HW152732  10.154   3.458   0.593
50902SOL    HW252733  10.043   3.386   0.689
50903SOL     OW52734  10.734   2.076   1.112
50903SOL    HW152735  10.786   2.011   1.167
50903SOL    HW252736  10.685   2.139   1.173
50904SOL     OW52737  10.311   1.896   1.154
50904SOL    HW152738  10.248   1.824   1.123
50904SOL    HW252739  10.404   1.860   1.154
50905SOL     OW52740  10.080   3.192   0.301
50905SOL    HW152741  10.034   3.105   0.318
50905SOL    HW252742  10.171   3.189   0.342
50906SOL     OW52743   9.928   3.429   1.284
50906SOL    HW152744   9.923   3.511   1.341
50906SOL    HW252745  10.017   3.426   1.239
50907SOL     OW52746  10.662   1.914   0.168
50907SOL    HW152747  10.697   1.873   0.084
50907SOL    HW252748  10.572   1.876   0.188
50908SOL     OW52749  10.610   2.315   0.691
50908SOL    HW152750  10.551   2.395   0.695
50908SOL    HW252751  10.625   2.280   0.784
50909SOL     OW52752  10.903   2.083   0.882
50909SOL    HW152753  10.819   2.082   0.936
50909SOL    HW252754  10.905   2.166   0.826
50910SOL     OW52755   9.349   2.939   0.300
50910SOL    HW152756   9.448   2.928   0.291
50910SOL    HW252757   9.309   2.853   0.332
50911SOL     OW52758  10.185   3.508   0.337
50911SOL    HW152759  10.108   3.473   0.283
50911SOL    HW252760  10.153   3.579   0.399
50912SOL     OW52761   9.540   2.490   1.975
50912SOL    HW152762   9.447   2.488   2.012
50912SOL    HW252763   9.541   2.451   1.883
50913SOL     OW52764   9.535   2.137   2.858
50913SOL    HW152765   9.570   2.120   2.950
50913SOL    HW252766   9.447   2.092   2.846
50914SOL     OW52767   9.329   2.230   2.509
50914SOL    HW152768   9.247   2.273   2.548
50914SOL    HW252769   9.301   2.157   2.446
50915SOL     OW52770   9.879   3.137   3.027
50915SOL    HW152771   9.786   3.130   2.990
50915SOL    HW252772   9.890   3.226   3.071
50916SOL     OW52773  10.865   3.373   2.565
50916SOL    HW152774  10.808   3.357   2.646
50916SOL    HW252775  10.806   3.383   2.485
50917SOL     OW52776  10.445   2.565   2.579
50917SOL    HW152777  10.502   2.643   2.554
50917SOL    HW252778  10.385   2.591   2.655
50918SOL     OW52779  11.065   2.469   2.093
50918SOL    HW152780  11.053   2.456   1.994
50918SOL    HW252781  11.035   2.388   2.142
50919SOL     OW52782  10.078   3.006   2.885
50919SOL    HW152783  10.000   3.023   2.945
50919SOL    HW252784  10.112   3.093   2.849
50920SOL     OW52785  10.160   2.660   3.685
50920SOL    HW152786  10.156   2.736   3.750
50920SOL    HW252787  10.182   2.696   3.594
50921SOL     OW52788   9.995   2.874   2.527
50921SOL    HW152789  10.064   2.858   2.597
50921SOL    HW252790   9.922   2.931   2.565
50922SOL     OW52791   9.996   3.023   3.665
50922SOL    HW152792  10.056   3.102   3.679
50922SOL    HW252793   9.910   3.054   3.624
50923SOL     OW52794   9.645   3.297   2.923
50923SOL    HW152795   9.567   3.266   2.870
50923SOL    HW252796   9.703   3.355   2.866
50924SOL     OW52797  10.770   3.367   3.201
50924SOL    HW152798  10.794   3.461   3.227
50924SOL    HW252799  10.754   3.313   3.283
50925SOL     OW52800   9.748   2.254   3.361
50925SOL    HW152801   9.830   2.198   3.370
50925SOL    HW252802   9.667   2.196   3.365
50926SOL     OW52803  10.913   2.309   2.599
50926SOL    HW152804  10.839   2.355   2.549
50926SOL    HW252805  10.964   2.377   2.652
50927SOL     OW52806   9.541   3.575   2.345
50927SOL    HW152807   9.575   3.652   2.399
50927SOL    HW252808   9.585   3.575   2.255
50928SOL     OW52809  10.437   3.203   3.552
50928SOL    HW152810  10.484   3.203   3.640
50928SOL    HW252811  10.389   3.116   3.541
50929SOL     OW52812   9.540   3.296   2.400
50929SOL    HW152813   9.514   3.392   2.400
50929SOL    HW252814   9.469   3.242   2.445
50930SOL     OW52815   9.550   2.953   2.748
50930SOL    HW152816   9.564   2.869   2.800
50930SOL    HW252817   9.495   3.017   2.803
50931SOL     OW52818   9.930   3.648   3.301
50931SOL    HW152819   9.838   3.631   3.336
50931SOL    HW252820   9.958   3.740   3.327
50932SOL     OW52821   9.916   2.826   1.985
50932SOL    HW152822   9.923   2.910   1.931
50932SOL    HW252823   9.962   2.839   2.073
50933SOL     OW52824  10.904   1.976   3.342
50933SOL    HW152825  10.886   2.043   3.270
50933SOL    HW252826  10.901   2.022   3.431
50934SOL     OW52827   9.432   2.505   2.425
50934SOL    HW152828   9.387   2.417   2.442
50934SOL    HW252829   9.431   2.559   2.509
50935SOL     OW52830  11.152   3.629   2.221
50935SOL    HW152831  11.206   3.600   2.301
50935SOL    HW252832  11.182   3.719   2.192
50936SOL     OW52833   9.337   3.458   1.979
50936SOL    HW152834   9.318   3.362   2.000
50936SOL    HW252835   9.304   3.516   2.054
50937SOL     OW52836  10.999   2.784   2.474
50937SOL    HW152837  11.094   2.755   2.482
50937SOL    HW252838  10.991   2.849   2.399
50938SOL     OW52839  10.951   2.970   2.294
50938SOL    HW152840  11.037   2.972   2.242
50938SOL    HW252841  10.965   3.017   2.382
50939SOL     OW52842   9.423   2.599   3.459
50939SOL    HW152843   9.511   2.586   3.504
50939SOL    HW252844   9.410   2.696   3.437
50940SOL     OW52845   9.923   3.227   2.588
50940SOL    HW152846   9.874   3.140   2.597
50940SOL    HW252847   9.900   3.270   2.501
50941SOL     OW52848  10.603   3.090   3.285
50941SOL    HW152849  10.640   3.017   3.227
50941SOL    HW252850  10.655   3.095   3.370
50942SOL     OW52851  10.119   1.866   2.364
50942SOL    HW152852  10.159   1.957   2.355
50942SOL    HW252853  10.019   1.874   2.370
50943SOL     OW52854   9.507   2.838   3.126
50943SOL    HW152855   9.596   2.793   3.112
50943SOL    HW252856   9.434   2.773   3.107
50944SOL     OW52857  10.835   2.861   2.052
50944SOL    HW152858  10.772   2.785   2.065
50944SOL    HW252859  10.883   2.879   2.138
50945SOL     OW52860  10.497   3.654   3.478
50945SOL    HW152861  10.521   3.714   3.402
50945SOL    HW252862  10.504   3.559   3.448
50946SOL     OW52863   9.627   2.113   3.663
50946SOL    HW152864   9.698   2.184   3.669
50946SOL    HW252865   9.539   2.152   3.691
50947SOL     OW52866  10.776   3.279   2.815
50947SOL    HW152867  10.717   3.285   2.895
50947SOL    HW252868  10.761   3.191   2.769
50948SOL     OW52869  10.977   3.576   2.434
50948SOL    HW152870  10.936   3.553   2.346
50948SOL    HW252871  10.959   3.502   2.499
50949SOL     OW52872   9.908   2.591   2.132
50949SOL    HW152873   9.932   2.660   2.064
50949SOL    HW252874   9.830   2.624   2.186
50950SOL     OW52875  10.591   2.207   2.806
50950SOL    HW152876  10.505   2.157   2.793
50950SOL    HW252877  10.653   2.153   2.862
50951SOL     OW52878  10.886   3.524   2.169
50951SOL    HW152879  10.975   3.570   2.172
50951SOL    HW252880  10.865   3.500   2.074
50952SOL     OW52881  10.117   2.467   3.327
50952SOL    HW152882  10.070   2.464   3.416
50952SOL    HW252883  10.066   2.412   3.261
50953SOL     OW52884  10.704   2.331   3.536
50953SOL    HW152885  10.684   2.374   3.624
50953SOL    HW252886  10.782   2.269   3.545
50954SOL     OW52887  10.283   2.752   3.434
50954SOL    HW152888  10.329   2.668   3.405
50954SOL    HW252889  10.227   2.786   3.359
50955SOL     OW52890  10.301   2.272   3.104
50955SOL    HW152891  10.224   2.306   3.158
50955SOL    HW252892  10.267   2.221   3.025
50956SOL     OW52893  10.351   2.563   2.291
50956SOL    HW152894  10.377   2.559   2.387
50956SOL    HW252895  10.266   2.512   2.277
50957SOL     OW52896   9.386   2.673   2.651
50957SOL    HW152897   9.485   2.661   2.660
50957SOL    HW252898   9.362   2.768   2.672
50958SOL     OW52899   9.440   3.683   3.433
50958SOL    HW152900   9.430   3.668   3.532
50958SOL    HW252901   9.354   3.719   3.397
50959SOL     OW52902  10.175   2.210   2.057
50959SOL    HW152903  10.234   2.273   2.008
50959SOL    HW252904  10.194   2.116   2.028
50960SOL     OW52905  11.029   2.447   3.693
50960SOL    HW152906  11.003   2.536   3.657
50960SOL    HW252907  11.027   2.379   3.620
50961SOL     OW52908  10.672   3.006   2.407
50961SOL    HW152909  10.755   2.977   2.359
50961SOL    HW252910  10.623   3.073   2.351
50962SOL     OW52911   9.860   2.058   2.747
50962SOL    HW152912   9.855   2.053   2.847
50962SOL    HW252913   9.862   2.154   2.718
50963SOL     OW52914  10.318   3.318   2.339
50963SOL    HW152915  10.272   3.390   2.287
50963SOL    HW252916  10.314   3.338   2.437
50964SOL     OW52917   9.661   3.663   2.715
50964SOL    HW152918   9.711   3.577   2.721
50964SOL    HW252919   9.726   3.740   2.712
50965SOL     OW52920  11.105   2.928   2.735
50965SOL    HW152921  11.043   2.913   2.659
50965SOL    HW252922  11.053   2.939   2.820
50966SOL     OW52923  10.537   3.412   3.368
50966SOL    HW152924  10.543   3.335   3.432
50966SOL    HW252925  10.485   3.386   3.288
50967SOL     OW52926   9.631   2.805   2.104
50967SOL    HW152927   9.713   2.844   2.062
50967SOL    HW252928   9.604   2.723   2.055
50968SOL     OW52929  10.768   2.597   2.590
50968SOL    HW152930  10.763   2.532   2.665
50968SOL    HW252931  10.848   2.656   2.603
50969SOL     OW52932   9.771   3.128   3.589
50969SOL    HW152933   9.721   3.129   3.503
50969SOL    HW252934   9.708   3.110   3.665
50970SOL     OW52935  10.421   3.638   2.099
50970SOL    HW152936  10.361   3.576   2.149
50970SOL    HW252937  10.452   3.594   2.014
50971SOL     OW52938   9.512   2.147   3.360
50971SOL    HW152939   9.432   2.207   3.347
50971SOL    HW252940   9.502   2.098   3.446
50972SOL     OW52941  10.942   3.239   1.943
50972SOL    HW152942  10.910   3.333   1.933
50972SOL    HW252943  10.866   3.176   1.931
50973SOL     OW52944   9.774   3.605   2.185
50973SOL    HW152945   9.807   3.644   2.271
50973SOL    HW252946   9.850   3.598   2.120
50974SOL     OW52947  10.710   1.969   2.288
50974SOL    HW152948  10.686   1.932   2.198
50974SOL    HW252949  10.809   1.985   2.292
50975SOL     OW52950   9.559   3.647   3.103
50975SOL    HW152951   9.616   3.582   3.153
50975SOL    HW252952   9.543   3.614   3.010
50976SOL     OW52953  10.250   3.560   2.766
50976SOL    HW152954  10.330   3.503   2.787
50976SOL    HW252955  10.201   3.520   2.689
50977SOL     OW52956   9.692   2.562   2.342
50977SOL    HW152957   9.737   2.472   2.339
50977SOL    HW252958   9.598   2.551   2.375
50978SOL     OW52959  10.857   2.084   3.591
50978SOL    HW152960  10.852   2.121   3.683
50978SOL    HW252961  10.785   2.015   3.579
50979SOL     OW52962   9.924   1.984   1.979
50979SOL    HW152963  10.022   1.962   1.986
50979SOL    HW252964   9.893   1.967   1.886
50980SOL     OW52965  10.091   2.126   3.611
50980SOL    HW152966  10.158   2.065   3.654
50980SOL    HW252967  10.018   2.145   3.676
50981SOL     OW52968  10.198   3.376   3.057
50981SOL    HW152969  10.175   3.351   2.963
50981SOL    HW252970  10.259   3.307   3.096
50982SOL     OW52971  10.661   2.452   3.295
50982SOL    HW152972  10.689   2.409   3.380
50982SOL    HW252973  10.686   2.548   3.296
50983SOL     OW52974  10.113   3.264   2.786
50983SOL    HW152975  10.203   3.278   2.744
50983SOL    HW252976  10.042   3.266   2.715
50984SOL     OW52977  10.232   2.365   2.761
50984SOL    HW152978  10.207   2.356   2.665
50984SOL    HW252979  10.280   2.283   2.792
50985SOL     OW52980   9.849   1.926   2.374
50985SOL    HW152981   9.768   1.927   2.432
50985SOL    HW252982   9.852   2.009   2.319
50986SOL     OW52983  10.744   3.050   1.903
50986SOL    HW152984  10.776   2.974   1.960
50986SOL    HW252985  10.652   3.077   1.933
50987SOL     OW52986   9.607   1.897   2.033
50987SOL    HW152987   9.656   1.981   2.012
50987SOL    HW252988   9.669   1.832   2.078
50988SOL     OW52989  10.245   2.098   2.342
50988SOL    HW152990  10.197   2.139   2.264
50988SOL    HW252991  10.344   2.096   2.323
50989SOL     OW52992  10.386   2.545   3.326
50989SOL    HW152993  10.306   2.484   3.329
50989SOL    HW252994  10.467   2.492   3.302
50990SOL     OW52995  10.537   3.432   2.655
50990SOL    HW152996  10.558   3.506   2.590
50990SOL    HW252997  10.605   3.432   2.728
50991SOL     OW52998   9.769   3.014   2.603
50991SOL    HW152999   9.698   2.987   2.668
50991SOL    HW253000   9.743   2.986   2.510
50992SOL     OW53001  10.581   3.659   2.453
50992SOL    HW153002  10.625   3.723   2.389
50992SOL    HW253003  10.531   3.711   2.523
50993SOL     OW53004  10.342   2.411   1.878
50993SOL    HW153005  10.301   2.493   1.839
50993SOL    HW253006  10.406   2.437   1.951
50994SOL     OW53007   9.388   2.418   3.248
50994SOL    HW153008   9.480   2.417   3.207
50994SOL    HW253009   9.382   2.492   3.315
50995SOL     OW53010   9.871   2.084   3.009
50995SOL    HW153011   9.909   2.000   3.046
50995SOL    HW253012   9.783   2.103   3.053
50996SOL     OW53013  10.176   2.316   2.504
50996SOL    HW153014  10.144   2.388   2.442
50996SOL    HW253015  10.200   2.235   2.451
50997SOL     OW53016  10.327   1.901   2.615
50997SOL    HW153017  10.255   1.906   2.546
50997SOL    HW253018  10.303   1.832   2.684
50998SOL     OW53019  10.739   3.035   2.729
50998SOL    HW153020  10.684   2.951   2.722
50998SOL    HW253021  10.765   3.064   2.637
50999SOL     OW53022  10.776   2.452   2.854
50999SOL    HW153023  10.746   2.357   2.861
50999SOL    HW253024  10.849   2.468   2.920
51000SOL     OW53025  11.167   2.695   2.239
51000SOL    HW153026  11.209   2.631   2.303
51000SOL    HW253027  11.129   2.644   2.161
51001SOL     OW53028   9.798   3.247   2.036
51001SOL    HW153029   9.711   3.232   2.083
51001SOL    HW253030   9.781   3.273   1.941
51002SOL     OW53031  10.974   3.142   2.519
51002SOL    HW153032  11.073   3.150   2.533
51002SOL    HW253033  10.929   3.226   2.550
51003SOL     OW53034  10.700   2.437   1.940
51003SOL    HW153035  10.646   2.416   2.021
51003SOL    HW253036  10.791   2.396   1.949
51004SOL     OW53037   9.837   2.118   2.190
51004SOL    HW153038   9.864   2.059   2.115
51004SOL    HW253039   9.837   2.213   2.159
51005SOL     OW53040  11.064   3.085   3.450
51005SOL    HW153041  11.155   3.046   3.437
51005SOL    HW253042  11.072   3.181   3.474
51006SOL     OW53043  10.374   3.209   3.202
51006SOL    HW153044  10.294   3.186   3.257
51006SOL    HW253045  10.457   3.183   3.251
51007SOL     OW53046  10.902   3.491   3.487
51007SOL    HW153047  10.929   3.525   3.397
51007SOL    HW253048  10.981   3.453   3.533
51008SOL     OW53049  10.421   3.057   2.962
51008SOL    HW153050  10.381   3.101   3.043
51008SOL    HW253051  10.380   3.094   2.879
51009SOL     OW53052  10.948   2.961   2.941
51009SOL    HW153053  10.953   3.042   3.000
51009SOL    HW253054  10.862   2.963   2.890
51010SOL     OW53055  10.225   1.951   3.264
51010SOL    HW153056  10.250   1.931   3.169
51010SOL    HW253057  10.297   2.007   3.306
51011SOL     OW53058  10.290   2.978   3.581
51011SOL    HW153059  10.191   2.984   3.591
51011SOL    HW253060  10.313   2.898   3.525
51012SOL     OW53061  10.015   2.912   2.230
51012SOL    HW153062  10.001   2.919   2.329
51012SOL    HW253063  10.099   2.861   2.212
51013SOL     OW53064   9.720   2.675   3.113
51013SOL    HW153065   9.806   2.687   3.163
51013SOL    HW253066   9.678   2.588   3.140
51014SOL     OW53067  10.584   2.248   3.124
51014SOL    HW153068  10.605   2.322   3.188
51014SOL    HW253069  10.495   2.265   3.081
51015SOL     OW53070   9.374   3.426   3.193
51015SOL    HW153071   9.328   3.508   3.159
51015SOL    HW253072   9.472   3.445   3.202
51016SOL     OW53073   9.677   2.962   2.363
51016SOL    HW153074   9.670   3.045   2.307
51016SOL    HW253075   9.681   2.882   2.303
51017SOL     OW53076   9.876   2.399   2.727
51017SOL    HW153077   9.888   2.465   2.653
51017SOL    HW253078   9.922   2.433   2.810
51018SOL     OW53079  10.562   3.210   2.250
51018SOL    HW153080  10.612   3.287   2.290
51018SOL    HW253081  10.467   3.212   2.282
51019SOL     OW53082  10.582   3.307   3.004
51019SOL    HW153083  10.629   3.320   3.091
51019SOL    HW253084  10.516   3.233   3.013
51020SOL     OW53085  10.892   2.501   2.334
51020SOL    HW153086  10.861   2.562   2.407
51020SOL    HW253087  10.942   2.553   2.265
51021SOL     OW53088   9.664   3.372   3.191
51021SOL    HW153089   9.643   3.328   3.104
51021SOL    HW253090   9.761   3.398   3.194
51022SOL     OW53091   9.712   2.613   3.460
51022SOL    HW153092   9.780   2.668   3.413
51022SOL    HW253093   9.752   2.525   3.487
51023SOL     OW53094  10.897   2.641   3.532
51023SOL    HW153095  10.805   2.679   3.527
51023SOL    HW253096  10.957   2.688   3.467
51024SOL     OW53097  10.323   1.967   3.632
51024SOL    HW153098  10.329   2.052   3.580
51024SOL    HW253099  10.355   1.891   3.575
51025SOL     OW53100   9.814   1.912   3.602
51025SOL    HW153101   9.772   1.855   3.532
51025SOL    HW253102   9.748   1.981   3.634
51026SOL     OW53103   9.883   2.732   2.891
51026SOL    HW153104   9.927   2.821   2.882
51026SOL    HW253105   9.820   2.732   2.968
51027SOL     OW53106  10.670   2.724   2.907
51027SOL    HW153107  10.595   2.724   2.841
51027SOL    HW253108  10.707   2.632   2.916
51028SOL     OW53109  10.519   2.387   2.137
51028SOL    HW153110  10.532   2.303   2.191
51028SOL    HW253111  10.490   2.461   2.197
51029SOL     OW53112   9.617   2.075   3.093
51029SOL    HW153113   9.594   2.112   3.183
51029SOL    HW253114   9.587   1.980   3.087
51030SOL     OW53115   9.347   3.172   3.144
51030SOL    HW153116   9.400   3.123   3.212
51030SOL    HW253117   9.369   3.270   3.149
51031SOL     OW53118  10.042   2.496   2.926
51031SOL    HW153119  10.101   2.470   2.850
51031SOL    HW253120  10.014   2.592   2.915
51032SOL     OW53121  11.038   2.797   3.716
51032SOL    HW153122  10.992   2.790   3.627
51032SOL    HW253123  10.976   2.841   3.782
51033SOL     OW53124   9.617   1.925   2.480
51033SOL    HW153125   9.606   2.019   2.513
51033SOL    HW253126   9.612   1.862   2.557
51034SOL     OW53127  10.932   2.229   2.236
51034SOL    HW153128  10.934   2.153   2.300
51034SOL    HW253129  10.884   2.306   2.276
51035SOL     OW53130  10.333   2.628   2.828
51035SOL    HW153131  10.348   2.649   2.924
51035SOL    HW253132  10.303   2.533   2.819
51036SOL     OW53133  10.290   3.435   3.562
51036SOL    HW153134  10.270   3.479   3.474
51036SOL    HW253135  10.329   3.344   3.546
51037SOL     OW53136  11.169   3.380   3.467
51037SOL    HW153137  11.183   3.407   3.372
51037SOL    HW253138  11.252   3.402   3.520
51038SOL     OW53139   9.660   2.760   3.666
51038SOL    HW153140   9.736   2.804   3.714
51038SOL    HW253141   9.695   2.713   3.584
51039SOL     OW53142  10.850   2.136   1.987
51039SOL    HW153143  10.789   2.061   2.010
51039SOL    HW253144  10.872   2.188   2.070
51040SOL     OW53145  10.613   2.700   1.904
51040SOL    HW153146  10.647   2.607   1.919
51040SOL    HW253147  10.631   2.727   1.809
51041SOL     OW53148  10.378   3.195   2.711
51041SOL    HW153149  10.385   3.111   2.656
51041SOL    HW253150  10.440   3.264   2.675
51042SOL     OW53151   9.629   2.672   2.811
51042SOL    HW153152   9.722   2.708   2.816
51042SOL    HW253153   9.623   2.587   2.863
51043SOL     OW53154   9.649   2.371   2.868
51043SOL    HW153155   9.597   2.288   2.851
51043SOL    HW253156   9.726   2.376   2.804
51044SOL     OW53157  10.448   2.242   3.540
51044SOL    HW153158  10.403   2.305   3.604
51044SOL    HW253159  10.541   2.273   3.523
51045SOL     OW53160  10.470   2.069   3.339
51045SOL    HW153161  10.470   2.133   3.416
51045SOL    HW253162  10.498   2.117   3.256
51046SOL     OW53163   9.318   3.188   2.062
51046SOL    HW153164   9.225   3.209   2.031
51046SOL    HW253165   9.328   3.089   2.075
51047SOL     OW53166   9.398   3.663   2.789
51047SOL    HW153167   9.356   3.577   2.762
51047SOL    HW253168   9.492   3.666   2.755
51048SOL     OW53169   9.814   3.430   2.772
51048SOL    HW153170   9.880   3.504   2.781
51048SOL    HW253171   9.858   3.351   2.730
51049SOL     OW53172  10.312   2.658   3.100
51049SOL    HW153173  10.353   2.626   3.186
51049SOL    HW253174  10.216   2.631   3.097
51050SOL     OW53175   9.350   2.406   2.976
51050SOL    HW153176   9.435   2.373   2.935
51050SOL    HW253177   9.363   2.421   3.074
51051SOL     OW53178   9.499   2.382   3.584
51051SOL    HW153179   9.558   2.342   3.514
51051SOL    HW253180   9.441   2.453   3.543
51052SOL     OW53181  10.679   2.812   3.522
51052SOL    HW153182  10.718   2.901   3.542
51052SOL    HW253183  10.689   2.792   3.425
51053SOL     OW53184  10.125   2.434   2.187
51053SOL    HW153185  10.132   2.345   2.141
51053SOL    HW253186  10.031   2.468   2.179
51054SOL     OW53187  10.967   2.466   3.068
51054SOL    HW153188  10.929   2.397   3.130
51054SOL    HW253189  11.049   2.430   3.024
51055SOL     OW53190   9.562   3.426   3.606
51055SOL    HW153191   9.532   3.483   3.682
51055SOL    HW253192   9.555   3.329   3.632
51056SOL     OW53193   9.981   2.326   3.131
51056SOL    HW153194   9.947   2.237   3.101
51056SOL    HW253195  10.007   2.380   3.051
51057SOL     OW53196  10.240   3.540   3.327
51057SOL    HW153197  10.216   3.522   3.232
51057SOL    HW253198  10.270   3.634   3.337
51058SOL     OW53199   9.783   2.362   2.053
51058SOL    HW153200   9.844   2.442   2.057
51058SOL    HW253201   9.688   2.393   2.060
51059SOL     OW53202   9.469   2.999   3.328
51059SOL    HW153203   9.491   2.938   3.404
51059SOL    HW253204   9.479   2.950   3.242
51060SOL     OW53205  10.657   2.921   3.096
51060SOL    HW153206  10.681   2.858   3.022
51060SOL    HW253207  10.567   2.961   3.078
51061SOL     OW53208  10.612   2.717   2.171
51061SOL    HW153209  10.526   2.686   2.213
51061SOL    HW253210  10.608   2.703   2.072
51062SOL     OW53211  11.069   3.609   3.016
51062SOL    HW153212  11.130   3.639   2.943
51062SOL    HW253213  11.031   3.520   2.994
51063SOL     OW53214  10.562   3.593   2.990
51063SOL    HW153215  10.646   3.598   2.936
51063SOL    HW253216  10.539   3.497   3.008
51064SOL     OW53217   9.393   3.120   2.884
51064SOL    HW153218   9.388   3.119   2.984
51064SOL    HW253219   9.310   3.079   2.846
51065SOL     OW53220   9.998   3.524   3.578
51065SOL    HW153221   9.942   3.605   3.587
51065SOL    HW253222  10.050   3.528   3.492
51066SOL     OW53223  11.036   1.997   2.385
51066SOL    HW153224  11.109   1.980   2.318
51066SOL    HW253225  11.005   1.910   2.423
51067SOL     OW53226  10.698   3.435   2.339
51067SOL    HW153227  10.765   3.447   2.265
51067SOL    HW253228  10.658   3.524   2.362
51068SOL     OW53229   9.440   3.656   3.713
51068SOL    HW153230   9.399   3.582   3.766
51068SOL    HW253231   9.504   3.707   3.771
51069SOL     OW53232  10.590   2.789   2.534
51069SOL    HW153233  10.650   2.708   2.536
51069SOL    HW253234  10.630   2.858   2.474
51070SOL     OW53235  10.140   3.135   3.284
51070SOL    HW153236  10.135   3.168   3.379
51070SOL    HW253237  10.054   3.154   3.238
51071SOL     OW53238   9.982   3.478   2.016
51071SOL    HW153239   9.991   3.488   1.917
51071SOL    HW253240   9.942   3.389   2.037
51072SOL     OW53241  10.960   3.582   3.256
51072SOL    HW153242  11.013   3.592   3.172
51072SOL    HW253243  10.933   3.672   3.290
51073SOL     OW53244  11.151   2.037   2.825
51073SOL    HW153245  11.190   1.952   2.789
51073SOL    HW253246  11.053   2.039   2.806
51074SOL     OW53247   9.573   2.188   2.582
51074SOL    HW153248   9.494   2.239   2.548
51074SOL    HW253249   9.564   2.173   2.680
51075SOL     OW53250  10.504   3.474   1.893
51075SOL    HW153251  10.510   3.381   1.930
51075SOL    HW253252  10.445   3.474   1.813
51076SOL     OW53253  10.226   2.772   2.153
51076SOL    HW153254  10.289   2.810   2.085
51076SOL    HW253255  10.266   2.689   2.192
51077SOL     OW53256  10.814   3.469   1.906
51077SOL    HW153257  10.722   3.506   1.913
51077SOL    HW253258  10.852   3.489   1.816
51078SOL     OW53259   9.682   3.150   3.352
51078SOL    HW153260   9.669   3.243   3.318
51078SOL    HW253261   9.598   3.098   3.339
51079SOL     OW53262  10.924   3.154   3.151
51079SOL    HW153263  10.984   3.157   3.231
51079SOL    HW253264  10.849   3.218   3.164
51080SOL     OW53265  10.349   2.960   2.558
51080SOL    HW153266  10.279   2.913   2.612
51080SOL    HW253267  10.408   2.892   2.515
51081SOL     OW53268  10.324   2.098   2.833
51081SOL    HW153269  10.316   2.062   2.740
51081SOL    HW253270  10.322   2.022   2.898
51082SOL     OW53271   9.900   3.349   2.353
51082SOL    HW153272   9.942   3.291   2.283
51082SOL    HW253273   9.856   3.428   2.309
51083SOL     OW53274  11.019   2.247   3.243
51083SOL    HW153275  11.092   2.316   3.247
51083SOL    HW253276  11.047   2.172   3.184
51084SOL     OW53277   9.565   3.210   2.152
51084SOL    HW153278   9.469   3.211   2.125
51084SOL    HW253279   9.577   3.263   2.236
51085SOL     OW53280   9.415   2.875   3.588
51085SOL    HW153281   9.338   2.842   3.642
51085SOL    HW253282   9.500   2.845   3.630
51086SOL     OW53283   9.982   2.065   3.351
51086SOL    HW153284  10.072   2.049   3.311
51086SOL    HW253285   9.990   2.070   3.450
51087SOL     OW53286   9.385   2.207   1.895
51087SOL    HW153287   9.293   2.179   1.866
51087SOL    HW253288   9.416   2.284   1.839
51088SOL     OW53289  10.750   2.718   3.260
51088SOL    HW153290  10.693   2.770   3.197
51088SOL    HW253291  10.846   2.730   3.236
51089SOL     OW53292   9.382   2.028   2.180
51089SOL    HW153293   9.365   2.111   2.126
51089SOL    HW253294   9.472   1.991   2.158
51090SOL     OW53295  10.493   3.197   1.981
51090SOL    HW153296  10.394   3.186   1.983
51090SOL    HW253297  10.527   3.212   2.074
51091SOL     OW53298   9.923   2.704   3.293
51091SOL    HW153299   9.979   2.785   3.276
51091SOL    HW253300   9.982   2.624   3.296
51092SOL     OW53301  10.803   3.629   2.821
51092SOL    HW153302  10.836   3.693   2.752
51092SOL    HW253303  10.869   3.623   2.896
51093SOL     OW53304  10.026   2.427   3.570
51093SOL    HW153305  10.045   2.492   3.644
51093SOL    HW253306  10.086   2.347   3.579
51094SOL     OW53307  10.760   3.082   3.495
51094SOL    HW153308  10.751   3.072   3.594
51094SOL    HW253309  10.856   3.075   3.469
51095SOL     OW53310   9.700   3.603   3.422
51095SOL    HW153311   9.609   3.644   3.420
51095SOL    HW253312   9.693   3.509   3.454
51096SOL     OW53313  10.984   2.745   3.116
51096SOL    HW153314  10.957   2.656   3.079
51096SOL    HW253315  10.985   2.813   3.043
51097SOL     OW53316  10.535   2.187   2.311
51097SOL    HW153317  10.600   2.113   2.300
51097SOL    HW253318  10.555   2.237   2.395
51098SOL     OW53319   9.904   2.607   2.514
51098SOL    HW153320   9.954   2.692   2.495
51098SOL    HW253321   9.816   2.609   2.466
51099SOL     OW53322  11.087   2.204   3.504
51099SOL    HW153323  11.070   2.235   3.410
51099SOL    HW253324  11.003   2.167   3.542
51100SOL     OW53325  11.040   2.796   3.379
51100SOL    HW153326  11.078   2.887   3.394
51100SOL    HW253327  11.032   2.779   3.280
51101SOL     OW53328  10.169   3.236   1.878
51101SOL    HW153329  10.123   3.251   1.966
51101SOL    HW253330  10.213   3.321   1.848
51102SOL     OW53331   9.971   3.652   2.815
51102SOL    HW153332   9.925   3.740   2.802
51102SOL    HW253333  10.070   3.664   2.808
51103SOL     OW53334  10.169   2.818   2.723
51103SOL    HW153335  10.223   2.749   2.771
51103SOL    HW253336  10.137   2.887   2.789
51104SOL     OW53337  10.393   2.846   1.949
51104SOL    HW153338  10.370   2.899   1.867
51104SOL    HW253339  10.474   2.790   1.930
51105SOL     OW53340  11.171   3.431   2.713
51105SOL    HW153341  11.100   3.419   2.643
51105SOL    HW253342  11.172   3.352   2.773
51106SOL     OW53343   9.531   3.176   3.706
51106SOL    HW153344   9.466   3.103   3.685
51106SOL    HW253345   9.535   3.190   3.804
51107SOL     OW53346   9.389   3.102   2.515
51107SOL    HW153347   9.388   3.055   2.603
51107SOL    HW253348   9.471   3.074   2.464
51108SOL     OW53349   9.982   3.253   3.486
51108SOL    HW153350   9.904   3.203   3.524
51108SOL    HW253351   9.979   3.348   3.517
51109SOL     OW53352  11.134   2.054   3.089
51109SOL    HW153353  11.130   1.964   3.133
51109SOL    HW253354  11.137   2.043   2.990
51110SOL     OW53355   9.738   2.286   2.382
51110SOL    HW153356   9.768   2.214   2.320
51110SOL    HW253357   9.699   2.246   2.465
51111SOL     OW53358  11.015   3.349   2.966
51111SOL    HW153359  10.922   3.324   2.939
51111SOL    HW253360  11.041   3.299   3.048
51112SOL     OW53361   9.627   2.409   3.142
51112SOL    HW153362   9.665   2.350   3.214
51112SOL    HW253363   9.667   2.383   3.054
51113SOL     OW53364  10.122   3.448   2.549
51113SOL    HW153365  10.154   3.458   2.455
51113SOL    HW253366  10.043   3.386   2.551
51114SOL     OW53367  10.734   2.076   2.974
51114SOL    HW153368  10.786   2.011   3.029
51114SOL    HW253369  10.685   2.139   3.035
51115SOL     OW53370  10.311   1.896   3.016
51115SOL    HW153371  10.248   1.824   2.985
51115SOL    HW253372  10.404   1.860   3.016
51116SOL     OW53373  10.080   3.192   2.163
51116SOL    HW153374  10.034   3.105   2.180
51116SOL    HW253375  10.171   3.189   2.204
51117SOL     OW53376   9.928   3.429   3.146
51117SOL    HW153377   9.923   3.511   3.203
51117SOL    HW253378  10.017   3.426   3.101
51118SOL     OW53379  10.662   1.914   2.030
51118SOL    HW153380  10.697   1.873   1.946
51118SOL    HW253381  10.572   1.876   2.050
51119SOL     OW53382  10.610   2.315   2.553
51119SOL    HW153383  10.551   2.395   2.557
51119SOL    HW253384  10.625   2.280   2.646
51120SOL     OW53385  10.903   2.083   2.744
51120SOL    HW153386  10.819   2.082   2.798
51120SOL    HW253387  10.905   2.166   2.688
51121SOL     OW53388   9.349   2.939   2.162
51121SOL    HW153389   9.448   2.928   2.153
51121SOL    HW253390   9.309   2.853   2.194
51122SOL     OW53391  10.185   3.508   2.199
51122SOL    HW153392  10.108   3.473   2.145
51122SOL    HW253393  10.153   3.579   2.261
51123SOL     OW53394   9.540   2.490   3.837
51123SOL    HW153395   9.447   2.488   3.874
51123SOL    HW253396   9.541   2.451   3.745
51124SOL     OW53397   9.535   2.137   4.720
51124SOL    HW153398   9.570   2.120   4.812
51124SOL    HW253399   9.447   2.092   4.708
51125SOL     OW53400   9.329   2.230   4.371
51125SOL    HW153401   9.247   2.273   4.410
51125SOL    HW253402   9.301   2.157   4.308
51126SOL     OW53403   9.879   3.137   4.889
51126SOL    HW153404   9.786   3.130   4.852
51126SOL    HW253405   9.890   3.226   4.933
51127SOL     OW53406  10.865   3.373   4.427
51127SOL    HW153407  10.808   3.357   4.508
51127SOL    HW253408  10.806   3.383   4.347
51128SOL     OW53409  10.445   2.565   4.441
51128SOL    HW153410  10.502   2.643   4.416
51128SOL    HW253411  10.385   2.591   4.517
51129SOL     OW53412  11.065   2.469   3.955
51129SOL    HW153413  11.053   2.456   3.856
51129SOL    HW253414  11.035   2.388   4.004
51130SOL     OW53415  10.078   3.006   4.747
51130SOL    HW153416  10.000   3.023   4.807
51130SOL    HW253417  10.112   3.093   4.711
51131SOL     OW53418  10.160   2.660   5.547
51131SOL    HW153419  10.156   2.736   5.612
51131SOL    HW253420  10.182   2.696   5.456
51132SOL     OW53421   9.995   2.874   4.389
51132SOL    HW153422  10.064   2.858   4.459
51132SOL    HW253423   9.922   2.931   4.427
51133SOL     OW53424   9.996   3.023   5.527
51133SOL    HW153425  10.056   3.102   5.541
51133SOL    HW253426   9.910   3.054   5.486
51134SOL     OW53427   9.645   3.297   4.785
51134SOL    HW153428   9.567   3.266   4.732
51134SOL    HW253429   9.703   3.355   4.728
51135SOL     OW53430  10.770   3.367   5.063
51135SOL    HW153431  10.794   3.461   5.089
51135SOL    HW253432  10.754   3.313   5.145
51136SOL     OW53433   9.748   2.254   5.223
51136SOL    HW153434   9.830   2.198   5.232
51136SOL    HW253435   9.667   2.196   5.227
51137SOL     OW53436  10.913   2.309   4.461
51137SOL    HW153437  10.839   2.355   4.411
51137SOL    HW253438  10.964   2.377   4.514
51138SOL     OW53439   9.541   3.575   4.207
51138SOL    HW153440   9.575   3.652   4.261
51138SOL    HW253441   9.585   3.575   4.117
51139SOL     OW53442  10.437   3.203   5.414
51139SOL    HW153443  10.484   3.203   5.502
51139SOL    HW253444  10.389   3.116   5.403
51140SOL     OW53445   9.540   3.296   4.262
51140SOL    HW153446   9.514   3.392   4.262
51140SOL    HW253447   9.469   3.242   4.307
51141SOL     OW53448   9.550   2.953   4.610
51141SOL    HW153449   9.564   2.869   4.662
51141SOL    HW253450   9.495   3.017   4.665
51142SOL     OW53451   9.930   3.648   5.163
51142SOL    HW153452   9.838   3.631   5.198
51142SOL    HW253453   9.958   3.740   5.189
51143SOL     OW53454   9.916   2.826   3.847
51143SOL    HW153455   9.923   2.910   3.793
51143SOL    HW253456   9.962   2.839   3.935
51144SOL     OW53457  10.904   1.976   5.204
51144SOL    HW153458  10.886   2.043   5.132
51144SOL    HW253459  10.901   2.022   5.293
51145SOL     OW53460   9.432   2.505   4.287
51145SOL    HW153461   9.387   2.417   4.304
51145SOL    HW253462   9.431   2.559   4.371
51146SOL     OW53463  11.152   3.629   4.083
51146SOL    HW153464  11.206   3.600   4.163
51146SOL    HW253465  11.182   3.719   4.054
51147SOL     OW53466   9.337   3.458   3.841
51147SOL    HW153467   9.318   3.362   3.862
51147SOL    HW253468   9.304   3.516   3.916
51148SOL     OW53469  10.999   2.784   4.336
51148SOL    HW153470  11.094   2.755   4.344
51148SOL    HW253471  10.991   2.849   4.261
51149SOL     OW53472  10.951   2.970   4.156
51149SOL    HW153473  11.037   2.972   4.104
51149SOL    HW253474  10.965   3.017   4.244
51150SOL     OW53475   9.423   2.599   5.321
51150SOL    HW153476   9.511   2.586   5.366
51150SOL    HW253477   9.410   2.696   5.299
51151SOL     OW53478   9.923   3.227   4.450
51151SOL    HW153479   9.874   3.140   4.459
51151SOL    HW253480   9.900   3.270   4.363
51152SOL     OW53481  10.603   3.090   5.147
51152SOL    HW153482  10.640   3.017   5.089
51152SOL    HW253483  10.655   3.095   5.232
51153SOL     OW53484  10.119   1.866   4.226
51153SOL    HW153485  10.159   1.957   4.217
51153SOL    HW253486  10.019   1.874   4.232
51154SOL     OW53487   9.507   2.838   4.988
51154SOL    HW153488   9.596   2.793   4.974
51154SOL    HW253489   9.434   2.773   4.969
51155SOL     OW53490  10.835   2.861   3.914
51155SOL    HW153491  10.772   2.785   3.927
51155SOL    HW253492  10.883   2.879   4.000
51156SOL     OW53493  10.497   3.654   5.340
51156SOL    HW153494  10.521   3.714   5.264
51156SOL    HW253495  10.504   3.559   5.310
51157SOL     OW53496   9.627   2.113   5.525
51157SOL    HW153497   9.698   2.184   5.531
51157SOL    HW253498   9.539   2.152   5.553
51158SOL     OW53499  10.776   3.279   4.677
51158SOL    HW153500  10.717   3.285   4.757
51158SOL    HW253501  10.761   3.191   4.631
51159SOL     OW53502  10.977   3.576   4.296
51159SOL    HW153503  10.936   3.553   4.208
51159SOL    HW253504  10.959   3.502   4.361
51160SOL     OW53505   9.908   2.591   3.994
51160SOL    HW153506   9.932   2.660   3.926
51160SOL    HW253507   9.830   2.624   4.048
51161SOL     OW53508  10.591   2.207   4.668
51161SOL    HW153509  10.505   2.157   4.655
51161SOL    HW253510  10.653   2.153   4.724
51162SOL     OW53511  10.886   3.524   4.031
51162SOL    HW153512  10.975   3.570   4.034
51162SOL    HW253513  10.865   3.500   3.936
51163SOL     OW53514  10.117   2.467   5.189
51163SOL    HW153515  10.070   2.464   5.278
51163SOL    HW253516  10.066   2.412   5.123
51164SOL     OW53517  10.704   2.331   5.398
51164SOL    HW153518  10.684   2.374   5.486
51164SOL    HW253519  10.782   2.269   5.407
51165SOL     OW53520  10.283   2.752   5.296
51165SOL    HW153521  10.329   2.668   5.267
51165SOL    HW253522  10.227   2.786   5.221
51166SOL     OW53523  10.301   2.272   4.966
51166SOL    HW153524  10.224   2.306   5.020
51166SOL    HW253525  10.267   2.221   4.887
51167SOL     OW53526  10.351   2.563   4.153
51167SOL    HW153527  10.377   2.559   4.249
51167SOL    HW253528  10.266   2.512   4.139
51168SOL     OW53529   9.386   2.673   4.513
51168SOL    HW153530   9.485   2.661   4.522
51168SOL    HW253531   9.362   2.768   4.534
51169SOL     OW53532   9.440   3.683   5.295
51169SOL    HW153533   9.430   3.668   5.394
51169SOL    HW253534   9.354   3.719   5.259
51170SOL     OW53535  10.175   2.210   3.919
51170SOL    HW153536  10.234   2.273   3.870
51170SOL    HW253537  10.194   2.116   3.890
51171SOL     OW53538  11.029   2.447   5.555
51171SOL    HW153539  11.003   2.536   5.519
51171SOL    HW253540  11.027   2.379   5.482
51172SOL     OW53541  10.672   3.006   4.269
51172SOL    HW153542  10.755   2.977   4.221
51172SOL    HW253543  10.623   3.073   4.213
51173SOL     OW53544   9.860   2.058   4.609
51173SOL    HW153545   9.855   2.053   4.709
51173SOL    HW253546   9.862   2.154   4.580
51174SOL     OW53547  10.318   3.318   4.201
51174SOL    HW153548  10.272   3.390   4.149
51174SOL    HW253549  10.314   3.338   4.299
51175SOL     OW53550   9.661   3.663   4.577
51175SOL    HW153551   9.711   3.577   4.583
51175SOL    HW253552   9.726   3.740   4.574
51176SOL     OW53553  11.105   2.928   4.597
51176SOL    HW153554  11.043   2.913   4.521
51176SOL    HW253555  11.053   2.939   4.682
51177SOL     OW53556  10.537   3.412   5.230
51177SOL    HW153557  10.543   3.335   5.294
51177SOL    HW253558  10.485   3.386   5.150
51178SOL     OW53559   9.631   2.805   3.966
51178SOL    HW153560   9.713   2.844   3.924
51178SOL    HW253561   9.604   2.723   3.917
51179SOL     OW53562  10.768   2.597   4.452
51179SOL    HW153563  10.763   2.532   4.527
51179SOL    HW253564  10.848   2.656   4.465
51180SOL     OW53565   9.771   3.128   5.451
51180SOL    HW153566   9.721   3.129   5.365
51180SOL    HW253567   9.708   3.110   5.527
51181SOL     OW53568  10.421   3.638   3.961
51181SOL    HW153569  10.361   3.576   4.011
51181SOL    HW253570  10.452   3.594   3.876
51182SOL     OW53571   9.512   2.147   5.222
51182SOL    HW153572   9.432   2.207   5.209
51182SOL    HW253573   9.502   2.098   5.308
51183SOL     OW53574  10.942   3.239   3.805
51183SOL    HW153575  10.910   3.333   3.795
51183SOL    HW253576  10.866   3.176   3.793
51184SOL     OW53577   9.774   3.605   4.047
51184SOL    HW153578   9.807   3.644   4.133
51184SOL    HW253579   9.850   3.598   3.982
51185SOL     OW53580  10.710   1.969   4.150
51185SOL    HW153581  10.686   1.932   4.060
51185SOL    HW253582  10.809   1.985   4.154
51186SOL     OW53583   9.559   3.647   4.965
51186SOL    HW153584   9.616   3.582   5.015
51186SOL    HW253585   9.543   3.614   4.872
51187SOL     OW53586  10.250   3.560   4.628
51187SOL    HW153587  10.330   3.503   4.649
51187SOL    HW253588  10.201   3.520   4.551
51188SOL     OW53589   9.692   2.562   4.204
51188SOL    HW153590   9.737   2.472   4.201
51188SOL    HW253591   9.598   2.551   4.237
51189SOL     OW53592  10.857   2.084   5.453
51189SOL    HW153593  10.852   2.121   5.545
51189SOL    HW253594  10.785   2.015   5.441
51190SOL     OW53595   9.924   1.984   3.841
51190SOL    HW153596  10.022   1.962   3.848
51190SOL    HW253597   9.893   1.967   3.748
51191SOL     OW53598  10.091   2.126   5.473
51191SOL    HW153599  10.158   2.065   5.516
51191SOL    HW253600  10.018   2.145   5.538
51192SOL     OW53601  10.198   3.376   4.919
51192SOL    HW153602  10.175   3.351   4.825
51192SOL    HW253603  10.259   3.307   4.958
51193SOL     OW53604  10.661   2.452   5.157
51193SOL    HW153605  10.689   2.409   5.242
51193SOL    HW253606  10.686   2.548   5.158
51194SOL     OW53607  10.113   3.264   4.648
51194SOL    HW153608  10.203   3.278   4.606
51194SOL    HW253609  10.042   3.266   4.577
51195SOL     OW53610  10.232   2.365   4.623
51195SOL    HW153611  10.207   2.356   4.527
51195SOL    HW253612  10.280   2.283   4.654
51196SOL     OW53613   9.849   1.926   4.236
51196SOL    HW153614   9.768   1.927   4.294
51196SOL    HW253615   9.852   2.009   4.181
51197SOL     OW53616  10.744   3.050   3.765
51197SOL    HW153617  10.776   2.974   3.822
51197SOL    HW253618  10.652   3.077   3.795
51198SOL     OW53619   9.607   1.897   3.895
51198SOL    HW153620   9.656   1.981   3.874
51198SOL    HW253621   9.669   1.832   3.940
51199SOL     OW53622  10.245   2.098   4.204
51199SOL    HW153623  10.197   2.139   4.126
51199SOL    HW253624  10.344   2.096   4.185
51200SOL     OW53625  10.386   2.545   5.188
51200SOL    HW153626  10.306   2.484   5.191
51200SOL    HW253627  10.467   2.492   5.164
51201SOL     OW53628  10.537   3.432   4.517
51201SOL    HW153629  10.558   3.506   4.452
51201SOL    HW253630  10.605   3.432   4.590
51202SOL     OW53631   9.769   3.014   4.465
51202SOL    HW153632   9.698   2.987   4.530
51202SOL    HW253633   9.743   2.986   4.372
51203SOL     OW53634  10.581   3.659   4.315
51203SOL    HW153635  10.625   3.723   4.251
51203SOL    HW253636  10.531   3.711   4.385
51204SOL     OW53637  10.342   2.411   3.740
51204SOL    HW153638  10.301   2.493   3.701
51204SOL    HW253639  10.406   2.437   3.813
51205SOL     OW53640   9.388   2.418   5.110
51205SOL    HW153641   9.480   2.417   5.069
51205SOL    HW253642   9.382   2.492   5.177
51206SOL     OW53643   9.871   2.084   4.871
51206SOL    HW153644   9.909   2.000   4.908
51206SOL    HW253645   9.783   2.103   4.915
51207SOL     OW53646  10.176   2.316   4.366
51207SOL    HW153647  10.144   2.388   4.304
51207SOL    HW253648  10.200   2.235   4.313
51208SOL     OW53649  10.327   1.901   4.477
51208SOL    HW153650  10.255   1.906   4.408
51208SOL    HW253651  10.303   1.832   4.546
51209SOL     OW53652  10.739   3.035   4.591
51209SOL    HW153653  10.684   2.951   4.584
51209SOL    HW253654  10.765   3.064   4.499
51210SOL     OW53655  10.776   2.452   4.716
51210SOL    HW153656  10.746   2.357   4.723
51210SOL    HW253657  10.849   2.468   4.782
51211SOL     OW53658  11.167   2.695   4.101
51211SOL    HW153659  11.209   2.631   4.165
51211SOL    HW253660  11.129   2.644   4.023
51212SOL     OW53661   9.798   3.247   3.898
51212SOL    HW153662   9.711   3.232   3.945
51212SOL    HW253663   9.781   3.273   3.803
51213SOL     OW53664  10.974   3.142   4.381
51213SOL    HW153665  11.073   3.150   4.395
51213SOL    HW253666  10.929   3.226   4.412
51214SOL     OW53667  10.700   2.437   3.802
51214SOL    HW153668  10.646   2.416   3.883
51214SOL    HW253669  10.791   2.396   3.811
51215SOL     OW53670   9.837   2.118   4.052
51215SOL    HW153671   9.864   2.059   3.977
51215SOL    HW253672   9.837   2.213   4.021
51216SOL     OW53673  11.064   3.085   5.312
51216SOL    HW153674  11.155   3.046   5.299
51216SOL    HW253675  11.072   3.181   5.336
51217SOL     OW53676  10.374   3.209   5.064
51217SOL    HW153677  10.294   3.186   5.119
51217SOL    HW253678  10.457   3.183   5.113
51218SOL     OW53679  10.902   3.491   5.349
51218SOL    HW153680  10.929   3.525   5.259
51218SOL    HW253681  10.981   3.453   5.395
51219SOL     OW53682  10.421   3.057   4.824
51219SOL    HW153683  10.381   3.101   4.905
51219SOL    HW253684  10.380   3.094   4.741
51220SOL     OW53685  10.948   2.961   4.803
51220SOL    HW153686  10.953   3.042   4.862
51220SOL    HW253687  10.862   2.963   4.752
51221SOL     OW53688  10.225   1.951   5.126
51221SOL    HW153689  10.250   1.931   5.031
51221SOL    HW253690  10.297   2.007   5.168
51222SOL     OW53691  10.290   2.978   5.443
51222SOL    HW153692  10.191   2.984   5.453
51222SOL    HW253693  10.313   2.898   5.387
51223SOL     OW53694  10.015   2.912   4.092
51223SOL    HW153695  10.001   2.919   4.191
51223SOL    HW253696  10.099   2.861   4.074
51224SOL     OW53697   9.720   2.675   4.975
51224SOL    HW153698   9.806   2.687   5.025
51224SOL    HW253699   9.678   2.588   5.002
51225SOL     OW53700  10.584   2.248   4.986
51225SOL    HW153701  10.605   2.322   5.050
51225SOL    HW253702  10.495   2.265   4.943
51226SOL     OW53703   9.374   3.426   5.055
51226SOL    HW153704   9.328   3.508   5.021
51226SOL    HW253705   9.472   3.445   5.064
51227SOL     OW53706   9.677   2.962   4.225
51227SOL    HW153707   9.670   3.045   4.169
51227SOL    HW253708   9.681   2.882   4.165
51228SOL     OW53709   9.876   2.399   4.589
51228SOL    HW153710   9.888   2.465   4.515
51228SOL    HW253711   9.922   2.433   4.672
51229SOL     OW53712  10.562   3.210   4.112
51229SOL    HW153713  10.612   3.287   4.152
51229SOL    HW253714  10.467   3.212   4.144
51230SOL     OW53715  10.582   3.307   4.866
51230SOL    HW153716  10.629   3.320   4.953
51230SOL    HW253717  10.516   3.233   4.875
51231SOL     OW53718  10.892   2.501   4.196
51231SOL    HW153719  10.861   2.562   4.269
51231SOL    HW253720  10.942   2.553   4.127
51232SOL     OW53721   9.664   3.372   5.053
51232SOL    HW153722   9.643   3.328   4.966
51232SOL    HW253723   9.761   3.398   5.056
51233SOL     OW53724   9.712   2.613   5.322
51233SOL    HW153725   9.780   2.668   5.275
51233SOL    HW253726   9.752   2.525   5.349
51234SOL     OW53727  10.897   2.641   5.394
51234SOL    HW153728  10.805   2.679   5.389
51234SOL    HW253729  10.957   2.688   5.329
51235SOL     OW53730  10.323   1.967   5.494
51235SOL    HW153731  10.329   2.052   5.442
51235SOL    HW253732  10.355   1.891   5.437
51236SOL     OW53733   9.814   1.912   5.464
51236SOL    HW153734   9.772   1.855   5.394
51236SOL    HW253735   9.748   1.981   5.496
51237SOL     OW53736   9.883   2.732   4.753
51237SOL    HW153737   9.927   2.821   4.744
51237SOL    HW253738   9.820   2.732   4.830
51238SOL     OW53739  10.670   2.724   4.769
51238SOL    HW153740  10.595   2.724   4.703
51238SOL    HW253741  10.707   2.632   4.778
51239SOL     OW53742  10.519   2.387   3.999
51239SOL    HW153743  10.532   2.303   4.053
51239SOL    HW253744  10.490   2.461   4.059
51240SOL     OW53745   9.617   2.075   4.955
51240SOL    HW153746   9.594   2.112   5.045
51240SOL    HW253747   9.587   1.980   4.949
51241SOL     OW53748   9.347   3.172   5.006
51241SOL    HW153749   9.400   3.123   5.074
51241SOL    HW253750   9.369   3.270   5.011
51242SOL     OW53751  10.042   2.496   4.788
51242SOL    HW153752  10.101   2.470   4.712
51242SOL    HW253753  10.014   2.592   4.777
51243SOL     OW53754  11.038   2.797   5.578
51243SOL    HW153755  10.992   2.790   5.489
51243SOL    HW253756  10.976   2.841   5.644
51244SOL     OW53757   9.617   1.925   4.342
51244SOL    HW153758   9.606   2.019   4.375
51244SOL    HW253759   9.612   1.862   4.419
51245SOL     OW53760  10.932   2.229   4.098
51245SOL    HW153761  10.934   2.153   4.162
51245SOL    HW253762  10.884   2.306   4.138
51246SOL     OW53763  10.333   2.628   4.690
51246SOL    HW153764  10.348   2.649   4.786
51246SOL    HW253765  10.303   2.533   4.681
51247SOL     OW53766  10.290   3.435   5.424
51247SOL    HW153767  10.270   3.479   5.336
51247SOL    HW253768  10.329   3.344   5.408
51248SOL     OW53769  11.169   3.380   5.329
51248SOL    HW153770  11.183   3.407   5.234
51248SOL    HW253771  11.252   3.402   5.382
51249SOL     OW53772   9.660   2.760   5.528
51249SOL    HW153773   9.736   2.804   5.576
51249SOL    HW253774   9.695   2.713   5.446
51250SOL     OW53775  10.850   2.136   3.849
51250SOL    HW153776  10.789   2.061   3.872
51250SOL    HW253777  10.872   2.188   3.932
51251SOL     OW53778  10.613   2.700   3.766
51251SOL    HW153779  10.647   2.607   3.781
51251SOL    HW253780  10.631   2.727   3.671
51252SOL     OW53781  10.378   3.195   4.573
51252SOL    HW153782  10.385   3.111   4.518
51252SOL    HW253783  10.440   3.264   4.537
51253SOL     OW53784   9.629   2.672   4.673
51253SOL    HW153785   9.722   2.708   4.678
51253SOL    HW253786   9.623   2.587   4.725
51254SOL     OW53787   9.649   2.371   4.730
51254SOL    HW153788   9.597   2.288   4.713
51254SOL    HW253789   9.726   2.376   4.666
51255SOL     OW53790  10.448   2.242   5.402
51255SOL    HW153791  10.403   2.305   5.466
51255SOL    HW253792  10.541   2.273   5.385
51256SOL     OW53793  10.470   2.069   5.201
51256SOL    HW153794  10.470   2.133   5.278
51256SOL    HW253795  10.498   2.117   5.118
51257SOL     OW53796   9.318   3.188   3.924
51257SOL    HW153797   9.225   3.209   3.893
51257SOL    HW253798   9.328   3.089   3.937
51258SOL     OW53799   9.398   3.663   4.651
51258SOL    HW153800   9.356   3.577   4.624
51258SOL    HW253801   9.492   3.666   4.617
51259SOL     OW53802   9.814   3.430   4.634
51259SOL    HW153803   9.880   3.504   4.643
51259SOL    HW253804   9.858   3.351   4.592
51260SOL     OW53805  10.312   2.658   4.962
51260SOL    HW153806  10.353   2.626   5.048
51260SOL    HW253807  10.216   2.631   4.959
51261SOL     OW53808   9.350   2.406   4.838
51261SOL    HW153809   9.435   2.373   4.797
51261SOL    HW253810   9.363   2.421   4.936
51262SOL     OW53811   9.499   2.382   5.446
51262SOL    HW153812   9.558   2.342   5.376
51262SOL    HW253813   9.441   2.453   5.405
51263SOL     OW53814  10.679   2.812   5.384
51263SOL    HW153815  10.718   2.901   5.404
51263SOL    HW253816  10.689   2.792   5.287
51264SOL     OW53817  10.125   2.434   4.049
51264SOL    HW153818  10.132   2.345   4.003
51264SOL    HW253819  10.031   2.468   4.041
51265SOL     OW53820  10.967   2.466   4.930
51265SOL    HW153821  10.929   2.397   4.992
51265SOL    HW253822  11.049   2.430   4.886
51266SOL     OW53823   9.562   3.426   5.468
51266SOL    HW153824   9.532   3.483   5.544
51266SOL    HW253825   9.555   3.329   5.494
51267SOL     OW53826   9.981   2.326   4.993
51267SOL    HW153827   9.947   2.237   4.963
51267SOL    HW253828  10.007   2.380   4.913
51268SOL     OW53829  10.240   3.540   5.189
51268SOL    HW153830  10.216   3.522   5.094
51268SOL    HW253831  10.270   3.634   5.199
51269SOL     OW53832   9.783   2.362   3.915
51269SOL    HW153833   9.844   2.442   3.919
51269SOL    HW253834   9.688   2.393   3.922
51270SOL     OW53835   9.469   2.999   5.190
51270SOL    HW153836   9.491   2.938   5.266
51270SOL    HW253837   9.479   2.950   5.104
51271SOL     OW53838  10.657   2.921   4.958
51271SOL    HW153839  10.681   2.858   4.884
51271SOL    HW253840  10.567   2.961   4.940
51272SOL     OW53841  10.612   2.717   4.033
51272SOL    HW153842  10.526   2.686   4.075
51272SOL    HW253843  10.608   2.703   3.934
51273SOL     OW53844  11.069   3.609   4.878
51273SOL    HW153845  11.130   3.639   4.805
51273SOL    HW253846  11.031   3.520   4.856
51274SOL     OW53847  10.562   3.593   4.852
51274SOL    HW153848  10.646   3.598   4.798
51274SOL    HW253849  10.539   3.497   4.870
51275SOL     OW53850   9.393   3.120   4.746
51275SOL    HW153851   9.388   3.119   4.846
51275SOL    HW253852   9.310   3.079   4.708
51276SOL     OW53853   9.998   3.524   5.440
51276SOL    HW153854   9.942   3.605   5.449
51276SOL    HW253855  10.050   3.528   5.354
51277SOL     OW53856  11.036   1.997   4.247
51277SOL    HW153857  11.109   1.980   4.180
51277SOL    HW253858  11.005   1.910   4.285
51278SOL     OW53859  10.698   3.435   4.201
51278SOL    HW153860  10.765   3.447   4.127
51278SOL    HW253861  10.658   3.524   4.224
51279SOL     OW53862   9.440   3.656   5.575
51279SOL    HW153863   9.399   3.582   5.628
51279SOL    HW253864   9.504   3.707   5.633
51280SOL     OW53865  10.590   2.789   4.396
51280SOL    HW153866  10.650   2.708   4.398
51280SOL    HW253867  10.630   2.858   4.336
51281SOL     OW53868  10.140   3.135   5.146
51281SOL    HW153869  10.135   3.168   5.241
51281SOL    HW253870  10.054   3.154   5.100
51282SOL     OW53871   9.982   3.478   3.878
51282SOL    HW153872   9.991   3.488   3.779
51282SOL    HW253873   9.942   3.389   3.899
51283SOL     OW53874  10.960   3.582   5.118
51283SOL    HW153875  11.013   3.592   5.034
51283SOL    HW253876  10.933   3.672   5.152
51284SOL     OW53877  11.151   2.037   4.687
51284SOL    HW153878  11.190   1.952   4.651
51284SOL    HW253879  11.053   2.039   4.668
51285SOL     OW53880   9.573   2.188   4.444
51285SOL    HW153881   9.494   2.239   4.410
51285SOL    HW253882   9.564   2.173   4.542
51286SOL     OW53883  10.504   3.474   3.755
51286SOL    HW153884  10.510   3.381   3.792
51286SOL    HW253885  10.445   3.474   3.675
51287SOL     OW53886  10.132   2.864   5.096
51287SOL    HW153887  10.172   2.863   5.004
51287SOL    HW253888  10.142   2.956   5.136
51288SOL     OW53889  10.226   2.772   4.015
51288SOL    HW153890  10.289   2.810   3.947
51288SOL    HW253891  10.266   2.689   4.054
51289SOL     OW53892  10.814   3.469   3.768
51289SOL    HW153893  10.722   3.506   3.775
51289SOL    HW253894  10.852   3.489   3.678
51290SOL     OW53895   9.682   3.150   5.214
51290SOL    HW153896   9.669   3.243   5.180
51290SOL    HW253897   9.598   3.098   5.201
51291SOL     OW53898  10.349   2.960   4.420
51291SOL    HW153899  10.279   2.913   4.474
51291SOL    HW253900  10.408   2.892   4.377
51292SOL     OW53901  10.324   2.098   4.695
51292SOL    HW153902  10.316   2.062   4.602
51292SOL    HW253903  10.322   2.022   4.760
51293SOL     OW53904   9.900   3.349   4.215
51293SOL    HW153905   9.942   3.291   4.145
51293SOL    HW253906   9.856   3.428   4.171
51294SOL     OW53907  11.019   2.247   5.105
51294SOL    HW153908  11.092   2.316   5.109
51294SOL    HW253909  11.047   2.172   5.046
51295SOL     OW53910   9.565   3.210   4.014
51295SOL    HW153911   9.469   3.211   3.987
51295SOL    HW253912   9.577   3.263   4.098
51296SOL     OW53913   9.415   2.875   5.450
51296SOL    HW153914   9.338   2.842   5.504
51296SOL    HW253915   9.500   2.845   5.492
51297SOL     OW53916   9.982   2.065   5.213
51297SOL    HW153917  10.072   2.049   5.173
51297SOL    HW253918   9.990   2.070   5.312
51298SOL     OW53919   9.385   2.207   3.757
51298SOL    HW153920   9.293   2.179   3.728
51298SOL    HW253921   9.416   2.284   3.701
51299SOL     OW53922  10.750   2.718   5.122
51299SOL    HW153923  10.693   2.770   5.059
51299SOL    HW253924  10.846   2.730   5.098
51300SOL     OW53925   9.382   2.028   4.042
51300SOL    HW153926   9.365   2.111   3.988
51300SOL    HW253927   9.472   1.991   4.020
51301SOL     OW53928  10.493   3.197   3.843
51301SOL    HW153929  10.394   3.186   3.845
51301SOL    HW253930  10.527   3.212   3.936
51302SOL     OW53931   9.923   2.704   5.155
51302SOL    HW153932   9.979   2.785   5.138
51302SOL    HW253933   9.982   2.624   5.158
51303SOL     OW53934  10.803   3.629   4.683
51303SOL    HW153935  10.836   3.693   4.614
51303SOL    HW253936  10.869   3.623   4.758
51304SOL     OW53937  10.026   2.427   5.432
51304SOL    HW153938  10.045   2.492   5.506
51304SOL    HW253939  10.086   2.347   5.441
51305SOL     OW53940  10.760   3.082   5.357
51305SOL    HW153941  10.751   3.072   5.456
51305SOL    HW253942  10.856   3.075   5.331
51306SOL     OW53943   9.700   3.603   5.284
51306SOL    HW153944   9.609   3.644   5.282
51306SOL    HW253945   9.693   3.509   5.316
51307SOL     OW53946  10.984   2.745   4.978
51307SOL    HW153947  10.957   2.656   4.941
51307SOL    HW253948  10.985   2.813   4.905
51308SOL     OW53949  10.535   2.187   4.173
51308SOL    HW153950  10.600   2.113   4.162
51308SOL    HW253951  10.555   2.237   4.257
51309SOL     OW53952   9.904   2.607   4.376
51309SOL    HW153953   9.954   2.692   4.357
51309SOL    HW253954   9.816   2.609   4.328
51310SOL     OW53955  11.087   2.204   5.366
51310SOL    HW153956  11.070   2.235   5.272
51310SOL    HW253957  11.003   2.167   5.404
51311SOL     OW53958  11.040   2.796   5.241
51311SOL    HW153959  11.078   2.887   5.256
51311SOL    HW253960  11.032   2.779   5.142
51312SOL     OW53961  10.169   3.236   3.740
51312SOL    HW153962  10.123   3.251   3.828
51312SOL    HW253963  10.213   3.321   3.710
51313SOL     OW53964   9.971   3.652   4.677
51313SOL    HW153965   9.925   3.740   4.664
51313SOL    HW253966  10.070   3.664   4.670
51314SOL     OW53967  10.169   2.818   4.585
51314SOL    HW153968  10.223   2.749   4.633
51314SOL    HW253969  10.137   2.887   4.651
51315SOL     OW53970  10.393   2.846   3.811
51315SOL    HW153971  10.370   2.899   3.729
51315SOL    HW253972  10.474   2.790   3.792
51316SOL     OW53973  11.171   3.431   4.575
51316SOL    HW153974  11.100   3.419   4.505
51316SOL    HW253975  11.172   3.352   4.635
51317SOL     OW53976   9.531   3.176   5.568
51317SOL    HW153977   9.466   3.103   5.547
51317SOL    HW253978   9.535   3.190   5.666
51318SOL     OW53979   9.389   3.102   4.377
51318SOL    HW153980   9.388   3.055   4.465
51318SOL    HW253981   9.471   3.074   4.326
51319SOL     OW53982   9.982   3.253   5.348
51319SOL    HW153983   9.904   3.203   5.386
51319SOL    HW253984   9.979   3.348   5.379
51320SOL     OW53985  11.134   2.054   4.951
51320SOL    HW153986  11.130   1.964   4.995
51320SOL    HW253987  11.137   2.043   4.852
51321SOL     OW53988   9.738   2.286   4.244
51321SOL    HW153989   9.768   2.214   4.182
51321SOL    HW253990   9.699   2.246   4.327
51322SOL     OW53991  11.015   3.349   4.828
51322SOL    HW153992  10.922   3.324   4.801
51322SOL    HW253993  11.041   3.299   4.910
51323SOL     OW53994   9.627   2.409   5.004
51323SOL    HW153995   9.665   2.350   5.076
51323SOL    HW253996   9.667   2.383   4.916
51324SOL     OW53997  10.122   3.448   4.411
51324SOL    HW153998  10.154   3.458   4.317
51324SOL    HW253999  10.043   3.386   4.413
51325SOL     OW54000  10.734   2.076   4.836
51325SOL    HW154001  10.786   2.011   4.891
51325SOL    HW254002  10.685   2.139   4.897
51326SOL     OW54003  10.311   1.896   4.878
51326SOL    HW154004  10.248   1.824   4.847
51326SOL    HW254005  10.404   1.860   4.878
51327SOL     OW54006  10.080   3.192   4.025
51327SOL    HW154007  10.034   3.105   4.042
51327SOL    HW254008  10.171   3.189   4.066
51328SOL     OW54009   9.928   3.429   5.008
51328SOL    HW154010   9.923   3.511   5.065
51328SOL    HW254011  10.017   3.426   4.963
51329SOL     OW54012  10.662   1.914   3.892
51329SOL    HW154013  10.697   1.873   3.808
51329SOL    HW254014  10.572   1.876   3.912
51330SOL     OW54015  10.610   2.315   4.415
51330SOL    HW154016  10.551   2.395   4.419
51330SOL    HW254017  10.625   2.280   4.508
51331SOL     OW54018  10.903   2.083   4.606
51331SOL    HW154019  10.819   2.082   4.660
51331SOL    HW254020  10.905   2.166   4.550
51332SOL     OW54021   9.349   2.939   4.024
51332SOL    HW154022   9.448   2.928   4.015
51332SOL    HW254023   9.309   2.853   4.056
51333SOL     OW54024  10.185   3.508   4.061
51333SOL    HW154025  10.108   3.473   4.007
51333SOL    HW254026  10.153   3.579   4.123
51334SOL     OW54027   9.540   2.490   5.699
51334SOL    HW154028   9.447   2.488   5.736
51334SOL    HW254029   9.541   2.451   5.607
51335SOL     OW54030   9.535   2.137   6.582
51335SOL    HW154031   9.570   2.120   6.674
51335SOL    HW254032   9.447   2.092   6.570
51336SOL     OW54033   9.329   2.230   6.233
51336SOL    HW154034   9.247   2.273   6.272
51336SOL    HW254035   9.301   2.157   6.170
51337SOL     OW54036   9.879   3.137   6.751
51337SOL    HW154037   9.786   3.130   6.714
51337SOL    HW254038   9.890   3.226   6.795
51338SOL     OW54039  10.865   3.373   6.289
51338SOL    HW154040  10.808   3.357   6.370
51338SOL    HW254041  10.806   3.383   6.209
51339SOL     OW54042  10.445   2.565   6.303
51339SOL    HW154043  10.502   2.643   6.278
51339SOL    HW254044  10.385   2.591   6.379
51340SOL     OW54045  11.065   2.469   5.817
51340SOL    HW154046  11.053   2.456   5.718
51340SOL    HW254047  11.035   2.388   5.866
51341SOL     OW54048  10.078   3.006   6.609
51341SOL    HW154049  10.000   3.023   6.669
51341SOL    HW254050  10.112   3.093   6.573
51342SOL     OW54051  10.160   2.660   7.409
51342SOL    HW154052  10.156   2.736   7.474
51342SOL    HW254053  10.182   2.696   7.318
51343SOL     OW54054   9.995   2.874   6.251
51343SOL    HW154055  10.064   2.858   6.321
51343SOL    HW254056   9.922   2.931   6.289
51344SOL     OW54057   9.996   3.023   7.389
51344SOL    HW154058  10.056   3.102   7.403
51344SOL    HW254059   9.910   3.054   7.348
51345SOL     OW54060   9.645   3.297   6.647
51345SOL    HW154061   9.567   3.266   6.594
51345SOL    HW254062   9.703   3.355   6.590
51346SOL     OW54063  10.770   3.367   6.925
51346SOL    HW154064  10.794   3.461   6.951
51346SOL    HW254065  10.754   3.313   7.007
51347SOL     OW54066   9.748   2.254   7.085
51347SOL    HW154067   9.830   2.198   7.094
51347SOL    HW254068   9.667   2.196   7.089
51348SOL     OW54069  10.913   2.309   6.323
51348SOL    HW154070  10.839   2.355   6.273
51348SOL    HW254071  10.964   2.377   6.376
51349SOL     OW54072   9.541   3.575   6.069
51349SOL    HW154073   9.575   3.652   6.123
51349SOL    HW254074   9.585   3.575   5.979
51350SOL     OW54075  10.437   3.203   7.276
51350SOL    HW154076  10.484   3.203   7.364
51350SOL    HW254077  10.389   3.116   7.265
51351SOL     OW54078   9.540   3.296   6.124
51351SOL    HW154079   9.514   3.392   6.124
51351SOL    HW254080   9.469   3.242   6.169
51352SOL     OW54081   9.550   2.953   6.472
51352SOL    HW154082   9.564   2.869   6.524
51352SOL    HW254083   9.495   3.017   6.527
51353SOL     OW54084   9.930   3.648   7.025
51353SOL    HW154085   9.838   3.631   7.060
51353SOL    HW254086   9.958   3.740   7.051
51354SOL     OW54087   9.916   2.826   5.709
51354SOL    HW154088   9.923   2.910   5.655
51354SOL    HW254089   9.962   2.839   5.797
51355SOL     OW54090  10.904   1.976   7.066
51355SOL    HW154091  10.886   2.043   6.994
51355SOL    HW254092  10.901   2.022   7.155
51356SOL     OW54093   9.432   2.505   6.149
51356SOL    HW154094   9.387   2.417   6.166
51356SOL    HW254095   9.431   2.559   6.233
51357SOL     OW54096  11.152   3.629   5.945
51357SOL    HW154097  11.206   3.600   6.025
51357SOL    HW254098  11.182   3.719   5.916
51358SOL     OW54099   9.337   3.458   5.703
51358SOL    HW154100   9.318   3.362   5.724
51358SOL    HW254101   9.304   3.516   5.778
51359SOL     OW54102  10.999   2.784   6.198
51359SOL    HW154103  11.094   2.755   6.206
51359SOL    HW254104  10.991   2.849   6.123
51360SOL     OW54105  10.951   2.970   6.018
51360SOL    HW154106  11.037   2.972   5.966
51360SOL    HW254107  10.965   3.017   6.106
51361SOL     OW54108   9.423   2.599   7.183
51361SOL    HW154109   9.511   2.586   7.228
51361SOL    HW254110   9.410   2.696   7.161
51362SOL     OW54111   9.923   3.227   6.312
51362SOL    HW154112   9.874   3.140   6.321
51362SOL    HW254113   9.900   3.270   6.225
51363SOL     OW54114  10.603   3.090   7.009
51363SOL    HW154115  10.640   3.017   6.951
51363SOL    HW254116  10.655   3.095   7.094
51364SOL     OW54117  10.119   1.866   6.088
51364SOL    HW154118  10.159   1.957   6.079
51364SOL    HW254119  10.019   1.874   6.094
51365SOL     OW54120   9.507   2.838   6.850
51365SOL    HW154121   9.596   2.793   6.836
51365SOL    HW254122   9.434   2.773   6.831
51366SOL     OW54123  10.835   2.861   5.776
51366SOL    HW154124  10.772   2.785   5.789
51366SOL    HW254125  10.883   2.879   5.862
51367SOL     OW54126  10.497   3.654   7.202
51367SOL    HW154127  10.521   3.714   7.126
51367SOL    HW254128  10.504   3.559   7.172
51368SOL     OW54129   9.627   2.113   7.387
51368SOL    HW154130   9.698   2.184   7.393
51368SOL    HW254131   9.539   2.152   7.415
51369SOL     OW54132  10.776   3.279   6.539
51369SOL    HW154133  10.717   3.285   6.619
51369SOL    HW254134  10.761   3.191   6.493
51370SOL     OW54135  10.977   3.576   6.158
51370SOL    HW154136  10.936   3.553   6.070
51370SOL    HW254137  10.959   3.502   6.223
51371SOL     OW54138   9.908   2.591   5.856
51371SOL    HW154139   9.932   2.660   5.788
51371SOL    HW254140   9.830   2.624   5.910
51372SOL     OW54141  10.591   2.207   6.530
51372SOL    HW154142  10.505   2.157   6.517
51372SOL    HW254143  10.653   2.153   6.586
51373SOL     OW54144  10.886   3.524   5.893
51373SOL    HW154145  10.975   3.570   5.896
51373SOL    HW254146  10.865   3.500   5.798
51374SOL     OW54147  10.117   2.467   7.051
51374SOL    HW154148  10.070   2.464   7.140
51374SOL    HW254149  10.066   2.412   6.985
51375SOL     OW54150  10.704   2.331   7.260
51375SOL    HW154151  10.684   2.374   7.348
51375SOL    HW254152  10.782   2.269   7.269
51376SOL     OW54153  10.283   2.752   7.158
51376SOL    HW154154  10.329   2.668   7.129
51376SOL    HW254155  10.227   2.786   7.083
51377SOL     OW54156  10.301   2.272   6.828
51377SOL    HW154157  10.224   2.306   6.882
51377SOL    HW254158  10.267   2.221   6.749
51378SOL     OW54159  10.351   2.563   6.015
51378SOL    HW154160  10.377   2.559   6.111
51378SOL    HW254161  10.266   2.512   6.001
51379SOL     OW54162   9.386   2.673   6.375
51379SOL    HW154163   9.485   2.661   6.384
51379SOL    HW254164   9.362   2.768   6.396
51380SOL     OW54165   9.440   3.683   7.157
51380SOL    HW154166   9.430   3.668   7.256
51380SOL    HW254167   9.354   3.719   7.121
51381SOL     OW54168  10.175   2.210   5.781
51381SOL    HW154169  10.234   2.273   5.732
51381SOL    HW254170  10.194   2.116   5.752
51382SOL     OW54171  11.029   2.447   7.417
51382SOL    HW154172  11.003   2.536   7.381
51382SOL    HW254173  11.027   2.379   7.344
51383SOL     OW54174  10.672   3.006   6.131
51383SOL    HW154175  10.755   2.977   6.083
51383SOL    HW254176  10.623   3.073   6.075
51384SOL     OW54177   9.860   2.058   6.471
51384SOL    HW154178   9.855   2.053   6.571
51384SOL    HW254179   9.862   2.154   6.442
51385SOL     OW54180  10.318   3.318   6.063
51385SOL    HW154181  10.272   3.390   6.011
51385SOL    HW254182  10.314   3.338   6.161
51386SOL     OW54183   9.661   3.663   6.439
51386SOL    HW154184   9.711   3.577   6.445
51386SOL    HW254185   9.726   3.740   6.436
51387SOL     OW54186  11.105   2.928   6.459
51387SOL    HW154187  11.043   2.913   6.383
51387SOL    HW254188  11.053   2.939   6.544
51388SOL     OW54189  10.537   3.412   7.092
51388SOL    HW154190  10.543   3.335   7.156
51388SOL    HW254191  10.485   3.386   7.012
51389SOL     OW54192   9.631   2.805   5.828
51389SOL    HW154193   9.713   2.844   5.786
51389SOL    HW254194   9.604   2.723   5.779
51390SOL     OW54195  10.768   2.597   6.314
51390SOL    HW154196  10.763   2.532   6.389
51390SOL    HW254197  10.848   2.656   6.327
51391SOL     OW54198   9.771   3.128   7.313
51391SOL    HW154199   9.721   3.129   7.227
51391SOL    HW254200   9.708   3.110   7.389
51392SOL     OW54201  10.421   3.638   5.823
51392SOL    HW154202  10.361   3.576   5.873
51392SOL    HW254203  10.452   3.594   5.738
51393SOL     OW54204   9.512   2.147   7.084
51393SOL    HW154205   9.432   2.207   7.071
51393SOL    HW254206   9.502   2.098   7.170
51394SOL     OW54207  10.942   3.239   5.667
51394SOL    HW154208  10.910   3.333   5.657
51394SOL    HW254209  10.866   3.176   5.655
51395SOL     OW54210   9.774   3.605   5.909
51395SOL    HW154211   9.807   3.644   5.995
51395SOL    HW254212   9.850   3.598   5.844
51396SOL     OW54213  10.710   1.969   6.012
51396SOL    HW154214  10.686   1.932   5.922
51396SOL    HW254215  10.809   1.985   6.016
51397SOL     OW54216   9.559   3.647   6.827
51397SOL    HW154217   9.616   3.582   6.877
51397SOL    HW254218   9.543   3.614   6.734
51398SOL     OW54219  10.250   3.560   6.490
51398SOL    HW154220  10.330   3.503   6.511
51398SOL    HW254221  10.201   3.520   6.413
51399SOL     OW54222   9.692   2.562   6.066
51399SOL    HW154223   9.737   2.472   6.063
51399SOL    HW254224   9.598   2.551   6.099
51400SOL     OW54225  10.857   2.084   7.315
51400SOL    HW154226  10.852   2.121   7.407
51400SOL    HW254227  10.785   2.015   7.303
51401SOL     OW54228   9.924   1.984   5.703
51401SOL    HW154229  10.022   1.962   5.710
51401SOL    HW254230   9.893   1.967   5.610
51402SOL     OW54231  10.091   2.126   7.335
51402SOL    HW154232  10.158   2.065   7.378
51402SOL    HW254233  10.018   2.145   7.400
51403SOL     OW54234  10.198   3.376   6.781
51403SOL    HW154235  10.175   3.351   6.687
51403SOL    HW254236  10.259   3.307   6.820
51404SOL     OW54237  10.661   2.452   7.019
51404SOL    HW154238  10.689   2.409   7.104
51404SOL    HW254239  10.686   2.548   7.020
51405SOL     OW54240  10.113   3.264   6.510
51405SOL    HW154241  10.203   3.278   6.468
51405SOL    HW254242  10.042   3.266   6.439
51406SOL     OW54243  10.232   2.365   6.485
51406SOL    HW154244  10.207   2.356   6.389
51406SOL    HW254245  10.280   2.283   6.516
51407SOL     OW54246   9.849   1.926   6.098
51407SOL    HW154247   9.768   1.927   6.156
51407SOL    HW254248   9.852   2.009   6.043
51408SOL     OW54249  10.744   3.050   5.627
51408SOL    HW154250  10.776   2.974   5.684
51408SOL    HW254251  10.652   3.077   5.657
51409SOL     OW54252   9.607   1.897   5.757
51409SOL    HW154253   9.656   1.981   5.736
51409SOL    HW254254   9.669   1.832   5.802
51410SOL     OW54255  10.245   2.098   6.066
51410SOL    HW154256  10.197   2.139   5.988
51410SOL    HW254257  10.344   2.096   6.047
51411SOL     OW54258  10.386   2.545   7.050
51411SOL    HW154259  10.306   2.484   7.053
51411SOL    HW254260  10.467   2.492   7.026
51412SOL     OW54261  10.537   3.432   6.379
51412SOL    HW154262  10.558   3.506   6.314
51412SOL    HW254263  10.605   3.432   6.452
51413SOL     OW54264   9.769   3.014   6.327
51413SOL    HW154265   9.698   2.987   6.392
51413SOL    HW254266   9.743   2.986   6.234
51414SOL     OW54267  10.581   3.659   6.177
51414SOL    HW154268  10.625   3.723   6.113
51414SOL    HW254269  10.531   3.711   6.247
51415SOL     OW54270  10.342   2.411   5.602
51415SOL    HW154271  10.301   2.493   5.563
51415SOL    HW254272  10.406   2.437   5.675
51416SOL     OW54273   9.388   2.418   6.972
51416SOL    HW154274   9.480   2.417   6.931
51416SOL    HW254275   9.382   2.492   7.039
51417SOL     OW54276   9.871   2.084   6.733
51417SOL    HW154277   9.909   2.000   6.770
51417SOL    HW254278   9.783   2.103   6.777
51418SOL     OW54279  10.176   2.316   6.228
51418SOL    HW154280  10.144   2.388   6.166
51418SOL    HW254281  10.200   2.235   6.175
51419SOL     OW54282  10.327   1.901   6.339
51419SOL    HW154283  10.255   1.906   6.270
51419SOL    HW254284  10.303   1.832   6.408
51420SOL     OW54285  10.739   3.035   6.453
51420SOL    HW154286  10.684   2.951   6.446
51420SOL    HW254287  10.765   3.064   6.361
51421SOL     OW54288  10.776   2.452   6.578
51421SOL    HW154289  10.746   2.357   6.585
51421SOL    HW254290  10.849   2.468   6.644
51422SOL     OW54291  11.167   2.695   5.963
51422SOL    HW154292  11.209   2.631   6.027
51422SOL    HW254293  11.129   2.644   5.885
51423SOL     OW54294   9.798   3.247   5.760
51423SOL    HW154295   9.711   3.232   5.807
51423SOL    HW254296   9.781   3.273   5.665
51424SOL     OW54297  10.974   3.142   6.243
51424SOL    HW154298  11.073   3.150   6.257
51424SOL    HW254299  10.929   3.226   6.274
51425SOL     OW54300  10.700   2.437   5.664
51425SOL    HW154301  10.646   2.416   5.745
51425SOL    HW254302  10.791   2.396   5.673
51426SOL     OW54303   9.837   2.118   5.914
51426SOL    HW154304   9.864   2.059   5.839
51426SOL    HW254305   9.837   2.213   5.883
51427SOL     OW54306  11.064   3.085   7.174
51427SOL    HW154307  11.155   3.046   7.161
51427SOL    HW254308  11.072   3.181   7.198
51428SOL     OW54309  10.374   3.209   6.926
51428SOL    HW154310  10.294   3.186   6.981
51428SOL    HW254311  10.457   3.183   6.975
51429SOL     OW54312  10.902   3.491   7.211
51429SOL    HW154313  10.929   3.525   7.121
51429SOL    HW254314  10.981   3.453   7.257
51430SOL     OW54315  10.421   3.057   6.686
51430SOL    HW154316  10.381   3.101   6.767
51430SOL    HW254317  10.380   3.094   6.603
51431SOL     OW54318  10.948   2.961   6.665
51431SOL    HW154319  10.953   3.042   6.724
51431SOL    HW254320  10.862   2.963   6.614
51432SOL     OW54321  10.225   1.951   6.988
51432SOL    HW154322  10.250   1.931   6.893
51432SOL    HW254323  10.297   2.007   7.030
51433SOL     OW54324  10.290   2.978   7.305
51433SOL    HW154325  10.191   2.984   7.315
51433SOL    HW254326  10.313   2.898   7.249
51434SOL     OW54327  10.015   2.912   5.954
51434SOL    HW154328  10.001   2.919   6.053
51434SOL    HW254329  10.099   2.861   5.936
51435SOL     OW54330   9.720   2.675   6.837
51435SOL    HW154331   9.806   2.687   6.887
51435SOL    HW254332   9.678   2.588   6.864
51436SOL     OW54333  10.584   2.248   6.848
51436SOL    HW154334  10.605   2.322   6.912
51436SOL    HW254335  10.495   2.265   6.805
51437SOL     OW54336   9.374   3.426   6.917
51437SOL    HW154337   9.328   3.508   6.883
51437SOL    HW254338   9.472   3.445   6.926
51438SOL     OW54339   9.677   2.962   6.087
51438SOL    HW154340   9.670   3.045   6.031
51438SOL    HW254341   9.681   2.882   6.027
51439SOL     OW54342   9.876   2.399   6.451
51439SOL    HW154343   9.888   2.465   6.377
51439SOL    HW254344   9.922   2.433   6.534
51440SOL     OW54345  10.562   3.210   5.974
51440SOL    HW154346  10.612   3.287   6.014
51440SOL    HW254347  10.467   3.212   6.006
51441SOL     OW54348  10.582   3.307   6.728
51441SOL    HW154349  10.629   3.320   6.815
51441SOL    HW254350  10.516   3.233   6.737
51442SOL     OW54351  10.892   2.501   6.058
51442SOL    HW154352  10.861   2.562   6.131
51442SOL    HW254353  10.942   2.553   5.989
51443SOL     OW54354   9.664   3.372   6.915
51443SOL    HW154355   9.643   3.328   6.828
51443SOL    HW254356   9.761   3.398   6.918
51444SOL     OW54357   9.712   2.613   7.184
51444SOL    HW154358   9.780   2.668   7.137
51444SOL    HW254359   9.752   2.525   7.211
51445SOL     OW54360  10.897   2.641   7.256
51445SOL    HW154361  10.805   2.679   7.251
51445SOL    HW254362  10.957   2.688   7.191
51446SOL     OW54363  10.323   1.967   7.356
51446SOL    HW154364  10.329   2.052   7.304
51446SOL    HW254365  10.355   1.891   7.299
51447SOL     OW54366   9.814   1.912   7.326
51447SOL    HW154367   9.772   1.855   7.256
51447SOL    HW254368   9.748   1.981   7.358
51448SOL     OW54369   9.883   2.732   6.615
51448SOL    HW154370   9.927   2.821   6.606
51448SOL    HW254371   9.820   2.732   6.692
51449SOL     OW54372  10.670   2.724   6.631
51449SOL    HW154373  10.595   2.724   6.565
51449SOL    HW254374  10.707   2.632   6.640
51450SOL     OW54375  10.519   2.387   5.861
51450SOL    HW154376  10.532   2.303   5.915
51450SOL    HW254377  10.490   2.461   5.921
51451SOL     OW54378   9.617   2.075   6.817
51451SOL    HW154379   9.594   2.112   6.907
51451SOL    HW254380   9.587   1.980   6.811
51452SOL     OW54381   9.347   3.172   6.868
51452SOL    HW154382   9.400   3.123   6.936
51452SOL    HW254383   9.369   3.270   6.873
51453SOL     OW54384  10.042   2.496   6.650
51453SOL    HW154385  10.101   2.470   6.574
51453SOL    HW254386  10.014   2.592   6.639
51454SOL     OW54387  11.038   2.797   7.440
51454SOL    HW154388  10.992   2.790   7.351
51454SOL    HW254389  10.976   2.841   7.506
51455SOL     OW54390   9.617   1.925   6.204
51455SOL    HW154391   9.606   2.019   6.237
51455SOL    HW254392   9.612   1.862   6.281
51456SOL     OW54393  10.932   2.229   5.960
51456SOL    HW154394  10.934   2.153   6.024
51456SOL    HW254395  10.884   2.306   6.000
51457SOL     OW54396  10.333   2.628   6.552
51457SOL    HW154397  10.348   2.649   6.648
51457SOL    HW254398  10.303   2.533   6.543
51458SOL     OW54399  10.290   3.435   7.286
51458SOL    HW154400  10.270   3.479   7.198
51458SOL    HW254401  10.329   3.344   7.270
51459SOL     OW54402  11.169   3.380   7.191
51459SOL    HW154403  11.183   3.407   7.096
51459SOL    HW254404  11.252   3.402   7.244
51460SOL     OW54405   9.660   2.760   7.390
51460SOL    HW154406   9.736   2.804   7.438
51460SOL    HW254407   9.695   2.713   7.308
51461SOL     OW54408  10.850   2.136   5.711
51461SOL    HW154409  10.789   2.061   5.734
51461SOL    HW254410  10.872   2.188   5.794
51462SOL     OW54411  10.613   2.700   5.628
51462SOL    HW154412  10.647   2.607   5.643
51462SOL    HW254413  10.631   2.727   5.533
51463SOL     OW54414  10.378   3.195   6.435
51463SOL    HW154415  10.385   3.111   6.380
51463SOL    HW254416  10.440   3.264   6.399
51464SOL     OW54417   9.629   2.672   6.535
51464SOL    HW154418   9.722   2.708   6.540
51464SOL    HW254419   9.623   2.587   6.587
51465SOL     OW54420   9.649   2.371   6.592
51465SOL    HW154421   9.597   2.288   6.575
51465SOL    HW254422   9.726   2.376   6.528
51466SOL     OW54423  10.448   2.242   7.264
51466SOL    HW154424  10.403   2.305   7.328
51466SOL    HW254425  10.541   2.273   7.247
51467SOL     OW54426  10.470   2.069   7.063
51467SOL    HW154427  10.470   2.133   7.140
51467SOL    HW254428  10.498   2.117   6.980
51468SOL     OW54429   9.318   3.188   5.786
51468SOL    HW154430   9.225   3.209   5.755
51468SOL    HW254431   9.328   3.089   5.799
51469SOL     OW54432   9.398   3.663   6.513
51469SOL    HW154433   9.356   3.577   6.486
51469SOL    HW254434   9.492   3.666   6.479
51470SOL     OW54435   9.814   3.430   6.496
51470SOL    HW154436   9.880   3.504   6.505
51470SOL    HW254437   9.858   3.351   6.454
51471SOL     OW54438  10.312   2.658   6.824
51471SOL    HW154439  10.353   2.626   6.910
51471SOL    HW254440  10.216   2.631   6.821
51472SOL     OW54441   9.350   2.406   6.700
51472SOL    HW154442   9.435   2.373   6.659
51472SOL    HW254443   9.363   2.421   6.798
51473SOL     OW54444   9.499   2.382   7.308
51473SOL    HW154445   9.558   2.342   7.238
51473SOL    HW254446   9.441   2.453   7.267
51474SOL     OW54447  10.679   2.812   7.246
51474SOL    HW154448  10.718   2.901   7.266
51474SOL    HW254449  10.689   2.792   7.149
51475SOL     OW54450  10.125   2.434   5.911
51475SOL    HW154451  10.132   2.345   5.865
51475SOL    HW254452  10.031   2.468   5.903
51476SOL     OW54453  10.967   2.466   6.792
51476SOL    HW154454  10.929   2.397   6.854
51476SOL    HW254455  11.049   2.430   6.748
51477SOL     OW54456   9.562   3.426   7.330
51477SOL    HW154457   9.532   3.483   7.406
51477SOL    HW254458   9.555   3.329   7.356
51478SOL     OW54459   9.981   2.326   6.855
51478SOL    HW154460   9.947   2.237   6.825
51478SOL    HW254461  10.007   2.380   6.775
51479SOL     OW54462  10.240   3.540   7.051
51479SOL    HW154463  10.216   3.522   6.956
51479SOL    HW254464  10.270   3.634   7.061
51480SOL     OW54465   9.783   2.362   5.777
51480SOL    HW154466   9.844   2.442   5.781
51480SOL    HW254467   9.688   2.393   5.784
51481SOL     OW54468   9.469   2.999   7.052
51481SOL    HW154469   9.491   2.938   7.128
51481SOL    HW254470   9.479   2.950   6.966
51482SOL     OW54471  10.657   2.921   6.820
51482SOL    HW154472  10.681   2.858   6.746
51482SOL    HW254473  10.567   2.961   6.802
51483SOL     OW54474  10.612   2.717   5.895
51483SOL    HW154475  10.526   2.686   5.937
51483SOL    HW254476  10.608   2.703   5.796
51484SOL     OW54477  11.069   3.609   6.740
51484SOL    HW154478  11.130   3.639   6.667
51484SOL    HW254479  11.031   3.520   6.718
51485SOL     OW54480  10.562   3.593   6.714
51485SOL    HW154481  10.646   3.598   6.660
51485SOL    HW254482  10.539   3.497   6.732
51486SOL     OW54483   9.393   3.120   6.608
51486SOL    HW154484   9.388   3.119   6.708
51486SOL    HW254485   9.310   3.079   6.570
51487SOL     OW54486   9.998   3.524   7.302
51487SOL    HW154487   9.942   3.605   7.311
51487SOL    HW254488  10.050   3.528   7.216
51488SOL     OW54489  11.036   1.997   6.109
51488SOL    HW154490  11.109   1.980   6.042
51488SOL    HW254491  11.005   1.910   6.147
51489SOL     OW54492  10.698   3.435   6.063
51489SOL    HW154493  10.765   3.447   5.989
51489SOL    HW254494  10.658   3.524   6.086
51490SOL     OW54495   9.440   3.656   7.437
51490SOL    HW154496   9.399   3.582   7.490
51490SOL    HW254497   9.504   3.707   7.495
51491SOL     OW54498  10.590   2.789   6.258
51491SOL    HW154499  10.650   2.708   6.260
51491SOL    HW254500  10.630   2.858   6.198
51492SOL     OW54501  10.140   3.135   7.008
51492SOL    HW154502  10.135   3.168   7.103
51492SOL    HW254503  10.054   3.154   6.962
51493SOL     OW54504   9.982   3.478   5.740
51493SOL    HW154505   9.991   3.488   5.641
51493SOL    HW254506   9.942   3.389   5.761
51494SOL     OW54507  10.960   3.582   6.980
51494SOL    HW154508  11.013   3.592   6.896
51494SOL    HW254509  10.933   3.672   7.014
51495SOL     OW54510  11.151   2.037   6.549
51495SOL    HW154511  11.190   1.952   6.513
51495SOL    HW254512  11.053   2.039   6.530
51496SOL     OW54513   9.573   2.188   6.306
51496SOL    HW154514   9.494   2.239   6.272
51496SOL    HW254515   9.564   2.173   6.404
51497SOL     OW54516  10.504   3.474   5.617
51497SOL    HW154517  10.510   3.381   5.654
51497SOL    HW254518  10.445   3.474   5.537
51498SOL     OW54519  10.132   2.864   6.958
51498SOL    HW154520  10.172   2.863   6.866
51498SOL    HW254521  10.142   2.956   6.998
51499SOL     OW54522  10.226   2.772   5.877
51499SOL    HW154523  10.289   2.810   5.809
51499SOL    HW254524  10.266   2.689   5.916
51500SOL     OW54525  10.814   3.469   5.630
51500SOL    HW154526  10.722   3.506   5.637
51500SOL    HW254527  10.852   3.489   5.540
51501SOL     OW54528   9.682   3.150   7.076
51501SOL    HW154529   9.669   3.243   7.042
51501SOL    HW254530   9.598   3.098   7.063
51502SOL     OW54531  10.924   3.154   6.875
51502SOL    HW154532  10.984   3.157   6.955
51502SOL    HW254533  10.849   3.218   6.888
51503SOL     OW54534  10.349   2.960   6.282
51503SOL    HW154535  10.279   2.913   6.336
51503SOL    HW254536  10.408   2.892   6.239
51504SOL     OW54537  10.324   2.098   6.557
51504SOL    HW154538  10.316   2.062   6.464
51504SOL    HW254539  10.322   2.022   6.622
51505SOL     OW54540   9.900   3.349   6.077
51505SOL    HW154541   9.942   3.291   6.007
51505SOL    HW254542   9.856   3.428   6.033
51506SOL     OW54543  11.019   2.247   6.967
51506SOL    HW154544  11.092   2.316   6.971
51506SOL    HW254545  11.047   2.172   6.908
51507SOL     OW54546   9.565   3.210   5.876
51507SOL    HW154547   9.469   3.211   5.849
51507SOL    HW254548   9.577   3.263   5.960
51508SOL     OW54549   9.415   2.875   7.312
51508SOL    HW154550   9.338   2.842   7.366
51508SOL    HW254551   9.500   2.845   7.354
51509SOL     OW54552   9.982   2.065   7.075
51509SOL    HW154553  10.072   2.049   7.035
51509SOL    HW254554   9.990   2.070   7.174
51510SOL     OW54555   9.385   2.207   5.619
51510SOL    HW154556   9.293   2.179   5.590
51510SOL    HW254557   9.416   2.284   5.563
51511SOL     OW54558  10.750   2.718   6.984
51511SOL    HW154559  10.693   2.770   6.921
51511SOL    HW254560  10.846   2.730   6.960
51512SOL     OW54561   9.382   2.028   5.904
51512SOL    HW154562   9.365   2.111   5.850
51512SOL    HW254563   9.472   1.991   5.882
51513SOL     OW54564  10.493   3.197   5.705
51513SOL    HW154565  10.394   3.186   5.707
51513SOL    HW254566  10.527   3.212   5.798
51514SOL     OW54567   9.923   2.704   7.017
51514SOL    HW154568   9.979   2.785   7.000
51514SOL    HW254569   9.982   2.624   7.020
51515SOL     OW54570  10.803   3.629   6.545
51515SOL    HW154571  10.836   3.693   6.476
51515SOL    HW254572  10.869   3.623   6.620
51516SOL     OW54573  10.026   2.427   7.294
51516SOL    HW154574  10.045   2.492   7.368
51516SOL    HW254575  10.086   2.347   7.303
51517SOL     OW54576  10.760   3.082   7.219
51517SOL    HW154577  10.751   3.072   7.318
51517SOL    HW254578  10.856   3.075   7.193
51518SOL     OW54579   9.700   3.603   7.146
51518SOL    HW154580   9.609   3.644   7.144
51518SOL    HW254581   9.693   3.509   7.178
51519SOL     OW54582  10.984   2.745   6.840
51519SOL    HW154583  10.957   2.656   6.803
51519SOL    HW254584  10.985   2.813   6.767
51520SOL     OW54585  10.535   2.187   6.035
51520SOL    HW154586  10.600   2.113   6.024
51520SOL    HW254587  10.555   2.237   6.119
51521SOL     OW54588   9.904   2.607   6.238
51521SOL    HW154589   9.954   2.692   6.219
51521SOL    HW254590   9.816   2.609   6.190
51522SOL     OW54591  11.087   2.204   7.228
51522SOL    HW154592  11.070   2.235   7.134
51522SOL    HW254593  11.003   2.167   7.266
51523SOL     OW54594  11.040   2.796   7.103
51523SOL    HW154595  11.078   2.887   7.118
51523SOL    HW254596  11.032   2.779   7.004
51524SOL     OW54597  10.169   3.236   5.602
51524SOL    HW154598  10.123   3.251   5.690
51524SOL    HW254599  10.213   3.321   5.572
51525SOL     OW54600   9.971   3.652   6.539
51525SOL    HW154601   9.925   3.740   6.526
51525SOL    HW254602  10.070   3.664   6.532
51526SOL     OW54603  10.169   2.818   6.447
51526SOL    HW154604  10.223   2.749   6.495
51526SOL    HW254605  10.137   2.887   6.513
51527SOL     OW54606  10.393   2.846   5.673
51527SOL    HW154607  10.370   2.899   5.591
51527SOL    HW254608  10.474   2.790   5.654
51528SOL     OW54609  11.171   3.431   6.437
51528SOL    HW154610  11.100   3.419   6.367
51528SOL    HW254611  11.172   3.352   6.497
51529SOL     OW54612   9.531   3.176   7.430
51529SOL    HW154613   9.466   3.103   7.409
51529SOL    HW254614   9.535   3.190   7.528
51530SOL     OW54615   9.389   3.102   6.239
51530SOL    HW154616   9.388   3.055   6.327
51530SOL    HW254617   9.471   3.074   6.188
51531SOL     OW54618   9.982   3.253   7.210
51531SOL    HW154619   9.904   3.203   7.248
51531SOL    HW254620   9.979   3.348   7.241
51532SOL     OW54621  11.134   2.054   6.813
51532SOL    HW154622  11.130   1.964   6.857
51532SOL    HW254623  11.137   2.043   6.714
51533SOL     OW54624   9.738   2.286   6.106
51533SOL    HW154625   9.768   2.214   6.044
51533SOL    HW254626   9.699   2.246   6.189
51534SOL     OW54627  11.015   3.349   6.690
51534SOL    HW154628  10.922   3.324   6.663
51534SOL    HW254629  11.041   3.299   6.772
51535SOL     OW54630   9.627   2.409   6.866
51535SOL    HW154631   9.665   2.350   6.938
51535SOL    HW254632   9.667   2.383   6.778
51536SOL     OW54633  10.122   3.448   6.273
51536SOL    HW154634  10.154   3.458   6.179
51536SOL    HW254635  10.043   3.386   6.275
51537SOL     OW54636  10.734   2.076   6.698
51537SOL    HW154637  10.786   2.011   6.753
51537SOL    HW254638  10.685   2.139   6.759
51538SOL     OW54639  10.311   1.896   6.740
51538SOL    HW154640  10.248   1.824   6.709
51538SOL    HW254641  10.404   1.860   6.740
51539SOL     OW54642  10.080   3.192   5.887
51539SOL    HW154643  10.034   3.105   5.904
51539SOL    HW254644  10.171   3.189   5.928
51540SOL     OW54645   9.928   3.429   6.870
51540SOL    HW154646   9.923   3.511   6.927
51540SOL    HW254647  10.017   3.426   6.825
51541SOL     OW54648  10.662   1.914   5.754
51541SOL    HW154649  10.697   1.873   5.670
51541SOL    HW254650  10.572   1.876   5.774
51542SOL     OW54651  10.610   2.315   6.277
51542SOL    HW154652  10.551   2.395   6.281
51542SOL    HW254653  10.625   2.280   6.370
51543SOL     OW54654  10.903   2.083   6.468
51543SOL    HW154655  10.819   2.082   6.522
51543SOL    HW254656  10.905   2.166   6.412
51544SOL     OW54657   9.349   2.939   5.886
51544SOL    HW154658   9.448   2.928   5.877
51544SOL    HW254659   9.309   2.853   5.918
51545SOL     OW54660  10.185   3.508   5.923
51545SOL    HW154661  10.108   3.473   5.869
51545SOL    HW254662  10.153   3.579   5.985
51546SOL     OW54663   9.540   2.490   7.561
51546SOL    HW154664   9.447   2.488   7.598
51546SOL    HW254665   9.541   2.451   7.469
51547SOL     OW54666   9.535   2.137   8.444
51547SOL    HW154667   9.570   2.120   8.536
51547SOL    HW254668   9.447   2.092   8.432
51548SOL     OW54669   9.329   2.230   8.095
51548SOL    HW154670   9.247   2.273   8.134
51548SOL    HW254671   9.301   2.157   8.032
51549SOL     OW54672   9.879   3.137   8.613
51549SOL    HW154673   9.786   3.130   8.576
51549SOL    HW254674   9.890   3.226   8.657
51550SOL     OW54675  10.865   3.373   8.151
51550SOL    HW154676  10.808   3.357   8.232
51550SOL    HW254677  10.806   3.383   8.071
51551SOL     OW54678  10.445   2.565   8.165
51551SOL    HW154679  10.502   2.643   8.140
51551SOL    HW254680  10.385   2.591   8.241
51552SOL     OW54681  11.065   2.469   7.679
51552SOL    HW154682  11.053   2.456   7.580
51552SOL    HW254683  11.035   2.388   7.728
51553SOL     OW54684  10.078   3.006   8.471
51553SOL    HW154685  10.000   3.023   8.531
51553SOL    HW254686  10.112   3.093   8.435
51554SOL     OW54687  10.160   2.660   9.271
51554SOL    HW154688  10.156   2.736   9.336
51554SOL    HW254689  10.182   2.696   9.180
51555SOL     OW54690   9.995   2.874   8.113
51555SOL    HW154691  10.064   2.858   8.183
51555SOL    HW254692   9.922   2.931   8.151
51556SOL     OW54693   9.996   3.023   9.251
51556SOL    HW154694  10.056   3.102   9.265
51556SOL    HW254695   9.910   3.054   9.210
51557SOL     OW54696   9.645   3.297   8.509
51557SOL    HW154697   9.567   3.266   8.456
51557SOL    HW254698   9.703   3.355   8.452
51558SOL     OW54699  10.770   3.367   8.787
51558SOL    HW154700  10.794   3.461   8.813
51558SOL    HW254701  10.754   3.313   8.869
51559SOL     OW54702   9.748   2.254   8.947
51559SOL    HW154703   9.830   2.198   8.956
51559SOL    HW254704   9.667   2.196   8.951
51560SOL     OW54705  10.913   2.309   8.185
51560SOL    HW154706  10.839   2.355   8.135
51560SOL    HW254707  10.964   2.377   8.238
51561SOL     OW54708   9.541   3.575   7.931
51561SOL    HW154709   9.575   3.652   7.985
51561SOL    HW254710   9.585   3.575   7.841
51562SOL     OW54711  10.437   3.203   9.138
51562SOL    HW154712  10.484   3.203   9.226
51562SOL    HW254713  10.389   3.116   9.127
51563SOL     OW54714   9.540   3.296   7.986
51563SOL    HW154715   9.514   3.392   7.986
51563SOL    HW254716   9.469   3.242   8.031
51564SOL     OW54717   9.550   2.953   8.334
51564SOL    HW154718   9.564   2.869   8.386
51564SOL    HW254719   9.495   3.017   8.389
51565SOL     OW54720   9.930   3.648   8.887
51565SOL    HW154721   9.838   3.631   8.922
51565SOL    HW254722   9.958   3.740   8.913
51566SOL     OW54723   9.916   2.826   7.571
51566SOL    HW154724   9.923   2.910   7.517
51566SOL    HW254725   9.962   2.839   7.659
51567SOL     OW54726  10.904   1.976   8.928
51567SOL    HW154727  10.886   2.043   8.856
51567SOL    HW254728  10.901   2.022   9.017
51568SOL     OW54729   9.432   2.505   8.011
51568SOL    HW154730   9.387   2.417   8.028
51568SOL    HW254731   9.431   2.559   8.095
51569SOL     OW54732  11.152   3.629   7.807
51569SOL    HW154733  11.206   3.600   7.887
51569SOL    HW254734  11.182   3.719   7.778
51570SOL     OW54735   9.337   3.458   7.565
51570SOL    HW154736   9.318   3.362   7.586
51570SOL    HW254737   9.304   3.516   7.640
51571SOL     OW54738  10.999   2.784   8.060
51571SOL    HW154739  11.094   2.755   8.068
51571SOL    HW254740  10.991   2.849   7.985
51572SOL     OW54741  10.951   2.970   7.880
51572SOL    HW154742  11.037   2.972   7.828
51572SOL    HW254743  10.965   3.017   7.968
51573SOL     OW54744   9.423   2.599   9.045
51573SOL    HW154745   9.511   2.586   9.090
51573SOL    HW254746   9.410   2.696   9.023
51574SOL     OW54747   9.923   3.227   8.174
51574SOL    HW154748   9.874   3.140   8.183
51574SOL    HW254749   9.900   3.270   8.087
51575SOL     OW54750  10.603   3.090   8.871
51575SOL    HW154751  10.640   3.017   8.813
51575SOL    HW254752  10.655   3.095   8.956
51576SOL     OW54753  10.119   1.866   7.950
51576SOL    HW154754  10.159   1.957   7.941
51576SOL    HW254755  10.019   1.874   7.956
51577SOL     OW54756   9.507   2.838   8.712
51577SOL    HW154757   9.596   2.793   8.698
51577SOL    HW254758   9.434   2.773   8.693
51578SOL     OW54759  10.835   2.861   7.638
51578SOL    HW154760  10.772   2.785   7.651
51578SOL    HW254761  10.883   2.879   7.724
51579SOL     OW54762  10.497   3.654   9.064
51579SOL    HW154763  10.521   3.714   8.988
51579SOL    HW254764  10.504   3.559   9.034
51580SOL     OW54765   9.627   2.113   9.249
51580SOL    HW154766   9.698   2.184   9.255
51580SOL    HW254767   9.539   2.152   9.277
51581SOL     OW54768  10.776   3.279   8.401
51581SOL    HW154769  10.717   3.285   8.481
51581SOL    HW254770  10.761   3.191   8.355
51582SOL     OW54771  10.977   3.576   8.020
51582SOL    HW154772  10.936   3.553   7.932
51582SOL    HW254773  10.959   3.502   8.085
51583SOL     OW54774   9.908   2.591   7.718
51583SOL    HW154775   9.932   2.660   7.650
51583SOL    HW254776   9.830   2.624   7.772
51584SOL     OW54777  10.591   2.207   8.392
51584SOL    HW154778  10.505   2.157   8.379
51584SOL    HW254779  10.653   2.153   8.448
51585SOL     OW54780  10.886   3.524   7.755
51585SOL    HW154781  10.975   3.570   7.758
51585SOL    HW254782  10.865   3.500   7.660
51586SOL     OW54783  10.117   2.467   8.913
51586SOL    HW154784  10.070   2.464   9.002
51586SOL    HW254785  10.066   2.412   8.847
51587SOL     OW54786  10.704   2.331   9.122
51587SOL    HW154787  10.684   2.374   9.210
51587SOL    HW254788  10.782   2.269   9.131
51588SOL     OW54789  10.283   2.752   9.020
51588SOL    HW154790  10.329   2.668   8.991
51588SOL    HW254791  10.227   2.786   8.945
51589SOL     OW54792  10.301   2.272   8.690
51589SOL    HW154793  10.224   2.306   8.744
51589SOL    HW254794  10.267   2.221   8.611
51590SOL     OW54795  10.351   2.563   7.877
51590SOL    HW154796  10.377   2.559   7.973
51590SOL    HW254797  10.266   2.512   7.863
51591SOL     OW54798   9.386   2.673   8.237
51591SOL    HW154799   9.485   2.661   8.246
51591SOL    HW254800   9.362   2.768   8.258
51592SOL     OW54801   9.440   3.683   9.019
51592SOL    HW154802   9.430   3.668   9.118
51592SOL    HW254803   9.354   3.719   8.983
51593SOL     OW54804  10.175   2.210   7.643
51593SOL    HW154805  10.234   2.273   7.594
51593SOL    HW254806  10.194   2.116   7.614
51594SOL     OW54807  11.029   2.447   9.279
51594SOL    HW154808  11.003   2.536   9.243
51594SOL    HW254809  11.027   2.379   9.206
51595SOL     OW54810  10.672   3.006   7.993
51595SOL    HW154811  10.755   2.977   7.945
51595SOL    HW254812  10.623   3.073   7.937
51596SOL     OW54813   9.860   2.058   8.333
51596SOL    HW154814   9.855   2.053   8.433
51596SOL    HW254815   9.862   2.154   8.304
51597SOL     OW54816  10.318   3.318   7.925
51597SOL    HW154817  10.272   3.390   7.873
51597SOL    HW254818  10.314   3.338   8.023
51598SOL     OW54819   9.661   3.663   8.301
51598SOL    HW154820   9.711   3.577   8.307
51598SOL    HW254821   9.726   3.740   8.298
51599SOL     OW54822  11.105   2.928   8.321
51599SOL    HW154823  11.043   2.913   8.245
51599SOL    HW254824  11.053   2.939   8.406
51600SOL     OW54825  10.537   3.412   8.954
51600SOL    HW154826  10.543   3.335   9.018
51600SOL    HW254827  10.485   3.386   8.874
51601SOL     OW54828   9.631   2.805   7.690
51601SOL    HW154829   9.713   2.844   7.648
51601SOL    HW254830   9.604   2.723   7.641
51602SOL     OW54831  10.768   2.597   8.176
51602SOL    HW154832  10.763   2.532   8.251
51602SOL    HW254833  10.848   2.656   8.189
51603SOL     OW54834   9.771   3.128   9.175
51603SOL    HW154835   9.721   3.129   9.089
51603SOL    HW254836   9.708   3.110   9.251
51604SOL     OW54837  10.421   3.638   7.685
51604SOL    HW154838  10.361   3.576   7.735
51604SOL    HW254839  10.452   3.594   7.600
51605SOL     OW54840   9.512   2.147   8.946
51605SOL    HW154841   9.432   2.207   8.933
51605SOL    HW254842   9.502   2.098   9.032
51606SOL     OW54843  10.942   3.239   7.529
51606SOL    HW154844  10.910   3.333   7.519
51606SOL    HW254845  10.866   3.176   7.517
51607SOL     OW54846   9.774   3.605   7.771
51607SOL    HW154847   9.807   3.644   7.857
51607SOL    HW254848   9.850   3.598   7.706
51608SOL     OW54849  10.710   1.969   7.874
51608SOL    HW154850  10.686   1.932   7.784
51608SOL    HW254851  10.809   1.985   7.878
51609SOL     OW54852   9.559   3.647   8.689
51609SOL    HW154853   9.616   3.582   8.739
51609SOL    HW254854   9.543   3.614   8.596
51610SOL     OW54855  10.250   3.560   8.352
51610SOL    HW154856  10.330   3.503   8.373
51610SOL    HW254857  10.201   3.520   8.275
51611SOL     OW54858   9.692   2.562   7.928
51611SOL    HW154859   9.737   2.472   7.925
51611SOL    HW254860   9.598   2.551   7.961
51612SOL     OW54861  10.857   2.084   9.177
51612SOL    HW154862  10.852   2.121   9.269
51612SOL    HW254863  10.785   2.015   9.165
51613SOL     OW54864   9.924   1.984   7.565
51613SOL    HW154865  10.022   1.962   7.572
51613SOL    HW254866   9.893   1.967   7.472
51614SOL     OW54867  10.091   2.126   9.197
51614SOL    HW154868  10.158   2.065   9.240
51614SOL    HW254869  10.018   2.145   9.262
51615SOL     OW54870  10.198   3.376   8.643
51615SOL    HW154871  10.175   3.351   8.549
51615SOL    HW254872  10.259   3.307   8.682
51616SOL     OW54873  10.661   2.452   8.881
51616SOL    HW154874  10.689   2.409   8.966
51616SOL    HW254875  10.686   2.548   8.882
51617SOL     OW54876  10.113   3.264   8.372
51617SOL    HW154877  10.203   3.278   8.330
51617SOL    HW254878  10.042   3.266   8.301
51618SOL     OW54879  10.232   2.365   8.347
51618SOL    HW154880  10.207   2.356   8.251
51618SOL    HW254881  10.280   2.283   8.378
51619SOL     OW54882   9.849   1.926   7.960
51619SOL    HW154883   9.768   1.927   8.018
51619SOL    HW254884   9.852   2.009   7.905
51620SOL     OW54885  10.744   3.050   7.489
51620SOL    HW154886  10.776   2.974   7.546
51620SOL    HW254887  10.652   3.077   7.519
51621SOL     OW54888   9.607   1.897   7.619
51621SOL    HW154889   9.656   1.981   7.598
51621SOL    HW254890   9.669   1.832   7.664
51622SOL     OW54891  10.245   2.098   7.928
51622SOL    HW154892  10.197   2.139   7.850
51622SOL    HW254893  10.344   2.096   7.909
51623SOL     OW54894  10.386   2.545   8.912
51623SOL    HW154895  10.306   2.484   8.915
51623SOL    HW254896  10.467   2.492   8.888
51624SOL     OW54897  10.537   3.432   8.241
51624SOL    HW154898  10.558   3.506   8.176
51624SOL    HW254899  10.605   3.432   8.314
51625SOL     OW54900   9.769   3.014   8.189
51625SOL    HW154901   9.698   2.987   8.254
51625SOL    HW254902   9.743   2.986   8.096
51626SOL     OW54903  10.581   3.659   8.039
51626SOL    HW154904  10.625   3.723   7.975
51626SOL    HW254905  10.531   3.711   8.109
51627SOL     OW54906  10.342   2.411   7.464
51627SOL    HW154907  10.301   2.493   7.425
51627SOL    HW254908  10.406   2.437   7.537
51628SOL     OW54909   9.388   2.418   8.834
51628SOL    HW154910   9.480   2.417   8.793
51628SOL    HW254911   9.382   2.492   8.901
51629SOL     OW54912   9.871   2.084   8.595
51629SOL    HW154913   9.909   2.000   8.632
51629SOL    HW254914   9.783   2.103   8.639
51630SOL     OW54915  10.176   2.316   8.090
51630SOL    HW154916  10.144   2.388   8.028
51630SOL    HW254917  10.200   2.235   8.037
51631SOL     OW54918  10.327   1.901   8.201
51631SOL    HW154919  10.255   1.906   8.132
51631SOL    HW254920  10.303   1.832   8.270
51632SOL     OW54921  10.739   3.035   8.315
51632SOL    HW154922  10.684   2.951   8.308
51632SOL    HW254923  10.765   3.064   8.223
51633SOL     OW54924  10.776   2.452   8.440
51633SOL    HW154925  10.746   2.357   8.447
51633SOL    HW254926  10.849   2.468   8.506
51634SOL     OW54927  11.167   2.695   7.825
51634SOL    HW154928  11.209   2.631   7.889
51634SOL    HW254929  11.129   2.644   7.747
51635SOL     OW54930   9.798   3.247   7.622
51635SOL    HW154931   9.711   3.232   7.669
51635SOL    HW254932   9.781   3.273   7.527
51636SOL     OW54933  10.974   3.142   8.105
51636SOL    HW154934  11.073   3.150   8.119
51636SOL    HW254935  10.929   3.226   8.136
51637SOL     OW54936  10.700   2.437   7.526
51637SOL    HW154937  10.646   2.416   7.607
51637SOL    HW254938  10.791   2.396   7.535
51638SOL     OW54939   9.837   2.118   7.776
51638SOL    HW154940   9.864   2.059   7.701
51638SOL    HW254941   9.837   2.213   7.745
51639SOL     OW54942  11.064   3.085   9.036
51639SOL    HW154943  11.155   3.046   9.023
51639SOL    HW254944  11.072   3.181   9.060
51640SOL     OW54945  10.374   3.209   8.788
51640SOL    HW154946  10.294   3.186   8.843
51640SOL    HW254947  10.457   3.183   8.837
51641SOL     OW54948  10.902   3.491   9.073
51641SOL    HW154949  10.929   3.525   8.983
51641SOL    HW254950  10.981   3.453   9.119
51642SOL     OW54951  10.421   3.057   8.548
51642SOL    HW154952  10.381   3.101   8.629
51642SOL    HW254953  10.380   3.094   8.465
51643SOL     OW54954  10.948   2.961   8.527
51643SOL    HW154955  10.953   3.042   8.586
51643SOL    HW254956  10.862   2.963   8.476
51644SOL     OW54957  10.225   1.951   8.850
51644SOL    HW154958  10.250   1.931   8.755
51644SOL    HW254959  10.297   2.007   8.892
51645SOL     OW54960  10.290   2.978   9.167
51645SOL    HW154961  10.191   2.984   9.177
51645SOL    HW254962  10.313   2.898   9.111
51646SOL     OW54963  10.015   2.912   7.816
51646SOL    HW154964  10.001   2.919   7.915
51646SOL    HW254965  10.099   2.861   7.798
51647SOL     OW54966   9.720   2.675   8.699
51647SOL    HW154967   9.806   2.687   8.749
51647SOL    HW254968   9.678   2.588   8.726
51648SOL     OW54969  10.584   2.248   8.710
51648SOL    HW154970  10.605   2.322   8.774
51648SOL    HW254971  10.495   2.265   8.667
51649SOL     OW54972   9.374   3.426   8.779
51649SOL    HW154973   9.328   3.508   8.745
51649SOL    HW254974   9.472   3.445   8.788
51650SOL     OW54975   9.677   2.962   7.949
51650SOL    HW154976   9.670   3.045   7.893
51650SOL    HW254977   9.681   2.882   7.889
51651SOL     OW54978   9.876   2.399   8.313
51651SOL    HW154979   9.888   2.465   8.239
51651SOL    HW254980   9.922   2.433   8.396
51652SOL     OW54981  10.562   3.210   7.836
51652SOL    HW154982  10.612   3.287   7.876
51652SOL    HW254983  10.467   3.212   7.868
51653SOL     OW54984  10.582   3.307   8.590
51653SOL    HW154985  10.629   3.320   8.677
51653SOL    HW254986  10.516   3.233   8.599
51654SOL     OW54987  10.892   2.501   7.920
51654SOL    HW154988  10.861   2.562   7.993
51654SOL    HW254989  10.942   2.553   7.851
51655SOL     OW54990   9.664   3.372   8.777
51655SOL    HW154991   9.643   3.328   8.690
51655SOL    HW254992   9.761   3.398   8.780
51656SOL     OW54993   9.712   2.613   9.046
51656SOL    HW154994   9.780   2.668   8.999
51656SOL    HW254995   9.752   2.525   9.073
51657SOL     OW54996  10.897   2.641   9.118
51657SOL    HW154997  10.805   2.679   9.113
51657SOL    HW254998  10.957   2.688   9.053
51658SOL     OW54999  10.323   1.967   9.218
51658SOL    HW155000  10.329   2.052   9.166
51658SOL    HW255001  10.355   1.891   9.161
51659SOL     OW55002   9.814   1.912   9.188
51659SOL    HW155003   9.772   1.855   9.118
51659SOL    HW255004   9.748   1.981   9.220
51660SOL     OW55005   9.883   2.732   8.477
51660SOL    HW155006   9.927   2.821   8.468
51660SOL    HW255007   9.820   2.732   8.554
51661SOL     OW55008  10.670   2.724   8.493
51661SOL    HW155009  10.595   2.724   8.427
51661SOL    HW255010  10.707   2.632   8.502
51662SOL     OW55011  10.519   2.387   7.723
51662SOL    HW155012  10.532   2.303   7.777
51662SOL    HW255013  10.490   2.461   7.783
51663SOL     OW55014   9.617   2.075   8.679
51663SOL    HW155015   9.594   2.112   8.769
51663SOL    HW255016   9.587   1.980   8.673
51664SOL     OW55017   9.347   3.172   8.730
51664SOL    HW155018   9.400   3.123   8.798
51664SOL    HW255019   9.369   3.270   8.735
51665SOL     OW55020  10.042   2.496   8.512
51665SOL    HW155021  10.101   2.470   8.436
51665SOL    HW255022  10.014   2.592   8.501
51666SOL     OW55023  11.038   2.797   9.302
51666SOL    HW155024  10.992   2.790   9.213
51666SOL    HW255025  10.976   2.841   9.368
51667SOL     OW55026   9.617   1.925   8.066
51667SOL    HW155027   9.606   2.019   8.099
51667SOL    HW255028   9.612   1.862   8.143
51668SOL     OW55029  10.932   2.229   7.822
51668SOL    HW155030  10.934   2.153   7.886
51668SOL    HW255031  10.884   2.306   7.862
51669SOL     OW55032  10.290   3.435   9.148
51669SOL    HW155033  10.270   3.479   9.060
51669SOL    HW255034  10.329   3.344   9.132
51670SOL     OW55035  11.169   3.380   9.053
51670SOL    HW155036  11.183   3.407   8.958
51670SOL    HW255037  11.252   3.402   9.106
51671SOL     OW55038   9.660   2.760   9.252
51671SOL    HW155039   9.736   2.804   9.300
51671SOL    HW255040   9.695   2.713   9.170
51672SOL     OW55041  10.850   2.136   7.573
51672SOL    HW155042  10.789   2.061   7.596
51672SOL    HW255043  10.872   2.188   7.656
51673SOL     OW55044  10.613   2.700   7.490
51673SOL    HW155045  10.647   2.607   7.505
51673SOL    HW255046  10.631   2.727   7.395
51674SOL     OW55047  10.378   3.195   8.297
51674SOL    HW155048  10.385   3.111   8.242
51674SOL    HW255049  10.440   3.264   8.261
51675SOL     OW55050   9.629   2.672   8.397
51675SOL    HW155051   9.722   2.708   8.402
51675SOL    HW255052   9.623   2.587   8.449
51676SOL     OW55053   9.649   2.371   8.454
51676SOL    HW155054   9.597   2.288   8.437
51676SOL    HW255055   9.726   2.376   8.390
51677SOL     OW55056  10.448   2.242   9.126
51677SOL    HW155057  10.403   2.305   9.190
51677SOL    HW255058  10.541   2.273   9.109
51678SOL     OW55059  10.470   2.069   8.925
51678SOL    HW155060  10.470   2.133   9.002
51678SOL    HW255061  10.498   2.117   8.842
51679SOL     OW55062   9.318   3.188   7.648
51679SOL    HW155063   9.225   3.209   7.617
51679SOL    HW255064   9.328   3.089   7.661
51680SOL     OW55065   9.398   3.663   8.375
51680SOL    HW155066   9.356   3.577   8.348
51680SOL    HW255067   9.492   3.666   8.341
51681SOL     OW55068   9.814   3.430   8.358
51681SOL    HW155069   9.880   3.504   8.367
51681SOL    HW255070   9.858   3.351   8.316
51682SOL     OW55071  10.312   2.658   8.686
51682SOL    HW155072  10.353   2.626   8.772
51682SOL    HW255073  10.216   2.631   8.683
51683SOL     OW55074   9.350   2.406   8.562
51683SOL    HW155075   9.435   2.373   8.521
51683SOL    HW255076   9.363   2.421   8.660
51684SOL     OW55077   9.499   2.382   9.170
51684SOL    HW155078   9.558   2.342   9.100
51684SOL    HW255079   9.441   2.453   9.129
51685SOL     OW55080  10.679   2.812   9.108
51685SOL    HW155081  10.718   2.901   9.128
51685SOL    HW255082  10.689   2.792   9.011
51686SOL     OW55083  10.125   2.434   7.773
51686SOL    HW155084  10.132   2.345   7.727
51686SOL    HW255085  10.031   2.468   7.765
51687SOL     OW55086  10.967   2.466   8.654
51687SOL    HW155087  10.929   2.397   8.716
51687SOL    HW255088  11.049   2.430   8.610
51688SOL     OW55089   9.562   3.426   9.192
51688SOL    HW155090   9.532   3.483   9.268
51688SOL    HW255091   9.555   3.329   9.218
51689SOL     OW55092   9.981   2.326   8.717
51689SOL    HW155093   9.947   2.237   8.687
51689SOL    HW255094  10.007   2.380   8.637
51690SOL     OW55095  10.240   3.540   8.913
51690SOL    HW155096  10.216   3.522   8.818
51690SOL    HW255097  10.270   3.634   8.923
51691SOL     OW55098   9.783   2.362   7.639
51691SOL    HW155099   9.844   2.442   7.643
51691SOL    HW255100   9.688   2.393   7.646
51692SOL     OW55101   9.469   2.999   8.914
51692SOL    HW155102   9.491   2.938   8.990
51692SOL    HW255103   9.479   2.950   8.828
51693SOL     OW55104  10.657   2.921   8.682
51693SOL    HW155105  10.681   2.858   8.608
51693SOL    HW255106  10.567   2.961   8.664
51694SOL     OW55107  10.612   2.717   7.757
51694SOL    HW155108  10.526   2.686   7.799
51694SOL    HW255109  10.608   2.703   7.658
51695SOL     OW55110  11.069   3.609   8.602
51695SOL    HW155111  11.130   3.639   8.529
51695SOL    HW255112  11.031   3.520   8.580
51696SOL     OW55113  10.562   3.593   8.576
51696SOL    HW155114  10.646   3.598   8.522
51696SOL    HW255115  10.539   3.497   8.594
51697SOL     OW55116   9.393   3.120   8.470
51697SOL    HW155117   9.388   3.119   8.570
51697SOL    HW255118   9.310   3.079   8.432
51698SOL     OW55119   9.998   3.524   9.164
51698SOL    HW155120   9.942   3.605   9.173
51698SOL    HW255121  10.050   3.528   9.078
51699SOL     OW55122  11.036   1.997   7.971
51699SOL    HW155123  11.109   1.980   7.904
51699SOL    HW255124  11.005   1.910   8.009
51700SOL     OW55125  10.698   3.435   7.925
51700SOL    HW155126  10.765   3.447   7.851
51700SOL    HW255127  10.658   3.524   7.948
51701SOL     OW55128   9.440   3.656   9.299
51701SOL    HW155129   9.399   3.582   9.352
51701SOL    HW255130   9.504   3.707   9.357
51702SOL     OW55131  10.590   2.789   8.120
51702SOL    HW155132  10.650   2.708   8.122
51702SOL    HW255133  10.630   2.858   8.060
51703SOL     OW55134  10.140   3.135   8.870
51703SOL    HW155135  10.135   3.168   8.965
51703SOL    HW255136  10.054   3.154   8.824
51704SOL     OW55137   9.982   3.478   7.602
51704SOL    HW155138   9.991   3.488   7.503
51704SOL    HW255139   9.942   3.389   7.623
51705SOL     OW55140  10.960   3.582   8.842
51705SOL    HW155141  11.013   3.592   8.758
51705SOL    HW255142  10.933   3.672   8.876
51706SOL     OW55143  11.151   2.037   8.411
51706SOL    HW155144  11.190   1.952   8.375
51706SOL    HW255145  11.053   2.039   8.392
51707SOL     OW55146   9.573   2.188   8.168
51707SOL    HW155147   9.494   2.239   8.134
51707SOL    HW255148   9.564   2.173   8.266
51708SOL     OW55149  10.504   3.474   7.479
51708SOL    HW155150  10.510   3.381   7.516
51708SOL    HW255151  10.445   3.474   7.399
51709SOL     OW55152  10.132   2.864   8.820
51709SOL    HW155153  10.172   2.863   8.728
51709SOL    HW255154  10.142   2.956   8.860
51710SOL     OW55155  10.226   2.772   7.739
51710SOL    HW155156  10.289   2.810   7.671
51710SOL    HW255157  10.266   2.689   7.778
51711SOL     OW55158  10.814   3.469   7.492
51711SOL    HW155159  10.722   3.506   7.499
51711SOL    HW255160  10.852   3.489   7.402
51712SOL     OW55161   9.682   3.150   8.938
51712SOL    HW155162   9.669   3.243   8.904
51712SOL    HW255163   9.598   3.098   8.925
51713SOL     OW55164  10.924   3.154   8.737
51713SOL    HW155165  10.984   3.157   8.817
51713SOL    HW255166  10.849   3.218   8.750
51714SOL     OW55167  10.349   2.960   8.144
51714SOL    HW155168  10.279   2.913   8.198
51714SOL    HW255169  10.408   2.892   8.101
51715SOL     OW55170  10.324   2.098   8.419
51715SOL    HW155171  10.316   2.062   8.326
51715SOL    HW255172  10.322   2.022   8.484
51716SOL     OW55173   9.900   3.349   7.939
51716SOL    HW155174   9.942   3.291   7.869
51716SOL    HW255175   9.856   3.428   7.895
51717SOL     OW55176  11.019   2.247   8.829
51717SOL    HW155177  11.092   2.316   8.833
51717SOL    HW255178  11.047   2.172   8.770
51718SOL     OW55179   9.565   3.210   7.738
51718SOL    HW155180   9.469   3.211   7.711
51718SOL    HW255181   9.577   3.263   7.822
51719SOL     OW55182   9.415   2.875   9.174
51719SOL    HW155183   9.338   2.842   9.228
51719SOL    HW255184   9.500   2.845   9.216
51720SOL     OW55185   9.982   2.065   8.937
51720SOL    HW155186  10.072   2.049   8.897
51720SOL    HW255187   9.990   2.070   9.036
51721SOL     OW55188   9.385   2.207   7.481
51721SOL    HW155189   9.293   2.179   7.452
51721SOL    HW255190   9.416   2.284   7.425
51722SOL     OW55191  10.750   2.718   8.846
51722SOL    HW155192  10.693   2.770   8.783
51722SOL    HW255193  10.846   2.730   8.822
51723SOL     OW55194   9.382   2.028   7.766
51723SOL    HW155195   9.365   2.111   7.712
51723SOL    HW255196   9.472   1.991   7.744
51724SOL     OW55197  10.493   3.197   7.567
51724SOL    HW155198  10.394   3.186   7.569
51724SOL    HW255199  10.527   3.212   7.660
51725SOL     OW55200   9.923   2.704   8.879
51725SOL    HW155201   9.979   2.785   8.862
51725SOL    HW255202   9.982   2.624   8.882
51726SOL     OW55203  10.803   3.629   8.407
51726SOL    HW155204  10.836   3.693   8.338
51726SOL    HW255205  10.869   3.623   8.482
51727SOL     OW55206  10.026   2.427   9.156
51727SOL    HW155207  10.045   2.492   9.230
51727SOL    HW255208  10.086   2.347   9.165
51728SOL     OW55209  10.760   3.082   9.081
51728SOL    HW155210  10.751   3.072   9.180
51728SOL    HW255211  10.856   3.075   9.055
51729SOL     OW55212   9.700   3.603   9.008
51729SOL    HW155213   9.609   3.644   9.006
51729SOL    HW255214   9.693   3.509   9.040
51730SOL     OW55215  10.984   2.745   8.702
51730SOL    HW155216  10.957   2.656   8.665
51730SOL    HW255217  10.985   2.813   8.629
51731SOL     OW55218  10.535   2.187   7.897
51731SOL    HW155219  10.600   2.113   7.886
51731SOL    HW255220  10.555   2.237   7.981
51732SOL     OW55221   9.904   2.607   8.100
51732SOL    HW155222   9.954   2.692   8.081
51732SOL    HW255223   9.816   2.609   8.052
51733SOL     OW55224  11.087   2.204   9.090
51733SOL    HW155225  11.070   2.235   8.996
51733SOL    HW255226  11.003   2.167   9.128
51734SOL     OW55227  11.040   2.796   8.965
51734SOL    HW155228  11.078   2.887   8.980
51734SOL    HW255229  11.032   2.779   8.866
51735SOL     OW55230  10.169   3.236   7.464
51735SOL    HW155231  10.123   3.251   7.552
51735SOL    HW255232  10.213   3.321   7.434
51736SOL     OW55233   9.971   3.652   8.401
51736SOL    HW155234   9.925   3.740   8.388
51736SOL    HW255235  10.070   3.664   8.394
51737SOL     OW55236  10.169   2.818   8.309
51737SOL    HW155237  10.223   2.749   8.357
51737SOL    HW255238  10.137   2.887   8.375
51738SOL     OW55239  10.393   2.846   7.535
51738SOL    HW155240  10.370   2.899   7.453
51738SOL    HW255241  10.474   2.790   7.516
51739SOL     OW55242  11.171   3.431   8.299
51739SOL    HW155243  11.100   3.419   8.229
51739SOL    HW255244  11.172   3.352   8.359
51740SOL     OW55245   9.531   3.176   9.292
51740SOL    HW155246   9.466   3.103   9.271
51740SOL    HW255247   9.535   3.190   9.390
51741SOL     OW55248   9.389   3.102   8.101
51741SOL    HW155249   9.388   3.055   8.189
51741SOL    HW255250   9.471   3.074   8.050
51742SOL     OW55251   9.982   3.253   9.072
51742SOL    HW155252   9.904   3.203   9.110
51742SOL    HW255253   9.979   3.348   9.103
51743SOL     OW55254  11.134   2.054   8.675
51743SOL    HW155255  11.130   1.964   8.719
51743SOL    HW255256  11.137   2.043   8.576
51744SOL     OW55257   9.738   2.286   7.968
51744SOL    HW155258   9.768   2.214   7.906
51744SOL    HW255259   9.699   2.246   8.051
51745SOL     OW55260  11.015   3.349   8.552
51745SOL    HW155261  10.922   3.324   8.525
51745SOL    HW255262  11.041   3.299   8.634
51746SOL     OW55263   9.627   2.409   8.728
51746SOL    HW155264   9.665   2.350   8.800
51746SOL    HW255265   9.667   2.383   8.640
51747SOL     OW55266  10.122   3.448   8.135
51747SOL    HW155267  10.154   3.458   8.041
51747SOL    HW255268  10.043   3.386   8.137
51748SOL     OW55269  10.734   2.076   8.560
51748SOL    HW155270  10.786   2.011   8.615
51748SOL    HW255271  10.685   2.139   8.621
51749SOL     OW55272  10.311   1.896   8.602
51749SOL    HW155273  10.248   1.824   8.571
51749SOL    HW255274  10.404   1.860   8.602
51750SOL     OW55275  10.080   3.192   7.749
51750SOL    HW155276  10.034   3.105   7.766
51750SOL    HW255277  10.171   3.189   7.790
51751SOL     OW55278   9.928   3.429   8.732
51751SOL    HW155279   9.923   3.511   8.789
51751SOL    HW255280  10.017   3.426   8.687
51752SOL     OW55281  10.662   1.914   7.616
51752SOL    HW155282  10.697   1.873   7.532
51752SOL    HW255283  10.572   1.876   7.636
51753SOL     OW55284  10.610   2.315   8.139
51753SOL    HW155285  10.551   2.395   8.143
51753SOL    HW255286  10.625   2.280   8.232
51754SOL     OW55287  10.903   2.083   8.330
51754SOL    HW155288  10.819   2.082   8.384
51754SOL    HW255289  10.905   2.166   8.274
51755SOL     OW55290   9.349   2.939   7.748
51755SOL    HW155291   9.448   2.928   7.739
51755SOL    HW255292   9.309   2.853   7.780
51756SOL     OW55293  10.185   3.508   7.785
51756SOL    HW155294  10.108   3.473   7.731
51756SOL    HW255295  10.153   3.579   7.847
51757SOL     OW55296   9.540   2.490   9.423
51757SOL    HW155297   9.447   2.488   9.460
51757SOL    HW255298   9.541   2.451   9.331
51758SOL     OW55299   9.535   2.137  10.306
51758SOL    HW155300   9.570   2.120  10.398
51758SOL    HW255301   9.447   2.092  10.294
51759SOL     OW55302   9.329   2.230   9.957
51759SOL    HW155303   9.247   2.273   9.996
51759SOL    HW255304   9.301   2.157   9.894
51760SOL     OW55305   9.879   3.137  10.475
51760SOL    HW155306   9.786   3.130  10.438
51760SOL    HW255307   9.890   3.226  10.519
51761SOL     OW55308  10.865   3.373  10.013
51761SOL    HW155309  10.808   3.357  10.094
51761SOL    HW255310  10.806   3.383   9.933
51762SOL     OW55311  10.445   2.565  10.027
51762SOL    HW155312  10.502   2.643  10.002
51762SOL    HW255313  10.385   2.591  10.103
51763SOL     OW55314  11.065   2.469   9.541
51763SOL    HW155315  11.053   2.456   9.442
51763SOL    HW255316  11.035   2.388   9.590
51764SOL     OW55317  10.078   3.006  10.333
51764SOL    HW155318  10.000   3.023  10.393
51764SOL    HW255319  10.112   3.093  10.297
51765SOL     OW55320  10.160   2.660  11.133
51765SOL    HW155321  10.156   2.736  11.198
51765SOL    HW255322  10.182   2.696  11.042
51766SOL     OW55323   9.995   2.874   9.975
51766SOL    HW155324  10.064   2.858  10.045
51766SOL    HW255325   9.922   2.931  10.013
51767SOL     OW55326   9.996   3.023  11.113
51767SOL    HW155327  10.056   3.102  11.127
51767SOL    HW255328   9.910   3.054  11.072
51768SOL     OW55329   9.645   3.297  10.371
51768SOL    HW155330   9.567   3.266  10.318
51768SOL    HW255331   9.703   3.355  10.314
51769SOL     OW55332  10.770   3.367  10.649
51769SOL    HW155333  10.794   3.461  10.675
51769SOL    HW255334  10.754   3.313  10.731
51770SOL     OW55335   9.748   2.254  10.809
51770SOL    HW155336   9.830   2.198  10.818
51770SOL    HW255337   9.667   2.196  10.813
51771SOL     OW55338  10.913   2.309  10.047
51771SOL    HW155339  10.839   2.355   9.997
51771SOL    HW255340  10.964   2.377  10.100
51772SOL     OW55341   9.541   3.575   9.793
51772SOL    HW155342   9.575   3.652   9.847
51772SOL    HW255343   9.585   3.575   9.703
51773SOL     OW55344  10.437   3.203  11.000
51773SOL    HW155345  10.484   3.203  11.088
51773SOL    HW255346  10.389   3.116  10.989
51774SOL     OW55347   9.540   3.296   9.848
51774SOL    HW155348   9.514   3.392   9.848
51774SOL    HW255349   9.469   3.242   9.893
51775SOL     OW55350   9.550   2.953  10.196
51775SOL    HW155351   9.564   2.869  10.248
51775SOL    HW255352   9.495   3.017  10.251
51776SOL     OW55353   9.930   3.648  10.749
51776SOL    HW155354   9.838   3.631  10.784
51776SOL    HW255355   9.958   3.740  10.775
51777SOL     OW55356   9.916   2.826   9.433
51777SOL    HW155357   9.923   2.910   9.379
51777SOL    HW255358   9.962   2.839   9.521
51778SOL     OW55359  10.904   1.976  10.790
51778SOL    HW155360  10.886   2.043  10.718
51778SOL    HW255361  10.901   2.022  10.879
51779SOL     OW55362   9.432   2.505   9.873
51779SOL    HW155363   9.387   2.417   9.890
51779SOL    HW255364   9.431   2.559   9.957
51780SOL     OW55365  11.152   3.629   9.669
51780SOL    HW155366  11.206   3.600   9.749
51780SOL    HW255367  11.182   3.719   9.640
51781SOL     OW55368   9.337   3.458   9.427
51781SOL    HW155369   9.318   3.362   9.448
51781SOL    HW255370   9.304   3.516   9.502
51782SOL     OW55371  10.999   2.784   9.922
51782SOL    HW155372  11.094   2.755   9.930
51782SOL    HW255373  10.991   2.849   9.847
51783SOL     OW55374  10.951   2.970   9.742
51783SOL    HW155375  11.037   2.972   9.690
51783SOL    HW255376  10.965   3.017   9.830
51784SOL     OW55377   9.423   2.599  10.907
51784SOL    HW155378   9.511   2.586  10.952
51784SOL    HW255379   9.410   2.696  10.885
51785SOL     OW55380   9.923   3.227  10.036
51785SOL    HW155381   9.874   3.140  10.045
51785SOL    HW255382   9.900   3.270   9.949
51786SOL     OW55383  10.603   3.090  10.733
51786SOL    HW155384  10.640   3.017  10.675
51786SOL    HW255385  10.655   3.095  10.818
51787SOL     OW55386  10.119   1.866   9.812
51787SOL    HW155387  10.159   1.957   9.803
51787SOL    HW255388  10.019   1.874   9.818
51788SOL     OW55389   9.507   2.838  10.574
51788SOL    HW155390   9.596   2.793  10.560
51788SOL    HW255391   9.434   2.773  10.555
51789SOL     OW55392  10.835   2.861   9.500
51789SOL    HW155393  10.772   2.785   9.513
51789SOL    HW255394  10.883   2.879   9.586
51790SOL     OW55395  10.497   3.654  10.926
51790SOL    HW155396  10.521   3.714  10.850
51790SOL    HW255397  10.504   3.559  10.896
51791SOL     OW55398   9.627   2.113  11.111
51791SOL    HW155399   9.698   2.184  11.117
51791SOL    HW255400   9.539   2.152  11.139
51792SOL     OW55401  10.776   3.279  10.263
51792SOL    HW155402  10.717   3.285  10.343
51792SOL    HW255403  10.761   3.191  10.217
51793SOL     OW55404  10.977   3.576   9.882
51793SOL    HW155405  10.936   3.553   9.794
51793SOL    HW255406  10.959   3.502   9.947
51794SOL     OW55407   9.908   2.591   9.580
51794SOL    HW155408   9.932   2.660   9.512
51794SOL    HW255409   9.830   2.624   9.634
51795SOL     OW55410  10.591   2.207  10.254
51795SOL    HW155411  10.505   2.157  10.241
51795SOL    HW255412  10.653   2.153  10.310
51796SOL     OW55413  10.886   3.524   9.617
51796SOL    HW155414  10.975   3.570   9.620
51796SOL    HW255415  10.865   3.500   9.522
51797SOL     OW55416  10.117   2.467  10.775
51797SOL    HW155417  10.070   2.464  10.864
51797SOL    HW255418  10.066   2.412  10.709
51798SOL     OW55419  10.704   2.331  10.984
51798SOL    HW155420  10.684   2.374  11.072
51798SOL    HW255421  10.782   2.269  10.993
51799SOL     OW55422  10.283   2.752  10.882
51799SOL    HW155423  10.329   2.668  10.853
51799SOL    HW255424  10.227   2.786  10.807
51800SOL     OW55425  10.301   2.272  10.552
51800SOL    HW155426  10.224   2.306  10.606
51800SOL    HW255427  10.267   2.221  10.473
51801SOL     OW55428  10.351   2.563   9.739
51801SOL    HW155429  10.377   2.559   9.835
51801SOL    HW255430  10.266   2.512   9.725
51802SOL     OW55431   9.386   2.673  10.099
51802SOL    HW155432   9.485   2.661  10.108
51802SOL    HW255433   9.362   2.768  10.120
51803SOL     OW55434   9.440   3.683  10.881
51803SOL    HW155435   9.430   3.668  10.980
51803SOL    HW255436   9.354   3.719  10.845
51804SOL     OW55437  10.175   2.210   9.505
51804SOL    HW155438  10.234   2.273   9.456
51804SOL    HW255439  10.194   2.116   9.476
51805SOL     OW55440  11.029   2.447  11.141
51805SOL    HW155441  11.003   2.536  11.105
51805SOL    HW255442  11.027   2.379  11.068
51806SOL     OW55443  10.672   3.006   9.855
51806SOL    HW155444  10.755   2.977   9.807
51806SOL    HW255445  10.623   3.073   9.799
51807SOL     OW55446   9.860   2.058  10.195
51807SOL    HW155447   9.855   2.053  10.295
51807SOL    HW255448   9.862   2.154  10.166
51808SOL     OW55449  10.318   3.318   9.787
51808SOL    HW155450  10.272   3.390   9.735
51808SOL    HW255451  10.314   3.338   9.885
51809SOL     OW55452   9.661   3.663  10.163
51809SOL    HW155453   9.711   3.577  10.169
51809SOL    HW255454   9.726   3.740  10.160
51810SOL     OW55455  11.105   2.928  10.183
51810SOL    HW155456  11.043   2.913  10.107
51810SOL    HW255457  11.053   2.939  10.268
51811SOL     OW55458  10.537   3.412  10.816
51811SOL    HW155459  10.543   3.335  10.880
51811SOL    HW255460  10.485   3.386  10.736
51812SOL     OW55461   9.631   2.805   9.552
51812SOL    HW155462   9.713   2.844   9.510
51812SOL    HW255463   9.604   2.723   9.503
51813SOL     OW55464  10.768   2.597  10.038
51813SOL    HW155465  10.763   2.532  10.113
51813SOL    HW255466  10.848   2.656  10.051
51814SOL     OW55467   9.771   3.128  11.037
51814SOL    HW155468   9.721   3.129  10.951
51814SOL    HW255469   9.708   3.110  11.113
51815SOL     OW55470  10.421   3.638   9.547
51815SOL    HW155471  10.361   3.576   9.597
51815SOL    HW255472  10.452   3.594   9.462
51816SOL     OW55473   9.512   2.147  10.808
51816SOL    HW155474   9.432   2.207  10.795
51816SOL    HW255475   9.502   2.098  10.894
51817SOL     OW55476  10.942   3.239   9.391
51817SOL    HW155477  10.910   3.333   9.381
51817SOL    HW255478  10.866   3.176   9.379
51818SOL     OW55479   9.774   3.605   9.633
51818SOL    HW155480   9.807   3.644   9.719
51818SOL    HW255481   9.850   3.598   9.568
51819SOL     OW55482  10.710   1.969   9.736
51819SOL    HW155483  10.686   1.932   9.646
51819SOL    HW255484  10.809   1.985   9.740
51820SOL     OW55485   9.559   3.647  10.551
51820SOL    HW155486   9.616   3.582  10.601
51820SOL    HW255487   9.543   3.614  10.458
51821SOL     OW55488  10.250   3.560  10.214
51821SOL    HW155489  10.330   3.503  10.235
51821SOL    HW255490  10.201   3.520  10.137
51822SOL     OW55491   9.692   2.562   9.790
51822SOL    HW155492   9.737   2.472   9.787
51822SOL    HW255493   9.598   2.551   9.823
51823SOL     OW55494  10.857   2.084  11.039
51823SOL    HW155495  10.852   2.121  11.131
51823SOL    HW255496  10.785   2.015  11.027
51824SOL     OW55497   9.924   1.984   9.427
51824SOL    HW155498  10.022   1.962   9.434
51824SOL    HW255499   9.893   1.967   9.334
51825SOL     OW55500  10.091   2.126  11.059
51825SOL    HW155501  10.158   2.065  11.102
51825SOL    HW255502  10.018   2.145  11.124
51826SOL     OW55503  10.198   3.376  10.505
51826SOL    HW155504  10.175   3.351  10.411
51826SOL    HW255505  10.259   3.307  10.544
51827SOL     OW55506  10.661   2.452  10.743
51827SOL    HW155507  10.689   2.409  10.828
51827SOL    HW255508  10.686   2.548  10.744
51828SOL     OW55509  10.113   3.264  10.234
51828SOL    HW155510  10.203   3.278  10.192
51828SOL    HW255511  10.042   3.266  10.163
51829SOL     OW55512  10.232   2.365  10.209
51829SOL    HW155513  10.207   2.356  10.113
51829SOL    HW255514  10.280   2.283  10.240
51830SOL     OW55515   9.849   1.926   9.822
51830SOL    HW155516   9.768   1.927   9.880
51830SOL    HW255517   9.852   2.009   9.767
51831SOL     OW55518  10.744   3.050   9.351
51831SOL    HW155519  10.776   2.974   9.408
51831SOL    HW255520  10.652   3.077   9.381
51832SOL     OW55521   9.607   1.897   9.481
51832SOL    HW155522   9.656   1.981   9.460
51832SOL    HW255523   9.669   1.832   9.526
51833SOL     OW55524  10.245   2.098   9.790
51833SOL    HW155525  10.197   2.139   9.712
51833SOL    HW255526  10.344   2.096   9.771
51834SOL     OW55527  10.386   2.545  10.774
51834SOL    HW155528  10.306   2.484  10.777
51834SOL    HW255529  10.467   2.492  10.750
51835SOL     OW55530  10.537   3.432  10.103
51835SOL    HW155531  10.558   3.506  10.038
51835SOL    HW255532  10.605   3.432  10.176
51836SOL     OW55533   9.769   3.014  10.051
51836SOL    HW155534   9.698   2.987  10.116
51836SOL    HW255535   9.743   2.986   9.958
51837SOL     OW55536  10.581   3.659   9.901
51837SOL    HW155537  10.625   3.723   9.837
51837SOL    HW255538  10.531   3.711   9.971
51838SOL     OW55539  10.342   2.411   9.326
51838SOL    HW155540  10.301   2.493   9.287
51838SOL    HW255541  10.406   2.437   9.399
51839SOL     OW55542   9.388   2.418  10.696
51839SOL    HW155543   9.480   2.417  10.655
51839SOL    HW255544   9.382   2.492  10.763
51840SOL     OW55545   9.871   2.084  10.457
51840SOL    HW155546   9.909   2.000  10.494
51840SOL    HW255547   9.783   2.103  10.501
51841SOL     OW55548  10.176   2.316   9.952
51841SOL    HW155549  10.144   2.388   9.890
51841SOL    HW255550  10.200   2.235   9.899
51842SOL     OW55551  10.739   3.035  10.177
51842SOL    HW155552  10.684   2.951  10.170
51842SOL    HW255553  10.765   3.064  10.085
51843SOL     OW55554  10.776   2.452  10.302
51843SOL    HW155555  10.746   2.357  10.309
51843SOL    HW255556  10.849   2.468  10.368
51844SOL     OW55557  11.167   2.695   9.687
51844SOL    HW155558  11.209   2.631   9.751
51844SOL    HW255559  11.129   2.644   9.609
51845SOL     OW55560   9.798   3.247   9.484
51845SOL    HW155561   9.711   3.232   9.531
51845SOL    HW255562   9.781   3.273   9.389
51846SOL     OW55563  10.974   3.142   9.967
51846SOL    HW155564  11.073   3.150   9.981
51846SOL    HW255565  10.929   3.226   9.998
51847SOL     OW55566  10.700   2.437   9.388
51847SOL    HW155567  10.646   2.416   9.469
51847SOL    HW255568  10.791   2.396   9.397
51848SOL     OW55569   9.837   2.118   9.638
51848SOL    HW155570   9.864   2.059   9.563
51848SOL    HW255571   9.837   2.213   9.607
51849SOL     OW55572  11.064   3.085  10.898
51849SOL    HW155573  11.155   3.046  10.885
51849SOL    HW255574  11.072   3.181  10.922
51850SOL     OW55575  10.374   3.209  10.650
51850SOL    HW155576  10.294   3.186  10.705
51850SOL    HW255577  10.457   3.183  10.699
51851SOL     OW55578  10.902   3.491  10.935
51851SOL    HW155579  10.929   3.525  10.845
51851SOL    HW255580  10.981   3.453  10.981
51852SOL     OW55581  10.421   3.057  10.410
51852SOL    HW155582  10.381   3.101  10.491
51852SOL    HW255583  10.380   3.094  10.327
51853SOL     OW55584  10.948   2.961  10.389
51853SOL    HW155585  10.953   3.042  10.448
51853SOL    HW255586  10.862   2.963  10.338
51854SOL     OW55587  10.225   1.951  10.712
51854SOL    HW155588  10.250   1.931  10.617
51854SOL    HW255589  10.297   2.007  10.754
51855SOL     OW55590  10.290   2.978  11.029
51855SOL    HW155591  10.191   2.984  11.039
51855SOL    HW255592  10.313   2.898  10.973
51856SOL     OW55593  10.015   2.912   9.678
51856SOL    HW155594  10.001   2.919   9.777
51856SOL    HW255595  10.099   2.861   9.660
51857SOL     OW55596   9.720   2.675  10.561
51857SOL    HW155597   9.806   2.687  10.611
51857SOL    HW255598   9.678   2.588  10.588
51858SOL     OW55599  10.584   2.248  10.572
51858SOL    HW155600  10.605   2.322  10.636
51858SOL    HW255601  10.495   2.265  10.529
51859SOL     OW55602   9.374   3.426  10.641
51859SOL    HW155603   9.328   3.508  10.607
51859SOL    HW255604   9.472   3.445  10.650
51860SOL     OW55605   9.677   2.962   9.811
51860SOL    HW155606   9.670   3.045   9.755
51860SOL    HW255607   9.681   2.882   9.751
51861SOL     OW55608   9.876   2.399  10.175
51861SOL    HW155609   9.888   2.465  10.101
51861SOL    HW255610   9.922   2.433  10.258
51862SOL     OW55611  10.562   3.210   9.698
51862SOL    HW155612  10.612   3.287   9.738
51862SOL    HW255613  10.467   3.212   9.730
51863SOL     OW55614  10.582   3.307  10.452
51863SOL    HW155615  10.629   3.320  10.539
51863SOL    HW255616  10.516   3.233  10.461
51864SOL     OW55617  10.892   2.501   9.782
51864SOL    HW155618  10.861   2.562   9.855
51864SOL    HW255619  10.942   2.553   9.713
51865SOL     OW55620   9.664   3.372  10.639
51865SOL    HW155621   9.643   3.328  10.552
51865SOL    HW255622   9.761   3.398  10.642
51866SOL     OW55623   9.712   2.613  10.908
51866SOL    HW155624   9.780   2.668  10.861
51866SOL    HW255625   9.752   2.525  10.935
51867SOL     OW55626  10.897   2.641  10.980
51867SOL    HW155627  10.805   2.679  10.975
51867SOL    HW255628  10.957   2.688  10.915
51868SOL     OW55629  10.323   1.967  11.080
51868SOL    HW155630  10.329   2.052  11.028
51868SOL    HW255631  10.355   1.891  11.023
51869SOL     OW55632   9.814   1.912  11.050
51869SOL    HW155633   9.772   1.855  10.980
51869SOL    HW255634   9.748   1.981  11.082
51870SOL     OW55635   9.883   2.732  10.339
51870SOL    HW155636   9.927   2.821  10.330
51870SOL    HW255637   9.820   2.732  10.416
51871SOL     OW55638  10.670   2.724  10.355
51871SOL    HW155639  10.595   2.724  10.289
51871SOL    HW255640  10.707   2.632  10.364
51872SOL     OW55641  10.519   2.387   9.585
51872SOL    HW155642  10.532   2.303   9.639
51872SOL    HW255643  10.490   2.461   9.645
51873SOL     OW55644   9.617   2.075  10.541
51873SOL    HW155645   9.594   2.112  10.631
51873SOL    HW255646   9.587   1.980  10.535
51874SOL     OW55647   9.347   3.172  10.592
51874SOL    HW155648   9.400   3.123  10.660
51874SOL    HW255649   9.369   3.270  10.597
51875SOL     OW55650  10.042   2.496  10.374
51875SOL    HW155651  10.101   2.470  10.298
51875SOL    HW255652  10.014   2.592  10.363
51876SOL     OW55653  11.038   2.797  11.164
51876SOL    HW155654  10.992   2.790  11.075
51876SOL    HW255655  10.976   2.841  11.230
51877SOL     OW55656   9.617   1.925   9.928
51877SOL    HW155657   9.606   2.019   9.961
51877SOL    HW255658   9.612   1.862  10.005
51878SOL     OW55659  10.932   2.229   9.684
51878SOL    HW155660  10.934   2.153   9.748
51878SOL    HW255661  10.884   2.306   9.724
51879SOL     OW55662  10.333   2.628  10.276
51879SOL    HW155663  10.348   2.649  10.372
51879SOL    HW255664  10.303   2.533  10.267
51880SOL     OW55665  10.290   3.435  11.010
51880SOL    HW155666  10.270   3.479  10.922
51880SOL    HW255667  10.329   3.344  10.994
51881SOL     OW55668  11.169   3.380  10.915
51881SOL    HW155669  11.183   3.407  10.820
51881SOL    HW255670  11.252   3.402  10.968
51882SOL     OW55671   9.660   2.760  11.114
51882SOL    HW155672   9.736   2.804  11.162
51882SOL    HW255673   9.695   2.713  11.032
51883SOL     OW55674  10.850   2.136   9.435
51883SOL    HW155675  10.789   2.061   9.458
51883SOL    HW255676  10.872   2.188   9.518
51884SOL     OW55677  10.613   2.700   9.352
51884SOL    HW155678  10.647   2.607   9.367
51884SOL    HW255679  10.631   2.727   9.257
51885SOL     OW55680  10.378   3.195  10.159
51885SOL    HW155681  10.385   3.111  10.104
51885SOL    HW255682  10.440   3.264  10.123
51886SOL     OW55683   9.629   2.672  10.259
51886SOL    HW155684   9.722   2.708  10.264
51886SOL    HW255685   9.623   2.587  10.311
51887SOL     OW55686   9.649   2.371  10.316
51887SOL    HW155687   9.597   2.288  10.299
51887SOL    HW255688   9.726   2.376  10.252
51888SOL     OW55689  10.448   2.242  10.988
51888SOL    HW155690  10.403   2.305  11.052
51888SOL    HW255691  10.541   2.273  10.971
51889SOL     OW55692  10.470   2.069  10.787
51889SOL    HW155693  10.470   2.133  10.864
51889SOL    HW255694  10.498   2.117  10.704
51890SOL     OW55695   9.318   3.188   9.510
51890SOL    HW155696   9.225   3.209   9.479
51890SOL    HW255697   9.328   3.089   9.523
51891SOL     OW55698   9.398   3.663  10.237
51891SOL    HW155699   9.356   3.577  10.210
51891SOL    HW255700   9.492   3.666  10.203
51892SOL     OW55701   9.814   3.430  10.220
51892SOL    HW155702   9.880   3.504  10.229
51892SOL    HW255703   9.858   3.351  10.178
51893SOL     OW55704  10.312   2.658  10.548
51893SOL    HW155705  10.353   2.626  10.634
51893SOL    HW255706  10.216   2.631  10.545
51894SOL     OW55707   9.350   2.406  10.424
51894SOL    HW155708   9.435   2.373  10.383
51894SOL    HW255709   9.363   2.421  10.522
51895SOL     OW55710   9.499   2.382  11.032
51895SOL    HW155711   9.558   2.342  10.962
51895SOL    HW255712   9.441   2.453  10.991
51896SOL     OW55713  10.679   2.812  10.970
51896SOL    HW155714  10.718   2.901  10.990
51896SOL    HW255715  10.689   2.792  10.873
51897SOL     OW55716  10.125   2.434   9.635
51897SOL    HW155717  10.132   2.345   9.589
51897SOL    HW255718  10.031   2.468   9.627
51898SOL     OW55719  10.967   2.466  10.516
51898SOL    HW155720  10.929   2.397  10.578
51898SOL    HW255721  11.049   2.430  10.472
51899SOL     OW55722   9.562   3.426  11.054
51899SOL    HW155723   9.532   3.483  11.130
51899SOL    HW255724   9.555   3.329  11.080
51900SOL     OW55725   9.981   2.326  10.579
51900SOL    HW155726   9.947   2.237  10.549
51900SOL    HW255727  10.007   2.380  10.499
51901SOL     OW55728  10.240   3.540  10.775
51901SOL    HW155729  10.216   3.522  10.680
51901SOL    HW255730  10.270   3.634  10.785
51902SOL     OW55731   9.783   2.362   9.501
51902SOL    HW155732   9.844   2.442   9.505
51902SOL    HW255733   9.688   2.393   9.508
51903SOL     OW55734   9.469   2.999  10.776
51903SOL    HW155735   9.491   2.938  10.852
51903SOL    HW255736   9.479   2.950  10.690
51904SOL     OW55737  10.657   2.921  10.544
51904SOL    HW155738  10.681   2.858  10.470
51904SOL    HW255739  10.567   2.961  10.526
51905SOL     OW55740  10.612   2.717   9.619
51905SOL    HW155741  10.526   2.686   9.661
51905SOL    HW255742  10.608   2.703   9.520
51906SOL     OW55743  11.069   3.609  10.464
51906SOL    HW155744  11.130   3.639  10.391
51906SOL    HW255745  11.031   3.520  10.442
51907SOL     OW55746  10.562   3.593  10.438
51907SOL    HW155747  10.646   3.598  10.384
51907SOL    HW255748  10.539   3.497  10.456
51908SOL     OW55749   9.393   3.120  10.332
51908SOL    HW155750   9.388   3.119  10.432
51908SOL    HW255751   9.310   3.079  10.294
51909SOL     OW55752   9.998   3.524  11.026
51909SOL    HW155753   9.942   3.605  11.035
51909SOL    HW255754  10.050   3.528  10.940
51910SOL     OW55755  11.036   1.997   9.833
51910SOL    HW155756  11.109   1.980   9.766
51910SOL    HW255757  11.005   1.910   9.871
51911SOL     OW55758  10.698   3.435   9.787
51911SOL    HW155759  10.765   3.447   9.713
51911SOL    HW255760  10.658   3.524   9.810
51912SOL     OW55761   9.440   3.656  11.161
51912SOL    HW155762   9.399   3.582  11.214
51912SOL    HW255763   9.504   3.707  11.219
51913SOL     OW55764  10.590   2.789   9.982
51913SOL    HW155765  10.650   2.708   9.984
51913SOL    HW255766  10.630   2.858   9.922
51914SOL     OW55767  10.140   3.135  10.732
51914SOL    HW155768  10.135   3.168  10.827
51914SOL    HW255769  10.054   3.154  10.686
51915SOL     OW55770   9.982   3.478   9.464
51915SOL    HW155771   9.991   3.488   9.365
51915SOL    HW255772   9.942   3.389   9.485
51916SOL     OW55773  10.960   3.582  10.704
51916SOL    HW155774  11.013   3.592  10.620
51916SOL    HW255775  10.933   3.672  10.738
51917SOL     OW55776  11.151   2.037  10.273
51917SOL    HW155777  11.190   1.952  10.237
51917SOL    HW255778  11.053   2.039  10.254
51918SOL     OW55779   9.573   2.188  10.030
51918SOL    HW155780   9.494   2.239   9.996
51918SOL    HW255781   9.564   2.173  10.128
51919SOL     OW55782  10.504   3.474   9.341
51919SOL    HW155783  10.510   3.381   9.378
51919SOL    HW255784  10.445   3.474   9.261
51920SOL     OW55785  10.132   2.864  10.682
51920SOL    HW155786  10.172   2.863  10.590
51920SOL    HW255787  10.142   2.956  10.722
51921SOL     OW55788  10.226   2.772   9.601
51921SOL    HW155789  10.289   2.810   9.533
51921SOL    HW255790  10.266   2.689   9.640
51922SOL     OW55791  10.814   3.469   9.354
51922SOL    HW155792  10.722   3.506   9.361
51922SOL    HW255793  10.852   3.489   9.264
51923SOL     OW55794   9.682   3.150  10.800
51923SOL    HW155795   9.669   3.243  10.766
51923SOL    HW255796   9.598   3.098  10.787
51924SOL     OW55797  10.924   3.154  10.599
51924SOL    HW155798  10.984   3.157  10.679
51924SOL    HW255799  10.849   3.218  10.612
51925SOL     OW55800  10.349   2.960  10.006
51925SOL    HW155801  10.279   2.913  10.060
51925SOL    HW255802  10.408   2.892   9.963
51926SOL     OW55803  10.324   2.098  10.281
51926SOL    HW155804  10.316   2.062  10.188
51926SOL    HW255805  10.322   2.022  10.346
51927SOL     OW55806   9.900   3.349   9.801
51927SOL    HW155807   9.942   3.291   9.731
51927SOL    HW255808   9.856   3.428   9.757
51928SOL     OW55809  11.019   2.247  10.691
51928SOL    HW155810  11.092   2.316  10.695
51928SOL    HW255811  11.047   2.172  10.632
51929SOL     OW55812   9.565   3.210   9.600
51929SOL    HW155813   9.469   3.211   9.573
51929SOL    HW255814   9.577   3.263   9.684
51930SOL     OW55815   9.415   2.875  11.036
51930SOL    HW155816   9.338   2.842  11.090
51930SOL    HW255817   9.500   2.845  11.078
51931SOL     OW55818   9.982   2.065  10.799
51931SOL    HW155819  10.072   2.049  10.759
51931SOL    HW255820   9.990   2.070  10.898
51932SOL     OW55821   9.385   2.207   9.343
51932SOL    HW155822   9.293   2.179   9.314
51932SOL    HW255823   9.416   2.284   9.287
51933SOL     OW55824  10.750   2.718  10.708
51933SOL    HW155825  10.693   2.770  10.645
51933SOL    HW255826  10.846   2.730  10.684
51934SOL     OW55827   9.382   2.028   9.628
51934SOL    HW155828   9.365   2.111   9.574
51934SOL    HW255829   9.472   1.991   9.606
51935SOL     OW55830  10.493   3.197   9.429
51935SOL    HW155831  10.394   3.186   9.431
51935SOL    HW255832  10.527   3.212   9.522
51936SOL     OW55833   9.923   2.704  10.741
51936SOL    HW155834   9.979   2.785  10.724
51936SOL    HW255835   9.982   2.624  10.744
51937SOL     OW55836  10.803   3.629  10.269
51937SOL    HW155837  10.836   3.693  10.200
51937SOL    HW255838  10.869   3.623  10.344
51938SOL     OW55839  10.026   2.427  11.018
51938SOL    HW155840  10.045   2.492  11.092
51938SOL    HW255841  10.086   2.347  11.027
51939SOL     OW55842  10.760   3.082  10.943
51939SOL    HW155843  10.751   3.072  11.042
51939SOL    HW255844  10.856   3.075  10.917
51940SOL     OW55845   9.700   3.603  10.870
51940SOL    HW155846   9.609   3.644  10.868
51940SOL    HW255847   9.693   3.509  10.902
51941SOL     OW55848  10.984   2.745  10.564
51941SOL    HW155849  10.957   2.656  10.527
51941SOL    HW255850  10.985   2.813  10.491
51942SOL     OW55851  10.535   2.187   9.759
51942SOL    HW155852  10.600   2.113   9.748
51942SOL    HW255853  10.555   2.237   9.843
51943SOL     OW55854   9.904   2.607   9.962
51943SOL    HW155855   9.954   2.692   9.943
51943SOL    HW255856   9.816   2.609   9.914
51944SOL     OW55857  11.087   2.204  10.952
51944SOL    HW155858  11.070   2.235  10.858
51944SOL    HW255859  11.003   2.167  10.990
51945SOL     OW55860  11.040   2.796  10.827
51945SOL    HW155861  11.078   2.887  10.842
51945SOL    HW255862  11.032   2.779  10.728
51946SOL     OW55863  10.169   3.236   9.326
51946SOL    HW155864  10.123   3.251   9.414
51946SOL    HW255865  10.213   3.321   9.296
51947SOL     OW55866   9.971   3.652  10.263
51947SOL    HW155867   9.925   3.740  10.250
51947SOL    HW255868  10.070   3.664  10.256
51948SOL     OW55869  10.169   2.818  10.171
51948SOL    HW155870  10.223   2.749  10.219
51948SOL    HW255871  10.137   2.887  10.237
51949SOL     OW55872  10.393   2.846   9.397
51949SOL    HW155873  10.370   2.899   9.315
51949SOL    HW255874  10.474   2.790   9.378
51950SOL     OW55875  11.171   3.431  10.161
51950SOL    HW155876  11.100   3.419  10.091
51950SOL    HW255877  11.172   3.352  10.221
51951SOL     OW55878   9.531   3.176  11.154
51951SOL    HW155879   9.466   3.103  11.133
51951SOL    HW255880   9.535   3.190  11.252
51952SOL     OW55881   9.389   3.102   9.963
51952SOL    HW155882   9.388   3.055  10.051
51952SOL    HW255883   9.471   3.074   9.912
51953SOL     OW55884   9.982   3.253  10.934
51953SOL    HW155885   9.904   3.203  10.972
51953SOL    HW255886   9.979   3.348  10.965
51954SOL     OW55887  11.134   2.054  10.537
51954SOL    HW155888  11.130   1.964  10.581
51954SOL    HW255889  11.137   2.043  10.438
51955SOL     OW55890   9.738   2.286   9.830
51955SOL    HW155891   9.768   2.214   9.768
51955SOL    HW255892   9.699   2.246   9.913
51956SOL     OW55893  11.015   3.349  10.414
51956SOL    HW155894  10.922   3.324  10.387
51956SOL    HW255895  11.041   3.299  10.496
51957SOL     OW55896   9.627   2.409  10.590
51957SOL    HW155897   9.665   2.350  10.662
51957SOL    HW255898   9.667   2.383  10.502
51958SOL     OW55899  10.122   3.448   9.997
51958SOL    HW155900  10.154   3.458   9.903
51958SOL    HW255901  10.043   3.386   9.999
51959SOL     OW55902  10.734   2.076  10.422
51959SOL    HW155903  10.786   2.011  10.477
51959SOL    HW255904  10.685   2.139  10.483
51960SOL     OW55905  10.311   1.896  10.464
51960SOL    HW155906  10.248   1.824  10.433
51960SOL    HW255907  10.404   1.860  10.464
51961SOL     OW55908  10.080   3.192   9.611
51961SOL    HW155909  10.034   3.105   9.628
51961SOL    HW255910  10.171   3.189   9.652
51962SOL     OW55911   9.928   3.429  10.594
51962SOL    HW155912   9.923   3.511  10.651
51962SOL    HW255913  10.017   3.426  10.549
51963SOL     OW55914  10.662   1.914   9.478
51963SOL    HW155915  10.697   1.873   9.394
51963SOL    HW255916  10.572   1.876   9.498
51964SOL     OW55917  10.610   2.315  10.001
51964SOL    HW155918  10.551   2.395  10.005
51964SOL    HW255919  10.625   2.280  10.094
51965SOL     OW55920  10.903   2.083  10.192
51965SOL    HW155921  10.819   2.082  10.246
51965SOL    HW255922  10.905   2.166  10.136
51966SOL     OW55923   9.349   2.939   9.610
51966SOL    HW155924   9.448   2.928   9.601
51966SOL    HW255925   9.309   2.853   9.642
51967SOL     OW55926  10.185   3.508   9.647
51967SOL    HW155927  10.108   3.473   9.593
51967SOL    HW255928  10.153   3.579   9.709
51968SOL     OW55929   9.540   2.490  11.285
51968SOL    HW155930   9.447   2.488  11.322
51968SOL    HW255931   9.541   2.451  11.193
51969SOL     OW55932   9.535   2.137  12.168
51969SOL    HW155933   9.570   2.120  12.260
51969SOL    HW255934   9.447   2.092  12.156
51970SOL     OW55935   9.329   2.230  11.819
51970SOL    HW155936   9.247   2.273  11.858
51970SOL    HW255937   9.301   2.157  11.756
51971SOL     OW55938   9.879   3.137  12.337
51971SOL    HW155939   9.786   3.130  12.300
51971SOL    HW255940   9.890   3.226  12.381
51972SOL     OW55941  10.865   3.373  11.875
51972SOL    HW155942  10.808   3.357  11.956
51972SOL    HW255943  10.806   3.383  11.795
51973SOL     OW55944  10.445   2.565  11.889
51973SOL    HW155945  10.502   2.643  11.864
51973SOL    HW255946  10.385   2.591  11.965
51974SOL     OW55947  11.065   2.469  11.403
51974SOL    HW155948  11.053   2.456  11.304
51974SOL    HW255949  11.035   2.388  11.452
51975SOL     OW55950  10.078   3.006  12.195
51975SOL    HW155951  10.000   3.023  12.255
51975SOL    HW255952  10.112   3.093  12.159
51976SOL     OW55953   9.995   2.874  11.837
51976SOL    HW155954  10.064   2.858  11.907
51976SOL    HW255955   9.922   2.931  11.875
51977SOL     OW55956   9.645   3.297  12.233
51977SOL    HW155957   9.567   3.266  12.180
51977SOL    HW255958   9.703   3.355  12.176
51978SOL     OW55959  10.770   3.367  12.511
51978SOL    HW155960  10.794   3.461  12.537
51978SOL    HW255961  10.754   3.313  12.593
51979SOL     OW55962   9.748   2.254  12.671
51979SOL    HW155963   9.830   2.198  12.680
51979SOL    HW255964   9.667   2.196  12.675
51980SOL     OW55965  10.913   2.309  11.909
51980SOL    HW155966  10.839   2.355  11.859
51980SOL    HW255967  10.964   2.377  11.962
51981SOL     OW55968   9.541   3.575  11.655
51981SOL    HW155969   9.575   3.652  11.709
51981SOL    HW255970   9.585   3.575  11.565
51982SOL     OW55971   9.540   3.296  11.710
51982SOL    HW155972   9.514   3.392  11.710
51982SOL    HW255973   9.469   3.242  11.755
51983SOL     OW55974   9.550   2.953  12.058
51983SOL    HW155975   9.564   2.869  12.110
51983SOL    HW255976   9.495   3.017  12.113
51984SOL     OW55977   9.930   3.648  12.611
51984SOL    HW155978   9.838   3.631  12.646
51984SOL    HW255979   9.958   3.740  12.637
51985SOL     OW55980   9.916   2.826  11.295
51985SOL    HW155981   9.923   2.910  11.241
51985SOL    HW255982   9.962   2.839  11.383
51986SOL     OW55983  10.904   1.976  12.652
51986SOL    HW155984  10.886   2.043  12.580
51986SOL    HW255985  10.901   2.022  12.741
51987SOL     OW55986   9.432   2.505  11.735
51987SOL    HW155987   9.387   2.417  11.752
51987SOL    HW255988   9.431   2.559  11.819
51988SOL     OW55989  11.152   3.629  11.531
51988SOL    HW155990  11.206   3.600  11.611
51988SOL    HW255991  11.182   3.719  11.502
51989SOL     OW55992   9.337   3.458  11.289
51989SOL    HW155993   9.318   3.362  11.310
51989SOL    HW255994   9.304   3.516  11.364
51990SOL     OW55995  10.999   2.784  11.784
51990SOL    HW155996  11.094   2.755  11.792
51990SOL    HW255997  10.991   2.849  11.709
51991SOL     OW55998  10.951   2.970  11.604
51991SOL    HW155999  11.037   2.972  11.552
51991SOL    HW256000  10.965   3.017  11.692
51992SOL     OW56001   9.923   3.227  11.898
51992SOL    HW156002   9.874   3.140  11.907
51992SOL    HW256003   9.900   3.270  11.811
51993SOL     OW56004  10.119   1.866  11.674
51993SOL    HW156005  10.159   1.957  11.665
51993SOL    HW256006  10.019   1.874  11.680
51994SOL     OW56007   9.507   2.838  12.436
51994SOL    HW156008   9.596   2.793  12.422
51994SOL    HW256009   9.434   2.773  12.417
51995SOL     OW56010  10.835   2.861  11.362
51995SOL    HW156011  10.772   2.785  11.375
51995SOL    HW256012  10.883   2.879  11.448
51996SOL     OW56013   9.627   2.113  12.973
51996SOL    HW156014   9.698   2.184  12.979
51996SOL    HW256015   9.539   2.152  13.001
51997SOL     OW56016  10.776   3.279  12.125
51997SOL    HW156017  10.717   3.285  12.205
51997SOL    HW256018  10.761   3.191  12.079
51998SOL     OW56019  10.977   3.576  11.744
51998SOL    HW156020  10.936   3.553  11.656
51998SOL    HW256021  10.959   3.502  11.809
51999SOL     OW56022   9.908   2.591  11.442
51999SOL    HW156023   9.932   2.660  11.374
51999SOL    HW256024   9.830   2.624  11.496
52000SOL     OW56025  10.591   2.207  12.116
52000SOL    HW156026  10.505   2.157  12.103
52000SOL    HW256027  10.653   2.153  12.172
52001SOL     OW56028  10.886   3.524  11.479
52001SOL    HW156029  10.975   3.570  11.482
52001SOL    HW256030  10.865   3.500  11.384
52002SOL     OW56031  10.117   2.467  12.637
52002SOL    HW156032  10.070   2.464  12.726
52002SOL    HW256033  10.066   2.412  12.571
52003SOL     OW56034  10.301   2.272  12.414
52003SOL    HW156035  10.224   2.306  12.468
52003SOL    HW256036  10.267   2.221  12.335
52004SOL     OW56037  10.351   2.563  11.601
52004SOL    HW156038  10.377   2.559  11.697
52004SOL    HW256039  10.266   2.512  11.587
52005SOL     OW56040   9.386   2.673  11.961
52005SOL    HW156041   9.485   2.661  11.970
52005SOL    HW256042   9.362   2.768  11.982
52006SOL     OW56043   9.440   3.683  12.743
52006SOL    HW156044   9.430   3.668  12.842
52006SOL    HW256045   9.354   3.719  12.707
52007SOL     OW56046  10.175   2.210  11.367
52007SOL    HW156047  10.234   2.273  11.318
52007SOL    HW256048  10.194   2.116  11.338
52008SOL     OW56049  10.672   3.006  11.717
52008SOL    HW156050  10.755   2.977  11.669
52008SOL    HW256051  10.623   3.073  11.661
52009SOL     OW56052   9.860   2.058  12.057
52009SOL    HW156053   9.855   2.053  12.157
52009SOL    HW256054   9.862   2.154  12.028
52010SOL     OW56055  10.318   3.318  11.649
52010SOL    HW156056  10.272   3.390  11.597
52010SOL    HW256057  10.314   3.338  11.747
52011SOL     OW56058   9.661   3.663  12.025
52011SOL    HW156059   9.711   3.577  12.031
52011SOL    HW256060   9.726   3.740  12.022
52012SOL     OW56061  11.105   2.928  12.045
52012SOL    HW156062  11.043   2.913  11.969
52012SOL    HW256063  11.053   2.939  12.130
52013SOL     OW56064   9.631   2.805  11.414
52013SOL    HW156065   9.713   2.844  11.372
52013SOL    HW256066   9.604   2.723  11.365
52014SOL     OW56067  10.768   2.597  11.900
52014SOL    HW156068  10.763   2.532  11.975
52014SOL    HW256069  10.848   2.656  11.913
52015SOL     OW56070  10.421   3.638  11.409
52015SOL    HW156071  10.361   3.576  11.459
52015SOL    HW256072  10.452   3.594  11.324
52016SOL     OW56073   9.512   2.147  12.670
52016SOL    HW156074   9.432   2.207  12.657
52016SOL    HW256075   9.502   2.098  12.756
52017SOL     OW56076  10.942   3.239  11.253
52017SOL    HW156077  10.910   3.333  11.243
52017SOL    HW256078  10.866   3.176  11.241
52018SOL     OW56079   9.774   3.605  11.495
52018SOL    HW156080   9.807   3.644  11.581
52018SOL    HW256081   9.850   3.598  11.430
52019SOL     OW56082  10.710   1.969  11.598
52019SOL    HW156083  10.686   1.932  11.508
52019SOL    HW256084  10.809   1.985  11.602
52020SOL     OW56085   9.559   3.647  12.413
52020SOL    HW156086   9.616   3.582  12.463
52020SOL    HW256087   9.543   3.614  12.320
52021SOL     OW56088  10.250   3.560  12.076
52021SOL    HW156089  10.330   3.503  12.097
52021SOL    HW256090  10.201   3.520  11.999
52022SOL     OW56091   9.692   2.562  11.652
52022SOL    HW156092   9.737   2.472  11.649
52022SOL    HW256093   9.598   2.551  11.685
52023SOL     OW56094   9.924   1.984  11.289
52023SOL    HW156095  10.022   1.962  11.296
52023SOL    HW256096   9.893   1.967  11.196
52024SOL     OW56097  10.198   3.376  12.367
52024SOL    HW156098  10.175   3.351  12.273
52024SOL    HW256099  10.259   3.307  12.406
52025SOL     OW56100  10.113   3.264  12.096
52025SOL    HW156101  10.203   3.278  12.054
52025SOL    HW256102  10.042   3.266  12.025
52026SOL     OW56103  10.232   2.365  12.071
52026SOL    HW156104  10.207   2.356  11.975
52026SOL    HW256105  10.280   2.283  12.102
52027SOL     OW56106   9.849   1.926  11.684
52027SOL    HW156107   9.768   1.927  11.742
52027SOL    HW256108   9.852   2.009  11.629
52028SOL     OW56109  10.744   3.050  11.213
52028SOL    HW156110  10.776   2.974  11.270
52028SOL    HW256111  10.652   3.077  11.243
52029SOL     OW56112   9.607   1.897  11.343
52029SOL    HW156113   9.656   1.981  11.322
52029SOL    HW256114   9.669   1.832  11.388
52030SOL     OW56115  10.537   3.432  11.965
52030SOL    HW156116  10.558   3.506  11.900
52030SOL    HW256117  10.605   3.432  12.038
52031SOL     OW56118   9.769   3.014  11.913
52031SOL    HW156119   9.698   2.987  11.978
52031SOL    HW256120   9.743   2.986  11.820
52032SOL     OW56121  10.581   3.659  11.763
52032SOL    HW156122  10.625   3.723  11.699
52032SOL    HW256123  10.531   3.711  11.833
52033SOL     OW56124  10.342   2.411  11.188
52033SOL    HW156125  10.301   2.493  11.149
52033SOL    HW256126  10.406   2.437  11.261
52034SOL     OW56127   9.388   2.418  12.558
52034SOL    HW156128   9.480   2.417  12.517
52034SOL    HW256129   9.382   2.492  12.625
52035SOL     OW56130   9.871   2.084  12.319
52035SOL    HW156131   9.909   2.000  12.356
52035SOL    HW256132   9.783   2.103  12.363
52036SOL     OW56133  10.176   2.316  11.814
52036SOL    HW156134  10.144   2.388  11.752
52036SOL    HW256135  10.200   2.235  11.761
52037SOL     OW56136  10.327   1.901  11.925
52037SOL    HW156137  10.255   1.906  11.856
52037SOL    HW256138  10.303   1.832  11.994
52038SOL     OW56139  10.739   3.035  12.039
52038SOL    HW156140  10.684   2.951  12.032
52038SOL    HW256141  10.765   3.064  11.947
52039SOL     OW56142  10.776   2.452  12.164
52039SOL    HW156143  10.746   2.357  12.171
52039SOL    HW256144  10.849   2.468  12.230
52040SOL     OW56145  11.167   2.695  11.549
52040SOL    HW156146  11.209   2.631  11.613
52040SOL    HW256147  11.129   2.644  11.471
52041SOL     OW56148   9.798   3.247  11.346
52041SOL    HW156149   9.711   3.232  11.393
52041SOL    HW256150   9.781   3.273  11.251
52042SOL     OW56151  10.974   3.142  11.829
52042SOL    HW156152  11.073   3.150  11.843
52042SOL    HW256153  10.929   3.226  11.860
52043SOL     OW56154  10.700   2.437  11.250
52043SOL    HW156155  10.646   2.416  11.331
52043SOL    HW256156  10.791   2.396  11.259
52044SOL     OW56157   9.837   2.118  11.500
52044SOL    HW156158   9.864   2.059  11.425
52044SOL    HW256159   9.837   2.213  11.469
52045SOL     OW56160  10.374   3.209  12.512
52045SOL    HW156161  10.294   3.186  12.567
52045SOL    HW256162  10.457   3.183  12.561
52046SOL     OW56163  10.421   3.057  12.272
52046SOL    HW156164  10.381   3.101  12.353
52046SOL    HW256165  10.380   3.094  12.189
52047SOL     OW56166  10.948   2.961  12.251
52047SOL    HW156167  10.953   3.042  12.310
52047SOL    HW256168  10.862   2.963  12.200
52048SOL     OW56169  10.225   1.951  12.574
52048SOL    HW156170  10.250   1.931  12.479
52048SOL    HW256171  10.297   2.007  12.616
52049SOL     OW56172  10.015   2.912  11.540
52049SOL    HW156173  10.001   2.919  11.639
52049SOL    HW256174  10.099   2.861  11.522
52050SOL     OW56175   9.720   2.675  12.423
52050SOL    HW156176   9.806   2.687  12.473
52050SOL    HW256177   9.678   2.588  12.450
52051SOL     OW56178  10.584   2.248  12.434
52051SOL    HW156179  10.605   2.322  12.498
52051SOL    HW256180  10.495   2.265  12.391
52052SOL     OW56181   9.374   3.426  12.503
52052SOL    HW156182   9.328   3.508  12.469
52052SOL    HW256183   9.472   3.445  12.512
52053SOL     OW56184   9.677   2.962  11.673
52053SOL    HW156185   9.670   3.045  11.617
52053SOL    HW256186   9.681   2.882  11.613
52054SOL     OW56187   9.876   2.399  12.037
52054SOL    HW156188   9.888   2.465  11.963
52054SOL    HW256189   9.922   2.433  12.120
52055SOL     OW56190  10.562   3.210  11.560
52055SOL    HW156191  10.612   3.287  11.600
52055SOL    HW256192  10.467   3.212  11.592
52056SOL     OW56193  10.582   3.307  12.314
52056SOL    HW156194  10.629   3.320  12.401
52056SOL    HW256195  10.516   3.233  12.323
52057SOL     OW56196  10.892   2.501  11.644
52057SOL    HW156197  10.861   2.562  11.717
52057SOL    HW256198  10.942   2.553  11.575
52058SOL     OW56199   9.664   3.372  12.501
52058SOL    HW156200   9.643   3.328  12.414
52058SOL    HW256201   9.761   3.398  12.504
52059SOL     OW56202   9.712   2.613  12.770
52059SOL    HW156203   9.780   2.668  12.723
52059SOL    HW256204   9.752   2.525  12.797
52060SOL     OW56205  10.897   2.641  12.842
52060SOL    HW156206  10.805   2.679  12.837
52060SOL    HW256207  10.957   2.688  12.777
52061SOL     OW56208   9.883   2.732  12.201
52061SOL    HW156209   9.927   2.821  12.192
52061SOL    HW256210   9.820   2.732  12.278
52062SOL     OW56211  10.670   2.724  12.217
52062SOL    HW156212  10.595   2.724  12.151
52062SOL    HW256213  10.707   2.632  12.226
52063SOL     OW56214  10.519   2.387  11.447
52063SOL    HW156215  10.532   2.303  11.501
52063SOL    HW256216  10.490   2.461  11.507
52064SOL     OW56217   9.617   2.075  12.403
52064SOL    HW156218   9.594   2.112  12.493
52064SOL    HW256219   9.587   1.980  12.397
52065SOL     OW56220   9.347   3.172  12.454
52065SOL    HW156221   9.400   3.123  12.522
52065SOL    HW256222   9.369   3.270  12.459
52066SOL     OW56223  10.042   2.496  12.236
52066SOL    HW156224  10.101   2.470  12.160
52066SOL    HW256225  10.014   2.592  12.225
52067SOL     OW56226   9.617   1.925  11.790
52067SOL    HW156227   9.606   2.019  11.823
52067SOL    HW256228   9.612   1.862  11.867
52068SOL     OW56229  10.932   2.229  11.546
52068SOL    HW156230  10.934   2.153  11.610
52068SOL    HW256231  10.884   2.306  11.586
52069SOL     OW56232  10.333   2.628  12.138
52069SOL    HW156233  10.348   2.649  12.234
52069SOL    HW256234  10.303   2.533  12.129
52070SOL     OW56235  10.290   3.435  12.872
52070SOL    HW156236  10.270   3.479  12.784
52070SOL    HW256237  10.329   3.344  12.856
52071SOL     OW56238  10.850   2.136  11.297
52071SOL    HW156239  10.789   2.061  11.320
52071SOL    HW256240  10.872   2.188  11.380
52072SOL     OW56241  10.613   2.700  11.214
52072SOL    HW156242  10.647   2.607  11.229
52072SOL    HW256243  10.631   2.727  11.119
52073SOL     OW56244  10.378   3.195  12.021
52073SOL    HW156245  10.385   3.111  11.966
52073SOL    HW256246  10.440   3.264  11.985
52074SOL     OW56247   9.629   2.672  12.121
52074SOL    HW156248   9.722   2.708  12.126
52074SOL    HW256249   9.623   2.587  12.173
52075SOL     OW56250   9.649   2.371  12.178
52075SOL    HW156251   9.597   2.288  12.161
52075SOL    HW256252   9.726   2.376  12.114
52076SOL     OW56253  10.448   2.242  12.850
52076SOL    HW156254  10.403   2.305  12.914
52076SOL    HW256255  10.541   2.273  12.833
52077SOL     OW56256  10.470   2.069  12.649
52077SOL    HW156257  10.470   2.133  12.726
52077SOL    HW256258  10.498   2.117  12.566
52078SOL     OW56259   9.318   3.188  11.372
52078SOL    HW156260   9.225   3.209  11.341
52078SOL    HW256261   9.328   3.089  11.385
52079SOL     OW56262   9.398   3.663  12.099
52079SOL    HW156263   9.356   3.577  12.072
52079SOL    HW256264   9.492   3.666  12.065
52080SOL     OW56265   9.814   3.430  12.082
52080SOL    HW156266   9.880   3.504  12.091
52080SOL    HW256267   9.858   3.351  12.040
52081SOL     OW56268  10.312   2.658  12.410
52081SOL    HW156269  10.353   2.626  12.496
52081SOL    HW256270  10.216   2.631  12.407
52082SOL     OW56271   9.350   2.406  12.286
52082SOL    HW156272   9.435   2.373  12.245
52082SOL    HW256273   9.363   2.421  12.384
52083SOL     OW56274  10.125   2.434  11.497
52083SOL    HW156275  10.132   2.345  11.451
52083SOL    HW256276  10.031   2.468  11.489
52084SOL     OW56277  10.967   2.466  12.378
52084SOL    HW156278  10.929   2.397  12.440
52084SOL    HW256279  11.049   2.430  12.334
52085SOL     OW56280   9.981   2.326  12.441
52085SOL    HW156281   9.947   2.237  12.411
52085SOL    HW256282  10.007   2.380  12.361
52086SOL     OW56283  10.240   3.540  12.637
52086SOL    HW156284  10.216   3.522  12.542
52086SOL    HW256285  10.270   3.634  12.647
52087SOL     OW56286   9.783   2.362  11.363
52087SOL    HW156287   9.844   2.442  11.367
52087SOL    HW256288   9.688   2.393  11.370
52088SOL     OW56289   9.469   2.999  12.638
52088SOL    HW156290   9.491   2.938  12.714
52088SOL    HW256291   9.479   2.950  12.552
52089SOL     OW56292  10.657   2.921  12.406
52089SOL    HW156293  10.681   2.858  12.332
52089SOL    HW256294  10.567   2.961  12.388
52090SOL     OW56295  10.612   2.717  11.481
52090SOL    HW156296  10.526   2.686  11.523
52090SOL    HW256297  10.608   2.703  11.382
52091SOL     OW56298  11.069   3.609  12.326
52091SOL    HW156299  11.130   3.639  12.253
52091SOL    HW256300  11.031   3.520  12.304
52092SOL     OW56301  10.562   3.593  12.300
52092SOL    HW156302  10.646   3.598  12.246
52092SOL    HW256303  10.539   3.497  12.318
52093SOL     OW56304   9.393   3.120  12.194
52093SOL    HW156305   9.388   3.119  12.294
52093SOL    HW256306   9.310   3.079  12.156
52094SOL     OW56307  11.036   1.997  11.695
52094SOL    HW156308  11.109   1.980  11.628
52094SOL    HW256309  11.005   1.910  11.733
52095SOL     OW56310  10.698   3.435  11.649
52095SOL    HW156311  10.765   3.447  11.575
52095SOL    HW256312  10.658   3.524  11.672
52096SOL     OW56313  10.590   2.789  11.844
52096SOL    HW156314  10.650   2.708  11.846
52096SOL    HW256315  10.630   2.858  11.784
52097SOL     OW56316   9.982   3.478  11.326
52097SOL    HW156317   9.991   3.488  11.227
52097SOL    HW256318   9.942   3.389  11.347
52098SOL     OW56319  10.960   3.582  12.566
52098SOL    HW156320  11.013   3.592  12.482
52098SOL    HW256321  10.933   3.672  12.600
52099SOL     OW56322  11.151   2.037  12.135
52099SOL    HW156323  11.190   1.952  12.099
52099SOL    HW256324  11.053   2.039  12.116
52100SOL     OW56325   9.573   2.188  11.892
52100SOL    HW156326   9.494   2.239  11.858
52100SOL    HW256327   9.564   2.173  11.990
52101SOL     OW56328  10.504   3.474  11.203
52101SOL    HW156329  10.510   3.381  11.240
52101SOL    HW256330  10.445   3.474  11.123
52102SOL     OW56331  10.132   2.864  12.544
52102SOL    HW156332  10.172   2.863  12.452
52102SOL    HW256333  10.142   2.956  12.584
52103SOL     OW56334  10.226   2.772  11.463
52103SOL    HW156335  10.289   2.810  11.395
52103SOL    HW256336  10.266   2.689  11.502
52104SOL     OW56337  10.814   3.469  11.216
52104SOL    HW156338  10.722   3.506  11.223
52104SOL    HW256339  10.852   3.489  11.126
52105SOL     OW56340   9.682   3.150  12.662
52105SOL    HW156341   9.669   3.243  12.628
52105SOL    HW256342   9.598   3.098  12.649
52106SOL     OW56343  10.924   3.154  12.461
52106SOL    HW156344  10.984   3.157  12.541
52106SOL    HW256345  10.849   3.218  12.474
52107SOL     OW56346  10.349   2.960  11.868
52107SOL    HW156347  10.279   2.913  11.922
52107SOL    HW256348  10.408   2.892  11.825
52108SOL     OW56349  10.324   2.098  12.143
52108SOL    HW156350  10.316   2.062  12.050
52108SOL    HW256351  10.322   2.022  12.208
52109SOL     OW56352   9.900   3.349  11.663
52109SOL    HW156353   9.942   3.291  11.593
52109SOL    HW256354   9.856   3.428  11.619
52110SOL     OW56355  11.019   2.247  12.553
52110SOL    HW156356  11.092   2.316  12.557
52110SOL    HW256357  11.047   2.172  12.494
52111SOL     OW56358   9.565   3.210  11.462
52111SOL    HW156359   9.469   3.211  11.435
52111SOL    HW256360   9.577   3.263  11.546
52112SOL     OW56361   9.385   2.207  11.205
52112SOL    HW156362   9.293   2.179  11.176
52112SOL    HW256363   9.416   2.284  11.149
52113SOL     OW56364  10.750   2.718  12.570
52113SOL    HW156365  10.693   2.770  12.507
52113SOL    HW256366  10.846   2.730  12.546
52114SOL     OW56367   9.382   2.028  11.490
52114SOL    HW156368   9.365   2.111  11.436
52114SOL    HW256369   9.472   1.991  11.468
52115SOL     OW56370  10.493   3.197  11.291
52115SOL    HW156371  10.394   3.186  11.293
52115SOL    HW256372  10.527   3.212  11.384
52116SOL     OW56373   9.923   2.704  12.603
52116SOL    HW156374   9.979   2.785  12.586
52116SOL    HW256375   9.982   2.624  12.606
52117SOL     OW56376  10.803   3.629  12.131
52117SOL    HW156377  10.836   3.693  12.062
52117SOL    HW256378  10.869   3.623  12.206
52118SOL     OW56379   9.700   3.603  12.732
52118SOL    HW156380   9.609   3.644  12.730
52118SOL    HW256381   9.693   3.509  12.764
52119SOL     OW56382  10.984   2.745  12.426
52119SOL    HW156383  10.957   2.656  12.389
52119SOL    HW256384  10.985   2.813  12.353
52120SOL     OW56385  10.535   2.187  11.621
52120SOL    HW156386  10.600   2.113  11.610
52120SOL    HW256387  10.555   2.237  11.705
52121SOL     OW56388   9.904   2.607  11.824
52121SOL    HW156389   9.954   2.692  11.805
52121SOL    HW256390   9.816   2.609  11.776
52122SOL     OW56391  11.087   2.204  12.814
52122SOL    HW156392  11.070   2.235  12.720
52122SOL    HW256393  11.003   2.167  12.852
52123SOL     OW56394  11.040   2.796  12.689
52123SOL    HW156395  11.078   2.887  12.704
52123SOL    HW256396  11.032   2.779  12.590
52124SOL     OW56397  10.169   3.236  11.188
52124SOL    HW156398  10.123   3.251  11.276
52124SOL    HW256399  10.213   3.321  11.158
52125SOL     OW56400   9.971   3.652  12.125
52125SOL    HW156401   9.925   3.740  12.112
52125SOL    HW256402  10.070   3.664  12.118
52126SOL     OW56403  10.169   2.818  12.033
52126SOL    HW156404  10.223   2.749  12.081
52126SOL    HW256405  10.137   2.887  12.099
52127SOL     OW56406  10.393   2.846  11.259
52127SOL    HW156407  10.370   2.899  11.177
52127SOL    HW256408  10.474   2.790  11.240
52128SOL     OW56409  11.171   3.431  12.023
52128SOL    HW156410  11.100   3.419  11.953
52128SOL    HW256411  11.172   3.352  12.083
52129SOL     OW56412   9.389   3.102  11.825
52129SOL    HW156413   9.388   3.055  11.913
52129SOL    HW256414   9.471   3.074  11.774
52130SOL     OW56415  11.134   2.054  12.399
52130SOL    HW156416  11.130   1.964  12.443
52130SOL    HW256417  11.137   2.043  12.300
52131SOL     OW56418   9.738   2.286  11.692
52131SOL    HW156419   9.768   2.214  11.630
52131SOL    HW256420   9.699   2.246  11.775
52132SOL     OW56421  11.015   3.349  12.276
52132SOL    HW156422  10.922   3.324  12.249
52132SOL    HW256423  11.041   3.299  12.358
52133SOL     OW56424   9.627   2.409  12.452
52133SOL    HW156425   9.665   2.350  12.524
52133SOL    HW256426   9.667   2.383  12.364
52134SOL     OW56427  10.122   3.448  11.859
52134SOL    HW156428  10.154   3.458  11.765
52134SOL    HW256429  10.043   3.386  11.861
52135SOL     OW56430  10.734   2.076  12.284
52135SOL    HW156431  10.786   2.011  12.339
52135SOL    HW256432  10.685   2.139  12.345
52136SOL     OW56433  10.311   1.896  12.326
52136SOL    HW156434  10.248   1.824  12.295
52136SOL    HW256435  10.404   1.860  12.326
52137SOL     OW56436  10.080   3.192  11.473
52137SOL    HW156437  10.034   3.105  11.490
52137SOL    HW256438  10.171   3.189  11.514
52138SOL     OW56439   9.928   3.429  12.456
52138SOL    HW156440   9.923   3.511  12.513
52138SOL    HW256441  10.017   3.426  12.411
52139SOL     OW56442  10.662   1.914  11.340
52139SOL    HW156443  10.697   1.873  11.256
52139SOL    HW256444  10.572   1.876  11.360
52140SOL     OW56445  10.610   2.315  11.863
52140SOL    HW156446  10.551   2.395  11.867
52140SOL    HW256447  10.625   2.280  11.956
52141SOL     OW56448  10.903   2.083  12.054
52141SOL    HW156449  10.819   2.082  12.108
52141SOL    HW256450  10.905   2.166  11.998
52142SOL     OW56451   9.349   2.939  11.472
52142SOL    HW156452   9.448   2.928  11.463
52142SOL    HW256453   9.309   2.853  11.504
52143SOL     OW56454  10.185   3.508  11.509
52143SOL    HW156455  10.108   3.473  11.455
52143SOL    HW256456  10.153   3.579  11.571
52144SOL     OW56457   9.540   4.352   0.113
52144SOL    HW156458   9.447   4.350   0.150
52144SOL    HW256459   9.541   4.313   0.021
52145SOL     OW56460   9.535   3.999   0.996
52145SOL    HW156461   9.570   3.982   1.088
52145SOL    HW256462   9.447   3.954   0.984
52146SOL     OW56463   9.329   4.092   0.647
52146SOL    HW156464   9.247   4.135   0.686
52146SOL    HW256465   9.301   4.019   0.584
52147SOL     OW56466   9.879   4.999   1.165
52147SOL    HW156467   9.786   4.992   1.128
52147SOL    HW256468   9.890   5.088   1.209
52148SOL     OW56469  10.865   5.235   0.703
52148SOL    HW156470  10.808   5.219   0.784
52148SOL    HW256471  10.806   5.245   0.623
52149SOL     OW56472  10.445   4.427   0.717
52149SOL    HW156473  10.502   4.505   0.692
52149SOL    HW256474  10.385   4.453   0.793
52150SOL     OW56475  11.065   4.331   0.231
52150SOL    HW156476  11.053   4.318   0.132
52150SOL    HW256477  11.035   4.250   0.280
52151SOL     OW56478  10.078   4.868   1.023
52151SOL    HW156479  10.000   4.885   1.083
52151SOL    HW256480  10.112   4.955   0.987
52152SOL     OW56481  10.160   4.522   1.823
52152SOL    HW156482  10.156   4.598   1.888
52152SOL    HW256483  10.182   4.558   1.732
52153SOL     OW56484   9.995   4.736   0.665
52153SOL    HW156485  10.064   4.720   0.735
52153SOL    HW256486   9.922   4.793   0.703
52154SOL     OW56487   9.996   4.885   1.803
52154SOL    HW156488  10.056   4.964   1.817
52154SOL    HW256489   9.910   4.916   1.762
52155SOL     OW56490   9.645   5.159   1.061
52155SOL    HW156491   9.567   5.128   1.008
52155SOL    HW256492   9.703   5.217   1.004
52156SOL     OW56493  10.770   5.229   1.339
52156SOL    HW156494  10.794   5.323   1.365
52156SOL    HW256495  10.754   5.175   1.421
52157SOL     OW56496   9.748   4.116   1.499
52157SOL    HW156497   9.830   4.060   1.508
52157SOL    HW256498   9.667   4.058   1.503
52158SOL     OW56499  10.913   4.171   0.737
52158SOL    HW156500  10.839   4.217   0.687
52158SOL    HW256501  10.964   4.239   0.790
52159SOL     OW56502   9.541   5.437   0.483
52159SOL    HW156503   9.575   5.514   0.537
52159SOL    HW256504   9.585   5.437   0.393
52160SOL     OW56505  10.437   5.065   1.690
52160SOL    HW156506  10.484   5.065   1.778
52160SOL    HW256507  10.389   4.978   1.679
52161SOL     OW56508   9.540   5.158   0.538
52161SOL    HW156509   9.514   5.254   0.538
52161SOL    HW256510   9.469   5.104   0.583
52162SOL     OW56511   9.550   4.815   0.886
52162SOL    HW156512   9.564   4.731   0.938
52162SOL    HW256513   9.495   4.879   0.941
52163SOL     OW56514   9.930   5.510   1.439
52163SOL    HW156515   9.838   5.493   1.474
52163SOL    HW256516   9.958   5.602   1.465
52164SOL     OW56517   9.916   4.688   0.123
52164SOL    HW156518   9.923   4.772   0.069
52164SOL    HW256519   9.962   4.701   0.211
52165SOL     OW56520  10.904   3.838   1.480
52165SOL    HW156521  10.886   3.905   1.408
52165SOL    HW256522  10.901   3.884   1.569
52166SOL     OW56523   9.432   4.367   0.563
52166SOL    HW156524   9.387   4.279   0.580
52166SOL    HW256525   9.431   4.421   0.647
52167SOL     OW56526  11.152   5.491   0.359
52167SOL    HW156527  11.206   5.462   0.439
52167SOL    HW256528  11.182   5.581   0.330
52168SOL     OW56529   9.337   5.320   0.117
52168SOL    HW156530   9.318   5.224   0.138
52168SOL    HW256531   9.304   5.378   0.192
52169SOL     OW56532  10.999   4.646   0.612
52169SOL    HW156533  11.094   4.617   0.620
52169SOL    HW256534  10.991   4.711   0.537
52170SOL     OW56535  10.951   4.832   0.432
52170SOL    HW156536  11.037   4.834   0.380
52170SOL    HW256537  10.965   4.879   0.520
52171SOL     OW56538   9.423   4.461   1.597
52171SOL    HW156539   9.511   4.448   1.642
52171SOL    HW256540   9.410   4.558   1.575
52172SOL     OW56541   9.923   5.089   0.726
52172SOL    HW156542   9.874   5.002   0.735
52172SOL    HW256543   9.900   5.132   0.639
52173SOL     OW56544  10.603   4.952   1.423
52173SOL    HW156545  10.640   4.879   1.365
52173SOL    HW256546  10.655   4.957   1.508
52174SOL     OW56547  10.119   3.728   0.502
52174SOL    HW156548  10.159   3.819   0.493
52174SOL    HW256549  10.019   3.736   0.508
52175SOL     OW56550   9.507   4.700   1.264
52175SOL    HW156551   9.596   4.655   1.250
52175SOL    HW256552   9.434   4.635   1.245
52176SOL     OW56553  10.835   4.723   0.190
52176SOL    HW156554  10.772   4.647   0.203
52176SOL    HW256555  10.883   4.741   0.276
52177SOL     OW56556  10.497   5.516   1.616
52177SOL    HW156557  10.521   5.576   1.540
52177SOL    HW256558  10.504   5.421   1.586
52178SOL     OW56559   9.627   3.975   1.801
52178SOL    HW156560   9.698   4.046   1.807
52178SOL    HW256561   9.539   4.014   1.829
52179SOL     OW56562  10.776   5.141   0.953
52179SOL    HW156563  10.717   5.147   1.033
52179SOL    HW256564  10.761   5.053   0.907
52180SOL     OW56565  10.977   5.438   0.572
52180SOL    HW156566  10.936   5.415   0.484
52180SOL    HW256567  10.959   5.364   0.637
52181SOL     OW56568   9.908   4.453   0.270
52181SOL    HW156569   9.932   4.522   0.202
52181SOL    HW256570   9.830   4.486   0.324
52182SOL     OW56571  10.591   4.069   0.944
52182SOL    HW156572  10.505   4.019   0.931
52182SOL    HW256573  10.653   4.015   1.000
52183SOL     OW56574  10.886   5.386   0.307
52183SOL    HW156575  10.975   5.432   0.310
52183SOL    HW256576  10.865   5.362   0.212
52184SOL     OW56577  10.117   4.329   1.465
52184SOL    HW156578  10.070   4.326   1.554
52184SOL    HW256579  10.066   4.274   1.399
52185SOL     OW56580  10.704   4.193   1.674
52185SOL    HW156581  10.684   4.236   1.762
52185SOL    HW256582  10.782   4.131   1.683
52186SOL     OW56583  10.283   4.614   1.572
52186SOL    HW156584  10.329   4.530   1.543
52186SOL    HW256585  10.227   4.648   1.497
52187SOL     OW56586  10.301   4.134   1.242
52187SOL    HW156587  10.224   4.168   1.296
52187SOL    HW256588  10.267   4.083   1.163
52188SOL     OW56589  10.351   4.425   0.429
52188SOL    HW156590  10.377   4.421   0.525
52188SOL    HW256591  10.266   4.374   0.415
52189SOL     OW56592   9.386   4.535   0.789
52189SOL    HW156593   9.485   4.523   0.798
52189SOL    HW256594   9.362   4.630   0.810
52190SOL     OW56595   9.440   5.545   1.571
52190SOL    HW156596   9.430   5.530   1.670
52190SOL    HW256597   9.354   5.581   1.535
52191SOL     OW56598  10.175   4.072   0.195
52191SOL    HW156599  10.234   4.135   0.146
52191SOL    HW256600  10.194   3.978   0.166
52192SOL     OW56601  11.029   4.309   1.831
52192SOL    HW156602  11.003   4.398   1.795
52192SOL    HW256603  11.027   4.241   1.758
52193SOL     OW56604  10.672   4.868   0.545
52193SOL    HW156605  10.755   4.839   0.497
52193SOL    HW256606  10.623   4.935   0.489
52194SOL     OW56607   9.860   3.920   0.885
52194SOL    HW156608   9.855   3.915   0.985
52194SOL    HW256609   9.862   4.016   0.856
52195SOL     OW56610  10.318   5.180   0.477
52195SOL    HW156611  10.272   5.252   0.425
52195SOL    HW256612  10.314   5.200   0.575
52196SOL     OW56613   9.661   5.525   0.853
52196SOL    HW156614   9.711   5.439   0.859
52196SOL    HW256615   9.726   5.602   0.850
52197SOL     OW56616  11.105   4.790   0.873
52197SOL    HW156617  11.043   4.775   0.797
52197SOL    HW256618  11.053   4.801   0.958
52198SOL     OW56619  10.537   5.274   1.506
52198SOL    HW156620  10.543   5.197   1.570
52198SOL    HW256621  10.485   5.248   1.426
52199SOL     OW56622   9.631   4.667   0.242
52199SOL    HW156623   9.713   4.706   0.200
52199SOL    HW256624   9.604   4.585   0.193
52200SOL     OW56625  10.768   4.459   0.728
52200SOL    HW156626  10.763   4.394   0.803
52200SOL    HW256627  10.848   4.518   0.741
52201SOL     OW56628   9.771   4.990   1.727
52201SOL    HW156629   9.721   4.991   1.641
52201SOL    HW256630   9.708   4.972   1.803
52202SOL     OW56631  10.421   5.500   0.237
52202SOL    HW156632  10.361   5.438   0.287
52202SOL    HW256633  10.452   5.456   0.152
52203SOL     OW56634   9.512   4.009   1.498
52203SOL    HW156635   9.432   4.069   1.485
52203SOL    HW256636   9.502   3.960   1.584
52204SOL     OW56637  10.942   5.101   0.081
52204SOL    HW156638  10.910   5.195   0.071
52204SOL    HW256639  10.866   5.038   0.069
52205SOL     OW56640   9.774   5.467   0.323
52205SOL    HW156641   9.807   5.506   0.409
52205SOL    HW256642   9.850   5.460   0.258
52206SOL     OW56643  10.710   3.831   0.426
52206SOL    HW156644  10.686   3.794   0.336
52206SOL    HW256645  10.809   3.847   0.430
52207SOL     OW56646   9.559   5.509   1.241
52207SOL    HW156647   9.616   5.444   1.291
52207SOL    HW256648   9.543   5.476   1.148
52208SOL     OW56649  10.250   5.422   0.904
52208SOL    HW156650  10.330   5.365   0.925
52208SOL    HW256651  10.201   5.382   0.827
52209SOL     OW56652   9.692   4.424   0.480
52209SOL    HW156653   9.737   4.334   0.477
52209SOL    HW256654   9.598   4.413   0.513
52210SOL     OW56655  10.857   3.946   1.729
52210SOL    HW156656  10.852   3.983   1.821
52210SOL    HW256657  10.785   3.877   1.717
52211SOL     OW56658   9.924   3.846   0.117
52211SOL    HW156659  10.022   3.824   0.124
52211SOL    HW256660   9.893   3.829   0.024
52212SOL     OW56661  10.091   3.988   1.749
52212SOL    HW156662  10.158   3.927   1.792
52212SOL    HW256663  10.018   4.007   1.814
52213SOL     OW56664  10.198   5.238   1.195
52213SOL    HW156665  10.175   5.213   1.101
52213SOL    HW256666  10.259   5.169   1.234
52214SOL     OW56667  10.661   4.314   1.433
52214SOL    HW156668  10.689   4.271   1.518
52214SOL    HW256669  10.686   4.410   1.434
52215SOL     OW56670  10.113   5.126   0.924
52215SOL    HW156671  10.203   5.140   0.882
52215SOL    HW256672  10.042   5.128   0.853
52216SOL     OW56673  10.232   4.227   0.899
52216SOL    HW156674  10.207   4.218   0.803
52216SOL    HW256675  10.280   4.145   0.930
52217SOL     OW56676   9.849   3.788   0.512
52217SOL    HW156677   9.768   3.789   0.570
52217SOL    HW256678   9.852   3.871   0.457
52218SOL     OW56679  10.744   4.912   0.041
52218SOL    HW156680  10.776   4.836   0.098
52218SOL    HW256681  10.652   4.939   0.071
52219SOL     OW56682   9.607   3.759   0.171
52219SOL    HW156683   9.656   3.843   0.150
52219SOL    HW256684   9.669   3.694   0.216
52220SOL     OW56685  10.245   3.960   0.480
52220SOL    HW156686  10.197   4.001   0.402
52220SOL    HW256687  10.344   3.958   0.461
52221SOL     OW56688  10.386   4.407   1.464
52221SOL    HW156689  10.306   4.346   1.467
52221SOL    HW256690  10.467   4.354   1.440
52222SOL     OW56691  10.537   5.294   0.793
52222SOL    HW156692  10.558   5.368   0.728
52222SOL    HW256693  10.605   5.294   0.866
52223SOL     OW56694   9.769   4.876   0.741
52223SOL    HW156695   9.698   4.849   0.806
52223SOL    HW256696   9.743   4.848   0.648
52224SOL     OW56697  10.581   5.521   0.591
52224SOL    HW156698  10.625   5.585   0.527
52224SOL    HW256699  10.531   5.573   0.661
52225SOL     OW56700  10.342   4.273   0.016
52225SOL    HW156701  10.301   4.355  -0.023
52225SOL    HW256702  10.406   4.299   0.089
52226SOL     OW56703   9.388   4.280   1.386
52226SOL    HW156704   9.480   4.279   1.345
52226SOL    HW256705   9.382   4.354   1.453
52227SOL     OW56706   9.871   3.946   1.147
52227SOL    HW156707   9.909   3.862   1.184
52227SOL    HW256708   9.783   3.965   1.191
52228SOL     OW56709  10.176   4.178   0.642
52228SOL    HW156710  10.144   4.250   0.580
52228SOL    HW256711  10.200   4.097   0.589
52229SOL     OW56712  10.327   3.763   0.753
52229SOL    HW156713  10.255   3.768   0.684
52229SOL    HW256714  10.303   3.694   0.822
52230SOL     OW56715  10.739   4.897   0.867
52230SOL    HW156716  10.684   4.813   0.860
52230SOL    HW256717  10.765   4.926   0.775
52231SOL     OW56718  10.776   4.314   0.992
52231SOL    HW156719  10.746   4.219   0.999
52231SOL    HW256720  10.849   4.330   1.058
52232SOL     OW56721  11.167   4.557   0.377
52232SOL    HW156722  11.209   4.493   0.441
52232SOL    HW256723  11.129   4.506   0.299
52233SOL     OW56724   9.798   5.109   0.174
52233SOL    HW156725   9.711   5.094   0.221
52233SOL    HW256726   9.781   5.135   0.079
52234SOL     OW56727  10.974   5.004   0.657
52234SOL    HW156728  11.073   5.012   0.671
52234SOL    HW256729  10.929   5.088   0.688
52235SOL     OW56730  10.700   4.299   0.078
52235SOL    HW156731  10.646   4.278   0.159
52235SOL    HW256732  10.791   4.258   0.087
52236SOL     OW56733   9.837   3.980   0.328
52236SOL    HW156734   9.864   3.921   0.253
52236SOL    HW256735   9.837   4.075   0.297
52237SOL     OW56736  11.064   4.947   1.588
52237SOL    HW156737  11.155   4.908   1.575
52237SOL    HW256738  11.072   5.043   1.612
52238SOL     OW56739  10.374   5.071   1.340
52238SOL    HW156740  10.294   5.048   1.395
52238SOL    HW256741  10.457   5.045   1.389
52239SOL     OW56742  10.902   5.353   1.625
52239SOL    HW156743  10.929   5.387   1.535
52239SOL    HW256744  10.981   5.315   1.671
52240SOL     OW56745  10.421   4.919   1.100
52240SOL    HW156746  10.381   4.963   1.181
52240SOL    HW256747  10.380   4.956   1.017
52241SOL     OW56748  10.948   4.823   1.079
52241SOL    HW156749  10.953   4.904   1.138
52241SOL    HW256750  10.862   4.825   1.028
52242SOL     OW56751  10.225   3.813   1.402
52242SOL    HW156752  10.250   3.793   1.307
52242SOL    HW256753  10.297   3.869   1.444
52243SOL     OW56754  10.290   4.840   1.719
52243SOL    HW156755  10.191   4.846   1.729
52243SOL    HW256756  10.313   4.760   1.663
52244SOL     OW56757  10.015   4.774   0.368
52244SOL    HW156758  10.001   4.781   0.467
52244SOL    HW256759  10.099   4.723   0.350
52245SOL     OW56760   9.720   4.537   1.251
52245SOL    HW156761   9.806   4.549   1.301
52245SOL    HW256762   9.678   4.450   1.278
52246SOL     OW56763  10.584   4.110   1.262
52246SOL    HW156764  10.605   4.184   1.326
52246SOL    HW256765  10.495   4.127   1.219
52247SOL     OW56766   9.374   5.288   1.331
52247SOL    HW156767   9.328   5.370   1.297
52247SOL    HW256768   9.472   5.307   1.340
52248SOL     OW56769   9.677   4.824   0.501
52248SOL    HW156770   9.670   4.907   0.445
52248SOL    HW256771   9.681   4.744   0.441
52249SOL     OW56772   9.876   4.261   0.865
52249SOL    HW156773   9.888   4.327   0.791
52249SOL    HW256774   9.922   4.295   0.948
52250SOL     OW56775  10.562   5.072   0.388
52250SOL    HW156776  10.612   5.149   0.428
52250SOL    HW256777  10.467   5.074   0.420
52251SOL     OW56778  10.582   5.169   1.142
52251SOL    HW156779  10.629   5.182   1.229
52251SOL    HW256780  10.516   5.095   1.151
52252SOL     OW56781  10.892   4.363   0.472
52252SOL    HW156782  10.861   4.424   0.545
52252SOL    HW256783  10.942   4.415   0.403
52253SOL     OW56784   9.664   5.234   1.329
52253SOL    HW156785   9.643   5.190   1.242
52253SOL    HW256786   9.761   5.260   1.332
52254SOL     OW56787   9.712   4.475   1.598
52254SOL    HW156788   9.780   4.530   1.551
52254SOL    HW256789   9.752   4.387   1.625
52255SOL     OW56790  10.897   4.503   1.670
52255SOL    HW156791  10.805   4.541   1.665
52255SOL    HW256792  10.957   4.550   1.605
52256SOL     OW56793  10.323   3.829   1.770
52256SOL    HW156794  10.329   3.914   1.718
52256SOL    HW256795  10.355   3.753   1.713
52257SOL     OW56796   9.814   3.774   1.740
52257SOL    HW156797   9.772   3.717   1.670
52257SOL    HW256798   9.748   3.843   1.772
52258SOL     OW56799   9.883   4.594   1.029
52258SOL    HW156800   9.927   4.683   1.020
52258SOL    HW256801   9.820   4.594   1.106
52259SOL     OW56802  10.670   4.586   1.045
52259SOL    HW156803  10.595   4.586   0.979
52259SOL    HW256804  10.707   4.494   1.054
52260SOL     OW56805  10.519   4.249   0.275
52260SOL    HW156806  10.532   4.165   0.329
52260SOL    HW256807  10.490   4.323   0.335
52261SOL     OW56808   9.617   3.937   1.231
52261SOL    HW156809   9.594   3.974   1.321
52261SOL    HW256810   9.587   3.842   1.225
52262SOL     OW56811   9.347   5.034   1.282
52262SOL    HW156812   9.400   4.985   1.350
52262SOL    HW256813   9.369   5.132   1.287
52263SOL     OW56814  10.042   4.358   1.064
52263SOL    HW156815  10.101   4.332   0.988
52263SOL    HW256816  10.014   4.454   1.053
52264SOL     OW56817  11.038   4.659   1.854
52264SOL    HW156818  10.992   4.652   1.765
52264SOL    HW256819  10.976   4.703   1.920
52265SOL     OW56820   9.617   3.787   0.618
52265SOL    HW156821   9.606   3.881   0.651
52265SOL    HW256822   9.612   3.724   0.695
52266SOL     OW56823  10.932   4.091   0.374
52266SOL    HW156824  10.934   4.015   0.438
52266SOL    HW256825  10.884   4.168   0.414
52267SOL     OW56826  10.333   4.490   0.966
52267SOL    HW156827  10.348   4.511   1.062
52267SOL    HW256828  10.303   4.395   0.957
52268SOL     OW56829  10.290   5.297   1.700
52268SOL    HW156830  10.270   5.341   1.612
52268SOL    HW256831  10.329   5.206   1.684
52269SOL     OW56832  11.169   5.242   1.605
52269SOL    HW156833  11.183   5.269   1.510
52269SOL    HW256834  11.252   5.264   1.658
52270SOL     OW56835   9.660   4.622   1.804
52270SOL    HW156836   9.736   4.666   1.852
52270SOL    HW256837   9.695   4.575   1.722
52271SOL     OW56838  10.850   3.998   0.125
52271SOL    HW156839  10.789   3.923   0.148
52271SOL    HW256840  10.872   4.050   0.208
52272SOL     OW56841  10.613   4.562   0.042
52272SOL    HW156842  10.647   4.469   0.057
52272SOL    HW256843  10.631   4.589  -0.053
52273SOL     OW56844  10.378   5.057   0.849
52273SOL    HW156845  10.385   4.973   0.794
52273SOL    HW256846  10.440   5.126   0.813
52274SOL     OW56847   9.629   4.534   0.949
52274SOL    HW156848   9.722   4.570   0.954
52274SOL    HW256849   9.623   4.449   1.001
52275SOL     OW56850   9.649   4.233   1.006
52275SOL    HW156851   9.597   4.150   0.989
52275SOL    HW256852   9.726   4.238   0.942
52276SOL     OW56853  10.448   4.104   1.678
52276SOL    HW156854  10.403   4.167   1.742
52276SOL    HW256855  10.541   4.135   1.661
52277SOL     OW56856  10.470   3.931   1.477
52277SOL    HW156857  10.470   3.995   1.554
52277SOL    HW256858  10.498   3.979   1.394
52278SOL     OW56859   9.318   5.050   0.200
52278SOL    HW156860   9.225   5.071   0.169
52278SOL    HW256861   9.328   4.951   0.213
52279SOL     OW56862   9.398   5.525   0.927
52279SOL    HW156863   9.356   5.439   0.900
52279SOL    HW256864   9.492   5.528   0.893
52280SOL     OW56865   9.814   5.292   0.910
52280SOL    HW156866   9.880   5.366   0.919
52280SOL    HW256867   9.858   5.213   0.868
52281SOL     OW56868  10.312   4.520   1.238
52281SOL    HW156869  10.353   4.488   1.324
52281SOL    HW256870  10.216   4.493   1.235
52282SOL     OW56871   9.350   4.268   1.114
52282SOL    HW156872   9.435   4.235   1.073
52282SOL    HW256873   9.363   4.283   1.212
52283SOL     OW56874   9.499   4.244   1.722
52283SOL    HW156875   9.558   4.204   1.652
52283SOL    HW256876   9.441   4.315   1.681
52284SOL     OW56877  10.679   4.674   1.660
52284SOL    HW156878  10.718   4.763   1.680
52284SOL    HW256879  10.689   4.654   1.563
52285SOL     OW56880  10.125   4.296   0.325
52285SOL    HW156881  10.132   4.207   0.279
52285SOL    HW256882  10.031   4.330   0.317
52286SOL     OW56883  10.967   4.328   1.206
52286SOL    HW156884  10.929   4.259   1.268
52286SOL    HW256885  11.049   4.292   1.162
52287SOL     OW56886   9.562   5.288   1.744
52287SOL    HW156887   9.532   5.345   1.820
52287SOL    HW256888   9.555   5.191   1.770
52288SOL     OW56889   9.981   4.188   1.269
52288SOL    HW156890   9.947   4.099   1.239
52288SOL    HW256891  10.007   4.242   1.189
52289SOL     OW56892  10.240   5.402   1.465
52289SOL    HW156893  10.216   5.384   1.370
52289SOL    HW256894  10.270   5.496   1.475
52290SOL     OW56895   9.783   4.224   0.191
52290SOL    HW156896   9.844   4.304   0.195
52290SOL    HW256897   9.688   4.255   0.198
52291SOL     OW56898   9.469   4.861   1.466
52291SOL    HW156899   9.491   4.800   1.542
52291SOL    HW256900   9.479   4.812   1.380
52292SOL     OW56901  10.657   4.783   1.234
52292SOL    HW156902  10.681   4.720   1.160
52292SOL    HW256903  10.567   4.823   1.216
52293SOL     OW56904  10.612   4.579   0.309
52293SOL    HW156905  10.526   4.548   0.351
52293SOL    HW256906  10.608   4.565   0.210
52294SOL     OW56907  11.069   5.471   1.154
52294SOL    HW156908  11.130   5.501   1.081
52294SOL    HW256909  11.031   5.382   1.132
52295SOL     OW56910  10.562   5.455   1.128
52295SOL    HW156911  10.646   5.460   1.074
52295SOL    HW256912  10.539   5.359   1.146
52296SOL     OW56913   9.393   4.982   1.022
52296SOL    HW156914   9.388   4.981   1.122
52296SOL    HW256915   9.310   4.941   0.984
52297SOL     OW56916   9.998   5.386   1.716
52297SOL    HW156917   9.942   5.467   1.725
52297SOL    HW256918  10.050   5.390   1.630
52298SOL     OW56919  10.213   3.810   0.133
52298SOL    HW156920  10.264   3.811   0.047
52298SOL    HW256921  10.269   3.768   0.204
52299SOL     OW56922  11.036   3.859   0.523
52299SOL    HW156923  11.109   3.842   0.456
52299SOL    HW256924  11.005   3.772   0.561
52300SOL     OW56925  10.698   5.297   0.477
52300SOL    HW156926  10.765   5.309   0.403
52300SOL    HW256927  10.658   5.386   0.500
52301SOL     OW56928   9.440   5.518   1.851
52301SOL    HW156929   9.399   5.444   1.904
52301SOL    HW256930   9.504   5.569   1.909
52302SOL     OW56931  10.590   4.651   0.672
52302SOL    HW156932  10.650   4.570   0.674
52302SOL    HW256933  10.630   4.720   0.612
52303SOL     OW56934  10.140   4.997   1.422
52303SOL    HW156935  10.135   5.030   1.517
52303SOL    HW256936  10.054   5.016   1.376
52304SOL     OW56937   9.982   5.340   0.154
52304SOL    HW156938   9.991   5.350   0.055
52304SOL    HW256939   9.942   5.251   0.175
52305SOL     OW56940  10.960   5.444   1.394
52305SOL    HW156941  11.013   5.454   1.310
52305SOL    HW256942  10.933   5.534   1.428
52306SOL     OW56943  11.151   3.899   0.963
52306SOL    HW156944  11.190   3.814   0.927
52306SOL    HW256945  11.053   3.901   0.944
52307SOL     OW56946   9.573   4.050   0.720
52307SOL    HW156947   9.494   4.101   0.686
52307SOL    HW256948   9.564   4.035   0.818
52308SOL     OW56949  10.504   5.336   0.031
52308SOL    HW156950  10.510   5.243   0.068
52308SOL    HW256951  10.445   5.336  -0.049
52309SOL     OW56952  10.132   4.726   1.372
52309SOL    HW156953  10.172   4.725   1.280
52309SOL    HW256954  10.142   4.818   1.412
52310SOL     OW56955  10.226   4.634   0.291
52310SOL    HW156956  10.289   4.672   0.223
52310SOL    HW256957  10.266   4.551   0.330
52311SOL     OW56958  10.814   5.331   0.044
52311SOL    HW156959  10.722   5.368   0.051
52311SOL    HW256960  10.852   5.351  -0.046
52312SOL     OW56961   9.682   5.012   1.490
52312SOL    HW156962   9.669   5.105   1.456
52312SOL    HW256963   9.598   4.960   1.477
52313SOL     OW56964  10.924   5.016   1.289
52313SOL    HW156965  10.984   5.019   1.369
52313SOL    HW256966  10.849   5.080   1.302
52314SOL     OW56967  10.349   4.822   0.696
52314SOL    HW156968  10.279   4.775   0.750
52314SOL    HW256969  10.408   4.754   0.653
52315SOL     OW56970  10.324   3.960   0.971
52315SOL    HW156971  10.316   3.924   0.878
52315SOL    HW256972  10.322   3.884   1.036
52316SOL     OW56973   9.900   5.211   0.491
52316SOL    HW156974   9.942   5.153   0.421
52316SOL    HW256975   9.856   5.290   0.447
52317SOL     OW56976  11.019   4.109   1.381
52317SOL    HW156977  11.092   4.178   1.385
52317SOL    HW256978  11.047   4.034   1.322
52318SOL     OW56979   9.565   5.072   0.290
52318SOL    HW156980   9.469   5.073   0.263
52318SOL    HW256981   9.577   5.125   0.374
52319SOL     OW56982   9.415   4.737   1.726
52319SOL    HW156983   9.338   4.704   1.780
52319SOL    HW256984   9.500   4.707   1.768
52320SOL     OW56985   9.982   3.927   1.489
52320SOL    HW156986  10.072   3.911   1.449
52320SOL    HW256987   9.990   3.932   1.588
52321SOL     OW56988  10.750   4.580   1.398
52321SOL    HW156989  10.693   4.632   1.335
52321SOL    HW256990  10.846   4.592   1.374
52322SOL     OW56991   9.382   3.890   0.318
52322SOL    HW156992   9.365   3.973   0.264
52322SOL    HW256993   9.472   3.853   0.296
52323SOL     OW56994  10.493   5.059   0.119
52323SOL    HW156995  10.394   5.048   0.121
52323SOL    HW256996  10.527   5.074   0.212
52324SOL     OW56997   9.923   4.566   1.431
52324SOL    HW156998   9.979   4.647   1.414
52324SOL    HW256999   9.982   4.486   1.434
52325SOL     OW57000  10.803   5.491   0.959
52325SOL    HW157001  10.836   5.555   0.890
52325SOL    HW257002  10.869   5.485   1.034
52326SOL     OW57003  10.026   4.289   1.708
52326SOL    HW157004  10.045   4.354   1.782
52326SOL    HW257005  10.086   4.209   1.717
52327SOL     OW57006  10.760   4.944   1.633
52327SOL    HW157007  10.751   4.934   1.732
52327SOL    HW257008  10.856   4.937   1.607
52328SOL     OW57009   9.700   5.465   1.560
52328SOL    HW157010   9.609   5.506   1.558
52328SOL    HW257011   9.693   5.371   1.592
52329SOL     OW57012  10.984   4.607   1.254
52329SOL    HW157013  10.957   4.518   1.217
52329SOL    HW257014  10.985   4.675   1.181
52330SOL     OW57015  10.535   4.049   0.449
52330SOL    HW157016  10.600   3.975   0.438
52330SOL    HW257017  10.555   4.099   0.533
52331SOL     OW57018   9.904   4.469   0.652
52331SOL    HW157019   9.954   4.554   0.633
52331SOL    HW257020   9.816   4.471   0.604
52332SOL     OW57021  11.087   4.066   1.642
52332SOL    HW157022  11.070   4.097   1.548
52332SOL    HW257023  11.003   4.029   1.680
52333SOL     OW57024  11.040   4.658   1.517
52333SOL    HW157025  11.078   4.749   1.532
52333SOL    HW257026  11.032   4.641   1.418
52334SOL     OW57027  10.169   5.098   0.016
52334SOL    HW157028  10.123   5.113   0.104
52334SOL    HW257029  10.213   5.183  -0.014
52335SOL     OW57030   9.971   5.514   0.953
52335SOL    HW157031   9.925   5.602   0.940
52335SOL    HW257032  10.070   5.526   0.946
52336SOL     OW57033  10.169   4.680   0.861
52336SOL    HW157034  10.223   4.611   0.909
52336SOL    HW257035  10.137   4.749   0.927
52337SOL     OW57036  10.393   4.708   0.087
52337SOL    HW157037  10.370   4.761   0.005
52337SOL    HW257038  10.474   4.652   0.068
52338SOL     OW57039  11.171   5.293   0.851
52338SOL    HW157040  11.100   5.281   0.781
52338SOL    HW257041  11.172   5.214   0.911
52339SOL     OW57042   9.531   5.038   1.844
52339SOL    HW157043   9.466   4.965   1.823
52339SOL    HW257044   9.535   5.052   1.942
52340SOL     OW57045   9.389   4.964   0.653
52340SOL    HW157046   9.388   4.917   0.741
52340SOL    HW257047   9.471   4.936   0.602
52341SOL     OW57048   9.982   5.115   1.624
52341SOL    HW157049   9.904   5.065   1.662
52341SOL    HW257050   9.979   5.210   1.655
52342SOL     OW57051  11.134   3.916   1.227
52342SOL    HW157052  11.130   3.826   1.271
52342SOL    HW257053  11.137   3.905   1.128
52343SOL     OW57054   9.738   4.148   0.520
52343SOL    HW157055   9.768   4.076   0.458
52343SOL    HW257056   9.699   4.108   0.603
52344SOL     OW57057  11.015   5.211   1.104
52344SOL    HW157058  10.922   5.186   1.077
52344SOL    HW257059  11.041   5.161   1.186
52345SOL     OW57060   9.627   4.271   1.280
52345SOL    HW157061   9.665   4.212   1.352
52345SOL    HW257062   9.667   4.245   1.192
52346SOL     OW57063  10.122   5.310   0.687
52346SOL    HW157064  10.154   5.320   0.593
52346SOL    HW257065  10.043   5.248   0.689
52347SOL     OW57066  10.734   3.938   1.112
52347SOL    HW157067  10.786   3.873   1.167
52347SOL    HW257068  10.685   4.001   1.173
52348SOL     OW57069  10.311   3.758   1.154
52348SOL    HW157070  10.248   3.686   1.123
52348SOL    HW257071  10.404   3.722   1.154
52349SOL     OW57072  10.080   5.054   0.301
52349SOL    HW157073  10.034   4.967   0.318
52349SOL    HW257074  10.171   5.051   0.342
52350SOL     OW57075   9.928   5.291   1.284
52350SOL    HW157076   9.923   5.373   1.341
52350SOL    HW257077  10.017   5.288   1.239
52351SOL     OW57078  10.662   3.776   0.168
52351SOL    HW157079  10.697   3.735   0.084
52351SOL    HW257080  10.572   3.738   0.188
52352SOL     OW57081  10.610   4.177   0.691
52352SOL    HW157082  10.551   4.257   0.695
52352SOL    HW257083  10.625   4.142   0.784
52353SOL     OW57084  10.903   3.945   0.882
52353SOL    HW157085  10.819   3.944   0.936
52353SOL    HW257086  10.905   4.028   0.826
52354SOL     OW57087   9.349   4.801   0.300
52354SOL    HW157088   9.448   4.790   0.291
52354SOL    HW257089   9.309   4.715   0.332
52355SOL     OW57090  10.185   5.370   0.337
52355SOL    HW157091  10.108   5.335   0.283
52355SOL    HW257092  10.153   5.441   0.399
52356SOL     OW57093   9.540   4.352   1.975
52356SOL    HW157094   9.447   4.350   2.012
52356SOL    HW257095   9.541   4.313   1.883
52357SOL     OW57096   9.535   3.999   2.858
52357SOL    HW157097   9.570   3.982   2.950
52357SOL    HW257098   9.447   3.954   2.846
52358SOL     OW57099   9.329   4.092   2.509
52358SOL    HW157100   9.247   4.135   2.548
52358SOL    HW257101   9.301   4.019   2.446
52359SOL     OW57102   9.879   4.999   3.027
52359SOL    HW157103   9.786   4.992   2.990
52359SOL    HW257104   9.890   5.088   3.071
52360SOL     OW57105  10.865   5.235   2.565
52360SOL    HW157106  10.808   5.219   2.646
52360SOL    HW257107  10.806   5.245   2.485
52361SOL     OW57108  10.445   4.427   2.579
52361SOL    HW157109  10.502   4.505   2.554
52361SOL    HW257110  10.385   4.453   2.655
52362SOL     OW57111  11.065   4.331   2.093
52362SOL    HW157112  11.053   4.318   1.994
52362SOL    HW257113  11.035   4.250   2.142
52363SOL     OW57114  10.078   4.868   2.885
52363SOL    HW157115  10.000   4.885   2.945
52363SOL    HW257116  10.112   4.955   2.849
52364SOL     OW57117  10.160   4.522   3.685
52364SOL    HW157118  10.156   4.598   3.750
52364SOL    HW257119  10.182   4.558   3.594
52365SOL     OW57120   9.995   4.736   2.527
52365SOL    HW157121  10.064   4.720   2.597
52365SOL    HW257122   9.922   4.793   2.565
52366SOL     OW57123   9.996   4.885   3.665
52366SOL    HW157124  10.056   4.964   3.679
52366SOL    HW257125   9.910   4.916   3.624
52367SOL     OW57126   9.645   5.159   2.923
52367SOL    HW157127   9.567   5.128   2.870
52367SOL    HW257128   9.703   5.217   2.866
52368SOL     OW57129  10.770   5.229   3.201
52368SOL    HW157130  10.794   5.323   3.227
52368SOL    HW257131  10.754   5.175   3.283
52369SOL     OW57132   9.748   4.116   3.361
52369SOL    HW157133   9.830   4.060   3.370
52369SOL    HW257134   9.667   4.058   3.365
52370SOL     OW57135  10.913   4.171   2.599
52370SOL    HW157136  10.839   4.217   2.549
52370SOL    HW257137  10.964   4.239   2.652
52371SOL     OW57138   9.541   5.437   2.345
52371SOL    HW157139   9.575   5.514   2.399
52371SOL    HW257140   9.585   5.437   2.255
52372SOL     OW57141  10.437   5.065   3.552
52372SOL    HW157142  10.484   5.065   3.640
52372SOL    HW257143  10.389   4.978   3.541
52373SOL     OW57144   9.540   5.158   2.400
52373SOL    HW157145   9.514   5.254   2.400
52373SOL    HW257146   9.469   5.104   2.445
52374SOL     OW57147   9.550   4.815   2.748
52374SOL    HW157148   9.564   4.731   2.800
52374SOL    HW257149   9.495   4.879   2.803
52375SOL     OW57150   9.930   5.510   3.301
52375SOL    HW157151   9.838   5.493   3.336
52375SOL    HW257152   9.958   5.602   3.327
52376SOL     OW57153   9.916   4.688   1.985
52376SOL    HW157154   9.923   4.772   1.931
52376SOL    HW257155   9.962   4.701   2.073
52377SOL     OW57156  10.904   3.838   3.342
52377SOL    HW157157  10.886   3.905   3.270
52377SOL    HW257158  10.901   3.884   3.431
52378SOL     OW57159   9.432   4.367   2.425
52378SOL    HW157160   9.387   4.279   2.442
52378SOL    HW257161   9.431   4.421   2.509
52379SOL     OW57162  11.152   5.491   2.221
52379SOL    HW157163  11.206   5.462   2.301
52379SOL    HW257164  11.182   5.581   2.192
52380SOL     OW57165   9.337   5.320   1.979
52380SOL    HW157166   9.318   5.224   2.000
52380SOL    HW257167   9.304   5.378   2.054
52381SOL     OW57168  10.999   4.646   2.474
52381SOL    HW157169  11.094   4.617   2.482
52381SOL    HW257170  10.991   4.711   2.399
52382SOL     OW57171  10.951   4.832   2.294
52382SOL    HW157172  11.037   4.834   2.242
52382SOL    HW257173  10.965   4.879   2.382
52383SOL     OW57174   9.423   4.461   3.459
52383SOL    HW157175   9.511   4.448   3.504
52383SOL    HW257176   9.410   4.558   3.437
52384SOL     OW57177   9.923   5.089   2.588
52384SOL    HW157178   9.874   5.002   2.597
52384SOL    HW257179   9.900   5.132   2.501
52385SOL     OW57180  10.603   4.952   3.285
52385SOL    HW157181  10.640   4.879   3.227
52385SOL    HW257182  10.655   4.957   3.370
52386SOL     OW57183  10.119   3.728   2.364
52386SOL    HW157184  10.159   3.819   2.355
52386SOL    HW257185  10.019   3.736   2.370
52387SOL     OW57186   9.507   4.700   3.126
52387SOL    HW157187   9.596   4.655   3.112
52387SOL    HW257188   9.434   4.635   3.107
52388SOL     OW57189  10.835   4.723   2.052
52388SOL    HW157190  10.772   4.647   2.065
52388SOL    HW257191  10.883   4.741   2.138
52389SOL     OW57192  10.497   5.516   3.478
52389SOL    HW157193  10.521   5.576   3.402
52389SOL    HW257194  10.504   5.421   3.448
52390SOL     OW57195   9.627   3.975   3.663
52390SOL    HW157196   9.698   4.046   3.669
52390SOL    HW257197   9.539   4.014   3.691
52391SOL     OW57198  10.776   5.141   2.815
52391SOL    HW157199  10.717   5.147   2.895
52391SOL    HW257200  10.761   5.053   2.769
52392SOL     OW57201  10.977   5.438   2.434
52392SOL    HW157202  10.936   5.415   2.346
52392SOL    HW257203  10.959   5.364   2.499
52393SOL     OW57204   9.908   4.453   2.132
52393SOL    HW157205   9.932   4.522   2.064
52393SOL    HW257206   9.830   4.486   2.186
52394SOL     OW57207  10.591   4.069   2.806
52394SOL    HW157208  10.505   4.019   2.793
52394SOL    HW257209  10.653   4.015   2.862
52395SOL     OW57210  10.886   5.386   2.169
52395SOL    HW157211  10.975   5.432   2.172
52395SOL    HW257212  10.865   5.362   2.074
52396SOL     OW57213  10.117   4.329   3.327
52396SOL    HW157214  10.070   4.326   3.416
52396SOL    HW257215  10.066   4.274   3.261
52397SOL     OW57216  10.704   4.193   3.536
52397SOL    HW157217  10.684   4.236   3.624
52397SOL    HW257218  10.782   4.131   3.545
52398SOL     OW57219  10.283   4.614   3.434
52398SOL    HW157220  10.329   4.530   3.405
52398SOL    HW257221  10.227   4.648   3.359
52399SOL     OW57222  10.301   4.134   3.104
52399SOL    HW157223  10.224   4.168   3.158
52399SOL    HW257224  10.267   4.083   3.025
52400SOL     OW57225  10.351   4.425   2.291
52400SOL    HW157226  10.377   4.421   2.387
52400SOL    HW257227  10.266   4.374   2.277
52401SOL     OW57228   9.386   4.535   2.651
52401SOL    HW157229   9.485   4.523   2.660
52401SOL    HW257230   9.362   4.630   2.672
52402SOL     OW57231   9.440   5.545   3.433
52402SOL    HW157232   9.430   5.530   3.532
52402SOL    HW257233   9.354   5.581   3.397
52403SOL     OW57234  10.175   4.072   2.057
52403SOL    HW157235  10.234   4.135   2.008
52403SOL    HW257236  10.194   3.978   2.028
52404SOL     OW57237  11.029   4.309   3.693
52404SOL    HW157238  11.003   4.398   3.657
52404SOL    HW257239  11.027   4.241   3.620
52405SOL     OW57240  10.672   4.868   2.407
52405SOL    HW157241  10.755   4.839   2.359
52405SOL    HW257242  10.623   4.935   2.351
52406SOL     OW57243   9.860   3.920   2.747
52406SOL    HW157244   9.855   3.915   2.847
52406SOL    HW257245   9.862   4.016   2.718
52407SOL     OW57246  10.318   5.180   2.339
52407SOL    HW157247  10.272   5.252   2.287
52407SOL    HW257248  10.314   5.200   2.437
52408SOL     OW57249   9.661   5.525   2.715
52408SOL    HW157250   9.711   5.439   2.721
52408SOL    HW257251   9.726   5.602   2.712
52409SOL     OW57252  11.105   4.790   2.735
52409SOL    HW157253  11.043   4.775   2.659
52409SOL    HW257254  11.053   4.801   2.820
52410SOL     OW57255  10.537   5.274   3.368
52410SOL    HW157256  10.543   5.197   3.432
52410SOL    HW257257  10.485   5.248   3.288
52411SOL     OW57258   9.631   4.667   2.104
52411SOL    HW157259   9.713   4.706   2.062
52411SOL    HW257260   9.604   4.585   2.055
52412SOL     OW57261  10.768   4.459   2.590
52412SOL    HW157262  10.763   4.394   2.665
52412SOL    HW257263  10.848   4.518   2.603
52413SOL     OW57264   9.771   4.990   3.589
52413SOL    HW157265   9.721   4.991   3.503
52413SOL    HW257266   9.708   4.972   3.665
52414SOL     OW57267  10.421   5.500   2.099
52414SOL    HW157268  10.361   5.438   2.149
52414SOL    HW257269  10.452   5.456   2.014
52415SOL     OW57270   9.512   4.009   3.360
52415SOL    HW157271   9.432   4.069   3.347
52415SOL    HW257272   9.502   3.960   3.446
52416SOL     OW57273  10.942   5.101   1.943
52416SOL    HW157274  10.910   5.195   1.933
52416SOL    HW257275  10.866   5.038   1.931
52417SOL     OW57276   9.774   5.467   2.185
52417SOL    HW157277   9.807   5.506   2.271
52417SOL    HW257278   9.850   5.460   2.120
52418SOL     OW57279  10.710   3.831   2.288
52418SOL    HW157280  10.686   3.794   2.198
52418SOL    HW257281  10.809   3.847   2.292
52419SOL     OW57282   9.559   5.509   3.103
52419SOL    HW157283   9.616   5.444   3.153
52419SOL    HW257284   9.543   5.476   3.010
52420SOL     OW57285  10.250   5.422   2.766
52420SOL    HW157286  10.330   5.365   2.787
52420SOL    HW257287  10.201   5.382   2.689
52421SOL     OW57288   9.692   4.424   2.342
52421SOL    HW157289   9.737   4.334   2.339
52421SOL    HW257290   9.598   4.413   2.375
52422SOL     OW57291  10.857   3.946   3.591
52422SOL    HW157292  10.852   3.983   3.683
52422SOL    HW257293  10.785   3.877   3.579
52423SOL     OW57294   9.924   3.846   1.979
52423SOL    HW157295  10.022   3.824   1.986
52423SOL    HW257296   9.893   3.829   1.886
52424SOL     OW57297  10.091   3.988   3.611
52424SOL    HW157298  10.158   3.927   3.654
52424SOL    HW257299  10.018   4.007   3.676
52425SOL     OW57300  10.198   5.238   3.057
52425SOL    HW157301  10.175   5.213   2.963
52425SOL    HW257302  10.259   5.169   3.096
52426SOL     OW57303  10.661   4.314   3.295
52426SOL    HW157304  10.689   4.271   3.380
52426SOL    HW257305  10.686   4.410   3.296
52427SOL     OW57306  10.113   5.126   2.786
52427SOL    HW157307  10.203   5.140   2.744
52427SOL    HW257308  10.042   5.128   2.715
52428SOL     OW57309  10.232   4.227   2.761
52428SOL    HW157310  10.207   4.218   2.665
52428SOL    HW257311  10.280   4.145   2.792
52429SOL     OW57312   9.849   3.788   2.374
52429SOL    HW157313   9.768   3.789   2.432
52429SOL    HW257314   9.852   3.871   2.319
52430SOL     OW57315  10.744   4.912   1.903
52430SOL    HW157316  10.776   4.836   1.960
52430SOL    HW257317  10.652   4.939   1.933
52431SOL     OW57318   9.607   3.759   2.033
52431SOL    HW157319   9.656   3.843   2.012
52431SOL    HW257320   9.669   3.694   2.078
52432SOL     OW57321  10.245   3.960   2.342
52432SOL    HW157322  10.197   4.001   2.264
52432SOL    HW257323  10.344   3.958   2.323
52433SOL     OW57324  10.386   4.407   3.326
52433SOL    HW157325  10.306   4.346   3.329
52433SOL    HW257326  10.467   4.354   3.302
52434SOL     OW57327  10.537   5.294   2.655
52434SOL    HW157328  10.558   5.368   2.590
52434SOL    HW257329  10.605   5.294   2.728
52435SOL     OW57330   9.769   4.876   2.603
52435SOL    HW157331   9.698   4.849   2.668
52435SOL    HW257332   9.743   4.848   2.510
52436SOL     OW57333  10.581   5.521   2.453
52436SOL    HW157334  10.625   5.585   2.389
52436SOL    HW257335  10.531   5.573   2.523
52437SOL     OW57336  10.342   4.273   1.878
52437SOL    HW157337  10.301   4.355   1.839
52437SOL    HW257338  10.406   4.299   1.951
52438SOL     OW57339   9.388   4.280   3.248
52438SOL    HW157340   9.480   4.279   3.207
52438SOL    HW257341   9.382   4.354   3.315
52439SOL     OW57342   9.871   3.946   3.009
52439SOL    HW157343   9.909   3.862   3.046
52439SOL    HW257344   9.783   3.965   3.053
52440SOL     OW57345  10.176   4.178   2.504
52440SOL    HW157346  10.144   4.250   2.442
52440SOL    HW257347  10.200   4.097   2.451
52441SOL     OW57348  10.327   3.763   2.615
52441SOL    HW157349  10.255   3.768   2.546
52441SOL    HW257350  10.303   3.694   2.684
52442SOL     OW57351  10.739   4.897   2.729
52442SOL    HW157352  10.684   4.813   2.722
52442SOL    HW257353  10.765   4.926   2.637
52443SOL     OW57354  10.776   4.314   2.854
52443SOL    HW157355  10.746   4.219   2.861
52443SOL    HW257356  10.849   4.330   2.920
52444SOL     OW57357  11.167   4.557   2.239
52444SOL    HW157358  11.209   4.493   2.303
52444SOL    HW257359  11.129   4.506   2.161
52445SOL     OW57360   9.798   5.109   2.036
52445SOL    HW157361   9.711   5.094   2.083
52445SOL    HW257362   9.781   5.135   1.941
52446SOL     OW57363  10.974   5.004   2.519
52446SOL    HW157364  11.073   5.012   2.533
52446SOL    HW257365  10.929   5.088   2.550
52447SOL     OW57366  10.700   4.299   1.940
52447SOL    HW157367  10.646   4.278   2.021
52447SOL    HW257368  10.791   4.258   1.949
52448SOL     OW57369   9.837   3.980   2.190
52448SOL    HW157370   9.864   3.921   2.115
52448SOL    HW257371   9.837   4.075   2.159
52449SOL     OW57372  11.064   4.947   3.450
52449SOL    HW157373  11.155   4.908   3.437
52449SOL    HW257374  11.072   5.043   3.474
52450SOL     OW57375  10.374   5.071   3.202
52450SOL    HW157376  10.294   5.048   3.257
52450SOL    HW257377  10.457   5.045   3.251
52451SOL     OW57378  10.902   5.353   3.487
52451SOL    HW157379  10.929   5.387   3.397
52451SOL    HW257380  10.981   5.315   3.533
52452SOL     OW57381  10.421   4.919   2.962
52452SOL    HW157382  10.381   4.963   3.043
52452SOL    HW257383  10.380   4.956   2.879
52453SOL     OW57384  10.948   4.823   2.941
52453SOL    HW157385  10.953   4.904   3.000
52453SOL    HW257386  10.862   4.825   2.890
52454SOL     OW57387  10.225   3.813   3.264
52454SOL    HW157388  10.250   3.793   3.169
52454SOL    HW257389  10.297   3.869   3.306
52455SOL     OW57390  10.290   4.840   3.581
52455SOL    HW157391  10.191   4.846   3.591
52455SOL    HW257392  10.313   4.760   3.525
52456SOL     OW57393  10.015   4.774   2.230
52456SOL    HW157394  10.001   4.781   2.329
52456SOL    HW257395  10.099   4.723   2.212
52457SOL     OW57396   9.720   4.537   3.113
52457SOL    HW157397   9.806   4.549   3.163
52457SOL    HW257398   9.678   4.450   3.140
52458SOL     OW57399  10.584   4.110   3.124
52458SOL    HW157400  10.605   4.184   3.188
52458SOL    HW257401  10.495   4.127   3.081
52459SOL     OW57402   9.374   5.288   3.193
52459SOL    HW157403   9.328   5.370   3.159
52459SOL    HW257404   9.472   5.307   3.202
52460SOL     OW57405   9.677   4.824   2.363
52460SOL    HW157406   9.670   4.907   2.307
52460SOL    HW257407   9.681   4.744   2.303
52461SOL     OW57408   9.876   4.261   2.727
52461SOL    HW157409   9.888   4.327   2.653
52461SOL    HW257410   9.922   4.295   2.810
52462SOL     OW57411  10.562   5.072   2.250
52462SOL    HW157412  10.612   5.149   2.290
52462SOL    HW257413  10.467   5.074   2.282
52463SOL     OW57414  10.582   5.169   3.004
52463SOL    HW157415  10.629   5.182   3.091
52463SOL    HW257416  10.516   5.095   3.013
52464SOL     OW57417  10.892   4.363   2.334
52464SOL    HW157418  10.861   4.424   2.407
52464SOL    HW257419  10.942   4.415   2.265
52465SOL     OW57420   9.664   5.234   3.191
52465SOL    HW157421   9.643   5.190   3.104
52465SOL    HW257422   9.761   5.260   3.194
52466SOL     OW57423   9.712   4.475   3.460
52466SOL    HW157424   9.780   4.530   3.413
52466SOL    HW257425   9.752   4.387   3.487
52467SOL     OW57426  10.897   4.503   3.532
52467SOL    HW157427  10.805   4.541   3.527
52467SOL    HW257428  10.957   4.550   3.467
52468SOL     OW57429  10.323   3.829   3.632
52468SOL    HW157430  10.329   3.914   3.580
52468SOL    HW257431  10.355   3.753   3.575
52469SOL     OW57432   9.814   3.774   3.602
52469SOL    HW157433   9.772   3.717   3.532
52469SOL    HW257434   9.748   3.843   3.634
52470SOL     OW57435   9.883   4.594   2.891
52470SOL    HW157436   9.927   4.683   2.882
52470SOL    HW257437   9.820   4.594   2.968
52471SOL     OW57438  10.670   4.586   2.907
52471SOL    HW157439  10.595   4.586   2.841
52471SOL    HW257440  10.707   4.494   2.916
52472SOL     OW57441  10.519   4.249   2.137
52472SOL    HW157442  10.532   4.165   2.191
52472SOL    HW257443  10.490   4.323   2.197
52473SOL     OW57444   9.617   3.937   3.093
52473SOL    HW157445   9.594   3.974   3.183
52473SOL    HW257446   9.587   3.842   3.087
52474SOL     OW57447   9.347   5.034   3.144
52474SOL    HW157448   9.400   4.985   3.212
52474SOL    HW257449   9.369   5.132   3.149
52475SOL     OW57450  10.042   4.358   2.926
52475SOL    HW157451  10.101   4.332   2.850
52475SOL    HW257452  10.014   4.454   2.915
52476SOL     OW57453  11.038   4.659   3.716
52476SOL    HW157454  10.992   4.652   3.627
52476SOL    HW257455  10.976   4.703   3.782
52477SOL     OW57456   9.617   3.787   2.480
52477SOL    HW157457   9.606   3.881   2.513
52477SOL    HW257458   9.612   3.724   2.557
52478SOL     OW57459  10.932   4.091   2.236
52478SOL    HW157460  10.934   4.015   2.300
52478SOL    HW257461  10.884   4.168   2.276
52479SOL     OW57462  10.333   4.490   2.828
52479SOL    HW157463  10.348   4.511   2.924
52479SOL    HW257464  10.303   4.395   2.819
52480SOL     OW57465  10.290   5.297   3.562
52480SOL    HW157466  10.270   5.341   3.474
52480SOL    HW257467  10.329   5.206   3.546
52481SOL     OW57468  11.169   5.242   3.467
52481SOL    HW157469  11.183   5.269   3.372
52481SOL    HW257470  11.252   5.264   3.520
52482SOL     OW57471   9.660   4.622   3.666
52482SOL    HW157472   9.736   4.666   3.714
52482SOL    HW257473   9.695   4.575   3.584
52483SOL     OW57474  10.850   3.998   1.987
52483SOL    HW157475  10.789   3.923   2.010
52483SOL    HW257476  10.872   4.050   2.070
52484SOL     OW57477  10.613   4.562   1.904
52484SOL    HW157478  10.647   4.469   1.919
52484SOL    HW257479  10.631   4.589   1.809
52485SOL     OW57480  10.378   5.057   2.711
52485SOL    HW157481  10.385   4.973   2.656
52485SOL    HW257482  10.440   5.126   2.675
52486SOL     OW57483   9.629   4.534   2.811
52486SOL    HW157484   9.722   4.570   2.816
52486SOL    HW257485   9.623   4.449   2.863
52487SOL     OW57486   9.649   4.233   2.868
52487SOL    HW157487   9.597   4.150   2.851
52487SOL    HW257488   9.726   4.238   2.804
52488SOL     OW57489  10.448   4.104   3.540
52488SOL    HW157490  10.403   4.167   3.604
52488SOL    HW257491  10.541   4.135   3.523
52489SOL     OW57492  10.470   3.931   3.339
52489SOL    HW157493  10.470   3.995   3.416
52489SOL    HW257494  10.498   3.979   3.256
52490SOL     OW57495   9.318   5.050   2.062
52490SOL    HW157496   9.225   5.071   2.031
52490SOL    HW257497   9.328   4.951   2.075
52491SOL     OW57498   9.398   5.525   2.789
52491SOL    HW157499   9.356   5.439   2.762
52491SOL    HW257500   9.492   5.528   2.755
52492SOL     OW57501   9.814   5.292   2.772
52492SOL    HW157502   9.880   5.366   2.781
52492SOL    HW257503   9.858   5.213   2.730
52493SOL     OW57504  10.312   4.520   3.100
52493SOL    HW157505  10.353   4.488   3.186
52493SOL    HW257506  10.216   4.493   3.097
52494SOL     OW57507   9.350   4.268   2.976
52494SOL    HW157508   9.435   4.235   2.935
52494SOL    HW257509   9.363   4.283   3.074
52495SOL     OW57510   9.499   4.244   3.584
52495SOL    HW157511   9.558   4.204   3.514
52495SOL    HW257512   9.441   4.315   3.543
52496SOL     OW57513  10.679   4.674   3.522
52496SOL    HW157514  10.718   4.763   3.542
52496SOL    HW257515  10.689   4.654   3.425
52497SOL     OW57516  10.125   4.296   2.187
52497SOL    HW157517  10.132   4.207   2.141
52497SOL    HW257518  10.031   4.330   2.179
52498SOL     OW57519  10.967   4.328   3.068
52498SOL    HW157520  10.929   4.259   3.130
52498SOL    HW257521  11.049   4.292   3.024
52499SOL     OW57522   9.562   5.288   3.606
52499SOL    HW157523   9.532   5.345   3.682
52499SOL    HW257524   9.555   5.191   3.632
52500SOL     OW57525   9.981   4.188   3.131
52500SOL    HW157526   9.947   4.099   3.101
52500SOL    HW257527  10.007   4.242   3.051
52501SOL     OW57528  10.240   5.402   3.327
52501SOL    HW157529  10.216   5.384   3.232
52501SOL    HW257530  10.270   5.496   3.337
52502SOL     OW57531   9.783   4.224   2.053
52502SOL    HW157532   9.844   4.304   2.057
52502SOL    HW257533   9.688   4.255   2.060
52503SOL     OW57534   9.469   4.861   3.328
52503SOL    HW157535   9.491   4.800   3.404
52503SOL    HW257536   9.479   4.812   3.242
52504SOL     OW57537  10.657   4.783   3.096
52504SOL    HW157538  10.681   4.720   3.022
52504SOL    HW257539  10.567   4.823   3.078
52505SOL     OW57540  10.612   4.579   2.171
52505SOL    HW157541  10.526   4.548   2.213
52505SOL    HW257542  10.608   4.565   2.072
52506SOL     OW57543  11.069   5.471   3.016
52506SOL    HW157544  11.130   5.501   2.943
52506SOL    HW257545  11.031   5.382   2.994
52507SOL     OW57546  10.562   5.455   2.990
52507SOL    HW157547  10.646   5.460   2.936
52507SOL    HW257548  10.539   5.359   3.008
52508SOL     OW57549   9.393   4.982   2.884
52508SOL    HW157550   9.388   4.981   2.984
52508SOL    HW257551   9.310   4.941   2.846
52509SOL     OW57552   9.998   5.386   3.578
52509SOL    HW157553   9.942   5.467   3.587
52509SOL    HW257554  10.050   5.390   3.492
52510SOL     OW57555  11.036   3.859   2.385
52510SOL    HW157556  11.109   3.842   2.318
52510SOL    HW257557  11.005   3.772   2.423
52511SOL     OW57558  10.698   5.297   2.339
52511SOL    HW157559  10.765   5.309   2.265
52511SOL    HW257560  10.658   5.386   2.362
52512SOL     OW57561   9.440   5.518   3.713
52512SOL    HW157562   9.399   5.444   3.766
52512SOL    HW257563   9.504   5.569   3.771
52513SOL     OW57564  10.590   4.651   2.534
52513SOL    HW157565  10.650   4.570   2.536
52513SOL    HW257566  10.630   4.720   2.474
52514SOL     OW57567  10.140   4.997   3.284
52514SOL    HW157568  10.135   5.030   3.379
52514SOL    HW257569  10.054   5.016   3.238
52515SOL     OW57570   9.982   5.340   2.016
52515SOL    HW157571   9.991   5.350   1.917
52515SOL    HW257572   9.942   5.251   2.037
52516SOL     OW57573  10.960   5.444   3.256
52516SOL    HW157574  11.013   5.454   3.172
52516SOL    HW257575  10.933   5.534   3.290
52517SOL     OW57576  11.151   3.899   2.825
52517SOL    HW157577  11.190   3.814   2.789
52517SOL    HW257578  11.053   3.901   2.806
52518SOL     OW57579   9.573   4.050   2.582
52518SOL    HW157580   9.494   4.101   2.548
52518SOL    HW257581   9.564   4.035   2.680
52519SOL     OW57582  10.504   5.336   1.893
52519SOL    HW157583  10.510   5.243   1.930
52519SOL    HW257584  10.445   5.336   1.813
52520SOL     OW57585  10.132   4.726   3.234
52520SOL    HW157586  10.172   4.725   3.142
52520SOL    HW257587  10.142   4.818   3.274
52521SOL     OW57588  10.226   4.634   2.153
52521SOL    HW157589  10.289   4.672   2.085
52521SOL    HW257590  10.266   4.551   2.192
52522SOL     OW57591  10.814   5.331   1.906
52522SOL    HW157592  10.722   5.368   1.913
52522SOL    HW257593  10.852   5.351   1.816
52523SOL     OW57594   9.682   5.012   3.352
52523SOL    HW157595   9.669   5.105   3.318
52523SOL    HW257596   9.598   4.960   3.339
52524SOL     OW57597  10.924   5.016   3.151
52524SOL    HW157598  10.984   5.019   3.231
52524SOL    HW257599  10.849   5.080   3.164
52525SOL     OW57600  10.349   4.822   2.558
52525SOL    HW157601  10.279   4.775   2.612
52525SOL    HW257602  10.408   4.754   2.515
52526SOL     OW57603  10.324   3.960   2.833
52526SOL    HW157604  10.316   3.924   2.740
52526SOL    HW257605  10.322   3.884   2.898
52527SOL     OW57606   9.900   5.211   2.353
52527SOL    HW157607   9.942   5.153   2.283
52527SOL    HW257608   9.856   5.290   2.309
52528SOL     OW57609  11.019   4.109   3.243
52528SOL    HW157610  11.092   4.178   3.247
52528SOL    HW257611  11.047   4.034   3.184
52529SOL     OW57612   9.565   5.072   2.152
52529SOL    HW157613   9.469   5.073   2.125
52529SOL    HW257614   9.577   5.125   2.236
52530SOL     OW57615   9.415   4.737   3.588
52530SOL    HW157616   9.338   4.704   3.642
52530SOL    HW257617   9.500   4.707   3.630
52531SOL     OW57618   9.982   3.927   3.351
52531SOL    HW157619  10.072   3.911   3.311
52531SOL    HW257620   9.990   3.932   3.450
52532SOL     OW57621   9.385   4.069   1.895
52532SOL    HW157622   9.293   4.041   1.866
52532SOL    HW257623   9.416   4.146   1.839
52533SOL     OW57624  10.750   4.580   3.260
52533SOL    HW157625  10.693   4.632   3.197
52533SOL    HW257626  10.846   4.592   3.236
52534SOL     OW57627   9.382   3.890   2.180
52534SOL    HW157628   9.365   3.973   2.126
52534SOL    HW257629   9.472   3.853   2.158
52535SOL     OW57630  10.493   5.059   1.981
52535SOL    HW157631  10.394   5.048   1.983
52535SOL    HW257632  10.527   5.074   2.074
52536SOL     OW57633   9.923   4.566   3.293
52536SOL    HW157634   9.979   4.647   3.276
52536SOL    HW257635   9.982   4.486   3.296
52537SOL     OW57636  10.803   5.491   2.821
52537SOL    HW157637  10.836   5.555   2.752
52537SOL    HW257638  10.869   5.485   2.896
52538SOL     OW57639  10.026   4.289   3.570
52538SOL    HW157640  10.045   4.354   3.644
52538SOL    HW257641  10.086   4.209   3.579
52539SOL     OW57642  10.760   4.944   3.495
52539SOL    HW157643  10.751   4.934   3.594
52539SOL    HW257644  10.856   4.937   3.469
52540SOL     OW57645   9.700   5.465   3.422
52540SOL    HW157646   9.609   5.506   3.420
52540SOL    HW257647   9.693   5.371   3.454
52541SOL     OW57648  10.984   4.607   3.116
52541SOL    HW157649  10.957   4.518   3.079
52541SOL    HW257650  10.985   4.675   3.043
52542SOL     OW57651  10.535   4.049   2.311
52542SOL    HW157652  10.600   3.975   2.300
52542SOL    HW257653  10.555   4.099   2.395
52543SOL     OW57654   9.904   4.469   2.514
52543SOL    HW157655   9.954   4.554   2.495
52543SOL    HW257656   9.816   4.471   2.466
52544SOL     OW57657  11.087   4.066   3.504
52544SOL    HW157658  11.070   4.097   3.410
52544SOL    HW257659  11.003   4.029   3.542
52545SOL     OW57660  11.040   4.658   3.379
52545SOL    HW157661  11.078   4.749   3.394
52545SOL    HW257662  11.032   4.641   3.280
52546SOL     OW57663  10.169   5.098   1.878
52546SOL    HW157664  10.123   5.113   1.966
52546SOL    HW257665  10.213   5.183   1.848
52547SOL     OW57666   9.971   5.514   2.815
52547SOL    HW157667   9.925   5.602   2.802
52547SOL    HW257668  10.070   5.526   2.808
52548SOL     OW57669  10.169   4.680   2.723
52548SOL    HW157670  10.223   4.611   2.771
52548SOL    HW257671  10.137   4.749   2.789
52549SOL     OW57672  10.393   4.708   1.949
52549SOL    HW157673  10.370   4.761   1.867
52549SOL    HW257674  10.474   4.652   1.930
52550SOL     OW57675  11.171   5.293   2.713
52550SOL    HW157676  11.100   5.281   2.643
52550SOL    HW257677  11.172   5.214   2.773
52551SOL     OW57678   9.531   5.038   3.706
52551SOL    HW157679   9.466   4.965   3.685
52551SOL    HW257680   9.535   5.052   3.804
52552SOL     OW57681   9.389   4.964   2.515
52552SOL    HW157682   9.388   4.917   2.603
52552SOL    HW257683   9.471   4.936   2.464
52553SOL     OW57684   9.982   5.115   3.486
52553SOL    HW157685   9.904   5.065   3.524
52553SOL    HW257686   9.979   5.210   3.517
52554SOL     OW57687  11.134   3.916   3.089
52554SOL    HW157688  11.130   3.826   3.133
52554SOL    HW257689  11.137   3.905   2.990
52555SOL     OW57690   9.738   4.148   2.382
52555SOL    HW157691   9.768   4.076   2.320
52555SOL    HW257692   9.699   4.108   2.465
52556SOL     OW57693  11.015   5.211   2.966
52556SOL    HW157694  10.922   5.186   2.939
52556SOL    HW257695  11.041   5.161   3.048
52557SOL     OW57696   9.627   4.271   3.142
52557SOL    HW157697   9.665   4.212   3.214
52557SOL    HW257698   9.667   4.245   3.054
52558SOL     OW57699  10.122   5.310   2.549
52558SOL    HW157700  10.154   5.320   2.455
52558SOL    HW257701  10.043   5.248   2.551
52559SOL     OW57702  10.734   3.938   2.974
52559SOL    HW157703  10.786   3.873   3.029
52559SOL    HW257704  10.685   4.001   3.035
52560SOL     OW57705  10.311   3.758   3.016
52560SOL    HW157706  10.248   3.686   2.985
52560SOL    HW257707  10.404   3.722   3.016
52561SOL     OW57708  10.080   5.054   2.163
52561SOL    HW157709  10.034   4.967   2.180
52561SOL    HW257710  10.171   5.051   2.204
52562SOL     OW57711   9.928   5.291   3.146
52562SOL    HW157712   9.923   5.373   3.203
52562SOL    HW257713  10.017   5.288   3.101
52563SOL     OW57714  10.662   3.776   2.030
52563SOL    HW157715  10.697   3.735   1.946
52563SOL    HW257716  10.572   3.738   2.050
52564SOL     OW57717  10.610   4.177   2.553
52564SOL    HW157718  10.551   4.257   2.557
52564SOL    HW257719  10.625   4.142   2.646
52565SOL     OW57720  10.903   3.945   2.744
52565SOL    HW157721  10.819   3.944   2.798
52565SOL    HW257722  10.905   4.028   2.688
52566SOL     OW57723   9.349   4.801   2.162
52566SOL    HW157724   9.448   4.790   2.153
52566SOL    HW257725   9.309   4.715   2.194
52567SOL     OW57726  10.185   5.370   2.199
52567SOL    HW157727  10.108   5.335   2.145
52567SOL    HW257728  10.153   5.441   2.261
52568SOL     OW57729   9.540   4.352   3.837
52568SOL    HW157730   9.447   4.350   3.874
52568SOL    HW257731   9.541   4.313   3.745
52569SOL     OW57732   9.535   3.999   4.720
52569SOL    HW157733   9.570   3.982   4.812
52569SOL    HW257734   9.447   3.954   4.708
52570SOL     OW57735   9.329   4.092   4.371
52570SOL    HW157736   9.247   4.135   4.410
52570SOL    HW257737   9.301   4.019   4.308
52571SOL     OW57738   9.879   4.999   4.889
52571SOL    HW157739   9.786   4.992   4.852
52571SOL    HW257740   9.890   5.088   4.933
52572SOL     OW57741  10.865   5.235   4.427
52572SOL    HW157742  10.808   5.219   4.508
52572SOL    HW257743  10.806   5.245   4.347
52573SOL     OW57744  10.445   4.427   4.441
52573SOL    HW157745  10.502   4.505   4.416
52573SOL    HW257746  10.385   4.453   4.517
52574SOL     OW57747  11.065   4.331   3.955
52574SOL    HW157748  11.053   4.318   3.856
52574SOL    HW257749  11.035   4.250   4.004
52575SOL     OW57750  10.078   4.868   4.747
52575SOL    HW157751  10.000   4.885   4.807
52575SOL    HW257752  10.112   4.955   4.711
52576SOL     OW57753  10.160   4.522   5.547
52576SOL    HW157754  10.156   4.598   5.612
52576SOL    HW257755  10.182   4.558   5.456
52577SOL     OW57756   9.995   4.736   4.389
52577SOL    HW157757  10.064   4.720   4.459
52577SOL    HW257758   9.922   4.793   4.427
52578SOL     OW57759   9.996   4.885   5.527
52578SOL    HW157760  10.056   4.964   5.541
52578SOL    HW257761   9.910   4.916   5.486
52579SOL     OW57762   9.645   5.159   4.785
52579SOL    HW157763   9.567   5.128   4.732
52579SOL    HW257764   9.703   5.217   4.728
52580SOL     OW57765   9.748   4.116   5.223
52580SOL    HW157766   9.830   4.060   5.232
52580SOL    HW257767   9.667   4.058   5.227
52581SOL     OW57768  10.913   4.171   4.461
52581SOL    HW157769  10.839   4.217   4.411
52581SOL    HW257770  10.964   4.239   4.514
52582SOL     OW57771   9.541   5.437   4.207
52582SOL    HW157772   9.575   5.514   4.261
52582SOL    HW257773   9.585   5.437   4.117
52583SOL     OW57774  10.437   5.065   5.414
52583SOL    HW157775  10.484   5.065   5.502
52583SOL    HW257776  10.389   4.978   5.403
52584SOL     OW57777   9.540   5.158   4.262
52584SOL    HW157778   9.514   5.254   4.262
52584SOL    HW257779   9.469   5.104   4.307
52585SOL     OW57780   9.550   4.815   4.610
52585SOL    HW157781   9.564   4.731   4.662
52585SOL    HW257782   9.495   4.879   4.665
52586SOL     OW57783   9.930   5.510   5.163
52586SOL    HW157784   9.838   5.493   5.198
52586SOL    HW257785   9.958   5.602   5.189
52587SOL     OW57786   9.916   4.688   3.847
52587SOL    HW157787   9.923   4.772   3.793
52587SOL    HW257788   9.962   4.701   3.935
52588SOL     OW57789  10.904   3.838   5.204
52588SOL    HW157790  10.886   3.905   5.132
52588SOL    HW257791  10.901   3.884   5.293
52589SOL     OW57792   9.432   4.367   4.287
52589SOL    HW157793   9.387   4.279   4.304
52589SOL    HW257794   9.431   4.421   4.371
52590SOL     OW57795  11.152   5.491   4.083
52590SOL    HW157796  11.206   5.462   4.163
52590SOL    HW257797  11.182   5.581   4.054
52591SOL     OW57798   9.337   5.320   3.841
52591SOL    HW157799   9.318   5.224   3.862
52591SOL    HW257800   9.304   5.378   3.916
52592SOL     OW57801  10.999   4.646   4.336
52592SOL    HW157802  11.094   4.617   4.344
52592SOL    HW257803  10.991   4.711   4.261
52593SOL     OW57804  10.951   4.832   4.156
52593SOL    HW157805  11.037   4.834   4.104
52593SOL    HW257806  10.965   4.879   4.244
52594SOL     OW57807   9.423   4.461   5.321
52594SOL    HW157808   9.511   4.448   5.366
52594SOL    HW257809   9.410   4.558   5.299
52595SOL     OW57810   9.923   5.089   4.450
52595SOL    HW157811   9.874   5.002   4.459
52595SOL    HW257812   9.900   5.132   4.363
52596SOL     OW57813  10.603   4.952   5.147
52596SOL    HW157814  10.640   4.879   5.089
52596SOL    HW257815  10.655   4.957   5.232
52597SOL     OW57816  10.119   3.728   4.226
52597SOL    HW157817  10.159   3.819   4.217
52597SOL    HW257818  10.019   3.736   4.232
52598SOL     OW57819   9.507   4.700   4.988
52598SOL    HW157820   9.596   4.655   4.974
52598SOL    HW257821   9.434   4.635   4.969
52599SOL     OW57822  10.835   4.723   3.914
52599SOL    HW157823  10.772   4.647   3.927
52599SOL    HW257824  10.883   4.741   4.000
52600SOL     OW57825  10.497   5.516   5.340
52600SOL    HW157826  10.521   5.576   5.264
52600SOL    HW257827  10.504   5.421   5.310
52601SOL     OW57828   9.627   3.975   5.525
52601SOL    HW157829   9.698   4.046   5.531
52601SOL    HW257830   9.539   4.014   5.553
52602SOL     OW57831  10.776   5.141   4.677
52602SOL    HW157832  10.717   5.147   4.757
52602SOL    HW257833  10.761   5.053   4.631
52603SOL     OW57834  10.977   5.438   4.296
52603SOL    HW157835  10.936   5.415   4.208
52603SOL    HW257836  10.959   5.364   4.361
52604SOL     OW57837   9.908   4.453   3.994
52604SOL    HW157838   9.932   4.522   3.926
52604SOL    HW257839   9.830   4.486   4.048
52605SOL     OW57840  10.591   4.069   4.668
52605SOL    HW157841  10.505   4.019   4.655
52605SOL    HW257842  10.653   4.015   4.724
52606SOL     OW57843  10.886   5.386   4.031
52606SOL    HW157844  10.975   5.432   4.034
52606SOL    HW257845  10.865   5.362   3.936
52607SOL     OW57846  10.117   4.329   5.189
52607SOL    HW157847  10.070   4.326   5.278
52607SOL    HW257848  10.066   4.274   5.123
52608SOL     OW57849  10.704   4.193   5.398
52608SOL    HW157850  10.684   4.236   5.486
52608SOL    HW257851  10.782   4.131   5.407
52609SOL     OW57852  10.283   4.614   5.296
52609SOL    HW157853  10.329   4.530   5.267
52609SOL    HW257854  10.227   4.648   5.221
52610SOL     OW57855  10.301   4.134   4.966
52610SOL    HW157856  10.224   4.168   5.020
52610SOL    HW257857  10.267   4.083   4.887
52611SOL     OW57858  10.351   4.425   4.153
52611SOL    HW157859  10.377   4.421   4.249
52611SOL    HW257860  10.266   4.374   4.139
52612SOL     OW57861   9.386   4.535   4.513
52612SOL    HW157862   9.485   4.523   4.522
52612SOL    HW257863   9.362   4.630   4.534
52613SOL     OW57864   9.440   5.545   5.295
52613SOL    HW157865   9.430   5.530   5.394
52613SOL    HW257866   9.354   5.581   5.259
52614SOL     OW57867  10.175   4.072   3.919
52614SOL    HW157868  10.234   4.135   3.870
52614SOL    HW257869  10.194   3.978   3.890
52615SOL     OW57870  11.029   4.309   5.555
52615SOL    HW157871  11.003   4.398   5.519
52615SOL    HW257872  11.027   4.241   5.482
52616SOL     OW57873  10.672   4.868   4.269
52616SOL    HW157874  10.755   4.839   4.221
52616SOL    HW257875  10.623   4.935   4.213
52617SOL     OW57876   9.860   3.920   4.609
52617SOL    HW157877   9.855   3.915   4.709
52617SOL    HW257878   9.862   4.016   4.580
52618SOL     OW57879  10.318   5.180   4.201
52618SOL    HW157880  10.272   5.252   4.149
52618SOL    HW257881  10.314   5.200   4.299
52619SOL     OW57882   9.661   5.525   4.577
52619SOL    HW157883   9.711   5.439   4.583
52619SOL    HW257884   9.726   5.602   4.574
52620SOL     OW57885  11.105   4.790   4.597
52620SOL    HW157886  11.043   4.775   4.521
52620SOL    HW257887  11.053   4.801   4.682
52621SOL     OW57888  10.537   5.274   5.230
52621SOL    HW157889  10.543   5.197   5.294
52621SOL    HW257890  10.485   5.248   5.150
52622SOL     OW57891   9.631   4.667   3.966
52622SOL    HW157892   9.713   4.706   3.924
52622SOL    HW257893   9.604   4.585   3.917
52623SOL     OW57894  10.768   4.459   4.452
52623SOL    HW157895  10.763   4.394   4.527
52623SOL    HW257896  10.848   4.518   4.465
52624SOL     OW57897   9.771   4.990   5.451
52624SOL    HW157898   9.721   4.991   5.365
52624SOL    HW257899   9.708   4.972   5.527
52625SOL     OW57900  10.421   5.500   3.961
52625SOL    HW157901  10.361   5.438   4.011
52625SOL    HW257902  10.452   5.456   3.876
52626SOL     OW57903   9.512   4.009   5.222
52626SOL    HW157904   9.432   4.069   5.209
52626SOL    HW257905   9.502   3.960   5.308
52627SOL     OW57906  10.942   5.101   3.805
52627SOL    HW157907  10.910   5.195   3.795
52627SOL    HW257908  10.866   5.038   3.793
52628SOL     OW57909   9.774   5.467   4.047
52628SOL    HW157910   9.807   5.506   4.133
52628SOL    HW257911   9.850   5.460   3.982
52629SOL     OW57912  10.710   3.831   4.150
52629SOL    HW157913  10.686   3.794   4.060
52629SOL    HW257914  10.809   3.847   4.154
52630SOL     OW57915   9.559   5.509   4.965
52630SOL    HW157916   9.616   5.444   5.015
52630SOL    HW257917   9.543   5.476   4.872
52631SOL     OW57918  10.250   5.422   4.628
52631SOL    HW157919  10.330   5.365   4.649
52631SOL    HW257920  10.201   5.382   4.551
52632SOL     OW57921   9.692   4.424   4.204
52632SOL    HW157922   9.737   4.334   4.201
52632SOL    HW257923   9.598   4.413   4.237
52633SOL     OW57924  10.857   3.946   5.453
52633SOL    HW157925  10.852   3.983   5.545
52633SOL    HW257926  10.785   3.877   5.441
52634SOL     OW57927   9.924   3.846   3.841
52634SOL    HW157928  10.022   3.824   3.848
52634SOL    HW257929   9.893   3.829   3.748
52635SOL     OW57930  10.091   3.988   5.473
52635SOL    HW157931  10.158   3.927   5.516
52635SOL    HW257932  10.018   4.007   5.538
52636SOL     OW57933  10.198   5.238   4.919
52636SOL    HW157934  10.175   5.213   4.825
52636SOL    HW257935  10.259   5.169   4.958
52637SOL     OW57936  10.661   4.314   5.157
52637SOL    HW157937  10.689   4.271   5.242
52637SOL    HW257938  10.686   4.410   5.158
52638SOL     OW57939  10.113   5.126   4.648
52638SOL    HW157940  10.203   5.140   4.606
52638SOL    HW257941  10.042   5.128   4.577
52639SOL     OW57942  10.232   4.227   4.623
52639SOL    HW157943  10.207   4.218   4.527
52639SOL    HW257944  10.280   4.145   4.654
52640SOL     OW57945   9.849   3.788   4.236
52640SOL    HW157946   9.768   3.789   4.294
52640SOL    HW257947   9.852   3.871   4.181
52641SOL     OW57948  10.744   4.912   3.765
52641SOL    HW157949  10.776   4.836   3.822
52641SOL    HW257950  10.652   4.939   3.795
52642SOL     OW57951   9.607   3.759   3.895
52642SOL    HW157952   9.656   3.843   3.874
52642SOL    HW257953   9.669   3.694   3.940
52643SOL     OW57954  10.245   3.960   4.204
52643SOL    HW157955  10.197   4.001   4.126
52643SOL    HW257956  10.344   3.958   4.185
52644SOL     OW57957  10.386   4.407   5.188
52644SOL    HW157958  10.306   4.346   5.191
52644SOL    HW257959  10.467   4.354   5.164
52645SOL     OW57960  10.537   5.294   4.517
52645SOL    HW157961  10.558   5.368   4.452
52645SOL    HW257962  10.605   5.294   4.590
52646SOL     OW57963   9.769   4.876   4.465
52646SOL    HW157964   9.698   4.849   4.530
52646SOL    HW257965   9.743   4.848   4.372
52647SOL     OW57966  10.581   5.521   4.315
52647SOL    HW157967  10.625   5.585   4.251
52647SOL    HW257968  10.531   5.573   4.385
52648SOL     OW57969  10.342   4.273   3.740
52648SOL    HW157970  10.301   4.355   3.701
52648SOL    HW257971  10.406   4.299   3.813
52649SOL     OW57972   9.388   4.280   5.110
52649SOL    HW157973   9.480   4.279   5.069
52649SOL    HW257974   9.382   4.354   5.177
52650SOL     OW57975   9.871   3.946   4.871
52650SOL    HW157976   9.909   3.862   4.908
52650SOL    HW257977   9.783   3.965   4.915
52651SOL     OW57978  10.176   4.178   4.366
52651SOL    HW157979  10.144   4.250   4.304
52651SOL    HW257980  10.200   4.097   4.313
52652SOL     OW57981  10.327   3.763   4.477
52652SOL    HW157982  10.255   3.768   4.408
52652SOL    HW257983  10.303   3.694   4.546
52653SOL     OW57984  10.739   4.897   4.591
52653SOL    HW157985  10.684   4.813   4.584
52653SOL    HW257986  10.765   4.926   4.499
52654SOL     OW57987  10.776   4.314   4.716
52654SOL    HW157988  10.746   4.219   4.723
52654SOL    HW257989  10.849   4.330   4.782
52655SOL     OW57990  11.167   4.557   4.101
52655SOL    HW157991  11.209   4.493   4.165
52655SOL    HW257992  11.129   4.506   4.023
52656SOL     OW57993   9.798   5.109   3.898
52656SOL    HW157994   9.711   5.094   3.945
52656SOL    HW257995   9.781   5.135   3.803
52657SOL     OW57996  10.974   5.004   4.381
52657SOL    HW157997  11.073   5.012   4.395
52657SOL    HW257998  10.929   5.088   4.412
52658SOL     OW57999  10.700   4.299   3.802
52658SOL    HW158000  10.646   4.278   3.883
52658SOL    HW258001  10.791   4.258   3.811
52659SOL     OW58002   9.837   3.980   4.052
52659SOL    HW158003   9.864   3.921   3.977
52659SOL    HW258004   9.837   4.075   4.021
52660SOL     OW58005  11.064   4.947   5.312
52660SOL    HW158006  11.155   4.908   5.299
52660SOL    HW258007  11.072   5.043   5.336
52661SOL     OW58008  10.374   5.071   5.064
52661SOL    HW158009  10.294   5.048   5.119
52661SOL    HW258010  10.457   5.045   5.113
52662SOL     OW58011  10.902   5.353   5.349
52662SOL    HW158012  10.929   5.387   5.259
52662SOL    HW258013  10.981   5.315   5.395
52663SOL     OW58014  10.421   4.919   4.824
52663SOL    HW158015  10.381   4.963   4.905
52663SOL    HW258016  10.380   4.956   4.741
52664SOL     OW58017  10.948   4.823   4.803
52664SOL    HW158018  10.953   4.904   4.862
52664SOL    HW258019  10.862   4.825   4.752
52665SOL     OW58020  10.225   3.813   5.126
52665SOL    HW158021  10.250   3.793   5.031
52665SOL    HW258022  10.297   3.869   5.168
52666SOL     OW58023  10.290   4.840   5.443
52666SOL    HW158024  10.191   4.846   5.453
52666SOL    HW258025  10.313   4.760   5.387
52667SOL     OW58026  10.015   4.774   4.092
52667SOL    HW158027  10.001   4.781   4.191
52667SOL    HW258028  10.099   4.723   4.074
52668SOL     OW58029   9.720   4.537   4.975
52668SOL    HW158030   9.806   4.549   5.025
52668SOL    HW258031   9.678   4.450   5.002
52669SOL     OW58032  10.584   4.110   4.986
52669SOL    HW158033  10.605   4.184   5.050
52669SOL    HW258034  10.495   4.127   4.943
52670SOL     OW58035   9.374   5.288   5.055
52670SOL    HW158036   9.328   5.370   5.021
52670SOL    HW258037   9.472   5.307   5.064
52671SOL     OW58038   9.677   4.824   4.225
52671SOL    HW158039   9.670   4.907   4.169
52671SOL    HW258040   9.681   4.744   4.165
52672SOL     OW58041   9.876   4.261   4.589
52672SOL    HW158042   9.888   4.327   4.515
52672SOL    HW258043   9.922   4.295   4.672
52673SOL     OW58044  10.562   5.072   4.112
52673SOL    HW158045  10.612   5.149   4.152
52673SOL    HW258046  10.467   5.074   4.144
52674SOL     OW58047  10.582   5.169   4.866
52674SOL    HW158048  10.629   5.182   4.953
52674SOL    HW258049  10.516   5.095   4.875
52675SOL     OW58050  10.892   4.363   4.196
52675SOL    HW158051  10.861   4.424   4.269
52675SOL    HW258052  10.942   4.415   4.127
52676SOL     OW58053   9.664   5.234   5.053
52676SOL    HW158054   9.643   5.190   4.966
52676SOL    HW258055   9.761   5.260   5.056
52677SOL     OW58056   9.712   4.475   5.322
52677SOL    HW158057   9.780   4.530   5.275
52677SOL    HW258058   9.752   4.387   5.349
52678SOL     OW58059  10.897   4.503   5.394
52678SOL    HW158060  10.805   4.541   5.389
52678SOL    HW258061  10.957   4.550   5.329
52679SOL     OW58062  10.323   3.829   5.494
52679SOL    HW158063  10.329   3.914   5.442
52679SOL    HW258064  10.355   3.753   5.437
52680SOL     OW58065   9.814   3.774   5.464
52680SOL    HW158066   9.772   3.717   5.394
52680SOL    HW258067   9.748   3.843   5.496
52681SOL     OW58068   9.883   4.594   4.753
52681SOL    HW158069   9.927   4.683   4.744
52681SOL    HW258070   9.820   4.594   4.830
52682SOL     OW58071  10.670   4.586   4.769
52682SOL    HW158072  10.595   4.586   4.703
52682SOL    HW258073  10.707   4.494   4.778
52683SOL     OW58074  10.519   4.249   3.999
52683SOL    HW158075  10.532   4.165   4.053
52683SOL    HW258076  10.490   4.323   4.059
52684SOL     OW58077   9.617   3.937   4.955
52684SOL    HW158078   9.594   3.974   5.045
52684SOL    HW258079   9.587   3.842   4.949
52685SOL     OW58080   9.347   5.034   5.006
52685SOL    HW158081   9.400   4.985   5.074
52685SOL    HW258082   9.369   5.132   5.011
52686SOL     OW58083  10.042   4.358   4.788
52686SOL    HW158084  10.101   4.332   4.712
52686SOL    HW258085  10.014   4.454   4.777
52687SOL     OW58086  11.038   4.659   5.578
52687SOL    HW158087  10.992   4.652   5.489
52687SOL    HW258088  10.976   4.703   5.644
52688SOL     OW58089   9.617   3.787   4.342
52688SOL    HW158090   9.606   3.881   4.375
52688SOL    HW258091   9.612   3.724   4.419
52689SOL     OW58092  10.932   4.091   4.098
52689SOL    HW158093  10.934   4.015   4.162
52689SOL    HW258094  10.884   4.168   4.138
52690SOL     OW58095  10.333   4.490   4.690
52690SOL    HW158096  10.348   4.511   4.786
52690SOL    HW258097  10.303   4.395   4.681
52691SOL     OW58098  10.290   5.297   5.424
52691SOL    HW158099  10.270   5.341   5.336
52691SOL    HW258100  10.329   5.206   5.408
52692SOL     OW58101  11.169   5.242   5.329
52692SOL    HW158102  11.183   5.269   5.234
52692SOL    HW258103  11.252   5.264   5.382
52693SOL     OW58104   9.660   4.622   5.528
52693SOL    HW158105   9.736   4.666   5.576
52693SOL    HW258106   9.695   4.575   5.446
52694SOL     OW58107  10.850   3.998   3.849
52694SOL    HW158108  10.789   3.923   3.872
52694SOL    HW258109  10.872   4.050   3.932
52695SOL     OW58110  10.613   4.562   3.766
52695SOL    HW158111  10.647   4.469   3.781
52695SOL    HW258112  10.631   4.589   3.671
52696SOL     OW58113  10.378   5.057   4.573
52696SOL    HW158114  10.385   4.973   4.518
52696SOL    HW258115  10.440   5.126   4.537
52697SOL     OW58116   9.629   4.534   4.673
52697SOL    HW158117   9.722   4.570   4.678
52697SOL    HW258118   9.623   4.449   4.725
52698SOL     OW58119   9.649   4.233   4.730
52698SOL    HW158120   9.597   4.150   4.713
52698SOL    HW258121   9.726   4.238   4.666
52699SOL     OW58122  10.448   4.104   5.402
52699SOL    HW158123  10.403   4.167   5.466
52699SOL    HW258124  10.541   4.135   5.385
52700SOL     OW58125  10.470   3.931   5.201
52700SOL    HW158126  10.470   3.995   5.278
52700SOL    HW258127  10.498   3.979   5.118
52701SOL     OW58128   9.318   5.050   3.924
52701SOL    HW158129   9.225   5.071   3.893
52701SOL    HW258130   9.328   4.951   3.937
52702SOL     OW58131   9.398   5.525   4.651
52702SOL    HW158132   9.356   5.439   4.624
52702SOL    HW258133   9.492   5.528   4.617
52703SOL     OW58134   9.814   5.292   4.634
52703SOL    HW158135   9.880   5.366   4.643
52703SOL    HW258136   9.858   5.213   4.592
52704SOL     OW58137  10.312   4.520   4.962
52704SOL    HW158138  10.353   4.488   5.048
52704SOL    HW258139  10.216   4.493   4.959
52705SOL     OW58140   9.350   4.268   4.838
52705SOL    HW158141   9.435   4.235   4.797
52705SOL    HW258142   9.363   4.283   4.936
52706SOL     OW58143   9.499   4.244   5.446
52706SOL    HW158144   9.558   4.204   5.376
52706SOL    HW258145   9.441   4.315   5.405
52707SOL     OW58146  10.679   4.674   5.384
52707SOL    HW158147  10.718   4.763   5.404
52707SOL    HW258148  10.689   4.654   5.287
52708SOL     OW58149  10.125   4.296   4.049
52708SOL    HW158150  10.132   4.207   4.003
52708SOL    HW258151  10.031   4.330   4.041
52709SOL     OW58152  10.967   4.328   4.930
52709SOL    HW158153  10.929   4.259   4.992
52709SOL    HW258154  11.049   4.292   4.886
52710SOL     OW58155   9.562   5.288   5.468
52710SOL    HW158156   9.532   5.345   5.544
52710SOL    HW258157   9.555   5.191   5.494
52711SOL     OW58158   9.981   4.188   4.993
52711SOL    HW158159   9.947   4.099   4.963
52711SOL    HW258160  10.007   4.242   4.913
52712SOL     OW58161  10.240   5.402   5.189
52712SOL    HW158162  10.216   5.384   5.094
52712SOL    HW258163  10.270   5.496   5.199
52713SOL     OW58164   9.783   4.224   3.915
52713SOL    HW158165   9.844   4.304   3.919
52713SOL    HW258166   9.688   4.255   3.922
52714SOL     OW58167   9.469   4.861   5.190
52714SOL    HW158168   9.491   4.800   5.266
52714SOL    HW258169   9.479   4.812   5.104
52715SOL     OW58170  10.657   4.783   4.958
52715SOL    HW158171  10.681   4.720   4.884
52715SOL    HW258172  10.567   4.823   4.940
52716SOL     OW58173  10.612   4.579   4.033
52716SOL    HW158174  10.526   4.548   4.075
52716SOL    HW258175  10.608   4.565   3.934
52717SOL     OW58176  11.069   5.471   4.878
52717SOL    HW158177  11.130   5.501   4.805
52717SOL    HW258178  11.031   5.382   4.856
52718SOL     OW58179  10.562   5.455   4.852
52718SOL    HW158180  10.646   5.460   4.798
52718SOL    HW258181  10.539   5.359   4.870
52719SOL     OW58182   9.393   4.982   4.746
52719SOL    HW158183   9.388   4.981   4.846
52719SOL    HW258184   9.310   4.941   4.708
52720SOL     OW58185   9.998   5.386   5.440
52720SOL    HW158186   9.942   5.467   5.449
52720SOL    HW258187  10.050   5.390   5.354
52721SOL     OW58188  11.036   3.859   4.247
52721SOL    HW158189  11.109   3.842   4.180
52721SOL    HW258190  11.005   3.772   4.285
52722SOL     OW58191  10.698   5.297   4.201
52722SOL    HW158192  10.765   5.309   4.127
52722SOL    HW258193  10.658   5.386   4.224
52723SOL     OW58194   9.440   5.518   5.575
52723SOL    HW158195   9.399   5.444   5.628
52723SOL    HW258196   9.504   5.569   5.633
52724SOL     OW58197  10.590   4.651   4.396
52724SOL    HW158198  10.650   4.570   4.398
52724SOL    HW258199  10.630   4.720   4.336
52725SOL     OW58200  10.140   4.997   5.146
52725SOL    HW158201  10.135   5.030   5.241
52725SOL    HW258202  10.054   5.016   5.100
52726SOL     OW58203   9.982   5.340   3.878
52726SOL    HW158204   9.991   5.350   3.779
52726SOL    HW258205   9.942   5.251   3.899
52727SOL     OW58206  10.960   5.444   5.118
52727SOL    HW158207  11.013   5.454   5.034
52727SOL    HW258208  10.933   5.534   5.152
52728SOL     OW58209  11.151   3.899   4.687
52728SOL    HW158210  11.190   3.814   4.651
52728SOL    HW258211  11.053   3.901   4.668
52729SOL     OW58212   9.573   4.050   4.444
52729SOL    HW158213   9.494   4.101   4.410
52729SOL    HW258214   9.564   4.035   4.542
52730SOL     OW58215  10.504   5.336   3.755
52730SOL    HW158216  10.510   5.243   3.792
52730SOL    HW258217  10.445   5.336   3.675
52731SOL     OW58218  10.132   4.726   5.096
52731SOL    HW158219  10.172   4.725   5.004
52731SOL    HW258220  10.142   4.818   5.136
52732SOL     OW58221  10.226   4.634   4.015
52732SOL    HW158222  10.289   4.672   3.947
52732SOL    HW258223  10.266   4.551   4.054
52733SOL     OW58224  10.814   5.331   3.768
52733SOL    HW158225  10.722   5.368   3.775
52733SOL    HW258226  10.852   5.351   3.678
52734SOL     OW58227   9.682   5.012   5.214
52734SOL    HW158228   9.669   5.105   5.180
52734SOL    HW258229   9.598   4.960   5.201
52735SOL     OW58230  10.924   5.016   5.013
52735SOL    HW158231  10.984   5.019   5.093
52735SOL    HW258232  10.849   5.080   5.026
52736SOL     OW58233  10.349   4.822   4.420
52736SOL    HW158234  10.279   4.775   4.474
52736SOL    HW258235  10.408   4.754   4.377
52737SOL     OW58236  10.324   3.960   4.695
52737SOL    HW158237  10.316   3.924   4.602
52737SOL    HW258238  10.322   3.884   4.760
52738SOL     OW58239   9.900   5.211   4.215
52738SOL    HW158240   9.942   5.153   4.145
52738SOL    HW258241   9.856   5.290   4.171
52739SOL     OW58242  11.019   4.109   5.105
52739SOL    HW158243  11.092   4.178   5.109
52739SOL    HW258244  11.047   4.034   5.046
52740SOL     OW58245   9.565   5.072   4.014
52740SOL    HW158246   9.469   5.073   3.987
52740SOL    HW258247   9.577   5.125   4.098
52741SOL     OW58248   9.415   4.737   5.450
52741SOL    HW158249   9.338   4.704   5.504
52741SOL    HW258250   9.500   4.707   5.492
52742SOL     OW58251   9.982   3.927   5.213
52742SOL    HW158252  10.072   3.911   5.173
52742SOL    HW258253   9.990   3.932   5.312
52743SOL     OW58254   9.385   4.069   3.757
52743SOL    HW158255   9.293   4.041   3.728
52743SOL    HW258256   9.416   4.146   3.701
52744SOL     OW58257  10.750   4.580   5.122
52744SOL    HW158258  10.693   4.632   5.059
52744SOL    HW258259  10.846   4.592   5.098
52745SOL     OW58260   9.382   3.890   4.042
52745SOL    HW158261   9.365   3.973   3.988
52745SOL    HW258262   9.472   3.853   4.020
52746SOL     OW58263  10.493   5.059   3.843
52746SOL    HW158264  10.394   5.048   3.845
52746SOL    HW258265  10.527   5.074   3.936
52747SOL     OW58266   9.923   4.566   5.155
52747SOL    HW158267   9.979   4.647   5.138
52747SOL    HW258268   9.982   4.486   5.158
52748SOL     OW58269  10.803   5.491   4.683
52748SOL    HW158270  10.836   5.555   4.614
52748SOL    HW258271  10.869   5.485   4.758
52749SOL     OW58272  10.026   4.289   5.432
52749SOL    HW158273  10.045   4.354   5.506
52749SOL    HW258274  10.086   4.209   5.441
52750SOL     OW58275  10.760   4.944   5.357
52750SOL    HW158276  10.751   4.934   5.456
52750SOL    HW258277  10.856   4.937   5.331
52751SOL     OW58278   9.700   5.465   5.284
52751SOL    HW158279   9.609   5.506   5.282
52751SOL    HW258280   9.693   5.371   5.316
52752SOL     OW58281  10.984   4.607   4.978
52752SOL    HW158282  10.957   4.518   4.941
52752SOL    HW258283  10.985   4.675   4.905
52753SOL     OW58284  10.535   4.049   4.173
52753SOL    HW158285  10.600   3.975   4.162
52753SOL    HW258286  10.555   4.099   4.257
52754SOL     OW58287   9.904   4.469   4.376
52754SOL    HW158288   9.954   4.554   4.357
52754SOL    HW258289   9.816   4.471   4.328
52755SOL     OW58290  11.087   4.066   5.366
52755SOL    HW158291  11.070   4.097   5.272
52755SOL    HW258292  11.003   4.029   5.404
52756SOL     OW58293  11.040   4.658   5.241
52756SOL    HW158294  11.078   4.749   5.256
52756SOL    HW258295  11.032   4.641   5.142
52757SOL     OW58296  10.169   5.098   3.740
52757SOL    HW158297  10.123   5.113   3.828
52757SOL    HW258298  10.213   5.183   3.710
52758SOL     OW58299   9.971   5.514   4.677
52758SOL    HW158300   9.925   5.602   4.664
52758SOL    HW258301  10.070   5.526   4.670
52759SOL     OW58302  10.169   4.680   4.585
52759SOL    HW158303  10.223   4.611   4.633
52759SOL    HW258304  10.137   4.749   4.651
52760SOL     OW58305  10.393   4.708   3.811
52760SOL    HW158306  10.370   4.761   3.729
52760SOL    HW258307  10.474   4.652   3.792
52761SOL     OW58308  11.171   5.293   4.575
52761SOL    HW158309  11.100   5.281   4.505
52761SOL    HW258310  11.172   5.214   4.635
52762SOL     OW58311   9.531   5.038   5.568
52762SOL    HW158312   9.466   4.965   5.547
52762SOL    HW258313   9.535   5.052   5.666
52763SOL     OW58314   9.389   4.964   4.377
52763SOL    HW158315   9.388   4.917   4.465
52763SOL    HW258316   9.471   4.936   4.326
52764SOL     OW58317   9.982   5.115   5.348
52764SOL    HW158318   9.904   5.065   5.386
52764SOL    HW258319   9.979   5.210   5.379
52765SOL     OW58320  11.134   3.916   4.951
52765SOL    HW158321  11.130   3.826   4.995
52765SOL    HW258322  11.137   3.905   4.852
52766SOL     OW58323   9.738   4.148   4.244
52766SOL    HW158324   9.768   4.076   4.182
52766SOL    HW258325   9.699   4.108   4.327
52767SOL     OW58326  11.015   5.211   4.828
52767SOL    HW158327  10.922   5.186   4.801
52767SOL    HW258328  11.041   5.161   4.910
52768SOL     OW58329   9.627   4.271   5.004
52768SOL    HW158330   9.665   4.212   5.076
52768SOL    HW258331   9.667   4.245   4.916
52769SOL     OW58332  10.122   5.310   4.411
52769SOL    HW158333  10.154   5.320   4.317
52769SOL    HW258334  10.043   5.248   4.413
52770SOL     OW58335  10.734   3.938   4.836
52770SOL    HW158336  10.786   3.873   4.891
52770SOL    HW258337  10.685   4.001   4.897
52771SOL     OW58338  10.311   3.758   4.878
52771SOL    HW158339  10.248   3.686   4.847
52771SOL    HW258340  10.404   3.722   4.878
52772SOL     OW58341  10.080   5.054   4.025
52772SOL    HW158342  10.034   4.967   4.042
52772SOL    HW258343  10.171   5.051   4.066
52773SOL     OW58344   9.928   5.291   5.008
52773SOL    HW158345   9.923   5.373   5.065
52773SOL    HW258346  10.017   5.288   4.963
52774SOL     OW58347  10.662   3.776   3.892
52774SOL    HW158348  10.697   3.735   3.808
52774SOL    HW258349  10.572   3.738   3.912
52775SOL     OW58350  10.610   4.177   4.415
52775SOL    HW158351  10.551   4.257   4.419
52775SOL    HW258352  10.625   4.142   4.508
52776SOL     OW58353  10.903   3.945   4.606
52776SOL    HW158354  10.819   3.944   4.660
52776SOL    HW258355  10.905   4.028   4.550
52777SOL     OW58356   9.349   4.801   4.024
52777SOL    HW158357   9.448   4.790   4.015
52777SOL    HW258358   9.309   4.715   4.056
52778SOL     OW58359  10.185   5.370   4.061
52778SOL    HW158360  10.108   5.335   4.007
52778SOL    HW258361  10.153   5.441   4.123
52779SOL     OW58362   9.540   4.352   5.699
52779SOL    HW158363   9.447   4.350   5.736
52779SOL    HW258364   9.541   4.313   5.607
52780SOL     OW58365   9.535   3.999   6.582
52780SOL    HW158366   9.570   3.982   6.674
52780SOL    HW258367   9.447   3.954   6.570
52781SOL     OW58368   9.329   4.092   6.233
52781SOL    HW158369   9.247   4.135   6.272
52781SOL    HW258370   9.301   4.019   6.170
52782SOL     OW58371   9.879   4.999   6.751
52782SOL    HW158372   9.786   4.992   6.714
52782SOL    HW258373   9.890   5.088   6.795
52783SOL     OW58374  10.865   5.235   6.289
52783SOL    HW158375  10.808   5.219   6.370
52783SOL    HW258376  10.806   5.245   6.209
52784SOL     OW58377  10.445   4.427   6.303
52784SOL    HW158378  10.502   4.505   6.278
52784SOL    HW258379  10.385   4.453   6.379
52785SOL     OW58380  11.065   4.331   5.817
52785SOL    HW158381  11.053   4.318   5.718
52785SOL    HW258382  11.035   4.250   5.866
52786SOL     OW58383  10.078   4.868   6.609
52786SOL    HW158384  10.000   4.885   6.669
52786SOL    HW258385  10.112   4.955   6.573
52787SOL     OW58386  10.160   4.522   7.409
52787SOL    HW158387  10.156   4.598   7.474
52787SOL    HW258388  10.182   4.558   7.318
52788SOL     OW58389   9.995   4.736   6.251
52788SOL    HW158390  10.064   4.720   6.321
52788SOL    HW258391   9.922   4.793   6.289
52789SOL     OW58392   9.996   4.885   7.389
52789SOL    HW158393  10.056   4.964   7.403
52789SOL    HW258394   9.910   4.916   7.348
52790SOL     OW58395   9.645   5.159   6.647
52790SOL    HW158396   9.567   5.128   6.594
52790SOL    HW258397   9.703   5.217   6.590
52791SOL     OW58398  10.770   5.229   6.925
52791SOL    HW158399  10.794   5.323   6.951
52791SOL    HW258400  10.754   5.175   7.007
52792SOL     OW58401   9.748   4.116   7.085
52792SOL    HW158402   9.830   4.060   7.094
52792SOL    HW258403   9.667   4.058   7.089
52793SOL     OW58404  10.913   4.171   6.323
52793SOL    HW158405  10.839   4.217   6.273
52793SOL    HW258406  10.964   4.239   6.376
52794SOL     OW58407   9.541   5.437   6.069
52794SOL    HW158408   9.575   5.514   6.123
52794SOL    HW258409   9.585   5.437   5.979
52795SOL     OW58410  10.437   5.065   7.276
52795SOL    HW158411  10.484   5.065   7.364
52795SOL    HW258412  10.389   4.978   7.265
52796SOL     OW58413   9.540   5.158   6.124
52796SOL    HW158414   9.514   5.254   6.124
52796SOL    HW258415   9.469   5.104   6.169
52797SOL     OW58416   9.550   4.815   6.472
52797SOL    HW158417   9.564   4.731   6.524
52797SOL    HW258418   9.495   4.879   6.527
52798SOL     OW58419   9.930   5.510   7.025
52798SOL    HW158420   9.838   5.493   7.060
52798SOL    HW258421   9.958   5.602   7.051
52799SOL     OW58422   9.916   4.688   5.709
52799SOL    HW158423   9.923   4.772   5.655
52799SOL    HW258424   9.962   4.701   5.797
52800SOL     OW58425  10.904   3.838   7.066
52800SOL    HW158426  10.886   3.905   6.994
52800SOL    HW258427  10.901   3.884   7.155
52801SOL     OW58428   9.432   4.367   6.149
52801SOL    HW158429   9.387   4.279   6.166
52801SOL    HW258430   9.431   4.421   6.233
52802SOL     OW58431  11.152   5.491   5.945
52802SOL    HW158432  11.206   5.462   6.025
52802SOL    HW258433  11.182   5.581   5.916
52803SOL     OW58434   9.337   5.320   5.703
52803SOL    HW158435   9.318   5.224   5.724
52803SOL    HW258436   9.304   5.378   5.778
52804SOL     OW58437  10.951   4.832   6.018
52804SOL    HW158438  11.037   4.834   5.966
52804SOL    HW258439  10.965   4.879   6.106
52805SOL     OW58440   9.423   4.461   7.183
52805SOL    HW158441   9.511   4.448   7.228
52805SOL    HW258442   9.410   4.558   7.161
52806SOL     OW58443   9.923   5.089   6.312
52806SOL    HW158444   9.874   5.002   6.321
52806SOL    HW258445   9.900   5.132   6.225
52807SOL     OW58446  10.603   4.952   7.009
52807SOL    HW158447  10.640   4.879   6.951
52807SOL    HW258448  10.655   4.957   7.094
52808SOL     OW58449  10.119   3.728   6.088
52808SOL    HW158450  10.159   3.819   6.079
52808SOL    HW258451  10.019   3.736   6.094
52809SOL     OW58452   9.507   4.700   6.850
52809SOL    HW158453   9.596   4.655   6.836
52809SOL    HW258454   9.434   4.635   6.831
52810SOL     OW58455  10.835   4.723   5.776
52810SOL    HW158456  10.772   4.647   5.789
52810SOL    HW258457  10.883   4.741   5.862
52811SOL     OW58458  10.497   5.516   7.202
52811SOL    HW158459  10.521   5.576   7.126
52811SOL    HW258460  10.504   5.421   7.172
52812SOL     OW58461   9.627   3.975   7.387
52812SOL    HW158462   9.698   4.046   7.393
52812SOL    HW258463   9.539   4.014   7.415
52813SOL     OW58464  10.776   5.141   6.539
52813SOL    HW158465  10.717   5.147   6.619
52813SOL    HW258466  10.761   5.053   6.493
52814SOL     OW58467  10.977   5.438   6.158
52814SOL    HW158468  10.936   5.415   6.070
52814SOL    HW258469  10.959   5.364   6.223
52815SOL     OW58470   9.908   4.453   5.856
52815SOL    HW158471   9.932   4.522   5.788
52815SOL    HW258472   9.830   4.486   5.910
52816SOL     OW58473  10.591   4.069   6.530
52816SOL    HW158474  10.505   4.019   6.517
52816SOL    HW258475  10.653   4.015   6.586
52817SOL     OW58476  10.886   5.386   5.893
52817SOL    HW158477  10.975   5.432   5.896
52817SOL    HW258478  10.865   5.362   5.798
52818SOL     OW58479  10.117   4.329   7.051
52818SOL    HW158480  10.070   4.326   7.140
52818SOL    HW258481  10.066   4.274   6.985
52819SOL     OW58482  10.704   4.193   7.260
52819SOL    HW158483  10.684   4.236   7.348
52819SOL    HW258484  10.782   4.131   7.269
52820SOL     OW58485  10.283   4.614   7.158
52820SOL    HW158486  10.329   4.530   7.129
52820SOL    HW258487  10.227   4.648   7.083
52821SOL     OW58488  10.301   4.134   6.828
52821SOL    HW158489  10.224   4.168   6.882
52821SOL    HW258490  10.267   4.083   6.749
52822SOL     OW58491  10.351   4.425   6.015
52822SOL    HW158492  10.377   4.421   6.111
52822SOL    HW258493  10.266   4.374   6.001
52823SOL     OW58494   9.386   4.535   6.375
52823SOL    HW158495   9.485   4.523   6.384
52823SOL    HW258496   9.362   4.630   6.396
52824SOL     OW58497   9.440   5.545   7.157
52824SOL    HW158498   9.430   5.530   7.256
52824SOL    HW258499   9.354   5.581   7.121
52825SOL     OW58500  10.175   4.072   5.781
52825SOL    HW158501  10.234   4.135   5.732
52825SOL    HW258502  10.194   3.978   5.752
52826SOL     OW58503  11.029   4.309   7.417
52826SOL    HW158504  11.003   4.398   7.381
52826SOL    HW258505  11.027   4.241   7.344
52827SOL     OW58506  10.672   4.868   6.131
52827SOL    HW158507  10.755   4.839   6.083
52827SOL    HW258508  10.623   4.935   6.075
52828SOL     OW58509   9.860   3.920   6.471
52828SOL    HW158510   9.855   3.915   6.571
52828SOL    HW258511   9.862   4.016   6.442
52829SOL     OW58512  10.318   5.180   6.063
52829SOL    HW158513  10.272   5.252   6.011
52829SOL    HW258514  10.314   5.200   6.161
52830SOL     OW58515   9.661   5.525   6.439
52830SOL    HW158516   9.711   5.439   6.445
52830SOL    HW258517   9.726   5.602   6.436
52831SOL     OW58518  11.105   4.790   6.459
52831SOL    HW158519  11.043   4.775   6.383
52831SOL    HW258520  11.053   4.801   6.544
52832SOL     OW58521  10.537   5.274   7.092
52832SOL    HW158522  10.543   5.197   7.156
52832SOL    HW258523  10.485   5.248   7.012
52833SOL     OW58524   9.631   4.667   5.828
52833SOL    HW158525   9.713   4.706   5.786
52833SOL    HW258526   9.604   4.585   5.779
52834SOL     OW58527  10.768   4.459   6.314
52834SOL    HW158528  10.763   4.394   6.389
52834SOL    HW258529  10.848   4.518   6.327
52835SOL     OW58530   9.771   4.990   7.313
52835SOL    HW158531   9.721   4.991   7.227
52835SOL    HW258532   9.708   4.972   7.389
52836SOL     OW58533  10.421   5.500   5.823
52836SOL    HW158534  10.361   5.438   5.873
52836SOL    HW258535  10.452   5.456   5.738
52837SOL     OW58536   9.512   4.009   7.084
52837SOL    HW158537   9.432   4.069   7.071
52837SOL    HW258538   9.502   3.960   7.170
52838SOL     OW58539  10.942   5.101   5.667
52838SOL    HW158540  10.910   5.195   5.657
52838SOL    HW258541  10.866   5.038   5.655
52839SOL     OW58542   9.774   5.467   5.909
52839SOL    HW158543   9.807   5.506   5.995
52839SOL    HW258544   9.850   5.460   5.844
52840SOL     OW58545  10.710   3.831   6.012
52840SOL    HW158546  10.686   3.794   5.922
52840SOL    HW258547  10.809   3.847   6.016
52841SOL     OW58548   9.559   5.509   6.827
52841SOL    HW158549   9.616   5.444   6.877
52841SOL    HW258550   9.543   5.476   6.734
52842SOL     OW58551  10.250   5.422   6.490
52842SOL    HW158552  10.330   5.365   6.511
52842SOL    HW258553  10.201   5.382   6.413
52843SOL     OW58554   9.692   4.424   6.066
52843SOL    HW158555   9.737   4.334   6.063
52843SOL    HW258556   9.598   4.413   6.099
52844SOL     OW58557  10.857   3.946   7.315
52844SOL    HW158558  10.852   3.983   7.407
52844SOL    HW258559  10.785   3.877   7.303
52845SOL     OW58560   9.924   3.846   5.703
52845SOL    HW158561  10.022   3.824   5.710
52845SOL    HW258562   9.893   3.829   5.610
52846SOL     OW58563  10.091   3.988   7.335
52846SOL    HW158564  10.158   3.927   7.378
52846SOL    HW258565  10.018   4.007   7.400
52847SOL     OW58566  10.198   5.238   6.781
52847SOL    HW158567  10.175   5.213   6.687
52847SOL    HW258568  10.259   5.169   6.820
52848SOL     OW58569  10.661   4.314   7.019
52848SOL    HW158570  10.689   4.271   7.104
52848SOL    HW258571  10.686   4.410   7.020
52849SOL     OW58572  10.113   5.126   6.510
52849SOL    HW158573  10.203   5.140   6.468
52849SOL    HW258574  10.042   5.128   6.439
52850SOL     OW58575  10.232   4.227   6.485
52850SOL    HW158576  10.207   4.218   6.389
52850SOL    HW258577  10.280   4.145   6.516
52851SOL     OW58578   9.849   3.788   6.098
52851SOL    HW158579   9.768   3.789   6.156
52851SOL    HW258580   9.852   3.871   6.043
52852SOL     OW58581  10.744   4.912   5.627
52852SOL    HW158582  10.776   4.836   5.684
52852SOL    HW258583  10.652   4.939   5.657
52853SOL     OW58584   9.607   3.759   5.757
52853SOL    HW158585   9.656   3.843   5.736
52853SOL    HW258586   9.669   3.694   5.802
52854SOL     OW58587  10.245   3.960   6.066
52854SOL    HW158588  10.197   4.001   5.988
52854SOL    HW258589  10.344   3.958   6.047
52855SOL     OW58590  10.386   4.407   7.050
52855SOL    HW158591  10.306   4.346   7.053
52855SOL    HW258592  10.467   4.354   7.026
52856SOL     OW58593  10.537   5.294   6.379
52856SOL    HW158594  10.558   5.368   6.314
52856SOL    HW258595  10.605   5.294   6.452
52857SOL     OW58596   9.769   4.876   6.327
52857SOL    HW158597   9.698   4.849   6.392
52857SOL    HW258598   9.743   4.848   6.234
52858SOL     OW58599  10.581   5.521   6.177
52858SOL    HW158600  10.625   5.585   6.113
52858SOL    HW258601  10.531   5.573   6.247
52859SOL     OW58602  10.342   4.273   5.602
52859SOL    HW158603  10.301   4.355   5.563
52859SOL    HW258604  10.406   4.299   5.675
52860SOL     OW58605   9.388   4.280   6.972
52860SOL    HW158606   9.480   4.279   6.931
52860SOL    HW258607   9.382   4.354   7.039
52861SOL     OW58608   9.871   3.946   6.733
52861SOL    HW158609   9.909   3.862   6.770
52861SOL    HW258610   9.783   3.965   6.777
52862SOL     OW58611  10.176   4.178   6.228
52862SOL    HW158612  10.144   4.250   6.166
52862SOL    HW258613  10.200   4.097   6.175
52863SOL     OW58614  10.327   3.763   6.339
52863SOL    HW158615  10.255   3.768   6.270
52863SOL    HW258616  10.303   3.694   6.408
52864SOL     OW58617  10.739   4.897   6.453
52864SOL    HW158618  10.684   4.813   6.446
52864SOL    HW258619  10.765   4.926   6.361
52865SOL     OW58620  10.776   4.314   6.578
52865SOL    HW158621  10.746   4.219   6.585
52865SOL    HW258622  10.849   4.330   6.644
52866SOL     OW58623  11.167   4.557   5.963
52866SOL    HW158624  11.209   4.493   6.027
52866SOL    HW258625  11.129   4.506   5.885
52867SOL     OW58626   9.798   5.109   5.760
52867SOL    HW158627   9.711   5.094   5.807
52867SOL    HW258628   9.781   5.135   5.665
52868SOL     OW58629  10.974   5.004   6.243
52868SOL    HW158630  11.073   5.012   6.257
52868SOL    HW258631  10.929   5.088   6.274
52869SOL     OW58632  10.700   4.299   5.664
52869SOL    HW158633  10.646   4.278   5.745
52869SOL    HW258634  10.791   4.258   5.673
52870SOL     OW58635   9.837   3.980   5.914
52870SOL    HW158636   9.864   3.921   5.839
52870SOL    HW258637   9.837   4.075   5.883
52871SOL     OW58638  11.064   4.947   7.174
52871SOL    HW158639  11.155   4.908   7.161
52871SOL    HW258640  11.072   5.043   7.198
52872SOL     OW58641  10.374   5.071   6.926
52872SOL    HW158642  10.294   5.048   6.981
52872SOL    HW258643  10.457   5.045   6.975
52873SOL     OW58644  10.902   5.353   7.211
52873SOL    HW158645  10.929   5.387   7.121
52873SOL    HW258646  10.981   5.315   7.257
52874SOL     OW58647  10.421   4.919   6.686
52874SOL    HW158648  10.381   4.963   6.767
52874SOL    HW258649  10.380   4.956   6.603
52875SOL     OW58650  10.948   4.823   6.665
52875SOL    HW158651  10.953   4.904   6.724
52875SOL    HW258652  10.862   4.825   6.614
52876SOL     OW58653  10.225   3.813   6.988
52876SOL    HW158654  10.250   3.793   6.893
52876SOL    HW258655  10.297   3.869   7.030
52877SOL     OW58656  10.290   4.840   7.305
52877SOL    HW158657  10.191   4.846   7.315
52877SOL    HW258658  10.313   4.760   7.249
52878SOL     OW58659  10.015   4.774   5.954
52878SOL    HW158660  10.001   4.781   6.053
52878SOL    HW258661  10.099   4.723   5.936
52879SOL     OW58662   9.720   4.537   6.837
52879SOL    HW158663   9.806   4.549   6.887
52879SOL    HW258664   9.678   4.450   6.864
52880SOL     OW58665  10.584   4.110   6.848
52880SOL    HW158666  10.605   4.184   6.912
52880SOL    HW258667  10.495   4.127   6.805
52881SOL     OW58668   9.374   5.288   6.917
52881SOL    HW158669   9.328   5.370   6.883
52881SOL    HW258670   9.472   5.307   6.926
52882SOL     OW58671   9.677   4.824   6.087
52882SOL    HW158672   9.670   4.907   6.031
52882SOL    HW258673   9.681   4.744   6.027
52883SOL     OW58674   9.876   4.261   6.451
52883SOL    HW158675   9.888   4.327   6.377
52883SOL    HW258676   9.922   4.295   6.534
52884SOL     OW58677  10.562   5.072   5.974
52884SOL    HW158678  10.612   5.149   6.014
52884SOL    HW258679  10.467   5.074   6.006
52885SOL     OW58680  10.582   5.169   6.728
52885SOL    HW158681  10.629   5.182   6.815
52885SOL    HW258682  10.516   5.095   6.737
52886SOL     OW58683  10.892   4.363   6.058
52886SOL    HW158684  10.861   4.424   6.131
52886SOL    HW258685  10.942   4.415   5.989
52887SOL     OW58686   9.664   5.234   6.915
52887SOL    HW158687   9.643   5.190   6.828
52887SOL    HW258688   9.761   5.260   6.918
52888SOL     OW58689   9.712   4.475   7.184
52888SOL    HW158690   9.780   4.530   7.137
52888SOL    HW258691   9.752   4.387   7.211
52889SOL     OW58692  10.897   4.503   7.256
52889SOL    HW158693  10.805   4.541   7.251
52889SOL    HW258694  10.957   4.550   7.191
52890SOL     OW58695  10.323   3.829   7.356
52890SOL    HW158696  10.329   3.914   7.304
52890SOL    HW258697  10.355   3.753   7.299
52891SOL     OW58698   9.814   3.774   7.326
52891SOL    HW158699   9.772   3.717   7.256
52891SOL    HW258700   9.748   3.843   7.358
52892SOL     OW58701   9.883   4.594   6.615
52892SOL    HW158702   9.927   4.683   6.606
52892SOL    HW258703   9.820   4.594   6.692
52893SOL     OW58704  10.670   4.586   6.631
52893SOL    HW158705  10.595   4.586   6.565
52893SOL    HW258706  10.707   4.494   6.640
52894SOL     OW58707  10.519   4.249   5.861
52894SOL    HW158708  10.532   4.165   5.915
52894SOL    HW258709  10.490   4.323   5.921
52895SOL     OW58710   9.617   3.937   6.817
52895SOL    HW158711   9.594   3.974   6.907
52895SOL    HW258712   9.587   3.842   6.811
52896SOL     OW58713   9.347   5.034   6.868
52896SOL    HW158714   9.400   4.985   6.936
52896SOL    HW258715   9.369   5.132   6.873
52897SOL     OW58716  10.042   4.358   6.650
52897SOL    HW158717  10.101   4.332   6.574
52897SOL    HW258718  10.014   4.454   6.639
52898SOL     OW58719  11.038   4.659   7.440
52898SOL    HW158720  10.992   4.652   7.351
52898SOL    HW258721  10.976   4.703   7.506
52899SOL     OW58722   9.617   3.787   6.204
52899SOL    HW158723   9.606   3.881   6.237
52899SOL    HW258724   9.612   3.724   6.281
52900SOL     OW58725  10.932   4.091   5.960
52900SOL    HW158726  10.934   4.015   6.024
52900SOL    HW258727  10.884   4.168   6.000
52901SOL     OW58728  10.333   4.490   6.552
52901SOL    HW158729  10.348   4.511   6.648
52901SOL    HW258730  10.303   4.395   6.543
52902SOL     OW58731  11.169   5.242   7.191
52902SOL    HW158732  11.183   5.269   7.096
52902SOL    HW258733  11.252   5.264   7.244
52903SOL     OW58734   9.660   4.622   7.390
52903SOL    HW158735   9.736   4.666   7.438
52903SOL    HW258736   9.695   4.575   7.308
52904SOL     OW58737  10.850   3.998   5.711
52904SOL    HW158738  10.789   3.923   5.734
52904SOL    HW258739  10.872   4.050   5.794
52905SOL     OW58740  10.613   4.562   5.628
52905SOL    HW158741  10.647   4.469   5.643
52905SOL    HW258742  10.631   4.589   5.533
52906SOL     OW58743  10.378   5.057   6.435
52906SOL    HW158744  10.385   4.973   6.380
52906SOL    HW258745  10.440   5.126   6.399
52907SOL     OW58746   9.629   4.534   6.535
52907SOL    HW158747   9.722   4.570   6.540
52907SOL    HW258748   9.623   4.449   6.587
52908SOL     OW58749   9.649   4.233   6.592
52908SOL    HW158750   9.597   4.150   6.575
52908SOL    HW258751   9.726   4.238   6.528
52909SOL     OW58752  10.448   4.104   7.264
52909SOL    HW158753  10.403   4.167   7.328
52909SOL    HW258754  10.541   4.135   7.247
52910SOL     OW58755  10.470   3.931   7.063
52910SOL    HW158756  10.470   3.995   7.140
52910SOL    HW258757  10.498   3.979   6.980
52911SOL     OW58758   9.318   5.050   5.786
52911SOL    HW158759   9.225   5.071   5.755
52911SOL    HW258760   9.328   4.951   5.799
52912SOL     OW58761   9.398   5.525   6.513
52912SOL    HW158762   9.356   5.439   6.486
52912SOL    HW258763   9.492   5.528   6.479
52913SOL     OW58764   9.814   5.292   6.496
52913SOL    HW158765   9.880   5.366   6.505
52913SOL    HW258766   9.858   5.213   6.454
52914SOL     OW58767  10.312   4.520   6.824
52914SOL    HW158768  10.353   4.488   6.910
52914SOL    HW258769  10.216   4.493   6.821
52915SOL     OW58770   9.350   4.268   6.700
52915SOL    HW158771   9.435   4.235   6.659
52915SOL    HW258772   9.363   4.283   6.798
52916SOL     OW58773   9.499   4.244   7.308
52916SOL    HW158774   9.558   4.204   7.238
52916SOL    HW258775   9.441   4.315   7.267
52917SOL     OW58776  10.679   4.674   7.246
52917SOL    HW158777  10.718   4.763   7.266
52917SOL    HW258778  10.689   4.654   7.149
52918SOL     OW58779  10.125   4.296   5.911
52918SOL    HW158780  10.132   4.207   5.865
52918SOL    HW258781  10.031   4.330   5.903
52919SOL     OW58782  10.967   4.328   6.792
52919SOL    HW158783  10.929   4.259   6.854
52919SOL    HW258784  11.049   4.292   6.748
52920SOL     OW58785   9.562   5.288   7.330
52920SOL    HW158786   9.532   5.345   7.406
52920SOL    HW258787   9.555   5.191   7.356
52921SOL     OW58788   9.981   4.188   6.855
52921SOL    HW158789   9.947   4.099   6.825
52921SOL    HW258790  10.007   4.242   6.775
52922SOL     OW58791  10.240   5.402   7.051
52922SOL    HW158792  10.216   5.384   6.956
52922SOL    HW258793  10.270   5.496   7.061
52923SOL     OW58794   9.783   4.224   5.777
52923SOL    HW158795   9.844   4.304   5.781
52923SOL    HW258796   9.688   4.255   5.784
52924SOL     OW58797   9.469   4.861   7.052
52924SOL    HW158798   9.491   4.800   7.128
52924SOL    HW258799   9.479   4.812   6.966
52925SOL     OW58800  10.657   4.783   6.820
52925SOL    HW158801  10.681   4.720   6.746
52925SOL    HW258802  10.567   4.823   6.802
52926SOL     OW58803  10.612   4.579   5.895
52926SOL    HW158804  10.526   4.548   5.937
52926SOL    HW258805  10.608   4.565   5.796
52927SOL     OW58806  11.069   5.471   6.740
52927SOL    HW158807  11.130   5.501   6.667
52927SOL    HW258808  11.031   5.382   6.718
52928SOL     OW58809  10.562   5.455   6.714
52928SOL    HW158810  10.646   5.460   6.660
52928SOL    HW258811  10.539   5.359   6.732
52929SOL     OW58812   9.393   4.982   6.608
52929SOL    HW158813   9.388   4.981   6.708
52929SOL    HW258814   9.310   4.941   6.570
52930SOL     OW58815   9.998   5.386   7.302
52930SOL    HW158816   9.942   5.467   7.311
52930SOL    HW258817  10.050   5.390   7.216
52931SOL     OW58818  11.036   3.859   6.109
52931SOL    HW158819  11.109   3.842   6.042
52931SOL    HW258820  11.005   3.772   6.147
52932SOL     OW58821  10.698   5.297   6.063
52932SOL    HW158822  10.765   5.309   5.989
52932SOL    HW258823  10.658   5.386   6.086
52933SOL     OW58824   9.440   5.518   7.437
52933SOL    HW158825   9.399   5.444   7.490
52933SOL    HW258826   9.504   5.569   7.495
52934SOL     OW58827  10.590   4.651   6.258
52934SOL    HW158828  10.650   4.570   6.260
52934SOL    HW258829  10.630   4.720   6.198
52935SOL     OW58830  10.140   4.997   7.008
52935SOL    HW158831  10.135   5.030   7.103
52935SOL    HW258832  10.054   5.016   6.962
52936SOL     OW58833   9.982   5.340   5.740
52936SOL    HW158834   9.991   5.350   5.641
52936SOL    HW258835   9.942   5.251   5.761
52937SOL     OW58836  10.960   5.444   6.980
52937SOL    HW158837  11.013   5.454   6.896
52937SOL    HW258838  10.933   5.534   7.014
52938SOL     OW58839  11.151   3.899   6.549
52938SOL    HW158840  11.190   3.814   6.513
52938SOL    HW258841  11.053   3.901   6.530
52939SOL     OW58842   9.573   4.050   6.306
52939SOL    HW158843   9.494   4.101   6.272
52939SOL    HW258844   9.564   4.035   6.404
52940SOL     OW58845  10.504   5.336   5.617
52940SOL    HW158846  10.510   5.243   5.654
52940SOL    HW258847  10.445   5.336   5.537
52941SOL     OW58848  10.132   4.726   6.958
52941SOL    HW158849  10.172   4.725   6.866
52941SOL    HW258850  10.142   4.818   6.998
52942SOL     OW58851  10.226   4.634   5.877
52942SOL    HW158852  10.289   4.672   5.809
52942SOL    HW258853  10.266   4.551   5.916
52943SOL     OW58854  10.814   5.331   5.630
52943SOL    HW158855  10.722   5.368   5.637
52943SOL    HW258856  10.852   5.351   5.540
52944SOL     OW58857   9.682   5.012   7.076
52944SOL    HW158858   9.669   5.105   7.042
52944SOL    HW258859   9.598   4.960   7.063
52945SOL     OW58860  10.924   5.016   6.875
52945SOL    HW158861  10.984   5.019   6.955
52945SOL    HW258862  10.849   5.080   6.888
52946SOL     OW58863  10.349   4.822   6.282
52946SOL    HW158864  10.279   4.775   6.336
52946SOL    HW258865  10.408   4.754   6.239
52947SOL     OW58866  10.324   3.960   6.557
52947SOL    HW158867  10.316   3.924   6.464
52947SOL    HW258868  10.322   3.884   6.622
52948SOL     OW58869   9.900   5.211   6.077
52948SOL    HW158870   9.942   5.153   6.007
52948SOL    HW258871   9.856   5.290   6.033
52949SOL     OW58872  11.019   4.109   6.967
52949SOL    HW158873  11.092   4.178   6.971
52949SOL    HW258874  11.047   4.034   6.908
52950SOL     OW58875   9.565   5.072   5.876
52950SOL    HW158876   9.469   5.073   5.849
52950SOL    HW258877   9.577   5.125   5.960
52951SOL     OW58878   9.415   4.737   7.312
52951SOL    HW158879   9.338   4.704   7.366
52951SOL    HW258880   9.500   4.707   7.354
52952SOL     OW58881   9.982   3.927   7.075
52952SOL    HW158882  10.072   3.911   7.035
52952SOL    HW258883   9.990   3.932   7.174
52953SOL     OW58884   9.385   4.069   5.619
52953SOL    HW158885   9.293   4.041   5.590
52953SOL    HW258886   9.416   4.146   5.563
52954SOL     OW58887  10.750   4.580   6.984
52954SOL    HW158888  10.693   4.632   6.921
52954SOL    HW258889  10.846   4.592   6.960
52955SOL     OW58890   9.382   3.890   5.904
52955SOL    HW158891   9.365   3.973   5.850
52955SOL    HW258892   9.472   3.853   5.882
52956SOL     OW58893  10.493   5.059   5.705
52956SOL    HW158894  10.394   5.048   5.707
52956SOL    HW258895  10.527   5.074   5.798
52957SOL     OW58896   9.923   4.566   7.017
52957SOL    HW158897   9.979   4.647   7.000
52957SOL    HW258898   9.982   4.486   7.020
52958SOL     OW58899  10.803   5.491   6.545
52958SOL    HW158900  10.836   5.555   6.476
52958SOL    HW258901  10.869   5.485   6.620
52959SOL     OW58902  10.026   4.289   7.294
52959SOL    HW158903  10.045   4.354   7.368
52959SOL    HW258904  10.086   4.209   7.303
52960SOL     OW58905  10.760   4.944   7.219
52960SOL    HW158906  10.751   4.934   7.318
52960SOL    HW258907  10.856   4.937   7.193
52961SOL     OW58908   9.700   5.465   7.146
52961SOL    HW158909   9.609   5.506   7.144
52961SOL    HW258910   9.693   5.371   7.178
52962SOL     OW58911  10.984   4.607   6.840
52962SOL    HW158912  10.957   4.518   6.803
52962SOL    HW258913  10.985   4.675   6.767
52963SOL     OW58914  10.535   4.049   6.035
52963SOL    HW158915  10.600   3.975   6.024
52963SOL    HW258916  10.555   4.099   6.119
52964SOL     OW58917   9.904   4.469   6.238
52964SOL    HW158918   9.954   4.554   6.219
52964SOL    HW258919   9.816   4.471   6.190
52965SOL     OW58920  11.087   4.066   7.228
52965SOL    HW158921  11.070   4.097   7.134
52965SOL    HW258922  11.003   4.029   7.266
52966SOL     OW58923  11.040   4.658   7.103
52966SOL    HW158924  11.078   4.749   7.118
52966SOL    HW258925  11.032   4.641   7.004
52967SOL     OW58926  10.169   5.098   5.602
52967SOL    HW158927  10.123   5.113   5.690
52967SOL    HW258928  10.213   5.183   5.572
52968SOL     OW58929   9.971   5.514   6.539
52968SOL    HW158930   9.925   5.602   6.526
52968SOL    HW258931  10.070   5.526   6.532
52969SOL     OW58932  10.169   4.680   6.447
52969SOL    HW158933  10.223   4.611   6.495
52969SOL    HW258934  10.137   4.749   6.513
52970SOL     OW58935  10.393   4.708   5.673
52970SOL    HW158936  10.370   4.761   5.591
52970SOL    HW258937  10.474   4.652   5.654
52971SOL     OW58938  11.171   5.293   6.437
52971SOL    HW158939  11.100   5.281   6.367
52971SOL    HW258940  11.172   5.214   6.497
52972SOL     OW58941   9.531   5.038   7.430
52972SOL    HW158942   9.466   4.965   7.409
52972SOL    HW258943   9.535   5.052   7.528
52973SOL     OW58944   9.389   4.964   6.239
52973SOL    HW158945   9.388   4.917   6.327
52973SOL    HW258946   9.471   4.936   6.188
52974SOL     OW58947   9.982   5.115   7.210
52974SOL    HW158948   9.904   5.065   7.248
52974SOL    HW258949   9.979   5.210   7.241
52975SOL     OW58950  11.134   3.916   6.813
52975SOL    HW158951  11.130   3.826   6.857
52975SOL    HW258952  11.137   3.905   6.714
52976SOL     OW58953   9.738   4.148   6.106
52976SOL    HW158954   9.768   4.076   6.044
52976SOL    HW258955   9.699   4.108   6.189
52977SOL     OW58956  11.015   5.211   6.690
52977SOL    HW158957  10.922   5.186   6.663
52977SOL    HW258958  11.041   5.161   6.772
52978SOL     OW58959   9.627   4.271   6.866
52978SOL    HW158960   9.665   4.212   6.938
52978SOL    HW258961   9.667   4.245   6.778
52979SOL     OW58962  10.122   5.310   6.273
52979SOL    HW158963  10.154   5.320   6.179
52979SOL    HW258964  10.043   5.248   6.275
52980SOL     OW58965  10.734   3.938   6.698
52980SOL    HW158966  10.786   3.873   6.753
52980SOL    HW258967  10.685   4.001   6.759
52981SOL     OW58968  10.311   3.758   6.740
52981SOL    HW158969  10.248   3.686   6.709
52981SOL    HW258970  10.404   3.722   6.740
52982SOL     OW58971  10.080   5.054   5.887
52982SOL    HW158972  10.034   4.967   5.904
52982SOL    HW258973  10.171   5.051   5.928
52983SOL     OW58974   9.928   5.291   6.870
52983SOL    HW158975   9.923   5.373   6.927
52983SOL    HW258976  10.017   5.288   6.825
52984SOL     OW58977  10.662   3.776   5.754
52984SOL    HW158978  10.697   3.735   5.670
52984SOL    HW258979  10.572   3.738   5.774
52985SOL     OW58980  10.610   4.177   6.277
52985SOL    HW158981  10.551   4.257   6.281
52985SOL    HW258982  10.625   4.142   6.370
52986SOL     OW58983  10.903   3.945   6.468
52986SOL    HW158984  10.819   3.944   6.522
52986SOL    HW258985  10.905   4.028   6.412
52987SOL     OW58986   9.349   4.801   5.886
52987SOL    HW158987   9.448   4.790   5.877
52987SOL    HW258988   9.309   4.715   5.918
52988SOL     OW58989  10.185   5.370   5.923
52988SOL    HW158990  10.108   5.335   5.869
52988SOL    HW258991  10.153   5.441   5.985
52989SOL     OW58992   9.540   4.352   7.561
52989SOL    HW158993   9.447   4.350   7.598
52989SOL    HW258994   9.541   4.313   7.469
52990SOL     OW58995   9.535   3.999   8.444
52990SOL    HW158996   9.570   3.982   8.536
52990SOL    HW258997   9.447   3.954   8.432
52991SOL     OW58998   9.329   4.092   8.095
52991SOL    HW158999   9.247   4.135   8.134
52991SOL    HW259000   9.301   4.019   8.032
52992SOL     OW59001   9.879   4.999   8.613
52992SOL    HW159002   9.786   4.992   8.576
52992SOL    HW259003   9.890   5.088   8.657
52993SOL     OW59004  10.865   5.235   8.151
52993SOL    HW159005  10.808   5.219   8.232
52993SOL    HW259006  10.806   5.245   8.071
52994SOL     OW59007  10.445   4.427   8.165
52994SOL    HW159008  10.502   4.505   8.140
52994SOL    HW259009  10.385   4.453   8.241
52995SOL     OW59010  11.065   4.331   7.679
52995SOL    HW159011  11.053   4.318   7.580
52995SOL    HW259012  11.035   4.250   7.728
52996SOL     OW59013  10.078   4.868   8.471
52996SOL    HW159014  10.000   4.885   8.531
52996SOL    HW259015  10.112   4.955   8.435
52997SOL     OW59016  10.160   4.522   9.271
52997SOL    HW159017  10.156   4.598   9.336
52997SOL    HW259018  10.182   4.558   9.180
52998SOL     OW59019   9.995   4.736   8.113
52998SOL    HW159020  10.064   4.720   8.183
52998SOL    HW259021   9.922   4.793   8.151
52999SOL     OW59022   9.996   4.885   9.251
52999SOL    HW159023  10.056   4.964   9.265
52999SOL    HW259024   9.910   4.916   9.210
53000SOL     OW59025   9.645   5.159   8.509
53000SOL    HW159026   9.567   5.128   8.456
53000SOL    HW259027   9.703   5.217   8.452
53001SOL     OW59028  10.770   5.229   8.787
53001SOL    HW159029  10.794   5.323   8.813
53001SOL    HW259030  10.754   5.175   8.869
53002SOL     OW59031   9.748   4.116   8.947
53002SOL    HW159032   9.830   4.060   8.956
53002SOL    HW259033   9.667   4.058   8.951
53003SOL     OW59034  10.913   4.171   8.185
53003SOL    HW159035  10.839   4.217   8.135
53003SOL    HW259036  10.964   4.239   8.238
53004SOL     OW59037   9.541   5.437   7.931
53004SOL    HW159038   9.575   5.514   7.985
53004SOL    HW259039   9.585   5.437   7.841
53005SOL     OW59040  10.437   5.065   9.138
53005SOL    HW159041  10.484   5.065   9.226
53005SOL    HW259042  10.389   4.978   9.127
53006SOL     OW59043   9.540   5.158   7.986
53006SOL    HW159044   9.514   5.254   7.986
53006SOL    HW259045   9.469   5.104   8.031
53007SOL     OW59046   9.550   4.815   8.334
53007SOL    HW159047   9.564   4.731   8.386
53007SOL    HW259048   9.495   4.879   8.389
53008SOL     OW59049   9.930   5.510   8.887
53008SOL    HW159050   9.838   5.493   8.922
53008SOL    HW259051   9.958   5.602   8.913
53009SOL     OW59052   9.916   4.688   7.571
53009SOL    HW159053   9.923   4.772   7.517
53009SOL    HW259054   9.962   4.701   7.659
53010SOL     OW59055  10.904   3.838   8.928
53010SOL    HW159056  10.886   3.905   8.856
53010SOL    HW259057  10.901   3.884   9.017
53011SOL     OW59058   9.432   4.367   8.011
53011SOL    HW159059   9.387   4.279   8.028
53011SOL    HW259060   9.431   4.421   8.095
53012SOL     OW59061  11.152   5.491   7.807
53012SOL    HW159062  11.206   5.462   7.887
53012SOL    HW259063  11.182   5.581   7.778
53013SOL     OW59064   9.337   5.320   7.565
53013SOL    HW159065   9.318   5.224   7.586
53013SOL    HW259066   9.304   5.378   7.640
53014SOL     OW59067  10.999   4.646   8.060
53014SOL    HW159068  11.094   4.617   8.068
53014SOL    HW259069  10.991   4.711   7.985
53015SOL     OW59070  10.951   4.832   7.880
53015SOL    HW159071  11.037   4.834   7.828
53015SOL    HW259072  10.965   4.879   7.968
53016SOL     OW59073   9.423   4.461   9.045
53016SOL    HW159074   9.511   4.448   9.090
53016SOL    HW259075   9.410   4.558   9.023
53017SOL     OW59076   9.923   5.089   8.174
53017SOL    HW159077   9.874   5.002   8.183
53017SOL    HW259078   9.900   5.132   8.087
53018SOL     OW59079  10.603   4.952   8.871
53018SOL    HW159080  10.640   4.879   8.813
53018SOL    HW259081  10.655   4.957   8.956
53019SOL     OW59082  10.119   3.728   7.950
53019SOL    HW159083  10.159   3.819   7.941
53019SOL    HW259084  10.019   3.736   7.956
53020SOL     OW59085   9.507   4.700   8.712
53020SOL    HW159086   9.596   4.655   8.698
53020SOL    HW259087   9.434   4.635   8.693
53021SOL     OW59088  10.835   4.723   7.638
53021SOL    HW159089  10.772   4.647   7.651
53021SOL    HW259090  10.883   4.741   7.724
53022SOL     OW59091  10.497   5.516   9.064
53022SOL    HW159092  10.521   5.576   8.988
53022SOL    HW259093  10.504   5.421   9.034
53023SOL     OW59094   9.627   3.975   9.249
53023SOL    HW159095   9.698   4.046   9.255
53023SOL    HW259096   9.539   4.014   9.277
53024SOL     OW59097  10.776   5.141   8.401
53024SOL    HW159098  10.717   5.147   8.481
53024SOL    HW259099  10.761   5.053   8.355
53025SOL     OW59100  10.977   5.438   8.020
53025SOL    HW159101  10.936   5.415   7.932
53025SOL    HW259102  10.959   5.364   8.085
53026SOL     OW59103   9.908   4.453   7.718
53026SOL    HW159104   9.932   4.522   7.650
53026SOL    HW259105   9.830   4.486   7.772
53027SOL     OW59106  10.591   4.069   8.392
53027SOL    HW159107  10.505   4.019   8.379
53027SOL    HW259108  10.653   4.015   8.448
53028SOL     OW59109  10.886   5.386   7.755
53028SOL    HW159110  10.975   5.432   7.758
53028SOL    HW259111  10.865   5.362   7.660
53029SOL     OW59112  10.117   4.329   8.913
53029SOL    HW159113  10.070   4.326   9.002
53029SOL    HW259114  10.066   4.274   8.847
53030SOL     OW59115  10.704   4.193   9.122
53030SOL    HW159116  10.684   4.236   9.210
53030SOL    HW259117  10.782   4.131   9.131
53031SOL     OW59118  10.283   4.614   9.020
53031SOL    HW159119  10.329   4.530   8.991
53031SOL    HW259120  10.227   4.648   8.945
53032SOL     OW59121  10.301   4.134   8.690
53032SOL    HW159122  10.224   4.168   8.744
53032SOL    HW259123  10.267   4.083   8.611
53033SOL     OW59124  10.351   4.425   7.877
53033SOL    HW159125  10.377   4.421   7.973
53033SOL    HW259126  10.266   4.374   7.863
53034SOL     OW59127   9.386   4.535   8.237
53034SOL    HW159128   9.485   4.523   8.246
53034SOL    HW259129   9.362   4.630   8.258
53035SOL     OW59130   9.440   5.545   9.019
53035SOL    HW159131   9.430   5.530   9.118
53035SOL    HW259132   9.354   5.581   8.983
53036SOL     OW59133  10.175   4.072   7.643
53036SOL    HW159134  10.234   4.135   7.594
53036SOL    HW259135  10.194   3.978   7.614
53037SOL     OW59136  11.029   4.309   9.279
53037SOL    HW159137  11.003   4.398   9.243
53037SOL    HW259138  11.027   4.241   9.206
53038SOL     OW59139  10.672   4.868   7.993
53038SOL    HW159140  10.755   4.839   7.945
53038SOL    HW259141  10.623   4.935   7.937
53039SOL     OW59142   9.860   3.920   8.333
53039SOL    HW159143   9.855   3.915   8.433
53039SOL    HW259144   9.862   4.016   8.304
53040SOL     OW59145  10.318   5.180   7.925
53040SOL    HW159146  10.272   5.252   7.873
53040SOL    HW259147  10.314   5.200   8.023
53041SOL     OW59148   9.661   5.525   8.301
53041SOL    HW159149   9.711   5.439   8.307
53041SOL    HW259150   9.726   5.602   8.298
53042SOL     OW59151  11.105   4.790   8.321
53042SOL    HW159152  11.043   4.775   8.245
53042SOL    HW259153  11.053   4.801   8.406
53043SOL     OW59154  10.537   5.274   8.954
53043SOL    HW159155  10.543   5.197   9.018
53043SOL    HW259156  10.485   5.248   8.874
53044SOL     OW59157   9.631   4.667   7.690
53044SOL    HW159158   9.713   4.706   7.648
53044SOL    HW259159   9.604   4.585   7.641
53045SOL     OW59160  10.768   4.459   8.176
53045SOL    HW159161  10.763   4.394   8.251
53045SOL    HW259162  10.848   4.518   8.189
53046SOL     OW59163   9.771   4.990   9.175
53046SOL    HW159164   9.721   4.991   9.089
53046SOL    HW259165   9.708   4.972   9.251
53047SOL     OW59166  10.421   5.500   7.685
53047SOL    HW159167  10.361   5.438   7.735
53047SOL    HW259168  10.452   5.456   7.600
53048SOL     OW59169   9.512   4.009   8.946
53048SOL    HW159170   9.432   4.069   8.933
53048SOL    HW259171   9.502   3.960   9.032
53049SOL     OW59172  10.942   5.101   7.529
53049SOL    HW159173  10.910   5.195   7.519
53049SOL    HW259174  10.866   5.038   7.517
53050SOL     OW59175   9.774   5.467   7.771
53050SOL    HW159176   9.807   5.506   7.857
53050SOL    HW259177   9.850   5.460   7.706
53051SOL     OW59178  10.710   3.831   7.874
53051SOL    HW159179  10.686   3.794   7.784
53051SOL    HW259180  10.809   3.847   7.878
53052SOL     OW59181   9.559   5.509   8.689
53052SOL    HW159182   9.616   5.444   8.739
53052SOL    HW259183   9.543   5.476   8.596
53053SOL     OW59184  10.250   5.422   8.352
53053SOL    HW159185  10.330   5.365   8.373
53053SOL    HW259186  10.201   5.382   8.275
53054SOL     OW59187   9.692   4.424   7.928
53054SOL    HW159188   9.737   4.334   7.925
53054SOL    HW259189   9.598   4.413   7.961
53055SOL     OW59190  10.857   3.946   9.177
53055SOL    HW159191  10.852   3.983   9.269
53055SOL    HW259192  10.785   3.877   9.165
53056SOL     OW59193   9.924   3.846   7.565
53056SOL    HW159194  10.022   3.824   7.572
53056SOL    HW259195   9.893   3.829   7.472
53057SOL     OW59196  10.091   3.988   9.197
53057SOL    HW159197  10.158   3.927   9.240
53057SOL    HW259198  10.018   4.007   9.262
53058SOL     OW59199  10.198   5.238   8.643
53058SOL    HW159200  10.175   5.213   8.549
53058SOL    HW259201  10.259   5.169   8.682
53059SOL     OW59202  10.661   4.314   8.881
53059SOL    HW159203  10.689   4.271   8.966
53059SOL    HW259204  10.686   4.410   8.882
53060SOL     OW59205  10.113   5.126   8.372
53060SOL    HW159206  10.203   5.140   8.330
53060SOL    HW259207  10.042   5.128   8.301
53061SOL     OW59208  10.232   4.227   8.347
53061SOL    HW159209  10.207   4.218   8.251
53061SOL    HW259210  10.280   4.145   8.378
53062SOL     OW59211   9.849   3.788   7.960
53062SOL    HW159212   9.768   3.789   8.018
53062SOL    HW259213   9.852   3.871   7.905
53063SOL     OW59214  10.744   4.912   7.489
53063SOL    HW159215  10.776   4.836   7.546
53063SOL    HW259216  10.652   4.939   7.519
53064SOL     OW59217   9.607   3.759   7.619
53064SOL    HW159218   9.656   3.843   7.598
53064SOL    HW259219   9.669   3.694   7.664
53065SOL     OW59220  10.245   3.960   7.928
53065SOL    HW159221  10.197   4.001   7.850
53065SOL    HW259222  10.344   3.958   7.909
53066SOL     OW59223  10.386   4.407   8.912
53066SOL    HW159224  10.306   4.346   8.915
53066SOL    HW259225  10.467   4.354   8.888
53067SOL     OW59226  10.537   5.294   8.241
53067SOL    HW159227  10.558   5.368   8.176
53067SOL    HW259228  10.605   5.294   8.314
53068SOL     OW59229   9.769   4.876   8.189
53068SOL    HW159230   9.698   4.849   8.254
53068SOL    HW259231   9.743   4.848   8.096
53069SOL     OW59232  10.581   5.521   8.039
53069SOL    HW159233  10.625   5.585   7.975
53069SOL    HW259234  10.531   5.573   8.109
53070SOL     OW59235  10.342   4.273   7.464
53070SOL    HW159236  10.301   4.355   7.425
53070SOL    HW259237  10.406   4.299   7.537
53071SOL     OW59238   9.388   4.280   8.834
53071SOL    HW159239   9.480   4.279   8.793
53071SOL    HW259240   9.382   4.354   8.901
53072SOL     OW59241   9.871   3.946   8.595
53072SOL    HW159242   9.909   3.862   8.632
53072SOL    HW259243   9.783   3.965   8.639
53073SOL     OW59244  10.176   4.178   8.090
53073SOL    HW159245  10.144   4.250   8.028
53073SOL    HW259246  10.200   4.097   8.037
53074SOL     OW59247  10.327   3.763   8.201
53074SOL    HW159248  10.255   3.768   8.132
53074SOL    HW259249  10.303   3.694   8.270
53075SOL     OW59250  10.739   4.897   8.315
53075SOL    HW159251  10.684   4.813   8.308
53075SOL    HW259252  10.765   4.926   8.223
53076SOL     OW59253  10.776   4.314   8.440
53076SOL    HW159254  10.746   4.219   8.447
53076SOL    HW259255  10.849   4.330   8.506
53077SOL     OW59256  11.167   4.557   7.825
53077SOL    HW159257  11.209   4.493   7.889
53077SOL    HW259258  11.129   4.506   7.747
53078SOL     OW59259   9.798   5.109   7.622
53078SOL    HW159260   9.711   5.094   7.669
53078SOL    HW259261   9.781   5.135   7.527
53079SOL     OW59262  10.974   5.004   8.105
53079SOL    HW159263  11.073   5.012   8.119
53079SOL    HW259264  10.929   5.088   8.136
53080SOL     OW59265  10.700   4.299   7.526
53080SOL    HW159266  10.646   4.278   7.607
53080SOL    HW259267  10.791   4.258   7.535
53081SOL     OW59268   9.837   3.980   7.776
53081SOL    HW159269   9.864   3.921   7.701
53081SOL    HW259270   9.837   4.075   7.745
53082SOL     OW59271  11.064   4.947   9.036
53082SOL    HW159272  11.155   4.908   9.023
53082SOL    HW259273  11.072   5.043   9.060
53083SOL     OW59274  10.374   5.071   8.788
53083SOL    HW159275  10.294   5.048   8.843
53083SOL    HW259276  10.457   5.045   8.837
53084SOL     OW59277  10.902   5.353   9.073
53084SOL    HW159278  10.929   5.387   8.983
53084SOL    HW259279  10.981   5.315   9.119
53085SOL     OW59280  10.421   4.919   8.548
53085SOL    HW159281  10.381   4.963   8.629
53085SOL    HW259282  10.380   4.956   8.465
53086SOL     OW59283  10.948   4.823   8.527
53086SOL    HW159284  10.953   4.904   8.586
53086SOL    HW259285  10.862   4.825   8.476
53087SOL     OW59286  10.225   3.813   8.850
53087SOL    HW159287  10.250   3.793   8.755
53087SOL    HW259288  10.297   3.869   8.892
53088SOL     OW59289  10.290   4.840   9.167
53088SOL    HW159290  10.191   4.846   9.177
53088SOL    HW259291  10.313   4.760   9.111
53089SOL     OW59292  10.015   4.774   7.816
53089SOL    HW159293  10.001   4.781   7.915
53089SOL    HW259294  10.099   4.723   7.798
53090SOL     OW59295   9.720   4.537   8.699
53090SOL    HW159296   9.806   4.549   8.749
53090SOL    HW259297   9.678   4.450   8.726
53091SOL     OW59298  10.584   4.110   8.710
53091SOL    HW159299  10.605   4.184   8.774
53091SOL    HW259300  10.495   4.127   8.667
53092SOL     OW59301   9.374   5.288   8.779
53092SOL    HW159302   9.328   5.370   8.745
53092SOL    HW259303   9.472   5.307   8.788
53093SOL     OW59304   9.677   4.824   7.949
53093SOL    HW159305   9.670   4.907   7.893
53093SOL    HW259306   9.681   4.744   7.889
53094SOL     OW59307   9.876   4.261   8.313
53094SOL    HW159308   9.888   4.327   8.239
53094SOL    HW259309   9.922   4.295   8.396
53095SOL     OW59310  10.562   5.072   7.836
53095SOL    HW159311  10.612   5.149   7.876
53095SOL    HW259312  10.467   5.074   7.868
53096SOL     OW59313  10.582   5.169   8.590
53096SOL    HW159314  10.629   5.182   8.677
53096SOL    HW259315  10.516   5.095   8.599
53097SOL     OW59316  10.892   4.363   7.920
53097SOL    HW159317  10.861   4.424   7.993
53097SOL    HW259318  10.942   4.415   7.851
53098SOL     OW59319   9.664   5.234   8.777
53098SOL    HW159320   9.643   5.190   8.690
53098SOL    HW259321   9.761   5.260   8.780
53099SOL     OW59322   9.712   4.475   9.046
53099SOL    HW159323   9.780   4.530   8.999
53099SOL    HW259324   9.752   4.387   9.073
53100SOL     OW59325  10.897   4.503   9.118
53100SOL    HW159326  10.805   4.541   9.113
53100SOL    HW259327  10.957   4.550   9.053
53101SOL     OW59328  10.323   3.829   9.218
53101SOL    HW159329  10.329   3.914   9.166
53101SOL    HW259330  10.355   3.753   9.161
53102SOL     OW59331   9.814   3.774   9.188
53102SOL    HW159332   9.772   3.717   9.118
53102SOL    HW259333   9.748   3.843   9.220
53103SOL     OW59334   9.883   4.594   8.477
53103SOL    HW159335   9.927   4.683   8.468
53103SOL    HW259336   9.820   4.594   8.554
53104SOL     OW59337  10.670   4.586   8.493
53104SOL    HW159338  10.595   4.586   8.427
53104SOL    HW259339  10.707   4.494   8.502
53105SOL     OW59340  10.519   4.249   7.723
53105SOL    HW159341  10.532   4.165   7.777
53105SOL    HW259342  10.490   4.323   7.783
53106SOL     OW59343   9.617   3.937   8.679
53106SOL    HW159344   9.594   3.974   8.769
53106SOL    HW259345   9.587   3.842   8.673
53107SOL     OW59346   9.347   5.034   8.730
53107SOL    HW159347   9.400   4.985   8.798
53107SOL    HW259348   9.369   5.132   8.735
53108SOL     OW59349  10.042   4.358   8.512
53108SOL    HW159350  10.101   4.332   8.436
53108SOL    HW259351  10.014   4.454   8.501
53109SOL     OW59352  11.038   4.659   9.302
53109SOL    HW159353  10.992   4.652   9.213
53109SOL    HW259354  10.976   4.703   9.368
53110SOL     OW59355   9.617   3.787   8.066
53110SOL    HW159356   9.606   3.881   8.099
53110SOL    HW259357   9.612   3.724   8.143
53111SOL     OW59358  10.932   4.091   7.822
53111SOL    HW159359  10.934   4.015   7.886
53111SOL    HW259360  10.884   4.168   7.862
53112SOL     OW59361  10.333   4.490   8.414
53112SOL    HW159362  10.348   4.511   8.510
53112SOL    HW259363  10.303   4.395   8.405
53113SOL     OW59364  10.290   5.297   9.148
53113SOL    HW159365  10.270   5.341   9.060
53113SOL    HW259366  10.329   5.206   9.132
53114SOL     OW59367  11.169   5.242   9.053
53114SOL    HW159368  11.183   5.269   8.958
53114SOL    HW259369  11.252   5.264   9.106
53115SOL     OW59370   9.660   4.622   9.252
53115SOL    HW159371   9.736   4.666   9.300
53115SOL    HW259372   9.695   4.575   9.170
53116SOL     OW59373  10.850   3.998   7.573
53116SOL    HW159374  10.789   3.923   7.596
53116SOL    HW259375  10.872   4.050   7.656
53117SOL     OW59376  10.613   4.562   7.490
53117SOL    HW159377  10.647   4.469   7.505
53117SOL    HW259378  10.631   4.589   7.395
53118SOL     OW59379  10.378   5.057   8.297
53118SOL    HW159380  10.385   4.973   8.242
53118SOL    HW259381  10.440   5.126   8.261
53119SOL     OW59382   9.629   4.534   8.397
53119SOL    HW159383   9.722   4.570   8.402
53119SOL    HW259384   9.623   4.449   8.449
53120SOL     OW59385   9.649   4.233   8.454
53120SOL    HW159386   9.597   4.150   8.437
53120SOL    HW259387   9.726   4.238   8.390
53121SOL     OW59388  10.448   4.104   9.126
53121SOL    HW159389  10.403   4.167   9.190
53121SOL    HW259390  10.541   4.135   9.109
53122SOL     OW59391  10.470   3.931   8.925
53122SOL    HW159392  10.470   3.995   9.002
53122SOL    HW259393  10.498   3.979   8.842
53123SOL     OW59394   9.318   5.050   7.648
53123SOL    HW159395   9.225   5.071   7.617
53123SOL    HW259396   9.328   4.951   7.661
53124SOL     OW59397   9.398   5.525   8.375
53124SOL    HW159398   9.356   5.439   8.348
53124SOL    HW259399   9.492   5.528   8.341
53125SOL     OW59400   9.814   5.292   8.358
53125SOL    HW159401   9.880   5.366   8.367
53125SOL    HW259402   9.858   5.213   8.316
53126SOL     OW59403  10.312   4.520   8.686
53126SOL    HW159404  10.353   4.488   8.772
53126SOL    HW259405  10.216   4.493   8.683
53127SOL     OW59406   9.350   4.268   8.562
53127SOL    HW159407   9.435   4.235   8.521
53127SOL    HW259408   9.363   4.283   8.660
53128SOL     OW59409   9.499   4.244   9.170
53128SOL    HW159410   9.558   4.204   9.100
53128SOL    HW259411   9.441   4.315   9.129
53129SOL     OW59412  10.679   4.674   9.108
53129SOL    HW159413  10.718   4.763   9.128
53129SOL    HW259414  10.689   4.654   9.011
53130SOL     OW59415  10.125   4.296   7.773
53130SOL    HW159416  10.132   4.207   7.727
53130SOL    HW259417  10.031   4.330   7.765
53131SOL     OW59418  10.967   4.328   8.654
53131SOL    HW159419  10.929   4.259   8.716
53131SOL    HW259420  11.049   4.292   8.610
53132SOL     OW59421   9.562   5.288   9.192
53132SOL    HW159422   9.532   5.345   9.268
53132SOL    HW259423   9.555   5.191   9.218
53133SOL     OW59424   9.981   4.188   8.717
53133SOL    HW159425   9.947   4.099   8.687
53133SOL    HW259426  10.007   4.242   8.637
53134SOL     OW59427  10.240   5.402   8.913
53134SOL    HW159428  10.216   5.384   8.818
53134SOL    HW259429  10.270   5.496   8.923
53135SOL     OW59430   9.783   4.224   7.639
53135SOL    HW159431   9.844   4.304   7.643
53135SOL    HW259432   9.688   4.255   7.646
53136SOL     OW59433   9.469   4.861   8.914
53136SOL    HW159434   9.491   4.800   8.990
53136SOL    HW259435   9.479   4.812   8.828
53137SOL     OW59436  10.657   4.783   8.682
53137SOL    HW159437  10.681   4.720   8.608
53137SOL    HW259438  10.567   4.823   8.664
53138SOL     OW59439  10.612   4.579   7.757
53138SOL    HW159440  10.526   4.548   7.799
53138SOL    HW259441  10.608   4.565   7.658
53139SOL     OW59442  11.069   5.471   8.602
53139SOL    HW159443  11.130   5.501   8.529
53139SOL    HW259444  11.031   5.382   8.580
53140SOL     OW59445  10.562   5.455   8.576
53140SOL    HW159446  10.646   5.460   8.522
53140SOL    HW259447  10.539   5.359   8.594
53141SOL     OW59448   9.393   4.982   8.470
53141SOL    HW159449   9.388   4.981   8.570
53141SOL    HW259450   9.310   4.941   8.432
53142SOL     OW59451   9.998   5.386   9.164
53142SOL    HW159452   9.942   5.467   9.173
53142SOL    HW259453  10.050   5.390   9.078
53143SOL     OW59454  11.036   3.859   7.971
53143SOL    HW159455  11.109   3.842   7.904
53143SOL    HW259456  11.005   3.772   8.009
53144SOL     OW59457  10.698   5.297   7.925
53144SOL    HW159458  10.765   5.309   7.851
53144SOL    HW259459  10.658   5.386   7.948
53145SOL     OW59460   9.440   5.518   9.299
53145SOL    HW159461   9.399   5.444   9.352
53145SOL    HW259462   9.504   5.569   9.357
53146SOL     OW59463  10.590   4.651   8.120
53146SOL    HW159464  10.650   4.570   8.122
53146SOL    HW259465  10.630   4.720   8.060
53147SOL     OW59466  10.140   4.997   8.870
53147SOL    HW159467  10.135   5.030   8.965
53147SOL    HW259468  10.054   5.016   8.824
53148SOL     OW59469   9.982   5.340   7.602
53148SOL    HW159470   9.991   5.350   7.503
53148SOL    HW259471   9.942   5.251   7.623
53149SOL     OW59472  10.960   5.444   8.842
53149SOL    HW159473  11.013   5.454   8.758
53149SOL    HW259474  10.933   5.534   8.876
53150SOL     OW59475  11.151   3.899   8.411
53150SOL    HW159476  11.190   3.814   8.375
53150SOL    HW259477  11.053   3.901   8.392
53151SOL     OW59478   9.573   4.050   8.168
53151SOL    HW159479   9.494   4.101   8.134
53151SOL    HW259480   9.564   4.035   8.266
53152SOL     OW59481  10.504   5.336   7.479
53152SOL    HW159482  10.510   5.243   7.516
53152SOL    HW259483  10.445   5.336   7.399
53153SOL     OW59484  10.132   4.726   8.820
53153SOL    HW159485  10.172   4.725   8.728
53153SOL    HW259486  10.142   4.818   8.860
53154SOL     OW59487  10.226   4.634   7.739
53154SOL    HW159488  10.289   4.672   7.671
53154SOL    HW259489  10.266   4.551   7.778
53155SOL     OW59490  10.814   5.331   7.492
53155SOL    HW159491  10.722   5.368   7.499
53155SOL    HW259492  10.852   5.351   7.402
53156SOL     OW59493   9.682   5.012   8.938
53156SOL    HW159494   9.669   5.105   8.904
53156SOL    HW259495   9.598   4.960   8.925
53157SOL     OW59496  10.924   5.016   8.737
53157SOL    HW159497  10.984   5.019   8.817
53157SOL    HW259498  10.849   5.080   8.750
53158SOL     OW59499  10.349   4.822   8.144
53158SOL    HW159500  10.279   4.775   8.198
53158SOL    HW259501  10.408   4.754   8.101
53159SOL     OW59502  10.324   3.960   8.419
53159SOL    HW159503  10.316   3.924   8.326
53159SOL    HW259504  10.322   3.884   8.484
53160SOL     OW59505   9.900   5.211   7.939
53160SOL    HW159506   9.942   5.153   7.869
53160SOL    HW259507   9.856   5.290   7.895
53161SOL     OW59508  11.019   4.109   8.829
53161SOL    HW159509  11.092   4.178   8.833
53161SOL    HW259510  11.047   4.034   8.770
53162SOL     OW59511   9.565   5.072   7.738
53162SOL    HW159512   9.469   5.073   7.711
53162SOL    HW259513   9.577   5.125   7.822
53163SOL     OW59514   9.415   4.737   9.174
53163SOL    HW159515   9.338   4.704   9.228
53163SOL    HW259516   9.500   4.707   9.216
53164SOL     OW59517   9.982   3.927   8.937
53164SOL    HW159518  10.072   3.911   8.897
53164SOL    HW259519   9.990   3.932   9.036
53165SOL     OW59520   9.385   4.069   7.481
53165SOL    HW159521   9.293   4.041   7.452
53165SOL    HW259522   9.416   4.146   7.425
53166SOL     OW59523  10.750   4.580   8.846
53166SOL    HW159524  10.693   4.632   8.783
53166SOL    HW259525  10.846   4.592   8.822
53167SOL     OW59526   9.382   3.890   7.766
53167SOL    HW159527   9.365   3.973   7.712
53167SOL    HW259528   9.472   3.853   7.744
53168SOL     OW59529  10.493   5.059   7.567
53168SOL    HW159530  10.394   5.048   7.569
53168SOL    HW259531  10.527   5.074   7.660
53169SOL     OW59532   9.923   4.566   8.879
53169SOL    HW159533   9.979   4.647   8.862
53169SOL    HW259534   9.982   4.486   8.882
53170SOL     OW59535  10.803   5.491   8.407
53170SOL    HW159536  10.836   5.555   8.338
53170SOL    HW259537  10.869   5.485   8.482
53171SOL     OW59538  10.026   4.289   9.156
53171SOL    HW159539  10.045   4.354   9.230
53171SOL    HW259540  10.086   4.209   9.165
53172SOL     OW59541  10.760   4.944   9.081
53172SOL    HW159542  10.751   4.934   9.180
53172SOL    HW259543  10.856   4.937   9.055
53173SOL     OW59544   9.700   5.465   9.008
53173SOL    HW159545   9.609   5.506   9.006
53173SOL    HW259546   9.693   5.371   9.040
53174SOL     OW59547  10.984   4.607   8.702
53174SOL    HW159548  10.957   4.518   8.665
53174SOL    HW259549  10.985   4.675   8.629
53175SOL     OW59550  10.535   4.049   7.897
53175SOL    HW159551  10.600   3.975   7.886
53175SOL    HW259552  10.555   4.099   7.981
53176SOL     OW59553   9.904   4.469   8.100
53176SOL    HW159554   9.954   4.554   8.081
53176SOL    HW259555   9.816   4.471   8.052
53177SOL     OW59556  11.087   4.066   9.090
53177SOL    HW159557  11.070   4.097   8.996
53177SOL    HW259558  11.003   4.029   9.128
53178SOL     OW59559  11.040   4.658   8.965
53178SOL    HW159560  11.078   4.749   8.980
53178SOL    HW259561  11.032   4.641   8.866
53179SOL     OW59562  10.169   5.098   7.464
53179SOL    HW159563  10.123   5.113   7.552
53179SOL    HW259564  10.213   5.183   7.434
53180SOL     OW59565   9.971   5.514   8.401
53180SOL    HW159566   9.925   5.602   8.388
53180SOL    HW259567  10.070   5.526   8.394
53181SOL     OW59568  10.169   4.680   8.309
53181SOL    HW159569  10.223   4.611   8.357
53181SOL    HW259570  10.137   4.749   8.375
53182SOL     OW59571  10.393   4.708   7.535
53182SOL    HW159572  10.370   4.761   7.453
53182SOL    HW259573  10.474   4.652   7.516
53183SOL     OW59574  11.171   5.293   8.299
53183SOL    HW159575  11.100   5.281   8.229
53183SOL    HW259576  11.172   5.214   8.359
53184SOL     OW59577   9.531   5.038   9.292
53184SOL    HW159578   9.466   4.965   9.271
53184SOL    HW259579   9.535   5.052   9.390
53185SOL     OW59580   9.389   4.964   8.101
53185SOL    HW159581   9.388   4.917   8.189
53185SOL    HW259582   9.471   4.936   8.050
53186SOL     OW59583   9.982   5.115   9.072
53186SOL    HW159584   9.904   5.065   9.110
53186SOL    HW259585   9.979   5.210   9.103
53187SOL     OW59586  11.134   3.916   8.675
53187SOL    HW159587  11.130   3.826   8.719
53187SOL    HW259588  11.137   3.905   8.576
53188SOL     OW59589   9.738   4.148   7.968
53188SOL    HW159590   9.768   4.076   7.906
53188SOL    HW259591   9.699   4.108   8.051
53189SOL     OW59592  11.015   5.211   8.552
53189SOL    HW159593  10.922   5.186   8.525
53189SOL    HW259594  11.041   5.161   8.634
53190SOL     OW59595   9.627   4.271   8.728
53190SOL    HW159596   9.665   4.212   8.800
53190SOL    HW259597   9.667   4.245   8.640
53191SOL     OW59598  10.122   5.310   8.135
53191SOL    HW159599  10.154   5.320   8.041
53191SOL    HW259600  10.043   5.248   8.137
53192SOL     OW59601  10.734   3.938   8.560
53192SOL    HW159602  10.786   3.873   8.615
53192SOL    HW259603  10.685   4.001   8.621
53193SOL     OW59604  10.311   3.758   8.602
53193SOL    HW159605  10.248   3.686   8.571
53193SOL    HW259606  10.404   3.722   8.602
53194SOL     OW59607  10.080   5.054   7.749
53194SOL    HW159608  10.034   4.967   7.766
53194SOL    HW259609  10.171   5.051   7.790
53195SOL     OW59610   9.928   5.291   8.732
53195SOL    HW159611   9.923   5.373   8.789
53195SOL    HW259612  10.017   5.288   8.687
53196SOL     OW59613  10.662   3.776   7.616
53196SOL    HW159614  10.697   3.735   7.532
53196SOL    HW259615  10.572   3.738   7.636
53197SOL     OW59616  10.610   4.177   8.139
53197SOL    HW159617  10.551   4.257   8.143
53197SOL    HW259618  10.625   4.142   8.232
53198SOL     OW59619  10.903   3.945   8.330
53198SOL    HW159620  10.819   3.944   8.384
53198SOL    HW259621  10.905   4.028   8.274
53199SOL     OW59622   9.349   4.801   7.748
53199SOL    HW159623   9.448   4.790   7.739
53199SOL    HW259624   9.309   4.715   7.780
53200SOL     OW59625  10.185   5.370   7.785
53200SOL    HW159626  10.108   5.335   7.731
53200SOL    HW259627  10.153   5.441   7.847
53201SOL     OW59628   9.540   4.352   9.423
53201SOL    HW159629   9.447   4.350   9.460
53201SOL    HW259630   9.541   4.313   9.331
53202SOL     OW59631   9.535   3.999  10.306
53202SOL    HW159632   9.570   3.982  10.398
53202SOL    HW259633   9.447   3.954  10.294
53203SOL     OW59634   9.329   4.092   9.957
53203SOL    HW159635   9.247   4.135   9.996
53203SOL    HW259636   9.301   4.019   9.894
53204SOL     OW59637   9.879   4.999  10.475
53204SOL    HW159638   9.786   4.992  10.438
53204SOL    HW259639   9.890   5.088  10.519
53205SOL     OW59640  10.865   5.235  10.013
53205SOL    HW159641  10.808   5.219  10.094
53205SOL    HW259642  10.806   5.245   9.933
53206SOL     OW59643  10.445   4.427  10.027
53206SOL    HW159644  10.502   4.505  10.002
53206SOL    HW259645  10.385   4.453  10.103
53207SOL     OW59646  11.065   4.331   9.541
53207SOL    HW159647  11.053   4.318   9.442
53207SOL    HW259648  11.035   4.250   9.590
53208SOL     OW59649  10.078   4.868  10.333
53208SOL    HW159650  10.000   4.885  10.393
53208SOL    HW259651  10.112   4.955  10.297
53209SOL     OW59652  10.160   4.522  11.133
53209SOL    HW159653  10.156   4.598  11.198
53209SOL    HW259654  10.182   4.558  11.042
53210SOL     OW59655   9.995   4.736   9.975
53210SOL    HW159656  10.064   4.720  10.045
53210SOL    HW259657   9.922   4.793  10.013
53211SOL     OW59658   9.996   4.885  11.113
53211SOL    HW159659  10.056   4.964  11.127
53211SOL    HW259660   9.910   4.916  11.072
53212SOL     OW59661   9.645   5.159  10.371
53212SOL    HW159662   9.567   5.128  10.318
53212SOL    HW259663   9.703   5.217  10.314
53213SOL     OW59664  10.770   5.229  10.649
53213SOL    HW159665  10.794   5.323  10.675
53213SOL    HW259666  10.754   5.175  10.731
53214SOL     OW59667   9.748   4.116  10.809
53214SOL    HW159668   9.830   4.060  10.818
53214SOL    HW259669   9.667   4.058  10.813
53215SOL     OW59670  10.913   4.171  10.047
53215SOL    HW159671  10.839   4.217   9.997
53215SOL    HW259672  10.964   4.239  10.100
53216SOL     OW59673   9.541   5.437   9.793
53216SOL    HW159674   9.575   5.514   9.847
53216SOL    HW259675   9.585   5.437   9.703
53217SOL     OW59676  10.437   5.065  11.000
53217SOL    HW159677  10.484   5.065  11.088
53217SOL    HW259678  10.389   4.978  10.989
53218SOL     OW59679   9.540   5.158   9.848
53218SOL    HW159680   9.514   5.254   9.848
53218SOL    HW259681   9.469   5.104   9.893
53219SOL     OW59682   9.550   4.815  10.196
53219SOL    HW159683   9.564   4.731  10.248
53219SOL    HW259684   9.495   4.879  10.251
53220SOL     OW59685   9.930   5.510  10.749
53220SOL    HW159686   9.838   5.493  10.784
53220SOL    HW259687   9.958   5.602  10.775
53221SOL     OW59688   9.916   4.688   9.433
53221SOL    HW159689   9.923   4.772   9.379
53221SOL    HW259690   9.962   4.701   9.521
53222SOL     OW59691  10.904   3.838  10.790
53222SOL    HW159692  10.886   3.905  10.718
53222SOL    HW259693  10.901   3.884  10.879
53223SOL     OW59694   9.432   4.367   9.873
53223SOL    HW159695   9.387   4.279   9.890
53223SOL    HW259696   9.431   4.421   9.957
53224SOL     OW59697  11.152   5.491   9.669
53224SOL    HW159698  11.206   5.462   9.749
53224SOL    HW259699  11.182   5.581   9.640
53225SOL     OW59700   9.337   5.320   9.427
53225SOL    HW159701   9.318   5.224   9.448
53225SOL    HW259702   9.304   5.378   9.502
53226SOL     OW59703  10.999   4.646   9.922
53226SOL    HW159704  11.094   4.617   9.930
53226SOL    HW259705  10.991   4.711   9.847
53227SOL     OW59706  10.951   4.832   9.742
53227SOL    HW159707  11.037   4.834   9.690
53227SOL    HW259708  10.965   4.879   9.830
53228SOL     OW59709   9.423   4.461  10.907
53228SOL    HW159710   9.511   4.448  10.952
53228SOL    HW259711   9.410   4.558  10.885
53229SOL     OW59712   9.923   5.089  10.036
53229SOL    HW159713   9.874   5.002  10.045
53229SOL    HW259714   9.900   5.132   9.949
53230SOL     OW59715  10.603   4.952  10.733
53230SOL    HW159716  10.640   4.879  10.675
53230SOL    HW259717  10.655   4.957  10.818
53231SOL     OW59718  10.119   3.728   9.812
53231SOL    HW159719  10.159   3.819   9.803
53231SOL    HW259720  10.019   3.736   9.818
53232SOL     OW59721   9.507   4.700  10.574
53232SOL    HW159722   9.596   4.655  10.560
53232SOL    HW259723   9.434   4.635  10.555
53233SOL     OW59724  10.835   4.723   9.500
53233SOL    HW159725  10.772   4.647   9.513
53233SOL    HW259726  10.883   4.741   9.586
53234SOL     OW59727  10.497   5.516  10.926
53234SOL    HW159728  10.521   5.576  10.850
53234SOL    HW259729  10.504   5.421  10.896
53235SOL     OW59730   9.627   3.975  11.111
53235SOL    HW159731   9.698   4.046  11.117
53235SOL    HW259732   9.539   4.014  11.139
53236SOL     OW59733  10.776   5.141  10.263
53236SOL    HW159734  10.717   5.147  10.343
53236SOL    HW259735  10.761   5.053  10.217
53237SOL     OW59736  10.977   5.438   9.882
53237SOL    HW159737  10.936   5.415   9.794
53237SOL    HW259738  10.959   5.364   9.947
53238SOL     OW59739   9.908   4.453   9.580
53238SOL    HW159740   9.932   4.522   9.512
53238SOL    HW259741   9.830   4.486   9.634
53239SOL     OW59742  10.591   4.069  10.254
53239SOL    HW159743  10.505   4.019  10.241
53239SOL    HW259744  10.653   4.015  10.310
53240SOL     OW59745  10.886   5.386   9.617
53240SOL    HW159746  10.975   5.432   9.620
53240SOL    HW259747  10.865   5.362   9.522
53241SOL     OW59748  10.117   4.329  10.775
53241SOL    HW159749  10.070   4.326  10.864
53241SOL    HW259750  10.066   4.274  10.709
53242SOL     OW59751  10.704   4.193  10.984
53242SOL    HW159752  10.684   4.236  11.072
53242SOL    HW259753  10.782   4.131  10.993
53243SOL     OW59754  10.283   4.614  10.882
53243SOL    HW159755  10.329   4.530  10.853
53243SOL    HW259756  10.227   4.648  10.807
53244SOL     OW59757  10.301   4.134  10.552
53244SOL    HW159758  10.224   4.168  10.606
53244SOL    HW259759  10.267   4.083  10.473
53245SOL     OW59760  10.351   4.425   9.739
53245SOL    HW159761  10.377   4.421   9.835
53245SOL    HW259762  10.266   4.374   9.725
53246SOL     OW59763   9.386   4.535  10.099
53246SOL    HW159764   9.485   4.523  10.108
53246SOL    HW259765   9.362   4.630  10.120
53247SOL     OW59766   9.440   5.545  10.881
53247SOL    HW159767   9.430   5.530  10.980
53247SOL    HW259768   9.354   5.581  10.845
53248SOL     OW59769  10.175   4.072   9.505
53248SOL    HW159770  10.234   4.135   9.456
53248SOL    HW259771  10.194   3.978   9.476
53249SOL     OW59772  11.029   4.309  11.141
53249SOL    HW159773  11.003   4.398  11.105
53249SOL    HW259774  11.027   4.241  11.068
53250SOL     OW59775  10.672   4.868   9.855
53250SOL    HW159776  10.755   4.839   9.807
53250SOL    HW259777  10.623   4.935   9.799
53251SOL     OW59778   9.860   3.920  10.195
53251SOL    HW159779   9.855   3.915  10.295
53251SOL    HW259780   9.862   4.016  10.166
53252SOL     OW59781  10.318   5.180   9.787
53252SOL    HW159782  10.272   5.252   9.735
53252SOL    HW259783  10.314   5.200   9.885
53253SOL     OW59784   9.661   5.525  10.163
53253SOL    HW159785   9.711   5.439  10.169
53253SOL    HW259786   9.726   5.602  10.160
53254SOL     OW59787  11.105   4.790  10.183
53254SOL    HW159788  11.043   4.775  10.107
53254SOL    HW259789  11.053   4.801  10.268
53255SOL     OW59790  10.537   5.274  10.816
53255SOL    HW159791  10.543   5.197  10.880
53255SOL    HW259792  10.485   5.248  10.736
53256SOL     OW59793   9.631   4.667   9.552
53256SOL    HW159794   9.713   4.706   9.510
53256SOL    HW259795   9.604   4.585   9.503
53257SOL     OW59796  10.768   4.459  10.038
53257SOL    HW159797  10.763   4.394  10.113
53257SOL    HW259798  10.848   4.518  10.051
53258SOL     OW59799   9.771   4.990  11.037
53258SOL    HW159800   9.721   4.991  10.951
53258SOL    HW259801   9.708   4.972  11.113
53259SOL     OW59802  10.421   5.500   9.547
53259SOL    HW159803  10.361   5.438   9.597
53259SOL    HW259804  10.452   5.456   9.462
53260SOL     OW59805   9.512   4.009  10.808
53260SOL    HW159806   9.432   4.069  10.795
53260SOL    HW259807   9.502   3.960  10.894
53261SOL     OW59808  10.942   5.101   9.391
53261SOL    HW159809  10.910   5.195   9.381
53261SOL    HW259810  10.866   5.038   9.379
53262SOL     OW59811   9.774   5.467   9.633
53262SOL    HW159812   9.807   5.506   9.719
53262SOL    HW259813   9.850   5.460   9.568
53263SOL     OW59814  10.710   3.831   9.736
53263SOL    HW159815  10.686   3.794   9.646
53263SOL    HW259816  10.809   3.847   9.740
53264SOL     OW59817   9.559   5.509  10.551
53264SOL    HW159818   9.616   5.444  10.601
53264SOL    HW259819   9.543   5.476  10.458
53265SOL     OW59820  10.250   5.422  10.214
53265SOL    HW159821  10.330   5.365  10.235
53265SOL    HW259822  10.201   5.382  10.137
53266SOL     OW59823   9.692   4.424   9.790
53266SOL    HW159824   9.737   4.334   9.787
53266SOL    HW259825   9.598   4.413   9.823
53267SOL     OW59826  10.857   3.946  11.039
53267SOL    HW159827  10.852   3.983  11.131
53267SOL    HW259828  10.785   3.877  11.027
53268SOL     OW59829   9.924   3.846   9.427
53268SOL    HW159830  10.022   3.824   9.434
53268SOL    HW259831   9.893   3.829   9.334
53269SOL     OW59832  10.091   3.988  11.059
53269SOL    HW159833  10.158   3.927  11.102
53269SOL    HW259834  10.018   4.007  11.124
53270SOL     OW59835  10.198   5.238  10.505
53270SOL    HW159836  10.175   5.213  10.411
53270SOL    HW259837  10.259   5.169  10.544
53271SOL     OW59838  10.661   4.314  10.743
53271SOL    HW159839  10.689   4.271  10.828
53271SOL    HW259840  10.686   4.410  10.744
53272SOL     OW59841  10.113   5.126  10.234
53272SOL    HW159842  10.203   5.140  10.192
53272SOL    HW259843  10.042   5.128  10.163
53273SOL     OW59844  10.232   4.227  10.209
53273SOL    HW159845  10.207   4.218  10.113
53273SOL    HW259846  10.280   4.145  10.240
53274SOL     OW59847   9.849   3.788   9.822
53274SOL    HW159848   9.768   3.789   9.880
53274SOL    HW259849   9.852   3.871   9.767
53275SOL     OW59850  10.744   4.912   9.351
53275SOL    HW159851  10.776   4.836   9.408
53275SOL    HW259852  10.652   4.939   9.381
53276SOL     OW59853   9.607   3.759   9.481
53276SOL    HW159854   9.656   3.843   9.460
53276SOL    HW259855   9.669   3.694   9.526
53277SOL     OW59856  10.245   3.960   9.790
53277SOL    HW159857  10.197   4.001   9.712
53277SOL    HW259858  10.344   3.958   9.771
53278SOL     OW59859  10.386   4.407  10.774
53278SOL    HW159860  10.306   4.346  10.777
53278SOL    HW259861  10.467   4.354  10.750
53279SOL     OW59862  10.537   5.294  10.103
53279SOL    HW159863  10.558   5.368  10.038
53279SOL    HW259864  10.605   5.294  10.176
53280SOL     OW59865   9.769   4.876  10.051
53280SOL    HW159866   9.698   4.849  10.116
53280SOL    HW259867   9.743   4.848   9.958
53281SOL     OW59868  10.581   5.521   9.901
53281SOL    HW159869  10.625   5.585   9.837
53281SOL    HW259870  10.531   5.573   9.971
53282SOL     OW59871  10.342   4.273   9.326
53282SOL    HW159872  10.301   4.355   9.287
53282SOL    HW259873  10.406   4.299   9.399
53283SOL     OW59874   9.388   4.280  10.696
53283SOL    HW159875   9.480   4.279  10.655
53283SOL    HW259876   9.382   4.354  10.763
53284SOL     OW59877   9.871   3.946  10.457
53284SOL    HW159878   9.909   3.862  10.494
53284SOL    HW259879   9.783   3.965  10.501
53285SOL     OW59880  10.176   4.178   9.952
53285SOL    HW159881  10.144   4.250   9.890
53285SOL    HW259882  10.200   4.097   9.899
53286SOL     OW59883  10.327   3.763  10.063
53286SOL    HW159884  10.255   3.768   9.994
53286SOL    HW259885  10.303   3.694  10.132
53287SOL     OW59886  10.739   4.897  10.177
53287SOL    HW159887  10.684   4.813  10.170
53287SOL    HW259888  10.765   4.926  10.085
53288SOL     OW59889  10.776   4.314  10.302
53288SOL    HW159890  10.746   4.219  10.309
53288SOL    HW259891  10.849   4.330  10.368
53289SOL     OW59892  11.167   4.557   9.687
53289SOL    HW159893  11.209   4.493   9.751
53289SOL    HW259894  11.129   4.506   9.609
53290SOL     OW59895   9.798   5.109   9.484
53290SOL    HW159896   9.711   5.094   9.531
53290SOL    HW259897   9.781   5.135   9.389
53291SOL     OW59898  10.974   5.004   9.967
53291SOL    HW159899  11.073   5.012   9.981
53291SOL    HW259900  10.929   5.088   9.998
53292SOL     OW59901  10.700   4.299   9.388
53292SOL    HW159902  10.646   4.278   9.469
53292SOL    HW259903  10.791   4.258   9.397
53293SOL     OW59904   9.837   3.980   9.638
53293SOL    HW159905   9.864   3.921   9.563
53293SOL    HW259906   9.837   4.075   9.607
53294SOL     OW59907  11.064   4.947  10.898
53294SOL    HW159908  11.155   4.908  10.885
53294SOL    HW259909  11.072   5.043  10.922
53295SOL     OW59910  10.374   5.071  10.650
53295SOL    HW159911  10.294   5.048  10.705
53295SOL    HW259912  10.457   5.045  10.699
53296SOL     OW59913  10.902   5.353  10.935
53296SOL    HW159914  10.929   5.387  10.845
53296SOL    HW259915  10.981   5.315  10.981
53297SOL     OW59916  10.421   4.919  10.410
53297SOL    HW159917  10.381   4.963  10.491
53297SOL    HW259918  10.380   4.956  10.327
53298SOL     OW59919  10.948   4.823  10.389
53298SOL    HW159920  10.953   4.904  10.448
53298SOL    HW259921  10.862   4.825  10.338
53299SOL     OW59922  10.225   3.813  10.712
53299SOL    HW159923  10.250   3.793  10.617
53299SOL    HW259924  10.297   3.869  10.754
53300SOL     OW59925  10.290   4.840  11.029
53300SOL    HW159926  10.191   4.846  11.039
53300SOL    HW259927  10.313   4.760  10.973
53301SOL     OW59928  10.015   4.774   9.678
53301SOL    HW159929  10.001   4.781   9.777
53301SOL    HW259930  10.099   4.723   9.660
53302SOL     OW59931   9.720   4.537  10.561
53302SOL    HW159932   9.806   4.549  10.611
53302SOL    HW259933   9.678   4.450  10.588
53303SOL     OW59934  10.584   4.110  10.572
53303SOL    HW159935  10.605   4.184  10.636
53303SOL    HW259936  10.495   4.127  10.529
53304SOL     OW59937   9.374   5.288  10.641
53304SOL    HW159938   9.328   5.370  10.607
53304SOL    HW259939   9.472   5.307  10.650
53305SOL     OW59940   9.677   4.824   9.811
53305SOL    HW159941   9.670   4.907   9.755
53305SOL    HW259942   9.681   4.744   9.751
53306SOL     OW59943   9.876   4.261  10.175
53306SOL    HW159944   9.888   4.327  10.101
53306SOL    HW259945   9.922   4.295  10.258
53307SOL     OW59946  10.562   5.072   9.698
53307SOL    HW159947  10.612   5.149   9.738
53307SOL    HW259948  10.467   5.074   9.730
53308SOL     OW59949  10.582   5.169  10.452
53308SOL    HW159950  10.629   5.182  10.539
53308SOL    HW259951  10.516   5.095  10.461
53309SOL     OW59952  10.892   4.363   9.782
53309SOL    HW159953  10.861   4.424   9.855
53309SOL    HW259954  10.942   4.415   9.713
53310SOL     OW59955   9.664   5.234  10.639
53310SOL    HW159956   9.643   5.190  10.552
53310SOL    HW259957   9.761   5.260  10.642
53311SOL     OW59958   9.712   4.475  10.908
53311SOL    HW159959   9.780   4.530  10.861
53311SOL    HW259960   9.752   4.387  10.935
53312SOL     OW59961  10.897   4.503  10.980
53312SOL    HW159962  10.805   4.541  10.975
53312SOL    HW259963  10.957   4.550  10.915
53313SOL     OW59964  10.323   3.829  11.080
53313SOL    HW159965  10.329   3.914  11.028
53313SOL    HW259966  10.355   3.753  11.023
53314SOL     OW59967   9.814   3.774  11.050
53314SOL    HW159968   9.772   3.717  10.980
53314SOL    HW259969   9.748   3.843  11.082
53315SOL     OW59970   9.883   4.594  10.339
53315SOL    HW159971   9.927   4.683  10.330
53315SOL    HW259972   9.820   4.594  10.416
53316SOL     OW59973  10.670   4.586  10.355
53316SOL    HW159974  10.595   4.586  10.289
53316SOL    HW259975  10.707   4.494  10.364
53317SOL     OW59976  10.519   4.249   9.585
53317SOL    HW159977  10.532   4.165   9.639
53317SOL    HW259978  10.490   4.323   9.645
53318SOL     OW59979   9.617   3.937  10.541
53318SOL    HW159980   9.594   3.974  10.631
53318SOL    HW259981   9.587   3.842  10.535
53319SOL     OW59982   9.347   5.034  10.592
53319SOL    HW159983   9.400   4.985  10.660
53319SOL    HW259984   9.369   5.132  10.597
53320SOL     OW59985  10.042   4.358  10.374
53320SOL    HW159986  10.101   4.332  10.298
53320SOL    HW259987  10.014   4.454  10.363
53321SOL     OW59988  11.038   4.659  11.164
53321SOL    HW159989  10.992   4.652  11.075
53321SOL    HW259990  10.976   4.703  11.230
53322SOL     OW59991   9.617   3.787   9.928
53322SOL    HW159992   9.606   3.881   9.961
53322SOL    HW259993   9.612   3.724  10.005
53323SOL     OW59994  10.932   4.091   9.684
53323SOL    HW159995  10.934   4.015   9.748
53323SOL    HW259996  10.884   4.168   9.724
53324SOL     OW59997  10.333   4.490  10.276
53324SOL    HW159998  10.348   4.511  10.372
53324SOL    HW259999  10.303   4.395  10.267
53325SOL     OW60000  10.290   5.297  11.010
53325SOL    HW160001  10.270   5.341  10.922
53325SOL    HW260002  10.329   5.206  10.994
53326SOL     OW60003  11.169   5.242  10.915
53326SOL    HW160004  11.183   5.269  10.820
53326SOL    HW260005  11.252   5.264  10.968
53327SOL     OW60006   9.660   4.622  11.114
53327SOL    HW160007   9.736   4.666  11.162
53327SOL    HW260008   9.695   4.575  11.032
53328SOL     OW60009  10.850   3.998   9.435
53328SOL    HW160010  10.789   3.923   9.458
53328SOL    HW260011  10.872   4.050   9.518
53329SOL     OW60012  10.613   4.562   9.352
53329SOL    HW160013  10.647   4.469   9.367
53329SOL    HW260014  10.631   4.589   9.257
53330SOL     OW60015  10.378   5.057  10.159
53330SOL    HW160016  10.385   4.973  10.104
53330SOL    HW260017  10.440   5.126  10.123
53331SOL     OW60018   9.629   4.534  10.259
53331SOL    HW160019   9.722   4.570  10.264
53331SOL    HW260020   9.623   4.449  10.311
53332SOL     OW60021   9.649   4.233  10.316
53332SOL    HW160022   9.597   4.150  10.299
53332SOL    HW260023   9.726   4.238  10.252
53333SOL     OW60024  10.448   4.104  10.988
53333SOL    HW160025  10.403   4.167  11.052
53333SOL    HW260026  10.541   4.135  10.971
53334SOL     OW60027  10.470   3.931  10.787
53334SOL    HW160028  10.470   3.995  10.864
53334SOL    HW260029  10.498   3.979  10.704
53335SOL     OW60030   9.318   5.050   9.510
53335SOL    HW160031   9.225   5.071   9.479
53335SOL    HW260032   9.328   4.951   9.523
53336SOL     OW60033   9.398   5.525  10.237
53336SOL    HW160034   9.356   5.439  10.210
53336SOL    HW260035   9.492   5.528  10.203
53337SOL     OW60036   9.814   5.292  10.220
53337SOL    HW160037   9.880   5.366  10.229
53337SOL    HW260038   9.858   5.213  10.178
53338SOL     OW60039  10.312   4.520  10.548
53338SOL    HW160040  10.353   4.488  10.634
53338SOL    HW260041  10.216   4.493  10.545
53339SOL     OW60042   9.350   4.268  10.424
53339SOL    HW160043   9.435   4.235  10.383
53339SOL    HW260044   9.363   4.283  10.522
53340SOL     OW60045   9.499   4.244  11.032
53340SOL    HW160046   9.558   4.204  10.962
53340SOL    HW260047   9.441   4.315  10.991
53341SOL     OW60048  10.679   4.674  10.970
53341SOL    HW160049  10.718   4.763  10.990
53341SOL    HW260050  10.689   4.654  10.873
53342SOL     OW60051  10.125   4.296   9.635
53342SOL    HW160052  10.132   4.207   9.589
53342SOL    HW260053  10.031   4.330   9.627
53343SOL     OW60054  10.967   4.328  10.516
53343SOL    HW160055  10.929   4.259  10.578
53343SOL    HW260056  11.049   4.292  10.472
53344SOL     OW60057   9.562   5.288  11.054
53344SOL    HW160058   9.532   5.345  11.130
53344SOL    HW260059   9.555   5.191  11.080
53345SOL     OW60060   9.981   4.188  10.579
53345SOL    HW160061   9.947   4.099  10.549
53345SOL    HW260062  10.007   4.242  10.499
53346SOL     OW60063  10.240   5.402  10.775
53346SOL    HW160064  10.216   5.384  10.680
53346SOL    HW260065  10.270   5.496  10.785
53347SOL     OW60066   9.783   4.224   9.501
53347SOL    HW160067   9.844   4.304   9.505
53347SOL    HW260068   9.688   4.255   9.508
53348SOL     OW60069   9.469   4.861  10.776
53348SOL    HW160070   9.491   4.800  10.852
53348SOL    HW260071   9.479   4.812  10.690
53349SOL     OW60072  10.657   4.783  10.544
53349SOL    HW160073  10.681   4.720  10.470
53349SOL    HW260074  10.567   4.823  10.526
53350SOL     OW60075  10.612   4.579   9.619
53350SOL    HW160076  10.526   4.548   9.661
53350SOL    HW260077  10.608   4.565   9.520
53351SOL     OW60078  11.069   5.471  10.464
53351SOL    HW160079  11.130   5.501  10.391
53351SOL    HW260080  11.031   5.382  10.442
53352SOL     OW60081  10.562   5.455  10.438
53352SOL    HW160082  10.646   5.460  10.384
53352SOL    HW260083  10.539   5.359  10.456
53353SOL     OW60084   9.393   4.982  10.332
53353SOL    HW160085   9.388   4.981  10.432
53353SOL    HW260086   9.310   4.941  10.294
53354SOL     OW60087   9.998   5.386  11.026
53354SOL    HW160088   9.942   5.467  11.035
53354SOL    HW260089  10.050   5.390  10.940
53355SOL     OW60090  11.036   3.859   9.833
53355SOL    HW160091  11.109   3.842   9.766
53355SOL    HW260092  11.005   3.772   9.871
53356SOL     OW60093  10.698   5.297   9.787
53356SOL    HW160094  10.765   5.309   9.713
53356SOL    HW260095  10.658   5.386   9.810
53357SOL     OW60096   9.440   5.518  11.161
53357SOL    HW160097   9.399   5.444  11.214
53357SOL    HW260098   9.504   5.569  11.219
53358SOL     OW60099  10.590   4.651   9.982
53358SOL    HW160100  10.650   4.570   9.984
53358SOL    HW260101  10.630   4.720   9.922
53359SOL     OW60102  10.140   4.997  10.732
53359SOL    HW160103  10.135   5.030  10.827
53359SOL    HW260104  10.054   5.016  10.686
53360SOL     OW60105   9.982   5.340   9.464
53360SOL    HW160106   9.991   5.350   9.365
53360SOL    HW260107   9.942   5.251   9.485
53361SOL     OW60108  10.960   5.444  10.704
53361SOL    HW160109  11.013   5.454  10.620
53361SOL    HW260110  10.933   5.534  10.738
53362SOL     OW60111  11.151   3.899  10.273
53362SOL    HW160112  11.190   3.814  10.237
53362SOL    HW260113  11.053   3.901  10.254
53363SOL     OW60114   9.573   4.050  10.030
53363SOL    HW160115   9.494   4.101   9.996
53363SOL    HW260116   9.564   4.035  10.128
53364SOL     OW60117  10.504   5.336   9.341
53364SOL    HW160118  10.510   5.243   9.378
53364SOL    HW260119  10.445   5.336   9.261
53365SOL     OW60120  10.132   4.726  10.682
53365SOL    HW160121  10.172   4.725  10.590
53365SOL    HW260122  10.142   4.818  10.722
53366SOL     OW60123  10.226   4.634   9.601
53366SOL    HW160124  10.289   4.672   9.533
53366SOL    HW260125  10.266   4.551   9.640
53367SOL     OW60126  10.814   5.331   9.354
53367SOL    HW160127  10.722   5.368   9.361
53367SOL    HW260128  10.852   5.351   9.264
53368SOL     OW60129   9.682   5.012  10.800
53368SOL    HW160130   9.669   5.105  10.766
53368SOL    HW260131   9.598   4.960  10.787
53369SOL     OW60132  10.924   5.016  10.599
53369SOL    HW160133  10.984   5.019  10.679
53369SOL    HW260134  10.849   5.080  10.612
53370SOL     OW60135  10.349   4.822  10.006
53370SOL    HW160136  10.279   4.775  10.060
53370SOL    HW260137  10.408   4.754   9.963
53371SOL     OW60138  10.324   3.960  10.281
53371SOL    HW160139  10.316   3.924  10.188
53371SOL    HW260140  10.322   3.884  10.346
53372SOL     OW60141   9.900   5.211   9.801
53372SOL    HW160142   9.942   5.153   9.731
53372SOL    HW260143   9.856   5.290   9.757
53373SOL     OW60144  11.019   4.109  10.691
53373SOL    HW160145  11.092   4.178  10.695
53373SOL    HW260146  11.047   4.034  10.632
53374SOL     OW60147   9.565   5.072   9.600
53374SOL    HW160148   9.469   5.073   9.573
53374SOL    HW260149   9.577   5.125   9.684
53375SOL     OW60150   9.415   4.737  11.036
53375SOL    HW160151   9.338   4.704  11.090
53375SOL    HW260152   9.500   4.707  11.078
53376SOL     OW60153   9.982   3.927  10.799
53376SOL    HW160154  10.072   3.911  10.759
53376SOL    HW260155   9.990   3.932  10.898
53377SOL     OW60156   9.385   4.069   9.343
53377SOL    HW160157   9.293   4.041   9.314
53377SOL    HW260158   9.416   4.146   9.287
53378SOL     OW60159  10.750   4.580  10.708
53378SOL    HW160160  10.693   4.632  10.645
53378SOL    HW260161  10.846   4.592  10.684
53379SOL     OW60162   9.382   3.890   9.628
53379SOL    HW160163   9.365   3.973   9.574
53379SOL    HW260164   9.472   3.853   9.606
53380SOL     OW60165  10.493   5.059   9.429
53380SOL    HW160166  10.394   5.048   9.431
53380SOL    HW260167  10.527   5.074   9.522
53381SOL     OW60168   9.923   4.566  10.741
53381SOL    HW160169   9.979   4.647  10.724
53381SOL    HW260170   9.982   4.486  10.744
53382SOL     OW60171  10.803   5.491  10.269
53382SOL    HW160172  10.836   5.555  10.200
53382SOL    HW260173  10.869   5.485  10.344
53383SOL     OW60174  10.026   4.289  11.018
53383SOL    HW160175  10.045   4.354  11.092
53383SOL    HW260176  10.086   4.209  11.027
53384SOL     OW60177  10.760   4.944  10.943
53384SOL    HW160178  10.751   4.934  11.042
53384SOL    HW260179  10.856   4.937  10.917
53385SOL     OW60180   9.700   5.465  10.870
53385SOL    HW160181   9.609   5.506  10.868
53385SOL    HW260182   9.693   5.371  10.902
53386SOL     OW60183  10.984   4.607  10.564
53386SOL    HW160184  10.957   4.518  10.527
53386SOL    HW260185  10.985   4.675  10.491
53387SOL     OW60186  10.535   4.049   9.759
53387SOL    HW160187  10.600   3.975   9.748
53387SOL    HW260188  10.555   4.099   9.843
53388SOL     OW60189   9.904   4.469   9.962
53388SOL    HW160190   9.954   4.554   9.943
53388SOL    HW260191   9.816   4.471   9.914
53389SOL     OW60192  11.087   4.066  10.952
53389SOL    HW160193  11.070   4.097  10.858
53389SOL    HW260194  11.003   4.029  10.990
53390SOL     OW60195  11.040   4.658  10.827
53390SOL    HW160196  11.078   4.749  10.842
53390SOL    HW260197  11.032   4.641  10.728
53391SOL     OW60198  10.169   5.098   9.326
53391SOL    HW160199  10.123   5.113   9.414
53391SOL    HW260200  10.213   5.183   9.296
53392SOL     OW60201   9.971   5.514  10.263
53392SOL    HW160202   9.925   5.602  10.250
53392SOL    HW260203  10.070   5.526  10.256
53393SOL     OW60204  10.169   4.680  10.171
53393SOL    HW160205  10.223   4.611  10.219
53393SOL    HW260206  10.137   4.749  10.237
53394SOL     OW60207  10.393   4.708   9.397
53394SOL    HW160208  10.370   4.761   9.315
53394SOL    HW260209  10.474   4.652   9.378
53395SOL     OW60210  11.171   5.293  10.161
53395SOL    HW160211  11.100   5.281  10.091
53395SOL    HW260212  11.172   5.214  10.221
53396SOL     OW60213   9.531   5.038  11.154
53396SOL    HW160214   9.466   4.965  11.133
53396SOL    HW260215   9.535   5.052  11.252
53397SOL     OW60216   9.389   4.964   9.963
53397SOL    HW160217   9.388   4.917  10.051
53397SOL    HW260218   9.471   4.936   9.912
53398SOL     OW60219   9.982   5.115  10.934
53398SOL    HW160220   9.904   5.065  10.972
53398SOL    HW260221   9.979   5.210  10.965
53399SOL     OW60222  11.134   3.916  10.537
53399SOL    HW160223  11.130   3.826  10.581
53399SOL    HW260224  11.137   3.905  10.438
53400SOL     OW60225   9.738   4.148   9.830
53400SOL    HW160226   9.768   4.076   9.768
53400SOL    HW260227   9.699   4.108   9.913
53401SOL     OW60228  11.015   5.211  10.414
53401SOL    HW160229  10.922   5.186  10.387
53401SOL    HW260230  11.041   5.161  10.496
53402SOL     OW60231   9.627   4.271  10.590
53402SOL    HW160232   9.665   4.212  10.662
53402SOL    HW260233   9.667   4.245  10.502
53403SOL     OW60234  10.122   5.310   9.997
53403SOL    HW160235  10.154   5.320   9.903
53403SOL    HW260236  10.043   5.248   9.999
53404SOL     OW60237  10.734   3.938  10.422
53404SOL    HW160238  10.786   3.873  10.477
53404SOL    HW260239  10.685   4.001  10.483
53405SOL     OW60240  10.311   3.758  10.464
53405SOL    HW160241  10.248   3.686  10.433
53405SOL    HW260242  10.404   3.722  10.464
53406SOL     OW60243   9.928   5.291  10.594
53406SOL    HW160244   9.923   5.373  10.651
53406SOL    HW260245  10.017   5.288  10.549
53407SOL     OW60246  10.662   3.776   9.478
53407SOL    HW160247  10.697   3.735   9.394
53407SOL    HW260248  10.572   3.738   9.498
53408SOL     OW60249  10.610   4.177  10.001
53408SOL    HW160250  10.551   4.257  10.005
53408SOL    HW260251  10.625   4.142  10.094
53409SOL     OW60252  10.903   3.945  10.192
53409SOL    HW160253  10.819   3.944  10.246
53409SOL    HW260254  10.905   4.028  10.136
53410SOL     OW60255   9.349   4.801   9.610
53410SOL    HW160256   9.448   4.790   9.601
53410SOL    HW260257   9.309   4.715   9.642
53411SOL     OW60258  10.185   5.370   9.647
53411SOL    HW160259  10.108   5.335   9.593
53411SOL    HW260260  10.153   5.441   9.709
53412SOL     OW60261   9.540   4.352  11.285
53412SOL    HW160262   9.447   4.350  11.322
53412SOL    HW260263   9.541   4.313  11.193
53413SOL     OW60264   9.535   3.999  12.168
53413SOL    HW160265   9.570   3.982  12.260
53413SOL    HW260266   9.447   3.954  12.156
53414SOL     OW60267   9.329   4.092  11.819
53414SOL    HW160268   9.247   4.135  11.858
53414SOL    HW260269   9.301   4.019  11.756
53415SOL     OW60270   9.879   4.999  12.337
53415SOL    HW160271   9.786   4.992  12.300
53415SOL    HW260272   9.890   5.088  12.381
53416SOL     OW60273  10.865   5.235  11.875
53416SOL    HW160274  10.808   5.219  11.956
53416SOL    HW260275  10.806   5.245  11.795
53417SOL     OW60276  10.445   4.427  11.889
53417SOL    HW160277  10.502   4.505  11.864
53417SOL    HW260278  10.385   4.453  11.965
53418SOL     OW60279  11.065   4.331  11.403
53418SOL    HW160280  11.053   4.318  11.304
53418SOL    HW260281  11.035   4.250  11.452
53419SOL     OW60282  10.078   4.868  12.195
53419SOL    HW160283  10.000   4.885  12.255
53419SOL    HW260284  10.112   4.955  12.159
53420SOL     OW60285   9.995   4.736  11.837
53420SOL    HW160286  10.064   4.720  11.907
53420SOL    HW260287   9.922   4.793  11.875
53421SOL     OW60288   9.645   5.159  12.233
53421SOL    HW160289   9.567   5.128  12.180
53421SOL    HW260290   9.703   5.217  12.176
53422SOL     OW60291  10.770   5.229  12.511
53422SOL    HW160292  10.794   5.323  12.537
53422SOL    HW260293  10.754   5.175  12.593
53423SOL     OW60294   9.748   4.116  12.671
53423SOL    HW160295   9.830   4.060  12.680
53423SOL    HW260296   9.667   4.058  12.675
53424SOL     OW60297  10.913   4.171  11.909
53424SOL    HW160298  10.839   4.217  11.859
53424SOL    HW260299  10.964   4.239  11.962
53425SOL     OW60300   9.541   5.437  11.655
53425SOL    HW160301   9.575   5.514  11.709
53425SOL    HW260302   9.585   5.437  11.565
53426SOL     OW60303   9.540   5.158  11.710
53426SOL    HW160304   9.514   5.254  11.710
53426SOL    HW260305   9.469   5.104  11.755
53427SOL     OW60306   9.550   4.815  12.058
53427SOL    HW160307   9.564   4.731  12.110
53427SOL    HW260308   9.495   4.879  12.113
53428SOL     OW60309   9.930   5.510  12.611
53428SOL    HW160310   9.838   5.493  12.646
53428SOL    HW260311   9.958   5.602  12.637
53429SOL     OW60312   9.916   4.688  11.295
53429SOL    HW160313   9.923   4.772  11.241
53429SOL    HW260314   9.962   4.701  11.383
53430SOL     OW60315  10.904   3.838  12.652
53430SOL    HW160316  10.886   3.905  12.580
53430SOL    HW260317  10.901   3.884  12.741
53431SOL     OW60318   9.432   4.367  11.735
53431SOL    HW160319   9.387   4.279  11.752
53431SOL    HW260320   9.431   4.421  11.819
53432SOL     OW60321  11.152   5.491  11.531
53432SOL    HW160322  11.206   5.462  11.611
53432SOL    HW260323  11.182   5.581  11.502
53433SOL     OW60324   9.337   5.320  11.289
53433SOL    HW160325   9.318   5.224  11.310
53433SOL    HW260326   9.304   5.378  11.364
53434SOL     OW60327  10.999   4.646  11.784
53434SOL    HW160328  11.094   4.617  11.792
53434SOL    HW260329  10.991   4.711  11.709
53435SOL     OW60330  10.951   4.832  11.604
53435SOL    HW160331  11.037   4.834  11.552
53435SOL    HW260332  10.965   4.879  11.692
53436SOL     OW60333   9.923   5.089  11.898
53436SOL    HW160334   9.874   5.002  11.907
53436SOL    HW260335   9.900   5.132  11.811
53437SOL     OW60336  10.119   3.728  11.674
53437SOL    HW160337  10.159   3.819  11.665
53437SOL    HW260338  10.019   3.736  11.680
53438SOL     OW60339   9.507   4.700  12.436
53438SOL    HW160340   9.596   4.655  12.422
53438SOL    HW260341   9.434   4.635  12.417
53439SOL     OW60342  10.835   4.723  11.362
53439SOL    HW160343  10.772   4.647  11.375
53439SOL    HW260344  10.883   4.741  11.448
53440SOL     OW60345   9.627   3.975  12.973
53440SOL    HW160346   9.698   4.046  12.979
53440SOL    HW260347   9.539   4.014  13.001
53441SOL     OW60348  10.776   5.141  12.125
53441SOL    HW160349  10.717   5.147  12.205
53441SOL    HW260350  10.761   5.053  12.079
53442SOL     OW60351  10.977   5.438  11.744
53442SOL    HW160352  10.936   5.415  11.656
53442SOL    HW260353  10.959   5.364  11.809
53443SOL     OW60354   9.908   4.453  11.442
53443SOL    HW160355   9.932   4.522  11.374
53443SOL    HW260356   9.830   4.486  11.496
53444SOL     OW60357  10.591   4.069  12.116
53444SOL    HW160358  10.505   4.019  12.103
53444SOL    HW260359  10.653   4.015  12.172
53445SOL     OW60360  10.886   5.386  11.479
53445SOL    HW160361  10.975   5.432  11.482
53445SOL    HW260362  10.865   5.362  11.384
53446SOL     OW60363  10.117   4.329  12.637
53446SOL    HW160364  10.070   4.326  12.726
53446SOL    HW260365  10.066   4.274  12.571
53447SOL     OW60366  10.301   4.134  12.414
53447SOL    HW160367  10.224   4.168  12.468
53447SOL    HW260368  10.267   4.083  12.335
53448SOL     OW60369  10.351   4.425  11.601
53448SOL    HW160370  10.377   4.421  11.697
53448SOL    HW260371  10.266   4.374  11.587
53449SOL     OW60372   9.386   4.535  11.961
53449SOL    HW160373   9.485   4.523  11.970
53449SOL    HW260374   9.362   4.630  11.982
53450SOL     OW60375   9.440   5.545  12.743
53450SOL    HW160376   9.430   5.530  12.842
53450SOL    HW260377   9.354   5.581  12.707
53451SOL     OW60378  10.175   4.072  11.367
53451SOL    HW160379  10.234   4.135  11.318
53451SOL    HW260380  10.194   3.978  11.338
53452SOL     OW60381  10.672   4.868  11.717
53452SOL    HW160382  10.755   4.839  11.669
53452SOL    HW260383  10.623   4.935  11.661
53453SOL     OW60384   9.860   3.920  12.057
53453SOL    HW160385   9.855   3.915  12.157
53453SOL    HW260386   9.862   4.016  12.028
53454SOL     OW60387  10.318   5.180  11.649
53454SOL    HW160388  10.272   5.252  11.597
53454SOL    HW260389  10.314   5.200  11.747
53455SOL     OW60390   9.661   5.525  12.025
53455SOL    HW160391   9.711   5.439  12.031
53455SOL    HW260392   9.726   5.602  12.022
53456SOL     OW60393  11.105   4.790  12.045
53456SOL    HW160394  11.043   4.775  11.969
53456SOL    HW260395  11.053   4.801  12.130
53457SOL     OW60396   9.631   4.667  11.414
53457SOL    HW160397   9.713   4.706  11.372
53457SOL    HW260398   9.604   4.585  11.365
53458SOL     OW60399  10.768   4.459  11.900
53458SOL    HW160400  10.763   4.394  11.975
53458SOL    HW260401  10.848   4.518  11.913
53459SOL     OW60402  10.421   5.500  11.409
53459SOL    HW160403  10.361   5.438  11.459
53459SOL    HW260404  10.452   5.456  11.324
53460SOL     OW60405   9.512   4.009  12.670
53460SOL    HW160406   9.432   4.069  12.657
53460SOL    HW260407   9.502   3.960  12.756
53461SOL     OW60408  10.942   5.101  11.253
53461SOL    HW160409  10.910   5.195  11.243
53461SOL    HW260410  10.866   5.038  11.241
53462SOL     OW60411   9.774   5.467  11.495
53462SOL    HW160412   9.807   5.506  11.581
53462SOL    HW260413   9.850   5.460  11.430
53463SOL     OW60414  10.710   3.831  11.598
53463SOL    HW160415  10.686   3.794  11.508
53463SOL    HW260416  10.809   3.847  11.602
53464SOL     OW60417  10.250   5.422  12.076
53464SOL    HW160418  10.330   5.365  12.097
53464SOL    HW260419  10.201   5.382  11.999
53465SOL     OW60420   9.692   4.424  11.652
53465SOL    HW160421   9.737   4.334  11.649
53465SOL    HW260422   9.598   4.413  11.685
53466SOL     OW60423   9.924   3.846  11.289
53466SOL    HW160424  10.022   3.824  11.296
53466SOL    HW260425   9.893   3.829  11.196
53467SOL     OW60426  10.198   5.238  12.367
53467SOL    HW160427  10.175   5.213  12.273
53467SOL    HW260428  10.259   5.169  12.406
53468SOL     OW60429  10.113   5.126  12.096
53468SOL    HW160430  10.203   5.140  12.054
53468SOL    HW260431  10.042   5.128  12.025
53469SOL     OW60432  10.232   4.227  12.071
53469SOL    HW160433  10.207   4.218  11.975
53469SOL    HW260434  10.280   4.145  12.102
53470SOL     OW60435   9.849   3.788  11.684
53470SOL    HW160436   9.768   3.789  11.742
53470SOL    HW260437   9.852   3.871  11.629
53471SOL     OW60438  10.744   4.912  11.213
53471SOL    HW160439  10.776   4.836  11.270
53471SOL    HW260440  10.652   4.939  11.243
53472SOL     OW60441   9.607   3.759  11.343
53472SOL    HW160442   9.656   3.843  11.322
53472SOL    HW260443   9.669   3.694  11.388
53473SOL     OW60444  10.245   3.960  11.652
53473SOL    HW160445  10.197   4.001  11.574
53473SOL    HW260446  10.344   3.958  11.633
53474SOL     OW60447  10.537   5.294  11.965
53474SOL    HW160448  10.558   5.368  11.900
53474SOL    HW260449  10.605   5.294  12.038
53475SOL     OW60450   9.769   4.876  11.913
53475SOL    HW160451   9.698   4.849  11.978
53475SOL    HW260452   9.743   4.848  11.820
53476SOL     OW60453  10.581   5.521  11.763
53476SOL    HW160454  10.625   5.585  11.699
53476SOL    HW260455  10.531   5.573  11.833
53477SOL     OW60456  10.342   4.273  11.188
53477SOL    HW160457  10.301   4.355  11.149
53477SOL    HW260458  10.406   4.299  11.261
53478SOL     OW60459   9.388   4.280  12.558
53478SOL    HW160460   9.480   4.279  12.517
53478SOL    HW260461   9.382   4.354  12.625
53479SOL     OW60462   9.871   3.946  12.319
53479SOL    HW160463   9.909   3.862  12.356
53479SOL    HW260464   9.783   3.965  12.363
53480SOL     OW60465  10.176   4.178  11.814
53480SOL    HW160466  10.144   4.250  11.752
53480SOL    HW260467  10.200   4.097  11.761
53481SOL     OW60468  10.327   3.763  11.925
53481SOL    HW160469  10.255   3.768  11.856
53481SOL    HW260470  10.303   3.694  11.994
53482SOL     OW60471  10.739   4.897  12.039
53482SOL    HW160472  10.684   4.813  12.032
53482SOL    HW260473  10.765   4.926  11.947
53483SOL     OW60474  10.776   4.314  12.164
53483SOL    HW160475  10.746   4.219  12.171
53483SOL    HW260476  10.849   4.330  12.230
53484SOL     OW60477  11.167   4.557  11.549
53484SOL    HW160478  11.209   4.493  11.613
53484SOL    HW260479  11.129   4.506  11.471
53485SOL     OW60480   9.798   5.109  11.346
53485SOL    HW160481   9.711   5.094  11.393
53485SOL    HW260482   9.781   5.135  11.251
53486SOL     OW60483  10.974   5.004  11.829
53486SOL    HW160484  11.073   5.012  11.843
53486SOL    HW260485  10.929   5.088  11.860
53487SOL     OW60486  10.700   4.299  11.250
53487SOL    HW160487  10.646   4.278  11.331
53487SOL    HW260488  10.791   4.258  11.259
53488SOL     OW60489   9.837   3.980  11.500
53488SOL    HW160490   9.864   3.921  11.425
53488SOL    HW260491   9.837   4.075  11.469
53489SOL     OW60492  10.374   5.071  12.512
53489SOL    HW160493  10.294   5.048  12.567
53489SOL    HW260494  10.457   5.045  12.561
53490SOL     OW60495  10.421   4.919  12.272
53490SOL    HW160496  10.381   4.963  12.353
53490SOL    HW260497  10.380   4.956  12.189
53491SOL     OW60498  10.948   4.823  12.251
53491SOL    HW160499  10.953   4.904  12.310
53491SOL    HW260500  10.862   4.825  12.200
53492SOL     OW60501  10.225   3.813  12.574
53492SOL    HW160502  10.250   3.793  12.479
53492SOL    HW260503  10.297   3.869  12.616
53493SOL     OW60504  10.015   4.774  11.540
53493SOL    HW160505  10.001   4.781  11.639
53493SOL    HW260506  10.099   4.723  11.522
53494SOL     OW60507   9.720   4.537  12.423
53494SOL    HW160508   9.806   4.549  12.473
53494SOL    HW260509   9.678   4.450  12.450
53495SOL     OW60510  10.584   4.110  12.434
53495SOL    HW160511  10.605   4.184  12.498
53495SOL    HW260512  10.495   4.127  12.391
53496SOL     OW60513   9.374   5.288  12.503
53496SOL    HW160514   9.328   5.370  12.469
53496SOL    HW260515   9.472   5.307  12.512
53497SOL     OW60516   9.677   4.824  11.673
53497SOL    HW160517   9.670   4.907  11.617
53497SOL    HW260518   9.681   4.744  11.613
53498SOL     OW60519   9.876   4.261  12.037
53498SOL    HW160520   9.888   4.327  11.963
53498SOL    HW260521   9.922   4.295  12.120
53499SOL     OW60522  10.562   5.072  11.560
53499SOL    HW160523  10.612   5.149  11.600
53499SOL    HW260524  10.467   5.074  11.592
53500SOL     OW60525  10.582   5.169  12.314
53500SOL    HW160526  10.629   5.182  12.401
53500SOL    HW260527  10.516   5.095  12.323
53501SOL     OW60528  10.892   4.363  11.644
53501SOL    HW160529  10.861   4.424  11.717
53501SOL    HW260530  10.942   4.415  11.575
53502SOL     OW60531   9.664   5.234  12.501
53502SOL    HW160532   9.643   5.190  12.414
53502SOL    HW260533   9.761   5.260  12.504
53503SOL     OW60534   9.712   4.475  12.770
53503SOL    HW160535   9.780   4.530  12.723
53503SOL    HW260536   9.752   4.387  12.797
53504SOL     OW60537  10.897   4.503  12.842
53504SOL    HW160538  10.805   4.541  12.837
53504SOL    HW260539  10.957   4.550  12.777
53505SOL     OW60540   9.883   4.594  12.201
53505SOL    HW160541   9.927   4.683  12.192
53505SOL    HW260542   9.820   4.594  12.278
53506SOL     OW60543  10.670   4.586  12.217
53506SOL    HW160544  10.595   4.586  12.151
53506SOL    HW260545  10.707   4.494  12.226
53507SOL     OW60546  10.519   4.249  11.447
53507SOL    HW160547  10.532   4.165  11.501
53507SOL    HW260548  10.490   4.323  11.507
53508SOL     OW60549   9.617   3.937  12.403
53508SOL    HW160550   9.594   3.974  12.493
53508SOL    HW260551   9.587   3.842  12.397
53509SOL     OW60552   9.347   5.034  12.454
53509SOL    HW160553   9.400   4.985  12.522
53509SOL    HW260554   9.369   5.132  12.459
53510SOL     OW60555  10.042   4.358  12.236
53510SOL    HW160556  10.101   4.332  12.160
53510SOL    HW260557  10.014   4.454  12.225
53511SOL     OW60558   9.617   3.787  11.790
53511SOL    HW160559   9.606   3.881  11.823
53511SOL    HW260560   9.612   3.724  11.867
53512SOL     OW60561  10.932   4.091  11.546
53512SOL    HW160562  10.934   4.015  11.610
53512SOL    HW260563  10.884   4.168  11.586
53513SOL     OW60564  10.333   4.490  12.138
53513SOL    HW160565  10.348   4.511  12.234
53513SOL    HW260566  10.303   4.395  12.129
53514SOL     OW60567  10.290   5.297  12.872
53514SOL    HW160568  10.270   5.341  12.784
53514SOL    HW260569  10.329   5.206  12.856
53515SOL     OW60570  10.850   3.998  11.297
53515SOL    HW160571  10.789   3.923  11.320
53515SOL    HW260572  10.872   4.050  11.380
53516SOL     OW60573  10.613   4.562  11.214
53516SOL    HW160574  10.647   4.469  11.229
53516SOL    HW260575  10.631   4.589  11.119
53517SOL     OW60576  10.378   5.057  12.021
53517SOL    HW160577  10.385   4.973  11.966
53517SOL    HW260578  10.440   5.126  11.985
53518SOL     OW60579   9.629   4.534  12.121
53518SOL    HW160580   9.722   4.570  12.126
53518SOL    HW260581   9.623   4.449  12.173
53519SOL     OW60582   9.649   4.233  12.178
53519SOL    HW160583   9.597   4.150  12.161
53519SOL    HW260584   9.726   4.238  12.114
53520SOL     OW60585  10.448   4.104  12.850
53520SOL    HW160586  10.403   4.167  12.914
53520SOL    HW260587  10.541   4.135  12.833
53521SOL     OW60588  10.470   3.931  12.649
53521SOL    HW160589  10.470   3.995  12.726
53521SOL    HW260590  10.498   3.979  12.566
53522SOL     OW60591   9.318   5.050  11.372
53522SOL    HW160592   9.225   5.071  11.341
53522SOL    HW260593   9.328   4.951  11.385
53523SOL     OW60594   9.398   5.525  12.099
53523SOL    HW160595   9.356   5.439  12.072
53523SOL    HW260596   9.492   5.528  12.065
53524SOL     OW60597   9.814   5.292  12.082
53524SOL    HW160598   9.880   5.366  12.091
53524SOL    HW260599   9.858   5.213  12.040
53525SOL     OW60600  10.312   4.520  12.410
53525SOL    HW160601  10.353   4.488  12.496
53525SOL    HW260602  10.216   4.493  12.407
53526SOL     OW60603   9.350   4.268  12.286
53526SOL    HW160604   9.435   4.235  12.245
53526SOL    HW260605   9.363   4.283  12.384
53527SOL     OW60606  10.125   4.296  11.497
53527SOL    HW160607  10.132   4.207  11.451
53527SOL    HW260608  10.031   4.330  11.489
53528SOL     OW60609  10.967   4.328  12.378
53528SOL    HW160610  10.929   4.259  12.440
53528SOL    HW260611  11.049   4.292  12.334
53529SOL     OW60612   9.981   4.188  12.441
53529SOL    HW160613   9.947   4.099  12.411
53529SOL    HW260614  10.007   4.242  12.361
53530SOL     OW60615  10.240   5.402  12.637
53530SOL    HW160616  10.216   5.384  12.542
53530SOL    HW260617  10.270   5.496  12.647
53531SOL     OW60618   9.783   4.224  11.363
53531SOL    HW160619   9.844   4.304  11.367
53531SOL    HW260620   9.688   4.255  11.370
53532SOL     OW60621   9.469   4.861  12.638
53532SOL    HW160622   9.491   4.800  12.714
53532SOL    HW260623   9.479   4.812  12.552
53533SOL     OW60624  10.657   4.783  12.406
53533SOL    HW160625  10.681   4.720  12.332
53533SOL    HW260626  10.567   4.823  12.388
53534SOL     OW60627  10.612   4.579  11.481
53534SOL    HW160628  10.526   4.548  11.523
53534SOL    HW260629  10.608   4.565  11.382
53535SOL     OW60630  11.069   5.471  12.326
53535SOL    HW160631  11.130   5.501  12.253
53535SOL    HW260632  11.031   5.382  12.304
53536SOL     OW60633  10.562   5.455  12.300
53536SOL    HW160634  10.646   5.460  12.246
53536SOL    HW260635  10.539   5.359  12.318
53537SOL     OW60636   9.393   4.982  12.194
53537SOL    HW160637   9.388   4.981  12.294
53537SOL    HW260638   9.310   4.941  12.156
53538SOL     OW60639  11.036   3.859  11.695
53538SOL    HW160640  11.109   3.842  11.628
53538SOL    HW260641  11.005   3.772  11.733
53539SOL     OW60642  10.698   5.297  11.649
53539SOL    HW160643  10.765   5.309  11.575
53539SOL    HW260644  10.658   5.386  11.672
53540SOL     OW60645  10.590   4.651  11.844
53540SOL    HW160646  10.650   4.570  11.846
53540SOL    HW260647  10.630   4.720  11.784
53541SOL     OW60648   9.982   5.340  11.326
53541SOL    HW160649   9.991   5.350  11.227
53541SOL    HW260650   9.942   5.251  11.347
53542SOL     OW60651  10.960   5.444  12.566
53542SOL    HW160652  11.013   5.454  12.482
53542SOL    HW260653  10.933   5.534  12.600
53543SOL     OW60654  11.151   3.899  12.135
53543SOL    HW160655  11.190   3.814  12.099
53543SOL    HW260656  11.053   3.901  12.116
53544SOL     OW60657   9.573   4.050  11.892
53544SOL    HW160658   9.494   4.101  11.858
53544SOL    HW260659   9.564   4.035  11.990
53545SOL     OW60660  10.504   5.336  11.203
53545SOL    HW160661  10.510   5.243  11.240
53545SOL    HW260662  10.445   5.336  11.123
53546SOL     OW60663  10.132   4.726  12.544
53546SOL    HW160664  10.172   4.725  12.452
53546SOL    HW260665  10.142   4.818  12.584
53547SOL     OW60666  10.226   4.634  11.463
53547SOL    HW160667  10.289   4.672  11.395
53547SOL    HW260668  10.266   4.551  11.502
53548SOL     OW60669  10.814   5.331  11.216
53548SOL    HW160670  10.722   5.368  11.223
53548SOL    HW260671  10.852   5.351  11.126
53549SOL     OW60672   9.682   5.012  12.662
53549SOL    HW160673   9.669   5.105  12.628
53549SOL    HW260674   9.598   4.960  12.649
53550SOL     OW60675  10.924   5.016  12.461
53550SOL    HW160676  10.984   5.019  12.541
53550SOL    HW260677  10.849   5.080  12.474
53551SOL     OW60678  10.349   4.822  11.868
53551SOL    HW160679  10.279   4.775  11.922
53551SOL    HW260680  10.408   4.754  11.825
53552SOL     OW60681  10.324   3.960  12.143
53552SOL    HW160682  10.316   3.924  12.050
53552SOL    HW260683  10.322   3.884  12.208
53553SOL     OW60684   9.900   5.211  11.663
53553SOL    HW160685   9.942   5.153  11.593
53553SOL    HW260686   9.856   5.290  11.619
53554SOL     OW60687  11.019   4.109  12.553
53554SOL    HW160688  11.092   4.178  12.557
53554SOL    HW260689  11.047   4.034  12.494
53555SOL     OW60690   9.565   5.072  11.462
53555SOL    HW160691   9.469   5.073  11.435
53555SOL    HW260692   9.577   5.125  11.546
53556SOL     OW60693   9.385   4.069  11.205
53556SOL    HW160694   9.293   4.041  11.176
53556SOL    HW260695   9.416   4.146  11.149
53557SOL     OW60696  10.750   4.580  12.570
53557SOL    HW160697  10.693   4.632  12.507
53557SOL    HW260698  10.846   4.592  12.546
53558SOL     OW60699   9.382   3.890  11.490
53558SOL    HW160700   9.365   3.973  11.436
53558SOL    HW260701   9.472   3.853  11.468
53559SOL     OW60702  10.493   5.059  11.291
53559SOL    HW160703  10.394   5.048  11.293
53559SOL    HW260704  10.527   5.074  11.384
53560SOL     OW60705   9.923   4.566  12.603
53560SOL    HW160706   9.979   4.647  12.586
53560SOL    HW260707   9.982   4.486  12.606
53561SOL     OW60708  10.803   5.491  12.131
53561SOL    HW160709  10.836   5.555  12.062
53561SOL    HW260710  10.869   5.485  12.206
53562SOL     OW60711   9.700   5.465  12.732
53562SOL    HW160712   9.609   5.506  12.730
53562SOL    HW260713   9.693   5.371  12.764
53563SOL     OW60714  10.984   4.607  12.426
53563SOL    HW160715  10.957   4.518  12.389
53563SOL    HW260716  10.985   4.675  12.353
53564SOL     OW60717  10.535   4.049  11.621
53564SOL    HW160718  10.600   3.975  11.610
53564SOL    HW260719  10.555   4.099  11.705
53565SOL     OW60720   9.904   4.469  11.824
53565SOL    HW160721   9.954   4.554  11.805
53565SOL    HW260722   9.816   4.471  11.776
53566SOL     OW60723  11.087   4.066  12.814
53566SOL    HW160724  11.070   4.097  12.720
53566SOL    HW260725  11.003   4.029  12.852
53567SOL     OW60726  11.040   4.658  12.689
53567SOL    HW160727  11.078   4.749  12.704
53567SOL    HW260728  11.032   4.641  12.590
53568SOL     OW60729  10.169   5.098  11.188
53568SOL    HW160730  10.123   5.113  11.276
53568SOL    HW260731  10.213   5.183  11.158
53569SOL     OW60732   9.971   5.514  12.125
53569SOL    HW160733   9.925   5.602  12.112
53569SOL    HW260734  10.070   5.526  12.118
53570SOL     OW60735  10.169   4.680  12.033
53570SOL    HW160736  10.223   4.611  12.081
53570SOL    HW260737  10.137   4.749  12.099
53571SOL     OW60738  10.393   4.708  11.259
53571SOL    HW160739  10.370   4.761  11.177
53571SOL    HW260740  10.474   4.652  11.240
53572SOL     OW60741  11.171   5.293  12.023
53572SOL    HW160742  11.100   5.281  11.953
53572SOL    HW260743  11.172   5.214  12.083
53573SOL     OW60744   9.389   4.964  11.825
53573SOL    HW160745   9.388   4.917  11.913
53573SOL    HW260746   9.471   4.936  11.774
53574SOL     OW60747  11.134   3.916  12.399
53574SOL    HW160748  11.130   3.826  12.443
53574SOL    HW260749  11.137   3.905  12.300
53575SOL     OW60750   9.738   4.148  11.692
53575SOL    HW160751   9.768   4.076  11.630
53575SOL    HW260752   9.699   4.108  11.775
53576SOL     OW60753  11.015   5.211  12.276
53576SOL    HW160754  10.922   5.186  12.249
53576SOL    HW260755  11.041   5.161  12.358
53577SOL     OW60756   9.627   4.271  12.452
53577SOL    HW160757   9.665   4.212  12.524
53577SOL    HW260758   9.667   4.245  12.364
53578SOL     OW60759  10.122   5.310  11.859
53578SOL    HW160760  10.154   5.320  11.765
53578SOL    HW260761  10.043   5.248  11.861
53579SOL     OW60762  10.734   3.938  12.284
53579SOL    HW160763  10.786   3.873  12.339
53579SOL    HW260764  10.685   4.001  12.345
53580SOL     OW60765  10.311   3.758  12.326
53580SOL    HW160766  10.248   3.686  12.295
53580SOL    HW260767  10.404   3.722  12.326
53581SOL     OW60768  10.080   5.054  11.473
53581SOL    HW160769  10.034   4.967  11.490
53581SOL    HW260770  10.171   5.051  11.514
53582SOL     OW60771   9.928   5.291  12.456
53582SOL    HW160772   9.923   5.373  12.513
53582SOL    HW260773  10.017   5.288  12.411
53583SOL     OW60774  10.662   3.776  11.340
53583SOL    HW160775  10.697   3.735  11.256
53583SOL    HW260776  10.572   3.738  11.360
53584SOL     OW60777  10.610   4.177  11.863
53584SOL    HW160778  10.551   4.257  11.867
53584SOL    HW260779  10.625   4.142  11.956
53585SOL     OW60780  10.903   3.945  12.054
53585SOL    HW160781  10.819   3.944  12.108
53585SOL    HW260782  10.905   4.028  11.998
53586SOL     OW60783   9.349   4.801  11.472
53586SOL    HW160784   9.448   4.790  11.463
53586SOL    HW260785   9.309   4.715  11.504
53587SOL     OW60786  10.185   5.370  11.509
53587SOL    HW160787  10.108   5.335  11.455
53587SOL    HW260788  10.153   5.441  11.571
53588SOL     OW60789   9.540   6.214   0.113
53588SOL    HW160790   9.447   6.212   0.150
53588SOL    HW260791   9.541   6.175   0.021
53589SOL     OW60792   9.535   5.861   0.996
53589SOL    HW160793   9.570   5.844   1.088
53589SOL    HW260794   9.447   5.816   0.984
53590SOL     OW60795   9.329   5.954   0.647
53590SOL    HW160796   9.247   5.997   0.686
53590SOL    HW260797   9.301   5.881   0.584
53591SOL     OW60798   9.879   6.861   1.165
53591SOL    HW160799   9.786   6.854   1.128
53591SOL    HW260800   9.890   6.950   1.209
53592SOL     OW60801  10.865   7.097   0.703
53592SOL    HW160802  10.808   7.081   0.784
53592SOL    HW260803  10.806   7.107   0.623
53593SOL     OW60804  10.445   6.289   0.717
53593SOL    HW160805  10.502   6.367   0.692
53593SOL    HW260806  10.385   6.315   0.793
53594SOL     OW60807  11.065   6.193   0.231
53594SOL    HW160808  11.053   6.180   0.132
53594SOL    HW260809  11.035   6.112   0.280
53595SOL     OW60810  10.078   6.730   1.023
53595SOL    HW160811  10.000   6.747   1.083
53595SOL    HW260812  10.112   6.817   0.987
53596SOL     OW60813  10.160   6.384   1.823
53596SOL    HW160814  10.156   6.460   1.888
53596SOL    HW260815  10.182   6.420   1.732
53597SOL     OW60816   9.995   6.598   0.665
53597SOL    HW160817  10.064   6.582   0.735
53597SOL    HW260818   9.922   6.655   0.703
53598SOL     OW60819   9.996   6.747   1.803
53598SOL    HW160820  10.056   6.826   1.817
53598SOL    HW260821   9.910   6.778   1.762
53599SOL     OW60822   9.645   7.021   1.061
53599SOL    HW160823   9.567   6.990   1.008
53599SOL    HW260824   9.703   7.079   1.004
53600SOL     OW60825  10.770   7.091   1.339
53600SOL    HW160826  10.794   7.185   1.365
53600SOL    HW260827  10.754   7.037   1.421
53601SOL     OW60828   9.748   5.978   1.499
53601SOL    HW160829   9.830   5.922   1.508
53601SOL    HW260830   9.667   5.920   1.503
53602SOL     OW60831  10.913   6.033   0.737
53602SOL    HW160832  10.839   6.079   0.687
53602SOL    HW260833  10.964   6.101   0.790
53603SOL     OW60834   9.541   7.299   0.483
53603SOL    HW160835   9.575   7.376   0.537
53603SOL    HW260836   9.585   7.299   0.393
53604SOL     OW60837  10.437   6.927   1.690
53604SOL    HW160838  10.484   6.927   1.778
53604SOL    HW260839  10.389   6.840   1.679
53605SOL     OW60840   9.540   7.020   0.538
53605SOL    HW160841   9.514   7.116   0.538
53605SOL    HW260842   9.469   6.966   0.583
53606SOL     OW60843   9.550   6.677   0.886
53606SOL    HW160844   9.564   6.593   0.938
53606SOL    HW260845   9.495   6.741   0.941
53607SOL     OW60846   9.930   7.372   1.439
53607SOL    HW160847   9.838   7.355   1.474
53607SOL    HW260848   9.958   7.464   1.465
53608SOL     OW60849   9.916   6.550   0.123
53608SOL    HW160850   9.923   6.634   0.069
53608SOL    HW260851   9.962   6.563   0.211
53609SOL     OW60852  10.904   5.700   1.480
53609SOL    HW160853  10.886   5.767   1.408
53609SOL    HW260854  10.901   5.746   1.569
53610SOL     OW60855   9.432   6.229   0.563
53610SOL    HW160856   9.387   6.141   0.580
53610SOL    HW260857   9.431   6.283   0.647
53611SOL     OW60858  11.152   7.353   0.359
53611SOL    HW160859  11.206   7.324   0.439
53611SOL    HW260860  11.182   7.443   0.330
53612SOL     OW60861   9.337   7.182   0.117
53612SOL    HW160862   9.318   7.086   0.138
53612SOL    HW260863   9.304   7.240   0.192
53613SOL     OW60864  10.999   6.508   0.612
53613SOL    HW160865  11.094   6.479   0.620
53613SOL    HW260866  10.991   6.573   0.537
53614SOL     OW60867  10.951   6.694   0.432
53614SOL    HW160868  11.037   6.696   0.380
53614SOL    HW260869  10.965   6.741   0.520
53615SOL     OW60870   9.423   6.323   1.597
53615SOL    HW160871   9.511   6.310   1.642
53615SOL    HW260872   9.410   6.420   1.575
53616SOL     OW60873   9.923   6.951   0.726
53616SOL    HW160874   9.874   6.864   0.735
53616SOL    HW260875   9.900   6.994   0.639
53617SOL     OW60876  10.603   6.814   1.423
53617SOL    HW160877  10.640   6.741   1.365
53617SOL    HW260878  10.655   6.819   1.508
53618SOL     OW60879  10.119   5.590   0.502
53618SOL    HW160880  10.159   5.681   0.493
53618SOL    HW260881  10.019   5.598   0.508
53619SOL     OW60882   9.507   6.562   1.264
53619SOL    HW160883   9.596   6.517   1.250
53619SOL    HW260884   9.434   6.497   1.245
53620SOL     OW60885  10.835   6.585   0.190
53620SOL    HW160886  10.772   6.509   0.203
53620SOL    HW260887  10.883   6.603   0.276
53621SOL     OW60888  10.497   7.378   1.616
53621SOL    HW160889  10.521   7.438   1.540
53621SOL    HW260890  10.504   7.283   1.586
53622SOL     OW60891   9.627   5.837   1.801
53622SOL    HW160892   9.698   5.908   1.807
53622SOL    HW260893   9.539   5.876   1.829
53623SOL     OW60894  10.776   7.003   0.953
53623SOL    HW160895  10.717   7.009   1.033
53623SOL    HW260896  10.761   6.915   0.907
53624SOL     OW60897  10.977   7.300   0.572
53624SOL    HW160898  10.936   7.277   0.484
53624SOL    HW260899  10.959   7.226   0.637
53625SOL     OW60900   9.908   6.315   0.270
53625SOL    HW160901   9.932   6.384   0.202
53625SOL    HW260902   9.830   6.348   0.324
53626SOL     OW60903  10.591   5.931   0.944
53626SOL    HW160904  10.505   5.881   0.931
53626SOL    HW260905  10.653   5.877   1.000
53627SOL     OW60906  10.886   7.248   0.307
53627SOL    HW160907  10.975   7.294   0.310
53627SOL    HW260908  10.865   7.224   0.212
53628SOL     OW60909  10.117   6.191   1.465
53628SOL    HW160910  10.070   6.188   1.554
53628SOL    HW260911  10.066   6.136   1.399
53629SOL     OW60912  10.704   6.055   1.674
53629SOL    HW160913  10.684   6.098   1.762
53629SOL    HW260914  10.782   5.993   1.683
53630SOL     OW60915  10.283   6.476   1.572
53630SOL    HW160916  10.329   6.392   1.543
53630SOL    HW260917  10.227   6.510   1.497
53631SOL     OW60918  10.301   5.996   1.242
53631SOL    HW160919  10.224   6.030   1.296
53631SOL    HW260920  10.267   5.945   1.163
53632SOL     OW60921  10.351   6.287   0.429
53632SOL    HW160922  10.377   6.283   0.525
53632SOL    HW260923  10.266   6.236   0.415
53633SOL     OW60924   9.386   6.397   0.789
53633SOL    HW160925   9.485   6.385   0.798
53633SOL    HW260926   9.362   6.492   0.810
53634SOL     OW60927   9.440   7.407   1.571
53634SOL    HW160928   9.430   7.392   1.670
53634SOL    HW260929   9.354   7.443   1.535
53635SOL     OW60930  10.175   5.934   0.195
53635SOL    HW160931  10.234   5.997   0.146
53635SOL    HW260932  10.194   5.840   0.166
53636SOL     OW60933  11.029   6.171   1.831
53636SOL    HW160934  11.003   6.260   1.795
53636SOL    HW260935  11.027   6.103   1.758
53637SOL     OW60936  10.672   6.730   0.545
53637SOL    HW160937  10.755   6.701   0.497
53637SOL    HW260938  10.623   6.797   0.489
53638SOL     OW60939   9.860   5.782   0.885
53638SOL    HW160940   9.855   5.777   0.985
53638SOL    HW260941   9.862   5.878   0.856
53639SOL     OW60942  10.318   7.042   0.477
53639SOL    HW160943  10.272   7.114   0.425
53639SOL    HW260944  10.314   7.062   0.575
53640SOL     OW60945   9.661   7.387   0.853
53640SOL    HW160946   9.711   7.301   0.859
53640SOL    HW260947   9.726   7.464   0.850
53641SOL     OW60948  11.105   6.652   0.873
53641SOL    HW160949  11.043   6.637   0.797
53641SOL    HW260950  11.053   6.663   0.958
53642SOL     OW60951  10.537   7.136   1.506
53642SOL    HW160952  10.543   7.059   1.570
53642SOL    HW260953  10.485   7.110   1.426
53643SOL     OW60954   9.631   6.529   0.242
53643SOL    HW160955   9.713   6.568   0.200
53643SOL    HW260956   9.604   6.447   0.193
53644SOL     OW60957  10.768   6.321   0.728
53644SOL    HW160958  10.763   6.256   0.803
53644SOL    HW260959  10.848   6.380   0.741
53645SOL     OW60960   9.771   6.852   1.727
53645SOL    HW160961   9.721   6.853   1.641
53645SOL    HW260962   9.708   6.834   1.803
53646SOL     OW60963  10.421   7.362   0.237
53646SOL    HW160964  10.361   7.300   0.287
53646SOL    HW260965  10.452   7.318   0.152
53647SOL     OW60966   9.512   5.871   1.498
53647SOL    HW160967   9.432   5.931   1.485
53647SOL    HW260968   9.502   5.822   1.584
53648SOL     OW60969  10.942   6.963   0.081
53648SOL    HW160970  10.910   7.057   0.071
53648SOL    HW260971  10.866   6.900   0.069
53649SOL     OW60972   9.774   7.329   0.323
53649SOL    HW160973   9.807   7.368   0.409
53649SOL    HW260974   9.850   7.322   0.258
53650SOL     OW60975  10.710   5.693   0.426
53650SOL    HW160976  10.686   5.656   0.336
53650SOL    HW260977  10.809   5.709   0.430
53651SOL     OW60978   9.559   7.371   1.241
53651SOL    HW160979   9.616   7.306   1.291
53651SOL    HW260980   9.543   7.338   1.148
53652SOL     OW60981  10.250   7.284   0.904
53652SOL    HW160982  10.330   7.227   0.925
53652SOL    HW260983  10.201   7.244   0.827
53653SOL     OW60984   9.692   6.286   0.480
53653SOL    HW160985   9.737   6.196   0.477
53653SOL    HW260986   9.598   6.275   0.513
53654SOL     OW60987  10.857   5.808   1.729
53654SOL    HW160988  10.852   5.845   1.821
53654SOL    HW260989  10.785   5.739   1.717
53655SOL     OW60990   9.924   5.708   0.117
53655SOL    HW160991  10.022   5.686   0.124
53655SOL    HW260992   9.893   5.691   0.024
53656SOL     OW60993  10.091   5.850   1.749
53656SOL    HW160994  10.158   5.789   1.792
53656SOL    HW260995  10.018   5.869   1.814
53657SOL     OW60996  10.198   7.100   1.195
53657SOL    HW160997  10.175   7.075   1.101
53657SOL    HW260998  10.259   7.031   1.234
53658SOL     OW60999  10.661   6.176   1.433
53658SOL    HW161000  10.689   6.133   1.518
53658SOL    HW261001  10.686   6.272   1.434
53659SOL     OW61002  10.113   6.988   0.924
53659SOL    HW161003  10.203   7.002   0.882
53659SOL    HW261004  10.042   6.990   0.853
53660SOL     OW61005  10.232   6.089   0.899
53660SOL    HW161006  10.207   6.080   0.803
53660SOL    HW261007  10.280   6.007   0.930
53661SOL     OW61008   9.849   5.650   0.512
53661SOL    HW161009   9.768   5.651   0.570
53661SOL    HW261010   9.852   5.733   0.457
53662SOL     OW61011  10.744   6.774   0.041
53662SOL    HW161012  10.776   6.698   0.098
53662SOL    HW261013  10.652   6.801   0.071
53663SOL     OW61014   9.607   5.621   0.171
53663SOL    HW161015   9.656   5.705   0.150
53663SOL    HW261016   9.669   5.556   0.216
53664SOL     OW61017  10.245   5.822   0.480
53664SOL    HW161018  10.197   5.863   0.402
53664SOL    HW261019  10.344   5.820   0.461
53665SOL     OW61020  10.386   6.269   1.464
53665SOL    HW161021  10.306   6.208   1.467
53665SOL    HW261022  10.467   6.216   1.440
53666SOL     OW61023  10.537   7.156   0.793
53666SOL    HW161024  10.558   7.230   0.728
53666SOL    HW261025  10.605   7.156   0.866
53667SOL     OW61026   9.769   6.738   0.741
53667SOL    HW161027   9.698   6.711   0.806
53667SOL    HW261028   9.743   6.710   0.648
53668SOL     OW61029  10.581   7.383   0.591
53668SOL    HW161030  10.625   7.447   0.527
53668SOL    HW261031  10.531   7.435   0.661
53669SOL     OW61032  10.342   6.135   0.016
53669SOL    HW161033  10.301   6.217  -0.023
53669SOL    HW261034  10.406   6.161   0.089
53670SOL     OW61035   9.388   6.142   1.386
53670SOL    HW161036   9.480   6.141   1.345
53670SOL    HW261037   9.382   6.216   1.453
53671SOL     OW61038   9.871   5.808   1.147
53671SOL    HW161039   9.909   5.724   1.184
53671SOL    HW261040   9.783   5.827   1.191
53672SOL     OW61041  10.176   6.040   0.642
53672SOL    HW161042  10.144   6.112   0.580
53672SOL    HW261043  10.200   5.959   0.589
53673SOL     OW61044  10.327   5.625   0.753
53673SOL    HW161045  10.255   5.630   0.684
53673SOL    HW261046  10.303   5.556   0.822
53674SOL     OW61047  10.739   6.759   0.867
53674SOL    HW161048  10.684   6.675   0.860
53674SOL    HW261049  10.765   6.788   0.775
53675SOL     OW61050  10.776   6.176   0.992
53675SOL    HW161051  10.746   6.081   0.999
53675SOL    HW261052  10.849   6.192   1.058
53676SOL     OW61053  11.167   6.419   0.377
53676SOL    HW161054  11.209   6.355   0.441
53676SOL    HW261055  11.129   6.368   0.299
53677SOL     OW61056   9.798   6.971   0.174
53677SOL    HW161057   9.711   6.956   0.221
53677SOL    HW261058   9.781   6.997   0.079
53678SOL     OW61059  10.974   6.866   0.657
53678SOL    HW161060  11.073   6.874   0.671
53678SOL    HW261061  10.929   6.950   0.688
53679SOL     OW61062  10.700   6.161   0.078
53679SOL    HW161063  10.646   6.140   0.159
53679SOL    HW261064  10.791   6.120   0.087
53680SOL     OW61065   9.837   5.842   0.328
53680SOL    HW161066   9.864   5.783   0.253
53680SOL    HW261067   9.837   5.937   0.297
53681SOL     OW61068  11.064   6.809   1.588
53681SOL    HW161069  11.155   6.770   1.575
53681SOL    HW261070  11.072   6.905   1.612
53682SOL     OW61071  10.374   6.933   1.340
53682SOL    HW161072  10.294   6.910   1.395
53682SOL    HW261073  10.457   6.907   1.389
53683SOL     OW61074  10.902   7.215   1.625
53683SOL    HW161075  10.929   7.249   1.535
53683SOL    HW261076  10.981   7.177   1.671
53684SOL     OW61077  10.421   6.781   1.100
53684SOL    HW161078  10.381   6.825   1.181
53684SOL    HW261079  10.380   6.818   1.017
53685SOL     OW61080  10.948   6.685   1.079
53685SOL    HW161081  10.953   6.766   1.138
53685SOL    HW261082  10.862   6.687   1.028
53686SOL     OW61083  10.225   5.675   1.402
53686SOL    HW161084  10.250   5.655   1.307
53686SOL    HW261085  10.297   5.731   1.444
53687SOL     OW61086  10.290   6.702   1.719
53687SOL    HW161087  10.191   6.708   1.729
53687SOL    HW261088  10.313   6.622   1.663
53688SOL     OW61089  10.015   6.636   0.368
53688SOL    HW161090  10.001   6.643   0.467
53688SOL    HW261091  10.099   6.585   0.350
53689SOL     OW61092   9.720   6.399   1.251
53689SOL    HW161093   9.806   6.411   1.301
53689SOL    HW261094   9.678   6.312   1.278
53690SOL     OW61095  10.584   5.972   1.262
53690SOL    HW161096  10.605   6.046   1.326
53690SOL    HW261097  10.495   5.989   1.219
53691SOL     OW61098   9.374   7.150   1.331
53691SOL    HW161099   9.328   7.232   1.297
53691SOL    HW261100   9.472   7.169   1.340
53692SOL     OW61101   9.677   6.686   0.501
53692SOL    HW161102   9.670   6.769   0.445
53692SOL    HW261103   9.681   6.606   0.441
53693SOL     OW61104   9.876   6.123   0.865
53693SOL    HW161105   9.888   6.189   0.791
53693SOL    HW261106   9.922   6.157   0.948
53694SOL     OW61107  10.562   6.934   0.388
53694SOL    HW161108  10.612   7.011   0.428
53694SOL    HW261109  10.467   6.936   0.420
53695SOL     OW61110  10.582   7.031   1.142
53695SOL    HW161111  10.629   7.044   1.229
53695SOL    HW261112  10.516   6.957   1.151
53696SOL     OW61113  10.892   6.225   0.472
53696SOL    HW161114  10.861   6.286   0.545
53696SOL    HW261115  10.942   6.277   0.403
53697SOL     OW61116   9.664   7.096   1.329
53697SOL    HW161117   9.643   7.052   1.242
53697SOL    HW261118   9.761   7.122   1.332
53698SOL     OW61119   9.712   6.337   1.598
53698SOL    HW161120   9.780   6.392   1.551
53698SOL    HW261121   9.752   6.249   1.625
53699SOL     OW61122  10.897   6.365   1.670
53699SOL    HW161123  10.805   6.403   1.665
53699SOL    HW261124  10.957   6.412   1.605
53700SOL     OW61125  10.323   5.691   1.770
53700SOL    HW161126  10.329   5.776   1.718
53700SOL    HW261127  10.355   5.615   1.713
53701SOL     OW61128   9.814   5.636   1.740
53701SOL    HW161129   9.772   5.579   1.670
53701SOL    HW261130   9.748   5.705   1.772
53702SOL     OW61131   9.883   6.456   1.029
53702SOL    HW161132   9.927   6.545   1.020
53702SOL    HW261133   9.820   6.456   1.106
53703SOL     OW61134  10.670   6.448   1.045
53703SOL    HW161135  10.595   6.448   0.979
53703SOL    HW261136  10.707   6.356   1.054
53704SOL     OW61137  10.519   6.111   0.275
53704SOL    HW161138  10.532   6.027   0.329
53704SOL    HW261139  10.490   6.185   0.335
53705SOL     OW61140   9.617   5.799   1.231
53705SOL    HW161141   9.594   5.836   1.321
53705SOL    HW261142   9.587   5.704   1.225
53706SOL     OW61143   9.347   6.896   1.282
53706SOL    HW161144   9.400   6.847   1.350
53706SOL    HW261145   9.369   6.994   1.287
53707SOL     OW61146  10.042   6.220   1.064
53707SOL    HW161147  10.101   6.194   0.988
53707SOL    HW261148  10.014   6.316   1.053
53708SOL     OW61149  11.038   6.521   1.854
53708SOL    HW161150  10.992   6.514   1.765
53708SOL    HW261151  10.976   6.565   1.920
53709SOL     OW61152   9.617   5.649   0.618
53709SOL    HW161153   9.606   5.743   0.651
53709SOL    HW261154   9.612   5.586   0.695
53710SOL     OW61155  10.932   5.953   0.374
53710SOL    HW161156  10.934   5.877   0.438
53710SOL    HW261157  10.884   6.030   0.414
53711SOL     OW61158  10.333   6.352   0.966
53711SOL    HW161159  10.348   6.373   1.062
53711SOL    HW261160  10.303   6.257   0.957
53712SOL     OW61161  10.290   7.159   1.700
53712SOL    HW161162  10.270   7.203   1.612
53712SOL    HW261163  10.329   7.068   1.684
53713SOL     OW61164  11.169   7.104   1.605
53713SOL    HW161165  11.183   7.131   1.510
53713SOL    HW261166  11.252   7.126   1.658
53714SOL     OW61167   9.660   6.484   1.804
53714SOL    HW161168   9.736   6.528   1.852
53714SOL    HW261169   9.695   6.437   1.722
53715SOL     OW61170  10.850   5.860   0.125
53715SOL    HW161171  10.789   5.785   0.148
53715SOL    HW261172  10.872   5.912   0.208
53716SOL     OW61173  10.613   6.424   0.042
53716SOL    HW161174  10.647   6.331   0.057
53716SOL    HW261175  10.631   6.451  -0.053
53717SOL     OW61176  10.378   6.919   0.849
53717SOL    HW161177  10.385   6.835   0.794
53717SOL    HW261178  10.440   6.988   0.813
53718SOL     OW61179   9.629   6.396   0.949
53718SOL    HW161180   9.722   6.432   0.954
53718SOL    HW261181   9.623   6.311   1.001
53719SOL     OW61182   9.649   6.095   1.006
53719SOL    HW161183   9.597   6.012   0.989
53719SOL    HW261184   9.726   6.100   0.942
53720SOL     OW61185  10.448   5.966   1.678
53720SOL    HW161186  10.403   6.029   1.742
53720SOL    HW261187  10.541   5.997   1.661
53721SOL     OW61188  10.470   5.793   1.477
53721SOL    HW161189  10.470   5.857   1.554
53721SOL    HW261190  10.498   5.841   1.394
53722SOL     OW61191   9.318   6.912   0.200
53722SOL    HW161192   9.225   6.933   0.169
53722SOL    HW261193   9.328   6.813   0.213
53723SOL     OW61194   9.398   7.387   0.927
53723SOL    HW161195   9.356   7.301   0.900
53723SOL    HW261196   9.492   7.390   0.893
53724SOL     OW61197   9.814   7.154   0.910
53724SOL    HW161198   9.880   7.228   0.919
53724SOL    HW261199   9.858   7.075   0.868
53725SOL     OW61200   9.350   6.130   1.114
53725SOL    HW161201   9.435   6.097   1.073
53725SOL    HW261202   9.363   6.145   1.212
53726SOL     OW61203   9.499   6.106   1.722
53726SOL    HW161204   9.558   6.066   1.652
53726SOL    HW261205   9.441   6.177   1.681
53727SOL     OW61206  10.679   6.536   1.660
53727SOL    HW161207  10.718   6.625   1.680
53727SOL    HW261208  10.689   6.516   1.563
53728SOL     OW61209  10.125   6.158   0.325
53728SOL    HW161210  10.132   6.069   0.279
53728SOL    HW261211  10.031   6.192   0.317
53729SOL     OW61212  10.967   6.190   1.206
53729SOL    HW161213  10.929   6.121   1.268
53729SOL    HW261214  11.049   6.154   1.162
53730SOL     OW61215   9.562   7.150   1.744
53730SOL    HW161216   9.532   7.207   1.820
53730SOL    HW261217   9.555   7.053   1.770
53731SOL     OW61218   9.981   6.050   1.269
53731SOL    HW161219   9.947   5.961   1.239
53731SOL    HW261220  10.007   6.104   1.189
53732SOL     OW61221  10.240   7.264   1.465
53732SOL    HW161222  10.216   7.246   1.370
53732SOL    HW261223  10.270   7.358   1.475
53733SOL     OW61224   9.783   6.086   0.191
53733SOL    HW161225   9.844   6.166   0.195
53733SOL    HW261226   9.688   6.117   0.198
53734SOL     OW61227   9.469   6.723   1.466
53734SOL    HW161228   9.491   6.662   1.542
53734SOL    HW261229   9.479   6.674   1.380
53735SOL     OW61230  10.657   6.645   1.234
53735SOL    HW161231  10.681   6.582   1.160
53735SOL    HW261232  10.567   6.685   1.216
53736SOL     OW61233  10.612   6.441   0.309
53736SOL    HW161234  10.526   6.410   0.351
53736SOL    HW261235  10.608   6.427   0.210
53737SOL     OW61236  11.069   7.333   1.154
53737SOL    HW161237  11.130   7.363   1.081
53737SOL    HW261238  11.031   7.244   1.132
53738SOL     OW61239  10.562   7.317   1.128
53738SOL    HW161240  10.646   7.322   1.074
53738SOL    HW261241  10.539   7.221   1.146
53739SOL     OW61242   9.393   6.844   1.022
53739SOL    HW161243   9.388   6.843   1.122
53739SOL    HW261244   9.310   6.803   0.984
53740SOL     OW61245   9.998   7.248   1.716
53740SOL    HW161246   9.942   7.329   1.725
53740SOL    HW261247  10.050   7.252   1.630
53741SOL     OW61248  10.213   5.672   0.133
53741SOL    HW161249  10.264   5.673   0.047
53741SOL    HW261250  10.269   5.630   0.204
53742SOL     OW61251  11.036   5.721   0.523
53742SOL    HW161252  11.109   5.704   0.456
53742SOL    HW261253  11.005   5.634   0.561
53743SOL     OW61254  10.698   7.159   0.477
53743SOL    HW161255  10.765   7.171   0.403
53743SOL    HW261256  10.658   7.248   0.500
53744SOL     OW61257   9.440   7.380   1.851
53744SOL    HW161258   9.399   7.306   1.904
53744SOL    HW261259   9.504   7.431   1.909
53745SOL     OW61260  10.590   6.513   0.672
53745SOL    HW161261  10.650   6.432   0.674
53745SOL    HW261262  10.630   6.582   0.612
53746SOL     OW61263  10.140   6.859   1.422
53746SOL    HW161264  10.135   6.892   1.517
53746SOL    HW261265  10.054   6.878   1.376
53747SOL     OW61266   9.982   7.202   0.154
53747SOL    HW161267   9.991   7.212   0.055
53747SOL    HW261268   9.942   7.113   0.175
53748SOL     OW61269  10.960   7.306   1.394
53748SOL    HW161270  11.013   7.316   1.310
53748SOL    HW261271  10.933   7.396   1.428
53749SOL     OW61272  11.151   5.761   0.963
53749SOL    HW161273  11.190   5.676   0.927
53749SOL    HW261274  11.053   5.763   0.944
53750SOL     OW61275   9.573   5.912   0.720
53750SOL    HW161276   9.494   5.963   0.686
53750SOL    HW261277   9.564   5.897   0.818
53751SOL     OW61278  10.504   7.198   0.031
53751SOL    HW161279  10.510   7.105   0.068
53751SOL    HW261280  10.445   7.198  -0.049
53752SOL     OW61281  10.132   6.588   1.372
53752SOL    HW161282  10.172   6.587   1.280
53752SOL    HW261283  10.142   6.680   1.412
53753SOL     OW61284  10.226   6.496   0.291
53753SOL    HW161285  10.289   6.534   0.223
53753SOL    HW261286  10.266   6.413   0.330
53754SOL     OW61287  10.814   7.193   0.044
53754SOL    HW161288  10.722   7.230   0.051
53754SOL    HW261289  10.852   7.213  -0.046
53755SOL     OW61290   9.682   6.874   1.490
53755SOL    HW161291   9.669   6.967   1.456
53755SOL    HW261292   9.598   6.822   1.477
53756SOL     OW61293  10.924   6.878   1.289
53756SOL    HW161294  10.984   6.881   1.369
53756SOL    HW261295  10.849   6.942   1.302
53757SOL     OW61296  10.349   6.684   0.696
53757SOL    HW161297  10.279   6.637   0.750
53757SOL    HW261298  10.408   6.616   0.653
53758SOL     OW61299  10.324   5.822   0.971
53758SOL    HW161300  10.316   5.786   0.878
53758SOL    HW261301  10.322   5.746   1.036
53759SOL     OW61302   9.900   7.073   0.491
53759SOL    HW161303   9.942   7.015   0.421
53759SOL    HW261304   9.856   7.152   0.447
53760SOL     OW61305  11.019   5.971   1.381
53760SOL    HW161306  11.092   6.040   1.385
53760SOL    HW261307  11.047   5.896   1.322
53761SOL     OW61308   9.565   6.934   0.290
53761SOL    HW161309   9.469   6.935   0.263
53761SOL    HW261310   9.577   6.987   0.374
53762SOL     OW61311   9.415   6.599   1.726
53762SOL    HW161312   9.338   6.566   1.780
53762SOL    HW261313   9.500   6.569   1.768
53763SOL     OW61314   9.982   5.789   1.489
53763SOL    HW161315  10.072   5.773   1.449
53763SOL    HW261316   9.990   5.794   1.588
53764SOL     OW61317   9.385   5.931   0.033
53764SOL    HW161318   9.293   5.903   0.004
53764SOL    HW261319   9.416   6.008  -0.023
53765SOL     OW61320  10.750   6.442   1.398
53765SOL    HW161321  10.693   6.494   1.335
53765SOL    HW261322  10.846   6.454   1.374
53766SOL     OW61323   9.382   5.752   0.318
53766SOL    HW161324   9.365   5.835   0.264
53766SOL    HW261325   9.472   5.715   0.296
53767SOL     OW61326  10.493   6.921   0.119
53767SOL    HW161327  10.394   6.910   0.121
53767SOL    HW261328  10.527   6.936   0.212
53768SOL     OW61329   9.923   6.428   1.431
53768SOL    HW161330   9.979   6.509   1.414
53768SOL    HW261331   9.982   6.348   1.434
53769SOL     OW61332  10.803   7.353   0.959
53769SOL    HW161333  10.836   7.417   0.890
53769SOL    HW261334  10.869   7.347   1.034
53770SOL     OW61335  10.026   6.151   1.708
53770SOL    HW161336  10.045   6.216   1.782
53770SOL    HW261337  10.086   6.071   1.717
53771SOL     OW61338  10.760   6.806   1.633
53771SOL    HW161339  10.751   6.796   1.732
53771SOL    HW261340  10.856   6.799   1.607
53772SOL     OW61341   9.700   7.327   1.560
53772SOL    HW161342   9.609   7.368   1.558
53772SOL    HW261343   9.693   7.233   1.592
53773SOL     OW61344  10.984   6.469   1.254
53773SOL    HW161345  10.957   6.380   1.217
53773SOL    HW261346  10.985   6.537   1.181
53774SOL     OW61347  10.535   5.911   0.449
53774SOL    HW161348  10.600   5.837   0.438
53774SOL    HW261349  10.555   5.961   0.533
53775SOL     OW61350   9.904   6.331   0.652
53775SOL    HW161351   9.954   6.416   0.633
53775SOL    HW261352   9.816   6.333   0.604
53776SOL     OW61353  11.087   5.928   1.642
53776SOL    HW161354  11.070   5.959   1.548
53776SOL    HW261355  11.003   5.891   1.680
53777SOL     OW61356  11.040   6.520   1.517
53777SOL    HW161357  11.078   6.611   1.532
53777SOL    HW261358  11.032   6.503   1.418
53778SOL     OW61359  10.169   6.960   0.016
53778SOL    HW161360  10.123   6.975   0.104
53778SOL    HW261361  10.213   7.045  -0.014
53779SOL     OW61362   9.971   7.376   0.953
53779SOL    HW161363   9.925   7.464   0.940
53779SOL    HW261364  10.070   7.388   0.946
53780SOL     OW61365  10.169   6.542   0.861
53780SOL    HW161366  10.223   6.473   0.909
53780SOL    HW261367  10.137   6.611   0.927
53781SOL     OW61368  10.393   6.570   0.087
53781SOL    HW161369  10.370   6.623   0.005
53781SOL    HW261370  10.474   6.514   0.068
53782SOL     OW61371  11.171   7.155   0.851
53782SOL    HW161372  11.100   7.143   0.781
53782SOL    HW261373  11.172   7.076   0.911
53783SOL     OW61374   9.531   6.900   1.844
53783SOL    HW161375   9.466   6.827   1.823
53783SOL    HW261376   9.535   6.914   1.942
53784SOL     OW61377   9.389   6.826   0.653
53784SOL    HW161378   9.388   6.779   0.741
53784SOL    HW261379   9.471   6.798   0.602
53785SOL     OW61380   9.982   6.977   1.624
53785SOL    HW161381   9.904   6.927   1.662
53785SOL    HW261382   9.979   7.072   1.655
53786SOL     OW61383  11.134   5.778   1.227
53786SOL    HW161384  11.130   5.688   1.271
53786SOL    HW261385  11.137   5.767   1.128
53787SOL     OW61386   9.738   6.010   0.520
53787SOL    HW161387   9.768   5.938   0.458
53787SOL    HW261388   9.699   5.970   0.603
53788SOL     OW61389  11.015   7.073   1.104
53788SOL    HW161390  10.922   7.048   1.077
53788SOL    HW261391  11.041   7.023   1.186
53789SOL     OW61392   9.627   6.133   1.280
53789SOL    HW161393   9.665   6.074   1.352
53789SOL    HW261394   9.667   6.107   1.192
53790SOL     OW61395  10.122   7.172   0.687
53790SOL    HW161396  10.154   7.182   0.593
53790SOL    HW261397  10.043   7.110   0.689
53791SOL     OW61398  10.734   5.800   1.112
53791SOL    HW161399  10.786   5.735   1.167
53791SOL    HW261400  10.685   5.863   1.173
53792SOL     OW61401  10.311   5.620   1.154
53792SOL    HW161402  10.248   5.548   1.123
53792SOL    HW261403  10.404   5.584   1.154
53793SOL     OW61404  10.080   6.916   0.301
53793SOL    HW161405  10.034   6.829   0.318
53793SOL    HW261406  10.171   6.913   0.342
53794SOL     OW61407   9.928   7.153   1.284
53794SOL    HW161408   9.923   7.235   1.341
53794SOL    HW261409  10.017   7.150   1.239
53795SOL     OW61410  10.662   5.638   0.168
53795SOL    HW161411  10.697   5.597   0.084
53795SOL    HW261412  10.572   5.600   0.188
53796SOL     OW61413  10.610   6.039   0.691
53796SOL    HW161414  10.551   6.119   0.695
53796SOL    HW261415  10.625   6.004   0.784
53797SOL     OW61416  10.903   5.807   0.882
53797SOL    HW161417  10.819   5.806   0.936
53797SOL    HW261418  10.905   5.890   0.826
53798SOL     OW61419   9.349   6.663   0.300
53798SOL    HW161420   9.448   6.652   0.291
53798SOL    HW261421   9.309   6.577   0.332
53799SOL     OW61422  10.185   7.232   0.337
53799SOL    HW161423  10.108   7.197   0.283
53799SOL    HW261424  10.153   7.303   0.399
53800SOL     OW61425   9.540   6.214   1.975
53800SOL    HW161426   9.447   6.212   2.012
53800SOL    HW261427   9.541   6.175   1.883
53801SOL     OW61428   9.535   5.861   2.858
53801SOL    HW161429   9.570   5.844   2.950
53801SOL    HW261430   9.447   5.816   2.846
53802SOL     OW61431   9.329   5.954   2.509
53802SOL    HW161432   9.247   5.997   2.548
53802SOL    HW261433   9.301   5.881   2.446
53803SOL     OW61434   9.879   6.861   3.027
53803SOL    HW161435   9.786   6.854   2.990
53803SOL    HW261436   9.890   6.950   3.071
53804SOL     OW61437  10.865   7.097   2.565
53804SOL    HW161438  10.808   7.081   2.646
53804SOL    HW261439  10.806   7.107   2.485
53805SOL     OW61440  10.445   6.289   2.579
53805SOL    HW161441  10.502   6.367   2.554
53805SOL    HW261442  10.385   6.315   2.655
53806SOL     OW61443  11.065   6.193   2.093
53806SOL    HW161444  11.053   6.180   1.994
53806SOL    HW261445  11.035   6.112   2.142
53807SOL     OW61446  10.078   6.730   2.885
53807SOL    HW161447  10.000   6.747   2.945
53807SOL    HW261448  10.112   6.817   2.849
53808SOL     OW61449  10.160   6.384   3.685
53808SOL    HW161450  10.156   6.460   3.750
53808SOL    HW261451  10.182   6.420   3.594
53809SOL     OW61452   9.995   6.598   2.527
53809SOL    HW161453  10.064   6.582   2.597
53809SOL    HW261454   9.922   6.655   2.565
53810SOL     OW61455   9.996   6.747   3.665
53810SOL    HW161456  10.056   6.826   3.679
53810SOL    HW261457   9.910   6.778   3.624
53811SOL     OW61458   9.645   7.021   2.923
53811SOL    HW161459   9.567   6.990   2.870
53811SOL    HW261460   9.703   7.079   2.866
53812SOL     OW61461  10.770   7.091   3.201
53812SOL    HW161462  10.794   7.185   3.227
53812SOL    HW261463  10.754   7.037   3.283
53813SOL     OW61464   9.748   5.978   3.361
53813SOL    HW161465   9.830   5.922   3.370
53813SOL    HW261466   9.667   5.920   3.365
53814SOL     OW61467  10.913   6.033   2.599
53814SOL    HW161468  10.839   6.079   2.549
53814SOL    HW261469  10.964   6.101   2.652
53815SOL     OW61470   9.541   7.299   2.345
53815SOL    HW161471   9.575   7.376   2.399
53815SOL    HW261472   9.585   7.299   2.255
53816SOL     OW61473  10.437   6.927   3.552
53816SOL    HW161474  10.484   6.927   3.640
53816SOL    HW261475  10.389   6.840   3.541
53817SOL     OW61476   9.540   7.020   2.400
53817SOL    HW161477   9.514   7.116   2.400
53817SOL    HW261478   9.469   6.966   2.445
53818SOL     OW61479   9.550   6.677   2.748
53818SOL    HW161480   9.564   6.593   2.800
53818SOL    HW261481   9.495   6.741   2.803
53819SOL     OW61482   9.930   7.372   3.301
53819SOL    HW161483   9.838   7.355   3.336
53819SOL    HW261484   9.958   7.464   3.327
53820SOL     OW61485   9.916   6.550   1.985
53820SOL    HW161486   9.923   6.634   1.931
53820SOL    HW261487   9.962   6.563   2.073
53821SOL     OW61488  10.904   5.700   3.342
53821SOL    HW161489  10.886   5.767   3.270
53821SOL    HW261490  10.901   5.746   3.431
53822SOL     OW61491   9.432   6.229   2.425
53822SOL    HW161492   9.387   6.141   2.442
53822SOL    HW261493   9.431   6.283   2.509
53823SOL     OW61494  11.152   7.353   2.221
53823SOL    HW161495  11.206   7.324   2.301
53823SOL    HW261496  11.182   7.443   2.192
53824SOL     OW61497   9.337   7.182   1.979
53824SOL    HW161498   9.318   7.086   2.000
53824SOL    HW261499   9.304   7.240   2.054
53825SOL     OW61500  10.951   6.694   2.294
53825SOL    HW161501  11.037   6.696   2.242
53825SOL    HW261502  10.965   6.741   2.382
53826SOL     OW61503   9.423   6.323   3.459
53826SOL    HW161504   9.511   6.310   3.504
53826SOL    HW261505   9.410   6.420   3.437
53827SOL     OW61506   9.923   6.951   2.588
53827SOL    HW161507   9.874   6.864   2.597
53827SOL    HW261508   9.900   6.994   2.501
53828SOL     OW61509  10.603   6.814   3.285
53828SOL    HW161510  10.640   6.741   3.227
53828SOL    HW261511  10.655   6.819   3.370
53829SOL     OW61512  10.119   5.590   2.364
53829SOL    HW161513  10.159   5.681   2.355
53829SOL    HW261514  10.019   5.598   2.370
53830SOL     OW61515   9.507   6.562   3.126
53830SOL    HW161516   9.596   6.517   3.112
53830SOL    HW261517   9.434   6.497   3.107
53831SOL     OW61518  10.835   6.585   2.052
53831SOL    HW161519  10.772   6.509   2.065
53831SOL    HW261520  10.883   6.603   2.138
53832SOL     OW61521  10.497   7.378   3.478
53832SOL    HW161522  10.521   7.438   3.402
53832SOL    HW261523  10.504   7.283   3.448
53833SOL     OW61524   9.627   5.837   3.663
53833SOL    HW161525   9.698   5.908   3.669
53833SOL    HW261526   9.539   5.876   3.691
53834SOL     OW61527  10.776   7.003   2.815
53834SOL    HW161528  10.717   7.009   2.895
53834SOL    HW261529  10.761   6.915   2.769
53835SOL     OW61530  10.977   7.300   2.434
53835SOL    HW161531  10.936   7.277   2.346
53835SOL    HW261532  10.959   7.226   2.499
53836SOL     OW61533   9.908   6.315   2.132
53836SOL    HW161534   9.932   6.384   2.064
53836SOL    HW261535   9.830   6.348   2.186
53837SOL     OW61536  10.591   5.931   2.806
53837SOL    HW161537  10.505   5.881   2.793
53837SOL    HW261538  10.653   5.877   2.862
53838SOL     OW61539  10.886   7.248   2.169
53838SOL    HW161540  10.975   7.294   2.172
53838SOL    HW261541  10.865   7.224   2.074
53839SOL     OW61542  10.117   6.191   3.327
53839SOL    HW161543  10.070   6.188   3.416
53839SOL    HW261544  10.066   6.136   3.261
53840SOL     OW61545  10.704   6.055   3.536
53840SOL    HW161546  10.684   6.098   3.624
53840SOL    HW261547  10.782   5.993   3.545
53841SOL     OW61548  10.283   6.476   3.434
53841SOL    HW161549  10.329   6.392   3.405
53841SOL    HW261550  10.227   6.510   3.359
53842SOL     OW61551  10.301   5.996   3.104
53842SOL    HW161552  10.224   6.030   3.158
53842SOL    HW261553  10.267   5.945   3.025
53843SOL     OW61554  10.351   6.287   2.291
53843SOL    HW161555  10.377   6.283   2.387
53843SOL    HW261556  10.266   6.236   2.277
53844SOL     OW61557   9.440   7.407   3.433
53844SOL    HW161558   9.430   7.392   3.532
53844SOL    HW261559   9.354   7.443   3.397
53845SOL     OW61560  10.175   5.934   2.057
53845SOL    HW161561  10.234   5.997   2.008
53845SOL    HW261562  10.194   5.840   2.028
53846SOL     OW61563  11.029   6.171   3.693
53846SOL    HW161564  11.003   6.260   3.657
53846SOL    HW261565  11.027   6.103   3.620
53847SOL     OW61566  10.672   6.730   2.407
53847SOL    HW161567  10.755   6.701   2.359
53847SOL    HW261568  10.623   6.797   2.351
53848SOL     OW61569   9.860   5.782   2.747
53848SOL    HW161570   9.855   5.777   2.847
53848SOL    HW261571   9.862   5.878   2.718
53849SOL     OW61572  10.318   7.042   2.339
53849SOL    HW161573  10.272   7.114   2.287
53849SOL    HW261574  10.314   7.062   2.437
53850SOL     OW61575   9.661   7.387   2.715
53850SOL    HW161576   9.711   7.301   2.721
53850SOL    HW261577   9.726   7.464   2.712
53851SOL     OW61578  11.105   6.652   2.735
53851SOL    HW161579  11.043   6.637   2.659
53851SOL    HW261580  11.053   6.663   2.820
53852SOL     OW61581  10.537   7.136   3.368
53852SOL    HW161582  10.543   7.059   3.432
53852SOL    HW261583  10.485   7.110   3.288
53853SOL     OW61584   9.631   6.529   2.104
53853SOL    HW161585   9.713   6.568   2.062
53853SOL    HW261586   9.604   6.447   2.055
53854SOL     OW61587  10.768   6.321   2.590
53854SOL    HW161588  10.763   6.256   2.665
53854SOL    HW261589  10.848   6.380   2.603
53855SOL     OW61590   9.771   6.852   3.589
53855SOL    HW161591   9.721   6.853   3.503
53855SOL    HW261592   9.708   6.834   3.665
53856SOL     OW61593  10.421   7.362   2.099
53856SOL    HW161594  10.361   7.300   2.149
53856SOL    HW261595  10.452   7.318   2.014
53857SOL     OW61596   9.512   5.871   3.360
53857SOL    HW161597   9.432   5.931   3.347
53857SOL    HW261598   9.502   5.822   3.446
53858SOL     OW61599  10.942   6.963   1.943
53858SOL    HW161600  10.910   7.057   1.933
53858SOL    HW261601  10.866   6.900   1.931
53859SOL     OW61602   9.774   7.329   2.185
53859SOL    HW161603   9.807   7.368   2.271
53859SOL    HW261604   9.850   7.322   2.120
53860SOL     OW61605  10.710   5.693   2.288
53860SOL    HW161606  10.686   5.656   2.198
53860SOL    HW261607  10.809   5.709   2.292
53861SOL     OW61608   9.559   7.371   3.103
53861SOL    HW161609   9.616   7.306   3.153
53861SOL    HW261610   9.543   7.338   3.010
53862SOL     OW61611  10.250   7.284   2.766
53862SOL    HW161612  10.330   7.227   2.787
53862SOL    HW261613  10.201   7.244   2.689
53863SOL     OW61614   9.692   6.286   2.342
53863SOL    HW161615   9.737   6.196   2.339
53863SOL    HW261616   9.598   6.275   2.375
53864SOL     OW61617  10.857   5.808   3.591
53864SOL    HW161618  10.852   5.845   3.683
53864SOL    HW261619  10.785   5.739   3.579
53865SOL     OW61620   9.924   5.708   1.979
53865SOL    HW161621  10.022   5.686   1.986
53865SOL    HW261622   9.893   5.691   1.886
53866SOL     OW61623  10.091   5.850   3.611
53866SOL    HW161624  10.158   5.789   3.654
53866SOL    HW261625  10.018   5.869   3.676
53867SOL     OW61626  10.198   7.100   3.057
53867SOL    HW161627  10.175   7.075   2.963
53867SOL    HW261628  10.259   7.031   3.096
53868SOL     OW61629  10.661   6.176   3.295
53868SOL    HW161630  10.689   6.133   3.380
53868SOL    HW261631  10.686   6.272   3.296
53869SOL     OW61632  10.113   6.988   2.786
53869SOL    HW161633  10.203   7.002   2.744
53869SOL    HW261634  10.042   6.990   2.715
53870SOL     OW61635  10.232   6.089   2.761
53870SOL    HW161636  10.207   6.080   2.665
53870SOL    HW261637  10.280   6.007   2.792
53871SOL     OW61638   9.849   5.650   2.374
53871SOL    HW161639   9.768   5.651   2.432
53871SOL    HW261640   9.852   5.733   2.319
53872SOL     OW61641  10.744   6.774   1.903
53872SOL    HW161642  10.776   6.698   1.960
53872SOL    HW261643  10.652   6.801   1.933
53873SOL     OW61644   9.607   5.621   2.033
53873SOL    HW161645   9.656   5.705   2.012
53873SOL    HW261646   9.669   5.556   2.078
53874SOL     OW61647  10.245   5.822   2.342
53874SOL    HW161648  10.197   5.863   2.264
53874SOL    HW261649  10.344   5.820   2.323
53875SOL     OW61650  10.386   6.269   3.326
53875SOL    HW161651  10.306   6.208   3.329
53875SOL    HW261652  10.467   6.216   3.302
53876SOL     OW61653  10.537   7.156   2.655
53876SOL    HW161654  10.558   7.230   2.590
53876SOL    HW261655  10.605   7.156   2.728
53877SOL     OW61656   9.769   6.738   2.603
53877SOL    HW161657   9.698   6.711   2.668
53877SOL    HW261658   9.743   6.710   2.510
53878SOL     OW61659  10.581   7.383   2.453
53878SOL    HW161660  10.625   7.447   2.389
53878SOL    HW261661  10.531   7.435   2.523
53879SOL     OW61662  10.342   6.135   1.878
53879SOL    HW161663  10.301   6.217   1.839
53879SOL    HW261664  10.406   6.161   1.951
53880SOL     OW61665   9.388   6.142   3.248
53880SOL    HW161666   9.480   6.141   3.207
53880SOL    HW261667   9.382   6.216   3.315
53881SOL     OW61668   9.871   5.808   3.009
53881SOL    HW161669   9.909   5.724   3.046
53881SOL    HW261670   9.783   5.827   3.053
53882SOL     OW61671  10.176   6.040   2.504
53882SOL    HW161672  10.144   6.112   2.442
53882SOL    HW261673  10.200   5.959   2.451
53883SOL     OW61674  10.327   5.625   2.615
53883SOL    HW161675  10.255   5.630   2.546
53883SOL    HW261676  10.303   5.556   2.684
53884SOL     OW61677  10.739   6.759   2.729
53884SOL    HW161678  10.684   6.675   2.722
53884SOL    HW261679  10.765   6.788   2.637
53885SOL     OW61680  10.776   6.176   2.854
53885SOL    HW161681  10.746   6.081   2.861
53885SOL    HW261682  10.849   6.192   2.920
53886SOL     OW61683  11.167   6.419   2.239
53886SOL    HW161684  11.209   6.355   2.303
53886SOL    HW261685  11.129   6.368   2.161
53887SOL     OW61686   9.798   6.971   2.036
53887SOL    HW161687   9.711   6.956   2.083
53887SOL    HW261688   9.781   6.997   1.941
53888SOL     OW61689  10.974   6.866   2.519
53888SOL    HW161690  11.073   6.874   2.533
53888SOL    HW261691  10.929   6.950   2.550
53889SOL     OW61692  10.700   6.161   1.940
53889SOL    HW161693  10.646   6.140   2.021
53889SOL    HW261694  10.791   6.120   1.949
53890SOL     OW61695   9.837   5.842   2.190
53890SOL    HW161696   9.864   5.783   2.115
53890SOL    HW261697   9.837   5.937   2.159
53891SOL     OW61698  11.064   6.809   3.450
53891SOL    HW161699  11.155   6.770   3.437
53891SOL    HW261700  11.072   6.905   3.474
53892SOL     OW61701  10.374   6.933   3.202
53892SOL    HW161702  10.294   6.910   3.257
53892SOL    HW261703  10.457   6.907   3.251
53893SOL     OW61704  10.902   7.215   3.487
53893SOL    HW161705  10.929   7.249   3.397
53893SOL    HW261706  10.981   7.177   3.533
53894SOL     OW61707  10.421   6.781   2.962
53894SOL    HW161708  10.381   6.825   3.043
53894SOL    HW261709  10.380   6.818   2.879
53895SOL     OW61710  10.948   6.685   2.941
53895SOL    HW161711  10.953   6.766   3.000
53895SOL    HW261712  10.862   6.687   2.890
53896SOL     OW61713  10.225   5.675   3.264
53896SOL    HW161714  10.250   5.655   3.169
53896SOL    HW261715  10.297   5.731   3.306
53897SOL     OW61716  10.290   6.702   3.581
53897SOL    HW161717  10.191   6.708   3.591
53897SOL    HW261718  10.313   6.622   3.525
53898SOL     OW61719  10.015   6.636   2.230
53898SOL    HW161720  10.001   6.643   2.329
53898SOL    HW261721  10.099   6.585   2.212
53899SOL     OW61722   9.720   6.399   3.113
53899SOL    HW161723   9.806   6.411   3.163
53899SOL    HW261724   9.678   6.312   3.140
53900SOL     OW61725  10.584   5.972   3.124
53900SOL    HW161726  10.605   6.046   3.188
53900SOL    HW261727  10.495   5.989   3.081
53901SOL     OW61728   9.374   7.150   3.193
53901SOL    HW161729   9.328   7.232   3.159
53901SOL    HW261730   9.472   7.169   3.202
53902SOL     OW61731   9.677   6.686   2.363
53902SOL    HW161732   9.670   6.769   2.307
53902SOL    HW261733   9.681   6.606   2.303
53903SOL     OW61734   9.876   6.123   2.727
53903SOL    HW161735   9.888   6.189   2.653
53903SOL    HW261736   9.922   6.157   2.810
53904SOL     OW61737  10.562   6.934   2.250
53904SOL    HW161738  10.612   7.011   2.290
53904SOL    HW261739  10.467   6.936   2.282
53905SOL     OW61740  10.582   7.031   3.004
53905SOL    HW161741  10.629   7.044   3.091
53905SOL    HW261742  10.516   6.957   3.013
53906SOL     OW61743  10.892   6.225   2.334
53906SOL    HW161744  10.861   6.286   2.407
53906SOL    HW261745  10.942   6.277   2.265
53907SOL     OW61746   9.664   7.096   3.191
53907SOL    HW161747   9.643   7.052   3.104
53907SOL    HW261748   9.761   7.122   3.194
53908SOL     OW61749   9.712   6.337   3.460
53908SOL    HW161750   9.780   6.392   3.413
53908SOL    HW261751   9.752   6.249   3.487
53909SOL     OW61752  10.897   6.365   3.532
53909SOL    HW161753  10.805   6.403   3.527
53909SOL    HW261754  10.957   6.412   3.467
53910SOL     OW61755  10.323   5.691   3.632
53910SOL    HW161756  10.329   5.776   3.580
53910SOL    HW261757  10.355   5.615   3.575
53911SOL     OW61758   9.814   5.636   3.602
53911SOL    HW161759   9.772   5.579   3.532
53911SOL    HW261760   9.748   5.705   3.634
53912SOL     OW61761   9.883   6.456   2.891
53912SOL    HW161762   9.927   6.545   2.882
53912SOL    HW261763   9.820   6.456   2.968
53913SOL     OW61764  10.670   6.448   2.907
53913SOL    HW161765  10.595   6.448   2.841
53913SOL    HW261766  10.707   6.356   2.916
53914SOL     OW61767  10.519   6.111   2.137
53914SOL    HW161768  10.532   6.027   2.191
53914SOL    HW261769  10.490   6.185   2.197
53915SOL     OW61770   9.617   5.799   3.093
53915SOL    HW161771   9.594   5.836   3.183
53915SOL    HW261772   9.587   5.704   3.087
53916SOL     OW61773   9.347   6.896   3.144
53916SOL    HW161774   9.400   6.847   3.212
53916SOL    HW261775   9.369   6.994   3.149
53917SOL     OW61776  10.042   6.220   2.926
53917SOL    HW161777  10.101   6.194   2.850
53917SOL    HW261778  10.014   6.316   2.915
53918SOL     OW61779  11.038   6.521   3.716
53918SOL    HW161780  10.992   6.514   3.627
53918SOL    HW261781  10.976   6.565   3.782
53919SOL     OW61782   9.617   5.649   2.480
53919SOL    HW161783   9.606   5.743   2.513
53919SOL    HW261784   9.612   5.586   2.557
53920SOL     OW61785  10.932   5.953   2.236
53920SOL    HW161786  10.934   5.877   2.300
53920SOL    HW261787  10.884   6.030   2.276
53921SOL     OW61788  10.333   6.352   2.828
53921SOL    HW161789  10.348   6.373   2.924
53921SOL    HW261790  10.303   6.257   2.819
53922SOL     OW61791  10.290   7.159   3.562
53922SOL    HW161792  10.270   7.203   3.474
53922SOL    HW261793  10.329   7.068   3.546
53923SOL     OW61794  11.169   7.104   3.467
53923SOL    HW161795  11.183   7.131   3.372
53923SOL    HW261796  11.252   7.126   3.520
53924SOL     OW61797   9.660   6.484   3.666
53924SOL    HW161798   9.736   6.528   3.714
53924SOL    HW261799   9.695   6.437   3.584
53925SOL     OW61800  10.850   5.860   1.987
53925SOL    HW161801  10.789   5.785   2.010
53925SOL    HW261802  10.872   5.912   2.070
53926SOL     OW61803  10.613   6.424   1.904
53926SOL    HW161804  10.647   6.331   1.919
53926SOL    HW261805  10.631   6.451   1.809
53927SOL     OW61806  10.378   6.919   2.711
53927SOL    HW161807  10.385   6.835   2.656
53927SOL    HW261808  10.440   6.988   2.675
53928SOL     OW61809   9.629   6.396   2.811
53928SOL    HW161810   9.722   6.432   2.816
53928SOL    HW261811   9.623   6.311   2.863
53929SOL     OW61812   9.649   6.095   2.868
53929SOL    HW161813   9.597   6.012   2.851
53929SOL    HW261814   9.726   6.100   2.804
53930SOL     OW61815  10.448   5.966   3.540
53930SOL    HW161816  10.403   6.029   3.604
53930SOL    HW261817  10.541   5.997   3.523
53931SOL     OW61818  10.470   5.793   3.339
53931SOL    HW161819  10.470   5.857   3.416
53931SOL    HW261820  10.498   5.841   3.256
53932SOL     OW61821   9.318   6.912   2.062
53932SOL    HW161822   9.225   6.933   2.031
53932SOL    HW261823   9.328   6.813   2.075
53933SOL     OW61824   9.398   7.387   2.789
53933SOL    HW161825   9.356   7.301   2.762
53933SOL    HW261826   9.492   7.390   2.755
53934SOL     OW61827   9.814   7.154   2.772
53934SOL    HW161828   9.880   7.228   2.781
53934SOL    HW261829   9.858   7.075   2.730
53935SOL     OW61830  10.312   6.382   3.100
53935SOL    HW161831  10.353   6.350   3.186
53935SOL    HW261832  10.216   6.355   3.097
53936SOL     OW61833   9.350   6.130   2.976
53936SOL    HW161834   9.435   6.097   2.935
53936SOL    HW261835   9.363   6.145   3.074
53937SOL     OW61836   9.499   6.106   3.584
53937SOL    HW161837   9.558   6.066   3.514
53937SOL    HW261838   9.441   6.177   3.543
53938SOL     OW61839  10.679   6.536   3.522
53938SOL    HW161840  10.718   6.625   3.542
53938SOL    HW261841  10.689   6.516   3.425
53939SOL     OW61842  10.125   6.158   2.187
53939SOL    HW161843  10.132   6.069   2.141
53939SOL    HW261844  10.031   6.192   2.179
53940SOL     OW61845  10.967   6.190   3.068
53940SOL    HW161846  10.929   6.121   3.130
53940SOL    HW261847  11.049   6.154   3.024
53941SOL     OW61848   9.562   7.150   3.606
53941SOL    HW161849   9.532   7.207   3.682
53941SOL    HW261850   9.555   7.053   3.632
53942SOL     OW61851   9.981   6.050   3.131
53942SOL    HW161852   9.947   5.961   3.101
53942SOL    HW261853  10.007   6.104   3.051
53943SOL     OW61854  10.240   7.264   3.327
53943SOL    HW161855  10.216   7.246   3.232
53943SOL    HW261856  10.270   7.358   3.337
53944SOL     OW61857   9.783   6.086   2.053
53944SOL    HW161858   9.844   6.166   2.057
53944SOL    HW261859   9.688   6.117   2.060
53945SOL     OW61860   9.469   6.723   3.328
53945SOL    HW161861   9.491   6.662   3.404
53945SOL    HW261862   9.479   6.674   3.242
53946SOL     OW61863  10.657   6.645   3.096
53946SOL    HW161864  10.681   6.582   3.022
53946SOL    HW261865  10.567   6.685   3.078
53947SOL     OW61866  10.612   6.441   2.171
53947SOL    HW161867  10.526   6.410   2.213
53947SOL    HW261868  10.608   6.427   2.072
53948SOL     OW61869  11.069   7.333   3.016
53948SOL    HW161870  11.130   7.363   2.943
53948SOL    HW261871  11.031   7.244   2.994
53949SOL     OW61872  10.562   7.317   2.990
53949SOL    HW161873  10.646   7.322   2.936
53949SOL    HW261874  10.539   7.221   3.008
53950SOL     OW61875   9.393   6.844   2.884
53950SOL    HW161876   9.388   6.843   2.984
53950SOL    HW261877   9.310   6.803   2.846
53951SOL     OW61878   9.998   7.248   3.578
53951SOL    HW161879   9.942   7.329   3.587
53951SOL    HW261880  10.050   7.252   3.492
53952SOL     OW61881  11.036   5.721   2.385
53952SOL    HW161882  11.109   5.704   2.318
53952SOL    HW261883  11.005   5.634   2.423
53953SOL     OW61884  10.698   7.159   2.339
53953SOL    HW161885  10.765   7.171   2.265
53953SOL    HW261886  10.658   7.248   2.362
53954SOL     OW61887   9.440   7.380   3.713
53954SOL    HW161888   9.399   7.306   3.766
53954SOL    HW261889   9.504   7.431   3.771
53955SOL     OW61890  10.590   6.513   2.534
53955SOL    HW161891  10.650   6.432   2.536
53955SOL    HW261892  10.630   6.582   2.474
53956SOL     OW61893  10.140   6.859   3.284
53956SOL    HW161894  10.135   6.892   3.379
53956SOL    HW261895  10.054   6.878   3.238
53957SOL     OW61896   9.982   7.202   2.016
53957SOL    HW161897   9.991   7.212   1.917
53957SOL    HW261898   9.942   7.113   2.037
53958SOL     OW61899  10.960   7.306   3.256
53958SOL    HW161900  11.013   7.316   3.172
53958SOL    HW261901  10.933   7.396   3.290
53959SOL     OW61902  11.151   5.761   2.825
53959SOL    HW161903  11.190   5.676   2.789
53959SOL    HW261904  11.053   5.763   2.806
53960SOL     OW61905   9.573   5.912   2.582
53960SOL    HW161906   9.494   5.963   2.548
53960SOL    HW261907   9.564   5.897   2.680
53961SOL     OW61908  10.504   7.198   1.893
53961SOL    HW161909  10.510   7.105   1.930
53961SOL    HW261910  10.445   7.198   1.813
53962SOL     OW61911  10.132   6.588   3.234
53962SOL    HW161912  10.172   6.587   3.142
53962SOL    HW261913  10.142   6.680   3.274
53963SOL     OW61914  10.226   6.496   2.153
53963SOL    HW161915  10.289   6.534   2.085
53963SOL    HW261916  10.266   6.413   2.192
53964SOL     OW61917  10.814   7.193   1.906
53964SOL    HW161918  10.722   7.230   1.913
53964SOL    HW261919  10.852   7.213   1.816
53965SOL     OW61920   9.682   6.874   3.352
53965SOL    HW161921   9.669   6.967   3.318
53965SOL    HW261922   9.598   6.822   3.339
53966SOL     OW61923  10.924   6.878   3.151
53966SOL    HW161924  10.984   6.881   3.231
53966SOL    HW261925  10.849   6.942   3.164
53967SOL     OW61926  10.349   6.684   2.558
53967SOL    HW161927  10.279   6.637   2.612
53967SOL    HW261928  10.408   6.616   2.515
53968SOL     OW61929  10.324   5.822   2.833
53968SOL    HW161930  10.316   5.786   2.740
53968SOL    HW261931  10.322   5.746   2.898
53969SOL     OW61932   9.900   7.073   2.353
53969SOL    HW161933   9.942   7.015   2.283
53969SOL    HW261934   9.856   7.152   2.309
53970SOL     OW61935  11.019   5.971   3.243
53970SOL    HW161936  11.092   6.040   3.247
53970SOL    HW261937  11.047   5.896   3.184
53971SOL     OW61938   9.565   6.934   2.152
53971SOL    HW161939   9.469   6.935   2.125
53971SOL    HW261940   9.577   6.987   2.236
53972SOL     OW61941   9.415   6.599   3.588
53972SOL    HW161942   9.338   6.566   3.642
53972SOL    HW261943   9.500   6.569   3.630
53973SOL     OW61944   9.982   5.789   3.351
53973SOL    HW161945  10.072   5.773   3.311
53973SOL    HW261946   9.990   5.794   3.450
53974SOL     OW61947   9.385   5.931   1.895
53974SOL    HW161948   9.293   5.903   1.866
53974SOL    HW261949   9.416   6.008   1.839
53975SOL     OW61950  10.750   6.442   3.260
53975SOL    HW161951  10.693   6.494   3.197
53975SOL    HW261952  10.846   6.454   3.236
53976SOL     OW61953   9.382   5.752   2.180
53976SOL    HW161954   9.365   5.835   2.126
53976SOL    HW261955   9.472   5.715   2.158
53977SOL     OW61956  10.493   6.921   1.981
53977SOL    HW161957  10.394   6.910   1.983
53977SOL    HW261958  10.527   6.936   2.074
53978SOL     OW61959   9.923   6.428   3.293
53978SOL    HW161960   9.979   6.509   3.276
53978SOL    HW261961   9.982   6.348   3.296
53979SOL     OW61962  10.803   7.353   2.821
53979SOL    HW161963  10.836   7.417   2.752
53979SOL    HW261964  10.869   7.347   2.896
53980SOL     OW61965  10.026   6.151   3.570
53980SOL    HW161966  10.045   6.216   3.644
53980SOL    HW261967  10.086   6.071   3.579
53981SOL     OW61968  10.760   6.806   3.495
53981SOL    HW161969  10.751   6.796   3.594
53981SOL    HW261970  10.856   6.799   3.469
53982SOL     OW61971   9.700   7.327   3.422
53982SOL    HW161972   9.609   7.368   3.420
53982SOL    HW261973   9.693   7.233   3.454
53983SOL     OW61974  10.984   6.469   3.116
53983SOL    HW161975  10.957   6.380   3.079
53983SOL    HW261976  10.985   6.537   3.043
53984SOL     OW61977  10.535   5.911   2.311
53984SOL    HW161978  10.600   5.837   2.300
53984SOL    HW261979  10.555   5.961   2.395
53985SOL     OW61980   9.904   6.331   2.514
53985SOL    HW161981   9.954   6.416   2.495
53985SOL    HW261982   9.816   6.333   2.466
53986SOL     OW61983  11.087   5.928   3.504
53986SOL    HW161984  11.070   5.959   3.410
53986SOL    HW261985  11.003   5.891   3.542
53987SOL     OW61986  11.040   6.520   3.379
53987SOL    HW161987  11.078   6.611   3.394
53987SOL    HW261988  11.032   6.503   3.280
53988SOL     OW61989  10.169   6.960   1.878
53988SOL    HW161990  10.123   6.975   1.966
53988SOL    HW261991  10.213   7.045   1.848
53989SOL     OW61992   9.971   7.376   2.815
53989SOL    HW161993   9.925   7.464   2.802
53989SOL    HW261994  10.070   7.388   2.808
53990SOL     OW61995  10.169   6.542   2.723
53990SOL    HW161996  10.223   6.473   2.771
53990SOL    HW261997  10.137   6.611   2.789
53991SOL     OW61998  10.393   6.570   1.949
53991SOL    HW161999  10.370   6.623   1.867
53991SOL    HW262000  10.474   6.514   1.930
53992SOL     OW62001  11.171   7.155   2.713
53992SOL    HW162002  11.100   7.143   2.643
53992SOL    HW262003  11.172   7.076   2.773
53993SOL     OW62004   9.531   6.900   3.706
53993SOL    HW162005   9.466   6.827   3.685
53993SOL    HW262006   9.535   6.914   3.804
53994SOL     OW62007   9.389   6.826   2.515
53994SOL    HW162008   9.388   6.779   2.603
53994SOL    HW262009   9.471   6.798   2.464
53995SOL     OW62010   9.982   6.977   3.486
53995SOL    HW162011   9.904   6.927   3.524
53995SOL    HW262012   9.979   7.072   3.517
53996SOL     OW62013  11.134   5.778   3.089
53996SOL    HW162014  11.130   5.688   3.133
53996SOL    HW262015  11.137   5.767   2.990
53997SOL     OW62016   9.738   6.010   2.382
53997SOL    HW162017   9.768   5.938   2.320
53997SOL    HW262018   9.699   5.970   2.465
53998SOL     OW62019  11.015   7.073   2.966
53998SOL    HW162020  10.922   7.048   2.939
53998SOL    HW262021  11.041   7.023   3.048
53999SOL     OW62022   9.627   6.133   3.142
53999SOL    HW162023   9.665   6.074   3.214
53999SOL    HW262024   9.667   6.107   3.054
54000SOL     OW62025  10.122   7.172   2.549
54000SOL    HW162026  10.154   7.182   2.455
54000SOL    HW262027  10.043   7.110   2.551
54001SOL     OW62028  10.734   5.800   2.974
54001SOL    HW162029  10.786   5.735   3.029
54001SOL    HW262030  10.685   5.863   3.035
54002SOL     OW62031  10.311   5.620   3.016
54002SOL    HW162032  10.248   5.548   2.985
54002SOL    HW262033  10.404   5.584   3.016
54003SOL     OW62034  10.080   6.916   2.163
54003SOL    HW162035  10.034   6.829   2.180
54003SOL    HW262036  10.171   6.913   2.204
54004SOL     OW62037   9.928   7.153   3.146
54004SOL    HW162038   9.923   7.235   3.203
54004SOL    HW262039  10.017   7.150   3.101
54005SOL     OW62040  10.662   5.638   2.030
54005SOL    HW162041  10.697   5.597   1.946
54005SOL    HW262042  10.572   5.600   2.050
54006SOL     OW62043  10.610   6.039   2.553
54006SOL    HW162044  10.551   6.119   2.557
54006SOL    HW262045  10.625   6.004   2.646
54007SOL     OW62046  10.903   5.807   2.744
54007SOL    HW162047  10.819   5.806   2.798
54007SOL    HW262048  10.905   5.890   2.688
54008SOL     OW62049   9.349   6.663   2.162
54008SOL    HW162050   9.448   6.652   2.153
54008SOL    HW262051   9.309   6.577   2.194
54009SOL     OW62052  10.185   7.232   2.199
54009SOL    HW162053  10.108   7.197   2.145
54009SOL    HW262054  10.153   7.303   2.261
54010SOL     OW62055   9.540   6.214   3.837
54010SOL    HW162056   9.447   6.212   3.874
54010SOL    HW262057   9.541   6.175   3.745
54011SOL     OW62058   9.535   5.861   4.720
54011SOL    HW162059   9.570   5.844   4.812
54011SOL    HW262060   9.447   5.816   4.708
54012SOL     OW62061   9.329   5.954   4.371
54012SOL    HW162062   9.247   5.997   4.410
54012SOL    HW262063   9.301   5.881   4.308
54013SOL     OW62064   9.879   6.861   4.889
54013SOL    HW162065   9.786   6.854   4.852
54013SOL    HW262066   9.890   6.950   4.933
54014SOL     OW62067  10.865   7.097   4.427
54014SOL    HW162068  10.808   7.081   4.508
54014SOL    HW262069  10.806   7.107   4.347
54015SOL     OW62070  10.445   6.289   4.441
54015SOL    HW162071  10.502   6.367   4.416
54015SOL    HW262072  10.385   6.315   4.517
54016SOL     OW62073  11.065   6.193   3.955
54016SOL    HW162074  11.053   6.180   3.856
54016SOL    HW262075  11.035   6.112   4.004
54017SOL     OW62076  10.078   6.730   4.747
54017SOL    HW162077  10.000   6.747   4.807
54017SOL    HW262078  10.112   6.817   4.711
54018SOL     OW62079  10.160   6.384   5.547
54018SOL    HW162080  10.156   6.460   5.612
54018SOL    HW262081  10.182   6.420   5.456
54019SOL     OW62082   9.995   6.598   4.389
54019SOL    HW162083  10.064   6.582   4.459
54019SOL    HW262084   9.922   6.655   4.427
54020SOL     OW62085   9.996   6.747   5.527
54020SOL    HW162086  10.056   6.826   5.541
54020SOL    HW262087   9.910   6.778   5.486
54021SOL     OW62088  10.770   7.091   5.063
54021SOL    HW162089  10.794   7.185   5.089
54021SOL    HW262090  10.754   7.037   5.145
54022SOL     OW62091   9.748   5.978   5.223
54022SOL    HW162092   9.830   5.922   5.232
54022SOL    HW262093   9.667   5.920   5.227
54023SOL     OW62094  10.913   6.033   4.461
54023SOL    HW162095  10.839   6.079   4.411
54023SOL    HW262096  10.964   6.101   4.514
54024SOL     OW62097   9.541   7.299   4.207
54024SOL    HW162098   9.575   7.376   4.261
54024SOL    HW262099   9.585   7.299   4.117
54025SOL     OW62100  10.437   6.927   5.414
54025SOL    HW162101  10.484   6.927   5.502
54025SOL    HW262102  10.389   6.840   5.403
54026SOL     OW62103   9.540   7.020   4.262
54026SOL    HW162104   9.514   7.116   4.262
54026SOL    HW262105   9.469   6.966   4.307
54027SOL     OW62106   9.550   6.677   4.610
54027SOL    HW162107   9.564   6.593   4.662
54027SOL    HW262108   9.495   6.741   4.665
54028SOL     OW62109   9.930   7.372   5.163
54028SOL    HW162110   9.838   7.355   5.198
54028SOL    HW262111   9.958   7.464   5.189
54029SOL     OW62112   9.916   6.550   3.847
54029SOL    HW162113   9.923   6.634   3.793
54029SOL    HW262114   9.962   6.563   3.935
54030SOL     OW62115  10.904   5.700   5.204
54030SOL    HW162116  10.886   5.767   5.132
54030SOL    HW262117  10.901   5.746   5.293
54031SOL     OW62118   9.432   6.229   4.287
54031SOL    HW162119   9.387   6.141   4.304
54031SOL    HW262120   9.431   6.283   4.371
54032SOL     OW62121  11.152   7.353   4.083
54032SOL    HW162122  11.206   7.324   4.163
54032SOL    HW262123  11.182   7.443   4.054
54033SOL     OW62124   9.337   7.182   3.841
54033SOL    HW162125   9.318   7.086   3.862
54033SOL    HW262126   9.304   7.240   3.916
54034SOL     OW62127  10.999   6.508   4.336
54034SOL    HW162128  11.094   6.479   4.344
54034SOL    HW262129  10.991   6.573   4.261
54035SOL     OW62130  10.951   6.694   4.156
54035SOL    HW162131  11.037   6.696   4.104
54035SOL    HW262132  10.965   6.741   4.244
54036SOL     OW62133   9.423   6.323   5.321
54036SOL    HW162134   9.511   6.310   5.366
54036SOL    HW262135   9.410   6.420   5.299
54037SOL     OW62136   9.923   6.951   4.450
54037SOL    HW162137   9.874   6.864   4.459
54037SOL    HW262138   9.900   6.994   4.363
54038SOL     OW62139  10.603   6.814   5.147
54038SOL    HW162140  10.640   6.741   5.089
54038SOL    HW262141  10.655   6.819   5.232
54039SOL     OW62142  10.119   5.590   4.226
54039SOL    HW162143  10.159   5.681   4.217
54039SOL    HW262144  10.019   5.598   4.232
54040SOL     OW62145   9.507   6.562   4.988
54040SOL    HW162146   9.596   6.517   4.974
54040SOL    HW262147   9.434   6.497   4.969
54041SOL     OW62148  10.835   6.585   3.914
54041SOL    HW162149  10.772   6.509   3.927
54041SOL    HW262150  10.883   6.603   4.000
54042SOL     OW62151  10.497   7.378   5.340
54042SOL    HW162152  10.521   7.438   5.264
54042SOL    HW262153  10.504   7.283   5.310
54043SOL     OW62154   9.627   5.837   5.525
54043SOL    HW162155   9.698   5.908   5.531
54043SOL    HW262156   9.539   5.876   5.553
54044SOL     OW62157  10.776   7.003   4.677
54044SOL    HW162158  10.717   7.009   4.757
54044SOL    HW262159  10.761   6.915   4.631
54045SOL     OW62160  10.977   7.300   4.296
54045SOL    HW162161  10.936   7.277   4.208
54045SOL    HW262162  10.959   7.226   4.361
54046SOL     OW62163   9.908   6.315   3.994
54046SOL    HW162164   9.932   6.384   3.926
54046SOL    HW262165   9.830   6.348   4.048
54047SOL     OW62166  10.591   5.931   4.668
54047SOL    HW162167  10.505   5.881   4.655
54047SOL    HW262168  10.653   5.877   4.724
54048SOL     OW62169  10.886   7.248   4.031
54048SOL    HW162170  10.975   7.294   4.034
54048SOL    HW262171  10.865   7.224   3.936
54049SOL     OW62172  10.117   6.191   5.189
54049SOL    HW162173  10.070   6.188   5.278
54049SOL    HW262174  10.066   6.136   5.123
54050SOL     OW62175  10.704   6.055   5.398
54050SOL    HW162176  10.684   6.098   5.486
54050SOL    HW262177  10.782   5.993   5.407
54051SOL     OW62178  10.283   6.476   5.296
54051SOL    HW162179  10.329   6.392   5.267
54051SOL    HW262180  10.227   6.510   5.221
54052SOL     OW62181  10.301   5.996   4.966
54052SOL    HW162182  10.224   6.030   5.020
54052SOL    HW262183  10.267   5.945   4.887
54053SOL     OW62184  10.351   6.287   4.153
54053SOL    HW162185  10.377   6.283   4.249
54053SOL    HW262186  10.266   6.236   4.139
54054SOL     OW62187   9.386   6.397   4.513
54054SOL    HW162188   9.485   6.385   4.522
54054SOL    HW262189   9.362   6.492   4.534
54055SOL     OW62190   9.440   7.407   5.295
54055SOL    HW162191   9.430   7.392   5.394
54055SOL    HW262192   9.354   7.443   5.259
54056SOL     OW62193  10.175   5.934   3.919
54056SOL    HW162194  10.234   5.997   3.870
54056SOL    HW262195  10.194   5.840   3.890
54057SOL     OW62196  11.029   6.171   5.555
54057SOL    HW162197  11.003   6.260   5.519
54057SOL    HW262198  11.027   6.103   5.482
54058SOL     OW62199  10.672   6.730   4.269
54058SOL    HW162200  10.755   6.701   4.221
54058SOL    HW262201  10.623   6.797   4.213
54059SOL     OW62202   9.860   5.782   4.609
54059SOL    HW162203   9.855   5.777   4.709
54059SOL    HW262204   9.862   5.878   4.580
54060SOL     OW62205  10.318   7.042   4.201
54060SOL    HW162206  10.272   7.114   4.149
54060SOL    HW262207  10.314   7.062   4.299
54061SOL     OW62208   9.661   7.387   4.577
54061SOL    HW162209   9.711   7.301   4.583
54061SOL    HW262210   9.726   7.464   4.574
54062SOL     OW62211  11.105   6.652   4.597
54062SOL    HW162212  11.043   6.637   4.521
54062SOL    HW262213  11.053   6.663   4.682
54063SOL     OW62214  10.537   7.136   5.230
54063SOL    HW162215  10.543   7.059   5.294
54063SOL    HW262216  10.485   7.110   5.150
54064SOL     OW62217   9.631   6.529   3.966
54064SOL    HW162218   9.713   6.568   3.924
54064SOL    HW262219   9.604   6.447   3.917
54065SOL     OW62220  10.768   6.321   4.452
54065SOL    HW162221  10.763   6.256   4.527
54065SOL    HW262222  10.848   6.380   4.465
54066SOL     OW62223   9.771   6.852   5.451
54066SOL    HW162224   9.721   6.853   5.365
54066SOL    HW262225   9.708   6.834   5.527
54067SOL     OW62226  10.421   7.362   3.961
54067SOL    HW162227  10.361   7.300   4.011
54067SOL    HW262228  10.452   7.318   3.876
54068SOL     OW62229   9.512   5.871   5.222
54068SOL    HW162230   9.432   5.931   5.209
54068SOL    HW262231   9.502   5.822   5.308
54069SOL     OW62232  10.942   6.963   3.805
54069SOL    HW162233  10.910   7.057   3.795
54069SOL    HW262234  10.866   6.900   3.793
54070SOL     OW62235   9.774   7.329   4.047
54070SOL    HW162236   9.807   7.368   4.133
54070SOL    HW262237   9.850   7.322   3.982
54071SOL     OW62238  10.710   5.693   4.150
54071SOL    HW162239  10.686   5.656   4.060
54071SOL    HW262240  10.809   5.709   4.154
54072SOL     OW62241   9.559   7.371   4.965
54072SOL    HW162242   9.616   7.306   5.015
54072SOL    HW262243   9.543   7.338   4.872
54073SOL     OW62244  10.250   7.284   4.628
54073SOL    HW162245  10.330   7.227   4.649
54073SOL    HW262246  10.201   7.244   4.551
54074SOL     OW62247   9.692   6.286   4.204
54074SOL    HW162248   9.737   6.196   4.201
54074SOL    HW262249   9.598   6.275   4.237
54075SOL     OW62250  10.857   5.808   5.453
54075SOL    HW162251  10.852   5.845   5.545
54075SOL    HW262252  10.785   5.739   5.441
54076SOL     OW62253   9.924   5.708   3.841
54076SOL    HW162254  10.022   5.686   3.848
54076SOL    HW262255   9.893   5.691   3.748
54077SOL     OW62256  10.091   5.850   5.473
54077SOL    HW162257  10.158   5.789   5.516
54077SOL    HW262258  10.018   5.869   5.538
54078SOL     OW62259  10.198   7.100   4.919
54078SOL    HW162260  10.175   7.075   4.825
54078SOL    HW262261  10.259   7.031   4.958
54079SOL     OW62262  10.661   6.176   5.157
54079SOL    HW162263  10.689   6.133   5.242
54079SOL    HW262264  10.686   6.272   5.158
54080SOL     OW62265  10.113   6.988   4.648
54080SOL    HW162266  10.203   7.002   4.606
54080SOL    HW262267  10.042   6.990   4.577
54081SOL     OW62268  10.232   6.089   4.623
54081SOL    HW162269  10.207   6.080   4.527
54081SOL    HW262270  10.280   6.007   4.654
54082SOL     OW62271   9.849   5.650   4.236
54082SOL    HW162272   9.768   5.651   4.294
54082SOL    HW262273   9.852   5.733   4.181
54083SOL     OW62274  10.744   6.774   3.765
54083SOL    HW162275  10.776   6.698   3.822
54083SOL    HW262276  10.652   6.801   3.795
54084SOL     OW62277   9.607   5.621   3.895
54084SOL    HW162278   9.656   5.705   3.874
54084SOL    HW262279   9.669   5.556   3.940
54085SOL     OW62280  10.245   5.822   4.204
54085SOL    HW162281  10.197   5.863   4.126
54085SOL    HW262282  10.344   5.820   4.185
54086SOL     OW62283  10.386   6.269   5.188
54086SOL    HW162284  10.306   6.208   5.191
54086SOL    HW262285  10.467   6.216   5.164
54087SOL     OW62286  10.537   7.156   4.517
54087SOL    HW162287  10.558   7.230   4.452
54087SOL    HW262288  10.605   7.156   4.590
54088SOL     OW62289   9.769   6.738   4.465
54088SOL    HW162290   9.698   6.711   4.530
54088SOL    HW262291   9.743   6.710   4.372
54089SOL     OW62292  10.581   7.383   4.315
54089SOL    HW162293  10.625   7.447   4.251
54089SOL    HW262294  10.531   7.435   4.385
54090SOL     OW62295  10.342   6.135   3.740
54090SOL    HW162296  10.301   6.217   3.701
54090SOL    HW262297  10.406   6.161   3.813
54091SOL     OW62298   9.388   6.142   5.110
54091SOL    HW162299   9.480   6.141   5.069
54091SOL    HW262300   9.382   6.216   5.177
54092SOL     OW62301   9.871   5.808   4.871
54092SOL    HW162302   9.909   5.724   4.908
54092SOL    HW262303   9.783   5.827   4.915
54093SOL     OW62304  10.176   6.040   4.366
54093SOL    HW162305  10.144   6.112   4.304
54093SOL    HW262306  10.200   5.959   4.313
54094SOL     OW62307  10.327   5.625   4.477
54094SOL    HW162308  10.255   5.630   4.408
54094SOL    HW262309  10.303   5.556   4.546
54095SOL     OW62310  10.739   6.759   4.591
54095SOL    HW162311  10.684   6.675   4.584
54095SOL    HW262312  10.765   6.788   4.499
54096SOL     OW62313  10.776   6.176   4.716
54096SOL    HW162314  10.746   6.081   4.723
54096SOL    HW262315  10.849   6.192   4.782
54097SOL     OW62316  11.167   6.419   4.101
54097SOL    HW162317  11.209   6.355   4.165
54097SOL    HW262318  11.129   6.368   4.023
54098SOL     OW62319   9.798   6.971   3.898
54098SOL    HW162320   9.711   6.956   3.945
54098SOL    HW262321   9.781   6.997   3.803
54099SOL     OW62322  10.974   6.866   4.381
54099SOL    HW162323  11.073   6.874   4.395
54099SOL    HW262324  10.929   6.950   4.412
54100SOL     OW62325  10.700   6.161   3.802
54100SOL    HW162326  10.646   6.140   3.883
54100SOL    HW262327  10.791   6.120   3.811
54101SOL     OW62328   9.837   5.842   4.052
54101SOL    HW162329   9.864   5.783   3.977
54101SOL    HW262330   9.837   5.937   4.021
54102SOL     OW62331  11.064   6.809   5.312
54102SOL    HW162332  11.155   6.770   5.299
54102SOL    HW262333  11.072   6.905   5.336
54103SOL     OW62334  10.374   6.933   5.064
54103SOL    HW162335  10.294   6.910   5.119
54103SOL    HW262336  10.457   6.907   5.113
54104SOL     OW62337  10.902   7.215   5.349
54104SOL    HW162338  10.929   7.249   5.259
54104SOL    HW262339  10.981   7.177   5.395
54105SOL     OW62340  10.421   6.781   4.824
54105SOL    HW162341  10.381   6.825   4.905
54105SOL    HW262342  10.380   6.818   4.741
54106SOL     OW62343  10.948   6.685   4.803
54106SOL    HW162344  10.953   6.766   4.862
54106SOL    HW262345  10.862   6.687   4.752
54107SOL     OW62346  10.225   5.675   5.126
54107SOL    HW162347  10.250   5.655   5.031
54107SOL    HW262348  10.297   5.731   5.168
54108SOL     OW62349  10.290   6.702   5.443
54108SOL    HW162350  10.191   6.708   5.453
54108SOL    HW262351  10.313   6.622   5.387
54109SOL     OW62352  10.015   6.636   4.092
54109SOL    HW162353  10.001   6.643   4.191
54109SOL    HW262354  10.099   6.585   4.074
54110SOL     OW62355   9.720   6.399   4.975
54110SOL    HW162356   9.806   6.411   5.025
54110SOL    HW262357   9.678   6.312   5.002
54111SOL     OW62358  10.584   5.972   4.986
54111SOL    HW162359  10.605   6.046   5.050
54111SOL    HW262360  10.495   5.989   4.943
54112SOL     OW62361   9.374   7.150   5.055
54112SOL    HW162362   9.328   7.232   5.021
54112SOL    HW262363   9.472   7.169   5.064
54113SOL     OW62364   9.677   6.686   4.225
54113SOL    HW162365   9.670   6.769   4.169
54113SOL    HW262366   9.681   6.606   4.165
54114SOL     OW62367   9.876   6.123   4.589
54114SOL    HW162368   9.888   6.189   4.515
54114SOL    HW262369   9.922   6.157   4.672
54115SOL     OW62370  10.562   6.934   4.112
54115SOL    HW162371  10.612   7.011   4.152
54115SOL    HW262372  10.467   6.936   4.144
54116SOL     OW62373  10.582   7.031   4.866
54116SOL    HW162374  10.629   7.044   4.953
54116SOL    HW262375  10.516   6.957   4.875
54117SOL     OW62376  10.892   6.225   4.196
54117SOL    HW162377  10.861   6.286   4.269
54117SOL    HW262378  10.942   6.277   4.127
54118SOL     OW62379   9.664   7.096   5.053
54118SOL    HW162380   9.643   7.052   4.966
54118SOL    HW262381   9.761   7.122   5.056
54119SOL     OW62382   9.712   6.337   5.322
54119SOL    HW162383   9.780   6.392   5.275
54119SOL    HW262384   9.752   6.249   5.349
54120SOL     OW62385  10.897   6.365   5.394
54120SOL    HW162386  10.805   6.403   5.389
54120SOL    HW262387  10.957   6.412   5.329
54121SOL     OW62388  10.323   5.691   5.494
54121SOL    HW162389  10.329   5.776   5.442
54121SOL    HW262390  10.355   5.615   5.437
54122SOL     OW62391   9.814   5.636   5.464
54122SOL    HW162392   9.772   5.579   5.394
54122SOL    HW262393   9.748   5.705   5.496
54123SOL     OW62394   9.883   6.456   4.753
54123SOL    HW162395   9.927   6.545   4.744
54123SOL    HW262396   9.820   6.456   4.830
54124SOL     OW62397  10.670   6.448   4.769
54124SOL    HW162398  10.595   6.448   4.703
54124SOL    HW262399  10.707   6.356   4.778
54125SOL     OW62400  10.519   6.111   3.999
54125SOL    HW162401  10.532   6.027   4.053
54125SOL    HW262402  10.490   6.185   4.059
54126SOL     OW62403   9.617   5.799   4.955
54126SOL    HW162404   9.594   5.836   5.045
54126SOL    HW262405   9.587   5.704   4.949
54127SOL     OW62406   9.347   6.896   5.006
54127SOL    HW162407   9.400   6.847   5.074
54127SOL    HW262408   9.369   6.994   5.011
54128SOL     OW62409  10.042   6.220   4.788
54128SOL    HW162410  10.101   6.194   4.712
54128SOL    HW262411  10.014   6.316   4.777
54129SOL     OW62412  11.038   6.521   5.578
54129SOL    HW162413  10.992   6.514   5.489
54129SOL    HW262414  10.976   6.565   5.644
54130SOL     OW62415   9.617   5.649   4.342
54130SOL    HW162416   9.606   5.743   4.375
54130SOL    HW262417   9.612   5.586   4.419
54131SOL     OW62418  10.932   5.953   4.098
54131SOL    HW162419  10.934   5.877   4.162
54131SOL    HW262420  10.884   6.030   4.138
54132SOL     OW62421  10.333   6.352   4.690
54132SOL    HW162422  10.348   6.373   4.786
54132SOL    HW262423  10.303   6.257   4.681
54133SOL     OW62424  10.290   7.159   5.424
54133SOL    HW162425  10.270   7.203   5.336
54133SOL    HW262426  10.329   7.068   5.408
54134SOL     OW62427  11.169   7.104   5.329
54134SOL    HW162428  11.183   7.131   5.234
54134SOL    HW262429  11.252   7.126   5.382
54135SOL     OW62430   9.660   6.484   5.528
54135SOL    HW162431   9.736   6.528   5.576
54135SOL    HW262432   9.695   6.437   5.446
54136SOL     OW62433  10.850   5.860   3.849
54136SOL    HW162434  10.789   5.785   3.872
54136SOL    HW262435  10.872   5.912   3.932
54137SOL     OW62436  10.613   6.424   3.766
54137SOL    HW162437  10.647   6.331   3.781
54137SOL    HW262438  10.631   6.451   3.671
54138SOL     OW62439  10.378   6.919   4.573
54138SOL    HW162440  10.385   6.835   4.518
54138SOL    HW262441  10.440   6.988   4.537
54139SOL     OW62442   9.629   6.396   4.673
54139SOL    HW162443   9.722   6.432   4.678
54139SOL    HW262444   9.623   6.311   4.725
54140SOL     OW62445   9.649   6.095   4.730
54140SOL    HW162446   9.597   6.012   4.713
54140SOL    HW262447   9.726   6.100   4.666
54141SOL     OW62448  10.448   5.966   5.402
54141SOL    HW162449  10.403   6.029   5.466
54141SOL    HW262450  10.541   5.997   5.385
54142SOL     OW62451  10.470   5.793   5.201
54142SOL    HW162452  10.470   5.857   5.278
54142SOL    HW262453  10.498   5.841   5.118
54143SOL     OW62454   9.318   6.912   3.924
54143SOL    HW162455   9.225   6.933   3.893
54143SOL    HW262456   9.328   6.813   3.937
54144SOL     OW62457   9.398   7.387   4.651
54144SOL    HW162458   9.356   7.301   4.624
54144SOL    HW262459   9.492   7.390   4.617
54145SOL     OW62460   9.814   7.154   4.634
54145SOL    HW162461   9.880   7.228   4.643
54145SOL    HW262462   9.858   7.075   4.592
54146SOL     OW62463  10.312   6.382   4.962
54146SOL    HW162464  10.353   6.350   5.048
54146SOL    HW262465  10.216   6.355   4.959
54147SOL     OW62466   9.350   6.130   4.838
54147SOL    HW162467   9.435   6.097   4.797
54147SOL    HW262468   9.363   6.145   4.936
54148SOL     OW62469   9.499   6.106   5.446
54148SOL    HW162470   9.558   6.066   5.376
54148SOL    HW262471   9.441   6.177   5.405
54149SOL     OW62472  10.679   6.536   5.384
54149SOL    HW162473  10.718   6.625   5.404
54149SOL    HW262474  10.689   6.516   5.287
54150SOL     OW62475  10.125   6.158   4.049
54150SOL    HW162476  10.132   6.069   4.003
54150SOL    HW262477  10.031   6.192   4.041
54151SOL     OW62478  10.967   6.190   4.930
54151SOL    HW162479  10.929   6.121   4.992
54151SOL    HW262480  11.049   6.154   4.886
54152SOL     OW62481   9.562   7.150   5.468
54152SOL    HW162482   9.532   7.207   5.544
54152SOL    HW262483   9.555   7.053   5.494
54153SOL     OW62484   9.981   6.050   4.993
54153SOL    HW162485   9.947   5.961   4.963
54153SOL    HW262486  10.007   6.104   4.913
54154SOL     OW62487  10.240   7.264   5.189
54154SOL    HW162488  10.216   7.246   5.094
54154SOL    HW262489  10.270   7.358   5.199
54155SOL     OW62490   9.783   6.086   3.915
54155SOL    HW162491   9.844   6.166   3.919
54155SOL    HW262492   9.688   6.117   3.922
54156SOL     OW62493   9.469   6.723   5.190
54156SOL    HW162494   9.491   6.662   5.266
54156SOL    HW262495   9.479   6.674   5.104
54157SOL     OW62496  10.657   6.645   4.958
54157SOL    HW162497  10.681   6.582   4.884
54157SOL    HW262498  10.567   6.685   4.940
54158SOL     OW62499  10.612   6.441   4.033
54158SOL    HW162500  10.526   6.410   4.075
54158SOL    HW262501  10.608   6.427   3.934
54159SOL     OW62502  11.069   7.333   4.878
54159SOL    HW162503  11.130   7.363   4.805
54159SOL    HW262504  11.031   7.244   4.856
54160SOL     OW62505  10.562   7.317   4.852
54160SOL    HW162506  10.646   7.322   4.798
54160SOL    HW262507  10.539   7.221   4.870
54161SOL     OW62508   9.393   6.844   4.746
54161SOL    HW162509   9.388   6.843   4.846
54161SOL    HW262510   9.310   6.803   4.708
54162SOL     OW62511   9.998   7.248   5.440
54162SOL    HW162512   9.942   7.329   5.449
54162SOL    HW262513  10.050   7.252   5.354
54163SOL     OW62514  11.036   5.721   4.247
54163SOL    HW162515  11.109   5.704   4.180
54163SOL    HW262516  11.005   5.634   4.285
54164SOL     OW62517  10.698   7.159   4.201
54164SOL    HW162518  10.765   7.171   4.127
54164SOL    HW262519  10.658   7.248   4.224
54165SOL     OW62520   9.440   7.380   5.575
54165SOL    HW162521   9.399   7.306   5.628
54165SOL    HW262522   9.504   7.431   5.633
54166SOL     OW62523  10.590   6.513   4.396
54166SOL    HW162524  10.650   6.432   4.398
54166SOL    HW262525  10.630   6.582   4.336
54167SOL     OW62526  10.140   6.859   5.146
54167SOL    HW162527  10.135   6.892   5.241
54167SOL    HW262528  10.054   6.878   5.100
54168SOL     OW62529   9.982   7.202   3.878
54168SOL    HW162530   9.991   7.212   3.779
54168SOL    HW262531   9.942   7.113   3.899
54169SOL     OW62532  10.960   7.306   5.118
54169SOL    HW162533  11.013   7.316   5.034
54169SOL    HW262534  10.933   7.396   5.152
54170SOL     OW62535  11.151   5.761   4.687
54170SOL    HW162536  11.190   5.676   4.651
54170SOL    HW262537  11.053   5.763   4.668
54171SOL     OW62538   9.573   5.912   4.444
54171SOL    HW162539   9.494   5.963   4.410
54171SOL    HW262540   9.564   5.897   4.542
54172SOL     OW62541  10.504   7.198   3.755
54172SOL    HW162542  10.510   7.105   3.792
54172SOL    HW262543  10.445   7.198   3.675
54173SOL     OW62544  10.132   6.588   5.096
54173SOL    HW162545  10.172   6.587   5.004
54173SOL    HW262546  10.142   6.680   5.136
54174SOL     OW62547  10.226   6.496   4.015
54174SOL    HW162548  10.289   6.534   3.947
54174SOL    HW262549  10.266   6.413   4.054
54175SOL     OW62550  10.814   7.193   3.768
54175SOL    HW162551  10.722   7.230   3.775
54175SOL    HW262552  10.852   7.213   3.678
54176SOL     OW62553   9.682   6.874   5.214
54176SOL    HW162554   9.669   6.967   5.180
54176SOL    HW262555   9.598   6.822   5.201
54177SOL     OW62556  10.924   6.878   5.013
54177SOL    HW162557  10.984   6.881   5.093
54177SOL    HW262558  10.849   6.942   5.026
54178SOL     OW62559  10.349   6.684   4.420
54178SOL    HW162560  10.279   6.637   4.474
54178SOL    HW262561  10.408   6.616   4.377
54179SOL     OW62562  10.324   5.822   4.695
54179SOL    HW162563  10.316   5.786   4.602
54179SOL    HW262564  10.322   5.746   4.760
54180SOL     OW62565   9.900   7.073   4.215
54180SOL    HW162566   9.942   7.015   4.145
54180SOL    HW262567   9.856   7.152   4.171
54181SOL     OW62568  11.019   5.971   5.105
54181SOL    HW162569  11.092   6.040   5.109
54181SOL    HW262570  11.047   5.896   5.046
54182SOL     OW62571   9.565   6.934   4.014
54182SOL    HW162572   9.469   6.935   3.987
54182SOL    HW262573   9.577   6.987   4.098
54183SOL     OW62574   9.415   6.599   5.450
54183SOL    HW162575   9.338   6.566   5.504
54183SOL    HW262576   9.500   6.569   5.492
54184SOL     OW62577   9.385   5.931   3.757
54184SOL    HW162578   9.293   5.903   3.728
54184SOL    HW262579   9.416   6.008   3.701
54185SOL     OW62580  10.750   6.442   5.122
54185SOL    HW162581  10.693   6.494   5.059
54185SOL    HW262582  10.846   6.454   5.098
54186SOL     OW62583   9.382   5.752   4.042
54186SOL    HW162584   9.365   5.835   3.988
54186SOL    HW262585   9.472   5.715   4.020
54187SOL     OW62586  10.493   6.921   3.843
54187SOL    HW162587  10.394   6.910   3.845
54187SOL    HW262588  10.527   6.936   3.936
54188SOL     OW62589   9.923   6.428   5.155
54188SOL    HW162590   9.979   6.509   5.138
54188SOL    HW262591   9.982   6.348   5.158
54189SOL     OW62592  10.803   7.353   4.683
54189SOL    HW162593  10.836   7.417   4.614
54189SOL    HW262594  10.869   7.347   4.758
54190SOL     OW62595  10.026   6.151   5.432
54190SOL    HW162596  10.045   6.216   5.506
54190SOL    HW262597  10.086   6.071   5.441
54191SOL     OW62598  10.760   6.806   5.357
54191SOL    HW162599  10.751   6.796   5.456
54191SOL    HW262600  10.856   6.799   5.331
54192SOL     OW62601   9.700   7.327   5.284
54192SOL    HW162602   9.609   7.368   5.282
54192SOL    HW262603   9.693   7.233   5.316
54193SOL     OW62604  10.984   6.469   4.978
54193SOL    HW162605  10.957   6.380   4.941
54193SOL    HW262606  10.985   6.537   4.905
54194SOL     OW62607  10.535   5.911   4.173
54194SOL    HW162608  10.600   5.837   4.162
54194SOL    HW262609  10.555   5.961   4.257
54195SOL     OW62610   9.904   6.331   4.376
54195SOL    HW162611   9.954   6.416   4.357
54195SOL    HW262612   9.816   6.333   4.328
54196SOL     OW62613  11.087   5.928   5.366
54196SOL    HW162614  11.070   5.959   5.272
54196SOL    HW262615  11.003   5.891   5.404
54197SOL     OW62616  11.040   6.520   5.241
54197SOL    HW162617  11.078   6.611   5.256
54197SOL    HW262618  11.032   6.503   5.142
54198SOL     OW62619  10.169   6.960   3.740
54198SOL    HW162620  10.123   6.975   3.828
54198SOL    HW262621  10.213   7.045   3.710
54199SOL     OW62622   9.971   7.376   4.677
54199SOL    HW162623   9.925   7.464   4.664
54199SOL    HW262624  10.070   7.388   4.670
54200SOL     OW62625  10.169   6.542   4.585
54200SOL    HW162626  10.223   6.473   4.633
54200SOL    HW262627  10.137   6.611   4.651
54201SOL     OW62628  10.393   6.570   3.811
54201SOL    HW162629  10.370   6.623   3.729
54201SOL    HW262630  10.474   6.514   3.792
54202SOL     OW62631  11.171   7.155   4.575
54202SOL    HW162632  11.100   7.143   4.505
54202SOL    HW262633  11.172   7.076   4.635
54203SOL     OW62634   9.531   6.900   5.568
54203SOL    HW162635   9.466   6.827   5.547
54203SOL    HW262636   9.535   6.914   5.666
54204SOL     OW62637   9.389   6.826   4.377
54204SOL    HW162638   9.388   6.779   4.465
54204SOL    HW262639   9.471   6.798   4.326
54205SOL     OW62640   9.982   6.977   5.348
54205SOL    HW162641   9.904   6.927   5.386
54205SOL    HW262642   9.979   7.072   5.379
54206SOL     OW62643  11.134   5.778   4.951
54206SOL    HW162644  11.130   5.688   4.995
54206SOL    HW262645  11.137   5.767   4.852
54207SOL     OW62646   9.738   6.010   4.244
54207SOL    HW162647   9.768   5.938   4.182
54207SOL    HW262648   9.699   5.970   4.327
54208SOL     OW62649  11.015   7.073   4.828
54208SOL    HW162650  10.922   7.048   4.801
54208SOL    HW262651  11.041   7.023   4.910
54209SOL     OW62652   9.627   6.133   5.004
54209SOL    HW162653   9.665   6.074   5.076
54209SOL    HW262654   9.667   6.107   4.916
54210SOL     OW62655  10.122   7.172   4.411
54210SOL    HW162656  10.154   7.182   4.317
54210SOL    HW262657  10.043   7.110   4.413
54211SOL     OW62658  10.734   5.800   4.836
54211SOL    HW162659  10.786   5.735   4.891
54211SOL    HW262660  10.685   5.863   4.897
54212SOL     OW62661  10.311   5.620   4.878
54212SOL    HW162662  10.248   5.548   4.847
54212SOL    HW262663  10.404   5.584   4.878
54213SOL     OW62664  10.080   6.916   4.025
54213SOL    HW162665  10.034   6.829   4.042
54213SOL    HW262666  10.171   6.913   4.066
54214SOL     OW62667   9.928   7.153   5.008
54214SOL    HW162668   9.923   7.235   5.065
54214SOL    HW262669  10.017   7.150   4.963
54215SOL     OW62670  10.662   5.638   3.892
54215SOL    HW162671  10.697   5.597   3.808
54215SOL    HW262672  10.572   5.600   3.912
54216SOL     OW62673  10.610   6.039   4.415
54216SOL    HW162674  10.551   6.119   4.419
54216SOL    HW262675  10.625   6.004   4.508
54217SOL     OW62676  10.903   5.807   4.606
54217SOL    HW162677  10.819   5.806   4.660
54217SOL    HW262678  10.905   5.890   4.550
54218SOL     OW62679   9.349   6.663   4.024
54218SOL    HW162680   9.448   6.652   4.015
54218SOL    HW262681   9.309   6.577   4.056
54219SOL     OW62682  10.185   7.232   4.061
54219SOL    HW162683  10.108   7.197   4.007
54219SOL    HW262684  10.153   7.303   4.123
54220SOL     OW62685   9.535   5.861   6.582
54220SOL    HW162686   9.570   5.844   6.674
54220SOL    HW262687   9.447   5.816   6.570
54221SOL     OW62688   9.329   5.954   6.233
54221SOL    HW162689   9.247   5.997   6.272
54221SOL    HW262690   9.301   5.881   6.170
54222SOL     OW62691   9.879   6.861   6.751
54222SOL    HW162692   9.786   6.854   6.714
54222SOL    HW262693   9.890   6.950   6.795
54223SOL     OW62694  10.865   7.097   6.289
54223SOL    HW162695  10.808   7.081   6.370
54223SOL    HW262696  10.806   7.107   6.209
54224SOL     OW62697  10.445   6.289   6.303
54224SOL    HW162698  10.502   6.367   6.278
54224SOL    HW262699  10.385   6.315   6.379
54225SOL     OW62700  11.065   6.193   5.817
54225SOL    HW162701  11.053   6.180   5.718
54225SOL    HW262702  11.035   6.112   5.866
54226SOL     OW62703  10.078   6.730   6.609
54226SOL    HW162704  10.000   6.747   6.669
54226SOL    HW262705  10.112   6.817   6.573
54227SOL     OW62706  10.160   6.384   7.409
54227SOL    HW162707  10.156   6.460   7.474
54227SOL    HW262708  10.182   6.420   7.318
54228SOL     OW62709   9.995   6.598   6.251
54228SOL    HW162710  10.064   6.582   6.321
54228SOL    HW262711   9.922   6.655   6.289
54229SOL     OW62712   9.996   6.747   7.389
54229SOL    HW162713  10.056   6.826   7.403
54229SOL    HW262714   9.910   6.778   7.348
54230SOL     OW62715   9.645   7.021   6.647
54230SOL    HW162716   9.567   6.990   6.594
54230SOL    HW262717   9.703   7.079   6.590
54231SOL     OW62718  10.770   7.091   6.925
54231SOL    HW162719  10.794   7.185   6.951
54231SOL    HW262720  10.754   7.037   7.007
54232SOL     OW62721   9.748   5.978   7.085
54232SOL    HW162722   9.830   5.922   7.094
54232SOL    HW262723   9.667   5.920   7.089
54233SOL     OW62724  10.913   6.033   6.323
54233SOL    HW162725  10.839   6.079   6.273
54233SOL    HW262726  10.964   6.101   6.376
54234SOL     OW62727   9.541   7.299   6.069
54234SOL    HW162728   9.575   7.376   6.123
54234SOL    HW262729   9.585   7.299   5.979
54235SOL     OW62730  10.437   6.927   7.276
54235SOL    HW162731  10.484   6.927   7.364
54235SOL    HW262732  10.389   6.840   7.265
54236SOL     OW62733   9.540   7.020   6.124
54236SOL    HW162734   9.514   7.116   6.124
54236SOL    HW262735   9.469   6.966   6.169
54237SOL     OW62736   9.550   6.677   6.472
54237SOL    HW162737   9.564   6.593   6.524
54237SOL    HW262738   9.495   6.741   6.527
54238SOL     OW62739   9.930   7.372   7.025
54238SOL    HW162740   9.838   7.355   7.060
54238SOL    HW262741   9.958   7.464   7.051
54239SOL     OW62742   9.916   6.550   5.709
54239SOL    HW162743   9.923   6.634   5.655
54239SOL    HW262744   9.962   6.563   5.797
54240SOL     OW62745  10.904   5.700   7.066
54240SOL    HW162746  10.886   5.767   6.994
54240SOL    HW262747  10.901   5.746   7.155
54241SOL     OW62748   9.432   6.229   6.149
54241SOL    HW162749   9.387   6.141   6.166
54241SOL    HW262750   9.431   6.283   6.233
54242SOL     OW62751  11.152   7.353   5.945
54242SOL    HW162752  11.206   7.324   6.025
54242SOL    HW262753  11.182   7.443   5.916
54243SOL     OW62754   9.337   7.182   5.703
54243SOL    HW162755   9.318   7.086   5.724
54243SOL    HW262756   9.304   7.240   5.778
54244SOL     OW62757  10.999   6.508   6.198
54244SOL    HW162758  11.094   6.479   6.206
54244SOL    HW262759  10.991   6.573   6.123
54245SOL     OW62760  10.951   6.694   6.018
54245SOL    HW162761  11.037   6.696   5.966
54245SOL    HW262762  10.965   6.741   6.106
54246SOL     OW62763   9.423   6.323   7.183
54246SOL    HW162764   9.511   6.310   7.228
54246SOL    HW262765   9.410   6.420   7.161
54247SOL     OW62766   9.923   6.951   6.312
54247SOL    HW162767   9.874   6.864   6.321
54247SOL    HW262768   9.900   6.994   6.225
54248SOL     OW62769  10.603   6.814   7.009
54248SOL    HW162770  10.640   6.741   6.951
54248SOL    HW262771  10.655   6.819   7.094
54249SOL     OW62772  10.119   5.590   6.088
54249SOL    HW162773  10.159   5.681   6.079
54249SOL    HW262774  10.019   5.598   6.094
54250SOL     OW62775   9.507   6.562   6.850
54250SOL    HW162776   9.596   6.517   6.836
54250SOL    HW262777   9.434   6.497   6.831
54251SOL     OW62778  10.835   6.585   5.776
54251SOL    HW162779  10.772   6.509   5.789
54251SOL    HW262780  10.883   6.603   5.862
54252SOL     OW62781  10.497   7.378   7.202
54252SOL    HW162782  10.521   7.438   7.126
54252SOL    HW262783  10.504   7.283   7.172
54253SOL     OW62784   9.627   5.837   7.387
54253SOL    HW162785   9.698   5.908   7.393
54253SOL    HW262786   9.539   5.876   7.415
54254SOL     OW62787  10.776   7.003   6.539
54254SOL    HW162788  10.717   7.009   6.619
54254SOL    HW262789  10.761   6.915   6.493
54255SOL     OW62790  10.977   7.300   6.158
54255SOL    HW162791  10.936   7.277   6.070
54255SOL    HW262792  10.959   7.226   6.223
54256SOL     OW62793   9.908   6.315   5.856
54256SOL    HW162794   9.932   6.384   5.788
54256SOL    HW262795   9.830   6.348   5.910
54257SOL     OW62796  10.591   5.931   6.530
54257SOL    HW162797  10.505   5.881   6.517
54257SOL    HW262798  10.653   5.877   6.586
54258SOL     OW62799  10.886   7.248   5.893
54258SOL    HW162800  10.975   7.294   5.896
54258SOL    HW262801  10.865   7.224   5.798
54259SOL     OW62802  10.117   6.191   7.051
54259SOL    HW162803  10.070   6.188   7.140
54259SOL    HW262804  10.066   6.136   6.985
54260SOL     OW62805  10.704   6.055   7.260
54260SOL    HW162806  10.684   6.098   7.348
54260SOL    HW262807  10.782   5.993   7.269
54261SOL     OW62808  10.283   6.476   7.158
54261SOL    HW162809  10.329   6.392   7.129
54261SOL    HW262810  10.227   6.510   7.083
54262SOL     OW62811  10.301   5.996   6.828
54262SOL    HW162812  10.224   6.030   6.882
54262SOL    HW262813  10.267   5.945   6.749
54263SOL     OW62814  10.351   6.287   6.015
54263SOL    HW162815  10.377   6.283   6.111
54263SOL    HW262816  10.266   6.236   6.001
54264SOL     OW62817   9.386   6.397   6.375
54264SOL    HW162818   9.485   6.385   6.384
54264SOL    HW262819   9.362   6.492   6.396
54265SOL     OW62820   9.440   7.407   7.157
54265SOL    HW162821   9.430   7.392   7.256
54265SOL    HW262822   9.354   7.443   7.121
54266SOL     OW62823  10.175   5.934   5.781
54266SOL    HW162824  10.234   5.997   5.732
54266SOL    HW262825  10.194   5.840   5.752
54267SOL     OW62826  11.029   6.171   7.417
54267SOL    HW162827  11.003   6.260   7.381
54267SOL    HW262828  11.027   6.103   7.344
54268SOL     OW62829  10.672   6.730   6.131
54268SOL    HW162830  10.755   6.701   6.083
54268SOL    HW262831  10.623   6.797   6.075
54269SOL     OW62832   9.860   5.782   6.471
54269SOL    HW162833   9.855   5.777   6.571
54269SOL    HW262834   9.862   5.878   6.442
54270SOL     OW62835  10.318   7.042   6.063
54270SOL    HW162836  10.272   7.114   6.011
54270SOL    HW262837  10.314   7.062   6.161
54271SOL     OW62838   9.661   7.387   6.439
54271SOL    HW162839   9.711   7.301   6.445
54271SOL    HW262840   9.726   7.464   6.436
54272SOL     OW62841  11.105   6.652   6.459
54272SOL    HW162842  11.043   6.637   6.383
54272SOL    HW262843  11.053   6.663   6.544
54273SOL     OW62844  10.537   7.136   7.092
54273SOL    HW162845  10.543   7.059   7.156
54273SOL    HW262846  10.485   7.110   7.012
54274SOL     OW62847   9.631   6.529   5.828
54274SOL    HW162848   9.713   6.568   5.786
54274SOL    HW262849   9.604   6.447   5.779
54275SOL     OW62850  10.768   6.321   6.314
54275SOL    HW162851  10.763   6.256   6.389
54275SOL    HW262852  10.848   6.380   6.327
54276SOL     OW62853   9.771   6.852   7.313
54276SOL    HW162854   9.721   6.853   7.227
54276SOL    HW262855   9.708   6.834   7.389
54277SOL     OW62856  10.421   7.362   5.823
54277SOL    HW162857  10.361   7.300   5.873
54277SOL    HW262858  10.452   7.318   5.738
54278SOL     OW62859   9.512   5.871   7.084
54278SOL    HW162860   9.432   5.931   7.071
54278SOL    HW262861   9.502   5.822   7.170
54279SOL     OW62862  10.942   6.963   5.667
54279SOL    HW162863  10.910   7.057   5.657
54279SOL    HW262864  10.866   6.900   5.655
54280SOL     OW62865   9.774   7.329   5.909
54280SOL    HW162866   9.807   7.368   5.995
54280SOL    HW262867   9.850   7.322   5.844
54281SOL     OW62868  10.710   5.693   6.012
54281SOL    HW162869  10.686   5.656   5.922
54281SOL    HW262870  10.809   5.709   6.016
54282SOL     OW62871   9.559   7.371   6.827
54282SOL    HW162872   9.616   7.306   6.877
54282SOL    HW262873   9.543   7.338   6.734
54283SOL     OW62874  10.250   7.284   6.490
54283SOL    HW162875  10.330   7.227   6.511
54283SOL    HW262876  10.201   7.244   6.413
54284SOL     OW62877   9.692   6.286   6.066
54284SOL    HW162878   9.737   6.196   6.063
54284SOL    HW262879   9.598   6.275   6.099
54285SOL     OW62880  10.857   5.808   7.315
54285SOL    HW162881  10.852   5.845   7.407
54285SOL    HW262882  10.785   5.739   7.303
54286SOL     OW62883   9.924   5.708   5.703
54286SOL    HW162884  10.022   5.686   5.710
54286SOL    HW262885   9.893   5.691   5.610
54287SOL     OW62886  10.091   5.850   7.335
54287SOL    HW162887  10.158   5.789   7.378
54287SOL    HW262888  10.018   5.869   7.400
54288SOL     OW62889  10.198   7.100   6.781
54288SOL    HW162890  10.175   7.075   6.687
54288SOL    HW262891  10.259   7.031   6.820
54289SOL     OW62892  10.661   6.176   7.019
54289SOL    HW162893  10.689   6.133   7.104
54289SOL    HW262894  10.686   6.272   7.020
54290SOL     OW62895  10.113   6.988   6.510
54290SOL    HW162896  10.203   7.002   6.468
54290SOL    HW262897  10.042   6.990   6.439
54291SOL     OW62898  10.232   6.089   6.485
54291SOL    HW162899  10.207   6.080   6.389
54291SOL    HW262900  10.280   6.007   6.516
54292SOL     OW62901   9.849   5.650   6.098
54292SOL    HW162902   9.768   5.651   6.156
54292SOL    HW262903   9.852   5.733   6.043
54293SOL     OW62904  10.744   6.774   5.627
54293SOL    HW162905  10.776   6.698   5.684
54293SOL    HW262906  10.652   6.801   5.657
54294SOL     OW62907   9.607   5.621   5.757
54294SOL    HW162908   9.656   5.705   5.736
54294SOL    HW262909   9.669   5.556   5.802
54295SOL     OW62910  10.245   5.822   6.066
54295SOL    HW162911  10.197   5.863   5.988
54295SOL    HW262912  10.344   5.820   6.047
54296SOL     OW62913  10.386   6.269   7.050
54296SOL    HW162914  10.306   6.208   7.053
54296SOL    HW262915  10.467   6.216   7.026
54297SOL     OW62916  10.537   7.156   6.379
54297SOL    HW162917  10.558   7.230   6.314
54297SOL    HW262918  10.605   7.156   6.452
54298SOL     OW62919   9.769   6.738   6.327
54298SOL    HW162920   9.698   6.711   6.392
54298SOL    HW262921   9.743   6.710   6.234
54299SOL     OW62922  10.581   7.383   6.177
54299SOL    HW162923  10.625   7.447   6.113
54299SOL    HW262924  10.531   7.435   6.247
54300SOL     OW62925  10.342   6.135   5.602
54300SOL    HW162926  10.301   6.217   5.563
54300SOL    HW262927  10.406   6.161   5.675
54301SOL     OW62928   9.388   6.142   6.972
54301SOL    HW162929   9.480   6.141   6.931
54301SOL    HW262930   9.382   6.216   7.039
54302SOL     OW62931   9.871   5.808   6.733
54302SOL    HW162932   9.909   5.724   6.770
54302SOL    HW262933   9.783   5.827   6.777
54303SOL     OW62934  10.176   6.040   6.228
54303SOL    HW162935  10.144   6.112   6.166
54303SOL    HW262936  10.200   5.959   6.175
54304SOL     OW62937  10.327   5.625   6.339
54304SOL    HW162938  10.255   5.630   6.270
54304SOL    HW262939  10.303   5.556   6.408
54305SOL     OW62940  10.739   6.759   6.453
54305SOL    HW162941  10.684   6.675   6.446
54305SOL    HW262942  10.765   6.788   6.361
54306SOL     OW62943  10.776   6.176   6.578
54306SOL    HW162944  10.746   6.081   6.585
54306SOL    HW262945  10.849   6.192   6.644
54307SOL     OW62946  11.167   6.419   5.963
54307SOL    HW162947  11.209   6.355   6.027
54307SOL    HW262948  11.129   6.368   5.885
54308SOL     OW62949   9.798   6.971   5.760
54308SOL    HW162950   9.711   6.956   5.807
54308SOL    HW262951   9.781   6.997   5.665
54309SOL     OW62952  10.974   6.866   6.243
54309SOL    HW162953  11.073   6.874   6.257
54309SOL    HW262954  10.929   6.950   6.274
54310SOL     OW62955  10.700   6.161   5.664
54310SOL    HW162956  10.646   6.140   5.745
54310SOL    HW262957  10.791   6.120   5.673
54311SOL     OW62958   9.837   5.842   5.914
54311SOL    HW162959   9.864   5.783   5.839
54311SOL    HW262960   9.837   5.937   5.883
54312SOL     OW62961  11.064   6.809   7.174
54312SOL    HW162962  11.155   6.770   7.161
54312SOL    HW262963  11.072   6.905   7.198
54313SOL     OW62964  10.374   6.933   6.926
54313SOL    HW162965  10.294   6.910   6.981
54313SOL    HW262966  10.457   6.907   6.975
54314SOL     OW62967  10.902   7.215   7.211
54314SOL    HW162968  10.929   7.249   7.121
54314SOL    HW262969  10.981   7.177   7.257
54315SOL     OW62970  10.421   6.781   6.686
54315SOL    HW162971  10.381   6.825   6.767
54315SOL    HW262972  10.380   6.818   6.603
54316SOL     OW62973  10.948   6.685   6.665
54316SOL    HW162974  10.953   6.766   6.724
54316SOL    HW262975  10.862   6.687   6.614
54317SOL     OW62976  10.225   5.675   6.988
54317SOL    HW162977  10.250   5.655   6.893
54317SOL    HW262978  10.297   5.731   7.030
54318SOL     OW62979  10.290   6.702   7.305
54318SOL    HW162980  10.191   6.708   7.315
54318SOL    HW262981  10.313   6.622   7.249
54319SOL     OW62982  10.015   6.636   5.954
54319SOL    HW162983  10.001   6.643   6.053
54319SOL    HW262984  10.099   6.585   5.936
54320SOL     OW62985   9.720   6.399   6.837
54320SOL    HW162986   9.806   6.411   6.887
54320SOL    HW262987   9.678   6.312   6.864
54321SOL     OW62988  10.584   5.972   6.848
54321SOL    HW162989  10.605   6.046   6.912
54321SOL    HW262990  10.495   5.989   6.805
54322SOL     OW62991   9.374   7.150   6.917
54322SOL    HW162992   9.328   7.232   6.883
54322SOL    HW262993   9.472   7.169   6.926
54323SOL     OW62994   9.677   6.686   6.087
54323SOL    HW162995   9.670   6.769   6.031
54323SOL    HW262996   9.681   6.606   6.027
54324SOL     OW62997   9.876   6.123   6.451
54324SOL    HW162998   9.888   6.189   6.377
54324SOL    HW262999   9.922   6.157   6.534
54325SOL     OW63000  10.562   6.934   5.974
54325SOL    HW163001  10.612   7.011   6.014
54325SOL    HW263002  10.467   6.936   6.006
54326SOL     OW63003  10.582   7.031   6.728
54326SOL    HW163004  10.629   7.044   6.815
54326SOL    HW263005  10.516   6.957   6.737
54327SOL     OW63006  10.892   6.225   6.058
54327SOL    HW163007  10.861   6.286   6.131
54327SOL    HW263008  10.942   6.277   5.989
54328SOL     OW63009   9.664   7.096   6.915
54328SOL    HW163010   9.643   7.052   6.828
54328SOL    HW263011   9.761   7.122   6.918
54329SOL     OW63012   9.712   6.337   7.184
54329SOL    HW163013   9.780   6.392   7.137
54329SOL    HW263014   9.752   6.249   7.211
54330SOL     OW63015  10.897   6.365   7.256
54330SOL    HW163016  10.805   6.403   7.251
54330SOL    HW263017  10.957   6.412   7.191
54331SOL     OW63018  10.323   5.691   7.356
54331SOL    HW163019  10.329   5.776   7.304
54331SOL    HW263020  10.355   5.615   7.299
54332SOL     OW63021   9.814   5.636   7.326
54332SOL    HW163022   9.772   5.579   7.256
54332SOL    HW263023   9.748   5.705   7.358
54333SOL     OW63024   9.883   6.456   6.615
54333SOL    HW163025   9.927   6.545   6.606
54333SOL    HW263026   9.820   6.456   6.692
54334SOL     OW63027  10.670   6.448   6.631
54334SOL    HW163028  10.595   6.448   6.565
54334SOL    HW263029  10.707   6.356   6.640
54335SOL     OW63030  10.519   6.111   5.861
54335SOL    HW163031  10.532   6.027   5.915
54335SOL    HW263032  10.490   6.185   5.921
54336SOL     OW63033   9.617   5.799   6.817
54336SOL    HW163034   9.594   5.836   6.907
54336SOL    HW263035   9.587   5.704   6.811
54337SOL     OW63036   9.347   6.896   6.868
54337SOL    HW163037   9.400   6.847   6.936
54337SOL    HW263038   9.369   6.994   6.873
54338SOL     OW63039  10.042   6.220   6.650
54338SOL    HW163040  10.101   6.194   6.574
54338SOL    HW263041  10.014   6.316   6.639
54339SOL     OW63042  11.038   6.521   7.440
54339SOL    HW163043  10.992   6.514   7.351
54339SOL    HW263044  10.976   6.565   7.506
54340SOL     OW63045   9.617   5.649   6.204
54340SOL    HW163046   9.606   5.743   6.237
54340SOL    HW263047   9.612   5.586   6.281
54341SOL     OW63048  10.932   5.953   5.960
54341SOL    HW163049  10.934   5.877   6.024
54341SOL    HW263050  10.884   6.030   6.000
54342SOL     OW63051  10.333   6.352   6.552
54342SOL    HW163052  10.348   6.373   6.648
54342SOL    HW263053  10.303   6.257   6.543
54343SOL     OW63054  10.290   7.159   7.286
54343SOL    HW163055  10.270   7.203   7.198
54343SOL    HW263056  10.329   7.068   7.270
54344SOL     OW63057  11.169   7.104   7.191
54344SOL    HW163058  11.183   7.131   7.096
54344SOL    HW263059  11.252   7.126   7.244
54345SOL     OW63060   9.660   6.484   7.390
54345SOL    HW163061   9.736   6.528   7.438
54345SOL    HW263062   9.695   6.437   7.308
54346SOL     OW63063  10.850   5.860   5.711
54346SOL    HW163064  10.789   5.785   5.734
54346SOL    HW263065  10.872   5.912   5.794
54347SOL     OW63066  10.613   6.424   5.628
54347SOL    HW163067  10.647   6.331   5.643
54347SOL    HW263068  10.631   6.451   5.533
54348SOL     OW63069  10.378   6.919   6.435
54348SOL    HW163070  10.385   6.835   6.380
54348SOL    HW263071  10.440   6.988   6.399
54349SOL     OW63072   9.629   6.396   6.535
54349SOL    HW163073   9.722   6.432   6.540
54349SOL    HW263074   9.623   6.311   6.587
54350SOL     OW63075   9.649   6.095   6.592
54350SOL    HW163076   9.597   6.012   6.575
54350SOL    HW263077   9.726   6.100   6.528
54351SOL     OW63078  10.448   5.966   7.264
54351SOL    HW163079  10.403   6.029   7.328
54351SOL    HW263080  10.541   5.997   7.247
54352SOL     OW63081  10.470   5.793   7.063
54352SOL    HW163082  10.470   5.857   7.140
54352SOL    HW263083  10.498   5.841   6.980
54353SOL     OW63084   9.318   6.912   5.786
54353SOL    HW163085   9.225   6.933   5.755
54353SOL    HW263086   9.328   6.813   5.799
54354SOL     OW63087   9.398   7.387   6.513
54354SOL    HW163088   9.356   7.301   6.486
54354SOL    HW263089   9.492   7.390   6.479
54355SOL     OW63090   9.814   7.154   6.496
54355SOL    HW163091   9.880   7.228   6.505
54355SOL    HW263092   9.858   7.075   6.454
54356SOL     OW63093  10.312   6.382   6.824
54356SOL    HW163094  10.353   6.350   6.910
54356SOL    HW263095  10.216   6.355   6.821
54357SOL     OW63096   9.350   6.130   6.700
54357SOL    HW163097   9.435   6.097   6.659
54357SOL    HW263098   9.363   6.145   6.798
54358SOL     OW63099   9.499   6.106   7.308
54358SOL    HW163100   9.558   6.066   7.238
54358SOL    HW263101   9.441   6.177   7.267
54359SOL     OW63102  10.679   6.536   7.246
54359SOL    HW163103  10.718   6.625   7.266
54359SOL    HW263104  10.689   6.516   7.149
54360SOL     OW63105  10.125   6.158   5.911
54360SOL    HW163106  10.132   6.069   5.865
54360SOL    HW263107  10.031   6.192   5.903
54361SOL     OW63108  10.967   6.190   6.792
54361SOL    HW163109  10.929   6.121   6.854
54361SOL    HW263110  11.049   6.154   6.748
54362SOL     OW63111   9.562   7.150   7.330
54362SOL    HW163112   9.532   7.207   7.406
54362SOL    HW263113   9.555   7.053   7.356
54363SOL     OW63114   9.981   6.050   6.855
54363SOL    HW163115   9.947   5.961   6.825
54363SOL    HW263116  10.007   6.104   6.775
54364SOL     OW63117  10.240   7.264   7.051
54364SOL    HW163118  10.216   7.246   6.956
54364SOL    HW263119  10.270   7.358   7.061
54365SOL     OW63120   9.783   6.086   5.777
54365SOL    HW163121   9.844   6.166   5.781
54365SOL    HW263122   9.688   6.117   5.784
54366SOL     OW63123   9.469   6.723   7.052
54366SOL    HW163124   9.491   6.662   7.128
54366SOL    HW263125   9.479   6.674   6.966
54367SOL     OW63126  10.657   6.645   6.820
54367SOL    HW163127  10.681   6.582   6.746
54367SOL    HW263128  10.567   6.685   6.802
54368SOL     OW63129  10.612   6.441   5.895
54368SOL    HW163130  10.526   6.410   5.937
54368SOL    HW263131  10.608   6.427   5.796
54369SOL     OW63132  11.069   7.333   6.740
54369SOL    HW163133  11.130   7.363   6.667
54369SOL    HW263134  11.031   7.244   6.718
54370SOL     OW63135  10.562   7.317   6.714
54370SOL    HW163136  10.646   7.322   6.660
54370SOL    HW263137  10.539   7.221   6.732
54371SOL     OW63138   9.393   6.844   6.608
54371SOL    HW163139   9.388   6.843   6.708
54371SOL    HW263140   9.310   6.803   6.570
54372SOL     OW63141   9.998   7.248   7.302
54372SOL    HW163142   9.942   7.329   7.311
54372SOL    HW263143  10.050   7.252   7.216
54373SOL     OW63144  11.036   5.721   6.109
54373SOL    HW163145  11.109   5.704   6.042
54373SOL    HW263146  11.005   5.634   6.147
54374SOL     OW63147  10.698   7.159   6.063
54374SOL    HW163148  10.765   7.171   5.989
54374SOL    HW263149  10.658   7.248   6.086
54375SOL     OW63150   9.440   7.380   7.437
54375SOL    HW163151   9.399   7.306   7.490
54375SOL    HW263152   9.504   7.431   7.495
54376SOL     OW63153  10.590   6.513   6.258
54376SOL    HW163154  10.650   6.432   6.260
54376SOL    HW263155  10.630   6.582   6.198
54377SOL     OW63156  10.140   6.859   7.008
54377SOL    HW163157  10.135   6.892   7.103
54377SOL    HW263158  10.054   6.878   6.962
54378SOL     OW63159   9.982   7.202   5.740
54378SOL    HW163160   9.991   7.212   5.641
54378SOL    HW263161   9.942   7.113   5.761
54379SOL     OW63162  10.960   7.306   6.980
54379SOL    HW163163  11.013   7.316   6.896
54379SOL    HW263164  10.933   7.396   7.014
54380SOL     OW63165  11.151   5.761   6.549
54380SOL    HW163166  11.190   5.676   6.513
54380SOL    HW263167  11.053   5.763   6.530
54381SOL     OW63168   9.573   5.912   6.306
54381SOL    HW163169   9.494   5.963   6.272
54381SOL    HW263170   9.564   5.897   6.404
54382SOL     OW63171  10.504   7.198   5.617
54382SOL    HW163172  10.510   7.105   5.654
54382SOL    HW263173  10.445   7.198   5.537
54383SOL     OW63174  10.132   6.588   6.958
54383SOL    HW163175  10.172   6.587   6.866
54383SOL    HW263176  10.142   6.680   6.998
54384SOL     OW63177  10.226   6.496   5.877
54384SOL    HW163178  10.289   6.534   5.809
54384SOL    HW263179  10.266   6.413   5.916
54385SOL     OW63180  10.814   7.193   5.630
54385SOL    HW163181  10.722   7.230   5.637
54385SOL    HW263182  10.852   7.213   5.540
54386SOL     OW63183   9.682   6.874   7.076
54386SOL    HW163184   9.669   6.967   7.042
54386SOL    HW263185   9.598   6.822   7.063
54387SOL     OW63186  10.924   6.878   6.875
54387SOL    HW163187  10.984   6.881   6.955
54387SOL    HW263188  10.849   6.942   6.888
54388SOL     OW63189  10.349   6.684   6.282
54388SOL    HW163190  10.279   6.637   6.336
54388SOL    HW263191  10.408   6.616   6.239
54389SOL     OW63192  10.324   5.822   6.557
54389SOL    HW163193  10.316   5.786   6.464
54389SOL    HW263194  10.322   5.746   6.622
54390SOL     OW63195   9.900   7.073   6.077
54390SOL    HW163196   9.942   7.015   6.007
54390SOL    HW263197   9.856   7.152   6.033
54391SOL     OW63198  11.019   5.971   6.967
54391SOL    HW163199  11.092   6.040   6.971
54391SOL    HW263200  11.047   5.896   6.908
54392SOL     OW63201   9.565   6.934   5.876
54392SOL    HW163202   9.469   6.935   5.849
54392SOL    HW263203   9.577   6.987   5.960
54393SOL     OW63204   9.415   6.599   7.312
54393SOL    HW163205   9.338   6.566   7.366
54393SOL    HW263206   9.500   6.569   7.354
54394SOL     OW63207   9.982   5.789   7.075
54394SOL    HW163208  10.072   5.773   7.035
54394SOL    HW263209   9.990   5.794   7.174
54395SOL     OW63210   9.385   5.931   5.619
54395SOL    HW163211   9.293   5.903   5.590
54395SOL    HW263212   9.416   6.008   5.563
54396SOL     OW63213  10.750   6.442   6.984
54396SOL    HW163214  10.693   6.494   6.921
54396SOL    HW263215  10.846   6.454   6.960
54397SOL     OW63216   9.382   5.752   5.904
54397SOL    HW163217   9.365   5.835   5.850
54397SOL    HW263218   9.472   5.715   5.882
54398SOL     OW63219  10.493   6.921   5.705
54398SOL    HW163220  10.394   6.910   5.707
54398SOL    HW263221  10.527   6.936   5.798
54399SOL     OW63222   9.923   6.428   7.017
54399SOL    HW163223   9.979   6.509   7.000
54399SOL    HW263224   9.982   6.348   7.020
54400SOL     OW63225  10.803   7.353   6.545
54400SOL    HW163226  10.836   7.417   6.476
54400SOL    HW263227  10.869   7.347   6.620
54401SOL     OW63228  10.026   6.151   7.294
54401SOL    HW163229  10.045   6.216   7.368
54401SOL    HW263230  10.086   6.071   7.303
54402SOL     OW63231  10.760   6.806   7.219
54402SOL    HW163232  10.751   6.796   7.318
54402SOL    HW263233  10.856   6.799   7.193
54403SOL     OW63234   9.700   7.327   7.146
54403SOL    HW163235   9.609   7.368   7.144
54403SOL    HW263236   9.693   7.233   7.178
54404SOL     OW63237  10.984   6.469   6.840
54404SOL    HW163238  10.957   6.380   6.803
54404SOL    HW263239  10.985   6.537   6.767
54405SOL     OW63240  10.535   5.911   6.035
54405SOL    HW163241  10.600   5.837   6.024
54405SOL    HW263242  10.555   5.961   6.119
54406SOL     OW63243   9.904   6.331   6.238
54406SOL    HW163244   9.954   6.416   6.219
54406SOL    HW263245   9.816   6.333   6.190
54407SOL     OW63246  11.087   5.928   7.228
54407SOL    HW163247  11.070   5.959   7.134
54407SOL    HW263248  11.003   5.891   7.266
54408SOL     OW63249  11.040   6.520   7.103
54408SOL    HW163250  11.078   6.611   7.118
54408SOL    HW263251  11.032   6.503   7.004
54409SOL     OW63252  10.169   6.960   5.602
54409SOL    HW163253  10.123   6.975   5.690
54409SOL    HW263254  10.213   7.045   5.572
54410SOL     OW63255   9.971   7.376   6.539
54410SOL    HW163256   9.925   7.464   6.526
54410SOL    HW263257  10.070   7.388   6.532
54411SOL     OW63258  10.169   6.542   6.447
54411SOL    HW163259  10.223   6.473   6.495
54411SOL    HW263260  10.137   6.611   6.513
54412SOL     OW63261  10.393   6.570   5.673
54412SOL    HW163262  10.370   6.623   5.591
54412SOL    HW263263  10.474   6.514   5.654
54413SOL     OW63264  11.171   7.155   6.437
54413SOL    HW163265  11.100   7.143   6.367
54413SOL    HW263266  11.172   7.076   6.497
54414SOL     OW63267   9.531   6.900   7.430
54414SOL    HW163268   9.466   6.827   7.409
54414SOL    HW263269   9.535   6.914   7.528
54415SOL     OW63270   9.389   6.826   6.239
54415SOL    HW163271   9.388   6.779   6.327
54415SOL    HW263272   9.471   6.798   6.188
54416SOL     OW63273   9.982   6.977   7.210
54416SOL    HW163274   9.904   6.927   7.248
54416SOL    HW263275   9.979   7.072   7.241
54417SOL     OW63276  11.134   5.778   6.813
54417SOL    HW163277  11.130   5.688   6.857
54417SOL    HW263278  11.137   5.767   6.714
54418SOL     OW63279   9.738   6.010   6.106
54418SOL    HW163280   9.768   5.938   6.044
54418SOL    HW263281   9.699   5.970   6.189
54419SOL     OW63282  11.015   7.073   6.690
54419SOL    HW163283  10.922   7.048   6.663
54419SOL    HW263284  11.041   7.023   6.772
54420SOL     OW63285   9.627   6.133   6.866
54420SOL    HW163286   9.665   6.074   6.938
54420SOL    HW263287   9.667   6.107   6.778
54421SOL     OW63288  10.122   7.172   6.273
54421SOL    HW163289  10.154   7.182   6.179
54421SOL    HW263290  10.043   7.110   6.275
54422SOL     OW63291  10.734   5.800   6.698
54422SOL    HW163292  10.786   5.735   6.753
54422SOL    HW263293  10.685   5.863   6.759
54423SOL     OW63294  10.311   5.620   6.740
54423SOL    HW163295  10.248   5.548   6.709
54423SOL    HW263296  10.404   5.584   6.740
54424SOL     OW63297  10.080   6.916   5.887
54424SOL    HW163298  10.034   6.829   5.904
54424SOL    HW263299  10.171   6.913   5.928
54425SOL     OW63300   9.928   7.153   6.870
54425SOL    HW163301   9.923   7.235   6.927
54425SOL    HW263302  10.017   7.150   6.825
54426SOL     OW63303  10.662   5.638   5.754
54426SOL    HW163304  10.697   5.597   5.670
54426SOL    HW263305  10.572   5.600   5.774
54427SOL     OW63306  10.610   6.039   6.277
54427SOL    HW163307  10.551   6.119   6.281
54427SOL    HW263308  10.625   6.004   6.370
54428SOL     OW63309  10.903   5.807   6.468
54428SOL    HW163310  10.819   5.806   6.522
54428SOL    HW263311  10.905   5.890   6.412
54429SOL     OW63312   9.349   6.663   5.886
54429SOL    HW163313   9.448   6.652   5.877
54429SOL    HW263314   9.309   6.577   5.918
54430SOL     OW63315  10.185   7.232   5.923
54430SOL    HW163316  10.108   7.197   5.869
54430SOL    HW263317  10.153   7.303   5.985
54431SOL     OW63318   9.540   6.214   7.561
54431SOL    HW163319   9.447   6.212   7.598
54431SOL    HW263320   9.541   6.175   7.469
54432SOL     OW63321   9.535   5.861   8.444
54432SOL    HW163322   9.570   5.844   8.536
54432SOL    HW263323   9.447   5.816   8.432
54433SOL     OW63324   9.329   5.954   8.095
54433SOL    HW163325   9.247   5.997   8.134
54433SOL    HW263326   9.301   5.881   8.032
54434SOL     OW63327   9.879   6.861   8.613
54434SOL    HW163328   9.786   6.854   8.576
54434SOL    HW263329   9.890   6.950   8.657
54435SOL     OW63330  10.865   7.097   8.151
54435SOL    HW163331  10.808   7.081   8.232
54435SOL    HW263332  10.806   7.107   8.071
54436SOL     OW63333  10.445   6.289   8.165
54436SOL    HW163334  10.502   6.367   8.140
54436SOL    HW263335  10.385   6.315   8.241
54437SOL     OW63336  11.065   6.193   7.679
54437SOL    HW163337  11.053   6.180   7.580
54437SOL    HW263338  11.035   6.112   7.728
54438SOL     OW63339  10.078   6.730   8.471
54438SOL    HW163340  10.000   6.747   8.531
54438SOL    HW263341  10.112   6.817   8.435
54439SOL     OW63342  10.160   6.384   9.271
54439SOL    HW163343  10.156   6.460   9.336
54439SOL    HW263344  10.182   6.420   9.180
54440SOL     OW63345   9.995   6.598   8.113
54440SOL    HW163346  10.064   6.582   8.183
54440SOL    HW263347   9.922   6.655   8.151
54441SOL     OW63348   9.996   6.747   9.251
54441SOL    HW163349  10.056   6.826   9.265
54441SOL    HW263350   9.910   6.778   9.210
54442SOL     OW63351   9.645   7.021   8.509
54442SOL    HW163352   9.567   6.990   8.456
54442SOL    HW263353   9.703   7.079   8.452
54443SOL     OW63354  10.770   7.091   8.787
54443SOL    HW163355  10.794   7.185   8.813
54443SOL    HW263356  10.754   7.037   8.869
54444SOL     OW63357   9.748   5.978   8.947
54444SOL    HW163358   9.830   5.922   8.956
54444SOL    HW263359   9.667   5.920   8.951
54445SOL     OW63360  10.913   6.033   8.185
54445SOL    HW163361  10.839   6.079   8.135
54445SOL    HW263362  10.964   6.101   8.238
54446SOL     OW63363   9.541   7.299   7.931
54446SOL    HW163364   9.575   7.376   7.985
54446SOL    HW263365   9.585   7.299   7.841
54447SOL     OW63366  10.437   6.927   9.138
54447SOL    HW163367  10.484   6.927   9.226
54447SOL    HW263368  10.389   6.840   9.127
54448SOL     OW63369   9.540   7.020   7.986
54448SOL    HW163370   9.514   7.116   7.986
54448SOL    HW263371   9.469   6.966   8.031
54449SOL     OW63372   9.550   6.677   8.334
54449SOL    HW163373   9.564   6.593   8.386
54449SOL    HW263374   9.495   6.741   8.389
54450SOL     OW63375   9.930   7.372   8.887
54450SOL    HW163376   9.838   7.355   8.922
54450SOL    HW263377   9.958   7.464   8.913
54451SOL     OW63378   9.916   6.550   7.571
54451SOL    HW163379   9.923   6.634   7.517
54451SOL    HW263380   9.962   6.563   7.659
54452SOL     OW63381  10.904   5.700   8.928
54452SOL    HW163382  10.886   5.767   8.856
54452SOL    HW263383  10.901   5.746   9.017
54453SOL     OW63384   9.432   6.229   8.011
54453SOL    HW163385   9.387   6.141   8.028
54453SOL    HW263386   9.431   6.283   8.095
54454SOL     OW63387  11.152   7.353   7.807
54454SOL    HW163388  11.206   7.324   7.887
54454SOL    HW263389  11.182   7.443   7.778
54455SOL     OW63390   9.337   7.182   7.565
54455SOL    HW163391   9.318   7.086   7.586
54455SOL    HW263392   9.304   7.240   7.640
54456SOL     OW63393  10.999   6.508   8.060
54456SOL    HW163394  11.094   6.479   8.068
54456SOL    HW263395  10.991   6.573   7.985
54457SOL     OW63396  10.951   6.694   7.880
54457SOL    HW163397  11.037   6.696   7.828
54457SOL    HW263398  10.965   6.741   7.968
54458SOL     OW63399   9.423   6.323   9.045
54458SOL    HW163400   9.511   6.310   9.090
54458SOL    HW263401   9.410   6.420   9.023
54459SOL     OW63402   9.923   6.951   8.174
54459SOL    HW163403   9.874   6.864   8.183
54459SOL    HW263404   9.900   6.994   8.087
54460SOL     OW63405  10.603   6.814   8.871
54460SOL    HW163406  10.640   6.741   8.813
54460SOL    HW263407  10.655   6.819   8.956
54461SOL     OW63408  10.119   5.590   7.950
54461SOL    HW163409  10.159   5.681   7.941
54461SOL    HW263410  10.019   5.598   7.956
54462SOL     OW63411   9.507   6.562   8.712
54462SOL    HW163412   9.596   6.517   8.698
54462SOL    HW263413   9.434   6.497   8.693
54463SOL     OW63414  10.835   6.585   7.638
54463SOL    HW163415  10.772   6.509   7.651
54463SOL    HW263416  10.883   6.603   7.724
54464SOL     OW63417  10.497   7.378   9.064
54464SOL    HW163418  10.521   7.438   8.988
54464SOL    HW263419  10.504   7.283   9.034
54465SOL     OW63420   9.627   5.837   9.249
54465SOL    HW163421   9.698   5.908   9.255
54465SOL    HW263422   9.539   5.876   9.277
54466SOL     OW63423  10.776   7.003   8.401
54466SOL    HW163424  10.717   7.009   8.481
54466SOL    HW263425  10.761   6.915   8.355
54467SOL     OW63426  10.977   7.300   8.020
54467SOL    HW163427  10.936   7.277   7.932
54467SOL    HW263428  10.959   7.226   8.085
54468SOL     OW63429   9.908   6.315   7.718
54468SOL    HW163430   9.932   6.384   7.650
54468SOL    HW263431   9.830   6.348   7.772
54469SOL     OW63432  10.591   5.931   8.392
54469SOL    HW163433  10.505   5.881   8.379
54469SOL    HW263434  10.653   5.877   8.448
54470SOL     OW63435  10.886   7.248   7.755
54470SOL    HW163436  10.975   7.294   7.758
54470SOL    HW263437  10.865   7.224   7.660
54471SOL     OW63438  10.117   6.191   8.913
54471SOL    HW163439  10.070   6.188   9.002
54471SOL    HW263440  10.066   6.136   8.847
54472SOL     OW63441  10.704   6.055   9.122
54472SOL    HW163442  10.684   6.098   9.210
54472SOL    HW263443  10.782   5.993   9.131
54473SOL     OW63444  10.283   6.476   9.020
54473SOL    HW163445  10.329   6.392   8.991
54473SOL    HW263446  10.227   6.510   8.945
54474SOL     OW63447  10.301   5.996   8.690
54474SOL    HW163448  10.224   6.030   8.744
54474SOL    HW263449  10.267   5.945   8.611
54475SOL     OW63450  10.351   6.287   7.877
54475SOL    HW163451  10.377   6.283   7.973
54475SOL    HW263452  10.266   6.236   7.863
54476SOL     OW63453   9.386   6.397   8.237
54476SOL    HW163454   9.485   6.385   8.246
54476SOL    HW263455   9.362   6.492   8.258
54477SOL     OW63456   9.440   7.407   9.019
54477SOL    HW163457   9.430   7.392   9.118
54477SOL    HW263458   9.354   7.443   8.983
54478SOL     OW63459  10.175   5.934   7.643
54478SOL    HW163460  10.234   5.997   7.594
54478SOL    HW263461  10.194   5.840   7.614
54479SOL     OW63462  11.029   6.171   9.279
54479SOL    HW163463  11.003   6.260   9.243
54479SOL    HW263464  11.027   6.103   9.206
54480SOL     OW63465  10.672   6.730   7.993
54480SOL    HW163466  10.755   6.701   7.945
54480SOL    HW263467  10.623   6.797   7.937
54481SOL     OW63468   9.860   5.782   8.333
54481SOL    HW163469   9.855   5.777   8.433
54481SOL    HW263470   9.862   5.878   8.304
54482SOL     OW63471  10.318   7.042   7.925
54482SOL    HW163472  10.272   7.114   7.873
54482SOL    HW263473  10.314   7.062   8.023
54483SOL     OW63474   9.661   7.387   8.301
54483SOL    HW163475   9.711   7.301   8.307
54483SOL    HW263476   9.726   7.464   8.298
54484SOL     OW63477  11.105   6.652   8.321
54484SOL    HW163478  11.043   6.637   8.245
54484SOL    HW263479  11.053   6.663   8.406
54485SOL     OW63480  10.537   7.136   8.954
54485SOL    HW163481  10.543   7.059   9.018
54485SOL    HW263482  10.485   7.110   8.874
54486SOL     OW63483   9.631   6.529   7.690
54486SOL    HW163484   9.713   6.568   7.648
54486SOL    HW263485   9.604   6.447   7.641
54487SOL     OW63486  10.768   6.321   8.176
54487SOL    HW163487  10.763   6.256   8.251
54487SOL    HW263488  10.848   6.380   8.189
54488SOL     OW63489   9.771   6.852   9.175
54488SOL    HW163490   9.721   6.853   9.089
54488SOL    HW263491   9.708   6.834   9.251
54489SOL     OW63492  10.421   7.362   7.685
54489SOL    HW163493  10.361   7.300   7.735
54489SOL    HW263494  10.452   7.318   7.600
54490SOL     OW63495   9.512   5.871   8.946
54490SOL    HW163496   9.432   5.931   8.933
54490SOL    HW263497   9.502   5.822   9.032
54491SOL     OW63498  10.942   6.963   7.529
54491SOL    HW163499  10.910   7.057   7.519
54491SOL    HW263500  10.866   6.900   7.517
54492SOL     OW63501   9.774   7.329   7.771
54492SOL    HW163502   9.807   7.368   7.857
54492SOL    HW263503   9.850   7.322   7.706
54493SOL     OW63504  10.710   5.693   7.874
54493SOL    HW163505  10.686   5.656   7.784
54493SOL    HW263506  10.809   5.709   7.878
54494SOL     OW63507   9.559   7.371   8.689
54494SOL    HW163508   9.616   7.306   8.739
54494SOL    HW263509   9.543   7.338   8.596
54495SOL     OW63510  10.250   7.284   8.352
54495SOL    HW163511  10.330   7.227   8.373
54495SOL    HW263512  10.201   7.244   8.275
54496SOL     OW63513   9.692   6.286   7.928
54496SOL    HW163514   9.737   6.196   7.925
54496SOL    HW263515   9.598   6.275   7.961
54497SOL     OW63516  10.857   5.808   9.177
54497SOL    HW163517  10.852   5.845   9.269
54497SOL    HW263518  10.785   5.739   9.165
54498SOL     OW63519   9.924   5.708   7.565
54498SOL    HW163520  10.022   5.686   7.572
54498SOL    HW263521   9.893   5.691   7.472
54499SOL     OW63522  10.091   5.850   9.197
54499SOL    HW163523  10.158   5.789   9.240
54499SOL    HW263524  10.018   5.869   9.262
54500SOL     OW63525  10.198   7.100   8.643
54500SOL    HW163526  10.175   7.075   8.549
54500SOL    HW263527  10.259   7.031   8.682
54501SOL     OW63528  10.661   6.176   8.881
54501SOL    HW163529  10.689   6.133   8.966
54501SOL    HW263530  10.686   6.272   8.882
54502SOL     OW63531  10.113   6.988   8.372
54502SOL    HW163532  10.203   7.002   8.330
54502SOL    HW263533  10.042   6.990   8.301
54503SOL     OW63534  10.232   6.089   8.347
54503SOL    HW163535  10.207   6.080   8.251
54503SOL    HW263536  10.280   6.007   8.378
54504SOL     OW63537   9.849   5.650   7.960
54504SOL    HW163538   9.768   5.651   8.018
54504SOL    HW263539   9.852   5.733   7.905
54505SOL     OW63540  10.744   6.774   7.489
54505SOL    HW163541  10.776   6.698   7.546
54505SOL    HW263542  10.652   6.801   7.519
54506SOL     OW63543   9.607   5.621   7.619
54506SOL    HW163544   9.656   5.705   7.598
54506SOL    HW263545   9.669   5.556   7.664
54507SOL     OW63546  10.245   5.822   7.928
54507SOL    HW163547  10.197   5.863   7.850
54507SOL    HW263548  10.344   5.820   7.909
54508SOL     OW63549  10.386   6.269   8.912
54508SOL    HW163550  10.306   6.208   8.915
54508SOL    HW263551  10.467   6.216   8.888
54509SOL     OW63552  10.537   7.156   8.241
54509SOL    HW163553  10.558   7.230   8.176
54509SOL    HW263554  10.605   7.156   8.314
54510SOL     OW63555   9.769   6.738   8.189
54510SOL    HW163556   9.698   6.711   8.254
54510SOL    HW263557   9.743   6.710   8.096
54511SOL     OW63558  10.581   7.383   8.039
54511SOL    HW163559  10.625   7.447   7.975
54511SOL    HW263560  10.531   7.435   8.109
54512SOL     OW63561  10.342   6.135   7.464
54512SOL    HW163562  10.301   6.217   7.425
54512SOL    HW263563  10.406   6.161   7.537
54513SOL     OW63564   9.388   6.142   8.834
54513SOL    HW163565   9.480   6.141   8.793
54513SOL    HW263566   9.382   6.216   8.901
54514SOL     OW63567   9.871   5.808   8.595
54514SOL    HW163568   9.909   5.724   8.632
54514SOL    HW263569   9.783   5.827   8.639
54515SOL     OW63570  10.176   6.040   8.090
54515SOL    HW163571  10.144   6.112   8.028
54515SOL    HW263572  10.200   5.959   8.037
54516SOL     OW63573  10.327   5.625   8.201
54516SOL    HW163574  10.255   5.630   8.132
54516SOL    HW263575  10.303   5.556   8.270
54517SOL     OW63576  10.739   6.759   8.315
54517SOL    HW163577  10.684   6.675   8.308
54517SOL    HW263578  10.765   6.788   8.223
54518SOL     OW63579  10.776   6.176   8.440
54518SOL    HW163580  10.746   6.081   8.447
54518SOL    HW263581  10.849   6.192   8.506
54519SOL     OW63582  11.167   6.419   7.825
54519SOL    HW163583  11.209   6.355   7.889
54519SOL    HW263584  11.129   6.368   7.747
54520SOL     OW63585   9.798   6.971   7.622
54520SOL    HW163586   9.711   6.956   7.669
54520SOL    HW263587   9.781   6.997   7.527
54521SOL     OW63588  10.974   6.866   8.105
54521SOL    HW163589  11.073   6.874   8.119
54521SOL    HW263590  10.929   6.950   8.136
54522SOL     OW63591  10.700   6.161   7.526
54522SOL    HW163592  10.646   6.140   7.607
54522SOL    HW263593  10.791   6.120   7.535
54523SOL     OW63594   9.837   5.842   7.776
54523SOL    HW163595   9.864   5.783   7.701
54523SOL    HW263596   9.837   5.937   7.745
54524SOL     OW63597  11.064   6.809   9.036
54524SOL    HW163598  11.155   6.770   9.023
54524SOL    HW263599  11.072   6.905   9.060
54525SOL     OW63600  10.374   6.933   8.788
54525SOL    HW163601  10.294   6.910   8.843
54525SOL    HW263602  10.457   6.907   8.837
54526SOL     OW63603  10.902   7.215   9.073
54526SOL    HW163604  10.929   7.249   8.983
54526SOL    HW263605  10.981   7.177   9.119
54527SOL     OW63606  10.421   6.781   8.548
54527SOL    HW163607  10.381   6.825   8.629
54527SOL    HW263608  10.380   6.818   8.465
54528SOL     OW63609  10.948   6.685   8.527
54528SOL    HW163610  10.953   6.766   8.586
54528SOL    HW263611  10.862   6.687   8.476
54529SOL     OW63612  10.225   5.675   8.850
54529SOL    HW163613  10.250   5.655   8.755
54529SOL    HW263614  10.297   5.731   8.892
54530SOL     OW63615  10.290   6.702   9.167
54530SOL    HW163616  10.191   6.708   9.177
54530SOL    HW263617  10.313   6.622   9.111
54531SOL     OW63618  10.015   6.636   7.816
54531SOL    HW163619  10.001   6.643   7.915
54531SOL    HW263620  10.099   6.585   7.798
54532SOL     OW63621   9.720   6.399   8.699
54532SOL    HW163622   9.806   6.411   8.749
54532SOL    HW263623   9.678   6.312   8.726
54533SOL     OW63624  10.584   5.972   8.710
54533SOL    HW163625  10.605   6.046   8.774
54533SOL    HW263626  10.495   5.989   8.667
54534SOL     OW63627   9.374   7.150   8.779
54534SOL    HW163628   9.328   7.232   8.745
54534SOL    HW263629   9.472   7.169   8.788
54535SOL     OW63630   9.677   6.686   7.949
54535SOL    HW163631   9.670   6.769   7.893
54535SOL    HW263632   9.681   6.606   7.889
54536SOL     OW63633   9.876   6.123   8.313
54536SOL    HW163634   9.888   6.189   8.239
54536SOL    HW263635   9.922   6.157   8.396
54537SOL     OW63636  10.562   6.934   7.836
54537SOL    HW163637  10.612   7.011   7.876
54537SOL    HW263638  10.467   6.936   7.868
54538SOL     OW63639  10.582   7.031   8.590
54538SOL    HW163640  10.629   7.044   8.677
54538SOL    HW263641  10.516   6.957   8.599
54539SOL     OW63642  10.892   6.225   7.920
54539SOL    HW163643  10.861   6.286   7.993
54539SOL    HW263644  10.942   6.277   7.851
54540SOL     OW63645   9.664   7.096   8.777
54540SOL    HW163646   9.643   7.052   8.690
54540SOL    HW263647   9.761   7.122   8.780
54541SOL     OW63648   9.712   6.337   9.046
54541SOL    HW163649   9.780   6.392   8.999
54541SOL    HW263650   9.752   6.249   9.073
54542SOL     OW63651  10.897   6.365   9.118
54542SOL    HW163652  10.805   6.403   9.113
54542SOL    HW263653  10.957   6.412   9.053
54543SOL     OW63654  10.323   5.691   9.218
54543SOL    HW163655  10.329   5.776   9.166
54543SOL    HW263656  10.355   5.615   9.161
54544SOL     OW63657   9.814   5.636   9.188
54544SOL    HW163658   9.772   5.579   9.118
54544SOL    HW263659   9.748   5.705   9.220
54545SOL     OW63660   9.883   6.456   8.477
54545SOL    HW163661   9.927   6.545   8.468
54545SOL    HW263662   9.820   6.456   8.554
54546SOL     OW63663  10.670   6.448   8.493
54546SOL    HW163664  10.595   6.448   8.427
54546SOL    HW263665  10.707   6.356   8.502
54547SOL     OW63666  10.519   6.111   7.723
54547SOL    HW163667  10.532   6.027   7.777
54547SOL    HW263668  10.490   6.185   7.783
54548SOL     OW63669   9.617   5.799   8.679
54548SOL    HW163670   9.594   5.836   8.769
54548SOL    HW263671   9.587   5.704   8.673
54549SOL     OW63672   9.347   6.896   8.730
54549SOL    HW163673   9.400   6.847   8.798
54549SOL    HW263674   9.369   6.994   8.735
54550SOL     OW63675  10.042   6.220   8.512
54550SOL    HW163676  10.101   6.194   8.436
54550SOL    HW263677  10.014   6.316   8.501
54551SOL     OW63678  11.038   6.521   9.302
54551SOL    HW163679  10.992   6.514   9.213
54551SOL    HW263680  10.976   6.565   9.368
54552SOL     OW63681   9.617   5.649   8.066
54552SOL    HW163682   9.606   5.743   8.099
54552SOL    HW263683   9.612   5.586   8.143
54553SOL     OW63684  10.932   5.953   7.822
54553SOL    HW163685  10.934   5.877   7.886
54553SOL    HW263686  10.884   6.030   7.862
54554SOL     OW63687  10.333   6.352   8.414
54554SOL    HW163688  10.348   6.373   8.510
54554SOL    HW263689  10.303   6.257   8.405
54555SOL     OW63690  10.290   7.159   9.148
54555SOL    HW163691  10.270   7.203   9.060
54555SOL    HW263692  10.329   7.068   9.132
54556SOL     OW63693  11.169   7.104   9.053
54556SOL    HW163694  11.183   7.131   8.958
54556SOL    HW263695  11.252   7.126   9.106
54557SOL     OW63696   9.660   6.484   9.252
54557SOL    HW163697   9.736   6.528   9.300
54557SOL    HW263698   9.695   6.437   9.170
54558SOL     OW63699  10.850   5.860   7.573
54558SOL    HW163700  10.789   5.785   7.596
54558SOL    HW263701  10.872   5.912   7.656
54559SOL     OW63702  10.613   6.424   7.490
54559SOL    HW163703  10.647   6.331   7.505
54559SOL    HW263704  10.631   6.451   7.395
54560SOL     OW63705  10.378   6.919   8.297
54560SOL    HW163706  10.385   6.835   8.242
54560SOL    HW263707  10.440   6.988   8.261
54561SOL     OW63708   9.629   6.396   8.397
54561SOL    HW163709   9.722   6.432   8.402
54561SOL    HW263710   9.623   6.311   8.449
54562SOL     OW63711   9.649   6.095   8.454
54562SOL    HW163712   9.597   6.012   8.437
54562SOL    HW263713   9.726   6.100   8.390
54563SOL     OW63714  10.448   5.966   9.126
54563SOL    HW163715  10.403   6.029   9.190
54563SOL    HW263716  10.541   5.997   9.109
54564SOL     OW63717  10.470   5.793   8.925
54564SOL    HW163718  10.470   5.857   9.002
54564SOL    HW263719  10.498   5.841   8.842
54565SOL     OW63720   9.318   6.912   7.648
54565SOL    HW163721   9.225   6.933   7.617
54565SOL    HW263722   9.328   6.813   7.661
54566SOL     OW63723   9.398   7.387   8.375
54566SOL    HW163724   9.356   7.301   8.348
54566SOL    HW263725   9.492   7.390   8.341
54567SOL     OW63726   9.814   7.154   8.358
54567SOL    HW163727   9.880   7.228   8.367
54567SOL    HW263728   9.858   7.075   8.316
54568SOL     OW63729  10.312   6.382   8.686
54568SOL    HW163730  10.353   6.350   8.772
54568SOL    HW263731  10.216   6.355   8.683
54569SOL     OW63732   9.350   6.130   8.562
54569SOL    HW163733   9.435   6.097   8.521
54569SOL    HW263734   9.363   6.145   8.660
54570SOL     OW63735   9.499   6.106   9.170
54570SOL    HW163736   9.558   6.066   9.100
54570SOL    HW263737   9.441   6.177   9.129
54571SOL     OW63738  10.679   6.536   9.108
54571SOL    HW163739  10.718   6.625   9.128
54571SOL    HW263740  10.689   6.516   9.011
54572SOL     OW63741  10.125   6.158   7.773
54572SOL    HW163742  10.132   6.069   7.727
54572SOL    HW263743  10.031   6.192   7.765
54573SOL     OW63744  10.967   6.190   8.654
54573SOL    HW163745  10.929   6.121   8.716
54573SOL    HW263746  11.049   6.154   8.610
54574SOL     OW63747   9.562   7.150   9.192
54574SOL    HW163748   9.532   7.207   9.268
54574SOL    HW263749   9.555   7.053   9.218
54575SOL     OW63750   9.981   6.050   8.717
54575SOL    HW163751   9.947   5.961   8.687
54575SOL    HW263752  10.007   6.104   8.637
54576SOL     OW63753  10.240   7.264   8.913
54576SOL    HW163754  10.216   7.246   8.818
54576SOL    HW263755  10.270   7.358   8.923
54577SOL     OW63756   9.783   6.086   7.639
54577SOL    HW163757   9.844   6.166   7.643
54577SOL    HW263758   9.688   6.117   7.646
54578SOL     OW63759   9.469   6.723   8.914
54578SOL    HW163760   9.491   6.662   8.990
54578SOL    HW263761   9.479   6.674   8.828
54579SOL     OW63762  10.657   6.645   8.682
54579SOL    HW163763  10.681   6.582   8.608
54579SOL    HW263764  10.567   6.685   8.664
54580SOL     OW63765  10.612   6.441   7.757
54580SOL    HW163766  10.526   6.410   7.799
54580SOL    HW263767  10.608   6.427   7.658
54581SOL     OW63768  11.069   7.333   8.602
54581SOL    HW163769  11.130   7.363   8.529
54581SOL    HW263770  11.031   7.244   8.580
54582SOL     OW63771  10.562   7.317   8.576
54582SOL    HW163772  10.646   7.322   8.522
54582SOL    HW263773  10.539   7.221   8.594
54583SOL     OW63774   9.393   6.844   8.470
54583SOL    HW163775   9.388   6.843   8.570
54583SOL    HW263776   9.310   6.803   8.432
54584SOL     OW63777   9.998   7.248   9.164
54584SOL    HW163778   9.942   7.329   9.173
54584SOL    HW263779  10.050   7.252   9.078
54585SOL     OW63780  11.036   5.721   7.971
54585SOL    HW163781  11.109   5.704   7.904
54585SOL    HW263782  11.005   5.634   8.009
54586SOL     OW63783  10.698   7.159   7.925
54586SOL    HW163784  10.765   7.171   7.851
54586SOL    HW263785  10.658   7.248   7.948
54587SOL     OW63786   9.440   7.380   9.299
54587SOL    HW163787   9.399   7.306   9.352
54587SOL    HW263788   9.504   7.431   9.357
54588SOL     OW63789  10.590   6.513   8.120
54588SOL    HW163790  10.650   6.432   8.122
54588SOL    HW263791  10.630   6.582   8.060
54589SOL     OW63792  10.140   6.859   8.870
54589SOL    HW163793  10.135   6.892   8.965
54589SOL    HW263794  10.054   6.878   8.824
54590SOL     OW63795   9.982   7.202   7.602
54590SOL    HW163796   9.991   7.212   7.503
54590SOL    HW263797   9.942   7.113   7.623
54591SOL     OW63798  10.960   7.306   8.842
54591SOL    HW163799  11.013   7.316   8.758
54591SOL    HW263800  10.933   7.396   8.876
54592SOL     OW63801  11.151   5.761   8.411
54592SOL    HW163802  11.190   5.676   8.375
54592SOL    HW263803  11.053   5.763   8.392
54593SOL     OW63804   9.573   5.912   8.168
54593SOL    HW163805   9.494   5.963   8.134
54593SOL    HW263806   9.564   5.897   8.266
54594SOL     OW63807  10.504   7.198   7.479
54594SOL    HW163808  10.510   7.105   7.516
54594SOL    HW263809  10.445   7.198   7.399
54595SOL     OW63810  10.132   6.588   8.820
54595SOL    HW163811  10.172   6.587   8.728
54595SOL    HW263812  10.142   6.680   8.860
54596SOL     OW63813  10.226   6.496   7.739
54596SOL    HW163814  10.289   6.534   7.671
54596SOL    HW263815  10.266   6.413   7.778
54597SOL     OW63816  10.814   7.193   7.492
54597SOL    HW163817  10.722   7.230   7.499
54597SOL    HW263818  10.852   7.213   7.402
54598SOL     OW63819   9.682   6.874   8.938
54598SOL    HW163820   9.669   6.967   8.904
54598SOL    HW263821   9.598   6.822   8.925
54599SOL     OW63822  10.924   6.878   8.737
54599SOL    HW163823  10.984   6.881   8.817
54599SOL    HW263824  10.849   6.942   8.750
54600SOL     OW63825  10.349   6.684   8.144
54600SOL    HW163826  10.279   6.637   8.198
54600SOL    HW263827  10.408   6.616   8.101
54601SOL     OW63828  10.324   5.822   8.419
54601SOL    HW163829  10.316   5.786   8.326
54601SOL    HW263830  10.322   5.746   8.484
54602SOL     OW63831   9.900   7.073   7.939
54602SOL    HW163832   9.942   7.015   7.869
54602SOL    HW263833   9.856   7.152   7.895
54603SOL     OW63834  11.019   5.971   8.829
54603SOL    HW163835  11.092   6.040   8.833
54603SOL    HW263836  11.047   5.896   8.770
54604SOL     OW63837   9.565   6.934   7.738
54604SOL    HW163838   9.469   6.935   7.711
54604SOL    HW263839   9.577   6.987   7.822
54605SOL     OW63840   9.415   6.599   9.174
54605SOL    HW163841   9.338   6.566   9.228
54605SOL    HW263842   9.500   6.569   9.216
54606SOL     OW63843   9.982   5.789   8.937
54606SOL    HW163844  10.072   5.773   8.897
54606SOL    HW263845   9.990   5.794   9.036
54607SOL     OW63846   9.385   5.931   7.481
54607SOL    HW163847   9.293   5.903   7.452
54607SOL    HW263848   9.416   6.008   7.425
54608SOL     OW63849  10.750   6.442   8.846
54608SOL    HW163850  10.693   6.494   8.783
54608SOL    HW263851  10.846   6.454   8.822
54609SOL     OW63852   9.382   5.752   7.766
54609SOL    HW163853   9.365   5.835   7.712
54609SOL    HW263854   9.472   5.715   7.744
54610SOL     OW63855  10.493   6.921   7.567
54610SOL    HW163856  10.394   6.910   7.569
54610SOL    HW263857  10.527   6.936   7.660
54611SOL     OW63858   9.923   6.428   8.879
54611SOL    HW163859   9.979   6.509   8.862
54611SOL    HW263860   9.982   6.348   8.882
54612SOL     OW63861  10.803   7.353   8.407
54612SOL    HW163862  10.836   7.417   8.338
54612SOL    HW263863  10.869   7.347   8.482
54613SOL     OW63864  10.026   6.151   9.156
54613SOL    HW163865  10.045   6.216   9.230
54613SOL    HW263866  10.086   6.071   9.165
54614SOL     OW63867  10.760   6.806   9.081
54614SOL    HW163868  10.751   6.796   9.180
54614SOL    HW263869  10.856   6.799   9.055
54615SOL     OW63870   9.700   7.327   9.008
54615SOL    HW163871   9.609   7.368   9.006
54615SOL    HW263872   9.693   7.233   9.040
54616SOL     OW63873  10.984   6.469   8.702
54616SOL    HW163874  10.957   6.380   8.665
54616SOL    HW263875  10.985   6.537   8.629
54617SOL     OW63876  10.535   5.911   7.897
54617SOL    HW163877  10.600   5.837   7.886
54617SOL    HW263878  10.555   5.961   7.981
54618SOL     OW63879   9.904   6.331   8.100
54618SOL    HW163880   9.954   6.416   8.081
54618SOL    HW263881   9.816   6.333   8.052
54619SOL     OW63882  11.087   5.928   9.090
54619SOL    HW163883  11.070   5.959   8.996
54619SOL    HW263884  11.003   5.891   9.128
54620SOL     OW63885  11.040   6.520   8.965
54620SOL    HW163886  11.078   6.611   8.980
54620SOL    HW263887  11.032   6.503   8.866
54621SOL     OW63888  10.169   6.960   7.464
54621SOL    HW163889  10.123   6.975   7.552
54621SOL    HW263890  10.213   7.045   7.434
54622SOL     OW63891   9.971   7.376   8.401
54622SOL    HW163892   9.925   7.464   8.388
54622SOL    HW263893  10.070   7.388   8.394
54623SOL     OW63894  10.169   6.542   8.309
54623SOL    HW163895  10.223   6.473   8.357
54623SOL    HW263896  10.137   6.611   8.375
54624SOL     OW63897  10.393   6.570   7.535
54624SOL    HW163898  10.370   6.623   7.453
54624SOL    HW263899  10.474   6.514   7.516
54625SOL     OW63900  11.171   7.155   8.299
54625SOL    HW163901  11.100   7.143   8.229
54625SOL    HW263902  11.172   7.076   8.359
54626SOL     OW63903   9.531   6.900   9.292
54626SOL    HW163904   9.466   6.827   9.271
54626SOL    HW263905   9.535   6.914   9.390
54627SOL     OW63906   9.389   6.826   8.101
54627SOL    HW163907   9.388   6.779   8.189
54627SOL    HW263908   9.471   6.798   8.050
54628SOL     OW63909   9.982   6.977   9.072
54628SOL    HW163910   9.904   6.927   9.110
54628SOL    HW263911   9.979   7.072   9.103
54629SOL     OW63912  11.134   5.778   8.675
54629SOL    HW163913  11.130   5.688   8.719
54629SOL    HW263914  11.137   5.767   8.576
54630SOL     OW63915   9.738   6.010   7.968
54630SOL    HW163916   9.768   5.938   7.906
54630SOL    HW263917   9.699   5.970   8.051
54631SOL     OW63918  11.015   7.073   8.552
54631SOL    HW163919  10.922   7.048   8.525
54631SOL    HW263920  11.041   7.023   8.634
54632SOL     OW63921   9.627   6.133   8.728
54632SOL    HW163922   9.665   6.074   8.800
54632SOL    HW263923   9.667   6.107   8.640
54633SOL     OW63924  10.122   7.172   8.135
54633SOL    HW163925  10.154   7.182   8.041
54633SOL    HW263926  10.043   7.110   8.137
54634SOL     OW63927  10.734   5.800   8.560
54634SOL    HW163928  10.786   5.735   8.615
54634SOL    HW263929  10.685   5.863   8.621
54635SOL     OW63930  10.311   5.620   8.602
54635SOL    HW163931  10.248   5.548   8.571
54635SOL    HW263932  10.404   5.584   8.602
54636SOL     OW63933  10.080   6.916   7.749
54636SOL    HW163934  10.034   6.829   7.766
54636SOL    HW263935  10.171   6.913   7.790
54637SOL     OW63936   9.928   7.153   8.732
54637SOL    HW163937   9.923   7.235   8.789
54637SOL    HW263938  10.017   7.150   8.687
54638SOL     OW63939  10.662   5.638   7.616
54638SOL    HW163940  10.697   5.597   7.532
54638SOL    HW263941  10.572   5.600   7.636
54639SOL     OW63942  10.610   6.039   8.139
54639SOL    HW163943  10.551   6.119   8.143
54639SOL    HW263944  10.625   6.004   8.232
54640SOL     OW63945  10.903   5.807   8.330
54640SOL    HW163946  10.819   5.806   8.384
54640SOL    HW263947  10.905   5.890   8.274
54641SOL     OW63948   9.349   6.663   7.748
54641SOL    HW163949   9.448   6.652   7.739
54641SOL    HW263950   9.309   6.577   7.780
54642SOL     OW63951  10.185   7.232   7.785
54642SOL    HW163952  10.108   7.197   7.731
54642SOL    HW263953  10.153   7.303   7.847
54643SOL     OW63954   9.540   6.214   9.423
54643SOL    HW163955   9.447   6.212   9.460
54643SOL    HW263956   9.541   6.175   9.331
54644SOL     OW63957   9.535   5.861  10.306
54644SOL    HW163958   9.570   5.844  10.398
54644SOL    HW263959   9.447   5.816  10.294
54645SOL     OW63960   9.879   6.861  10.475
54645SOL    HW163961   9.786   6.854  10.438
54645SOL    HW263962   9.890   6.950  10.519
54646SOL     OW63963  10.865   7.097  10.013
54646SOL    HW163964  10.808   7.081  10.094
54646SOL    HW263965  10.806   7.107   9.933
54647SOL     OW63966  10.445   6.289  10.027
54647SOL    HW163967  10.502   6.367  10.002
54647SOL    HW263968  10.385   6.315  10.103
54648SOL     OW63969  11.065   6.193   9.541
54648SOL    HW163970  11.053   6.180   9.442
54648SOL    HW263971  11.035   6.112   9.590
54649SOL     OW63972  10.078   6.730  10.333
54649SOL    HW163973  10.000   6.747  10.393
54649SOL    HW263974  10.112   6.817  10.297
54650SOL     OW63975  10.160   6.384  11.133
54650SOL    HW163976  10.156   6.460  11.198
54650SOL    HW263977  10.182   6.420  11.042
54651SOL     OW63978   9.995   6.598   9.975
54651SOL    HW163979  10.064   6.582  10.045
54651SOL    HW263980   9.922   6.655  10.013
54652SOL     OW63981   9.996   6.747  11.113
54652SOL    HW163982  10.056   6.826  11.127
54652SOL    HW263983   9.910   6.778  11.072
54653SOL     OW63984   9.645   7.021  10.371
54653SOL    HW163985   9.567   6.990  10.318
54653SOL    HW263986   9.703   7.079  10.314
54654SOL     OW63987  10.770   7.091  10.649
54654SOL    HW163988  10.794   7.185  10.675
54654SOL    HW263989  10.754   7.037  10.731
54655SOL     OW63990   9.748   5.978  10.809
54655SOL    HW163991   9.830   5.922  10.818
54655SOL    HW263992   9.667   5.920  10.813
54656SOL     OW63993  10.913   6.033  10.047
54656SOL    HW163994  10.839   6.079   9.997
54656SOL    HW263995  10.964   6.101  10.100
54657SOL     OW63996   9.541   7.299   9.793
54657SOL    HW163997   9.575   7.376   9.847
54657SOL    HW263998   9.585   7.299   9.703
54658SOL     OW63999  10.437   6.927  11.000
54658SOL    HW164000  10.484   6.927  11.088
54658SOL    HW264001  10.389   6.840  10.989
54659SOL     OW64002   9.540   7.020   9.848
54659SOL    HW164003   9.514   7.116   9.848
54659SOL    HW264004   9.469   6.966   9.893
54660SOL     OW64005   9.550   6.677  10.196
54660SOL    HW164006   9.564   6.593  10.248
54660SOL    HW264007   9.495   6.741  10.251
54661SOL     OW64008   9.930   7.372  10.749
54661SOL    HW164009   9.838   7.355  10.784
54661SOL    HW264010   9.958   7.464  10.775
54662SOL     OW64011   9.916   6.550   9.433
54662SOL    HW164012   9.923   6.634   9.379
54662SOL    HW264013   9.962   6.563   9.521
54663SOL     OW64014  10.904   5.700  10.790
54663SOL    HW164015  10.886   5.767  10.718
54663SOL    HW264016  10.901   5.746  10.879
54664SOL     OW64017   9.432   6.229   9.873
54664SOL    HW164018   9.387   6.141   9.890
54664SOL    HW264019   9.431   6.283   9.957
54665SOL     OW64020  11.152   7.353   9.669
54665SOL    HW164021  11.206   7.324   9.749
54665SOL    HW264022  11.182   7.443   9.640
54666SOL     OW64023   9.337   7.182   9.427
54666SOL    HW164024   9.318   7.086   9.448
54666SOL    HW264025   9.304   7.240   9.502
54667SOL     OW64026  10.999   6.508   9.922
54667SOL    HW164027  11.094   6.479   9.930
54667SOL    HW264028  10.991   6.573   9.847
54668SOL     OW64029  10.951   6.694   9.742
54668SOL    HW164030  11.037   6.696   9.690
54668SOL    HW264031  10.965   6.741   9.830
54669SOL     OW64032   9.423   6.323  10.907
54669SOL    HW164033   9.511   6.310  10.952
54669SOL    HW264034   9.410   6.420  10.885
54670SOL     OW64035   9.923   6.951  10.036
54670SOL    HW164036   9.874   6.864  10.045
54670SOL    HW264037   9.900   6.994   9.949
54671SOL     OW64038  10.603   6.814  10.733
54671SOL    HW164039  10.640   6.741  10.675
54671SOL    HW264040  10.655   6.819  10.818
54672SOL     OW64041  10.119   5.590   9.812
54672SOL    HW164042  10.159   5.681   9.803
54672SOL    HW264043  10.019   5.598   9.818
54673SOL     OW64044   9.507   6.562  10.574
54673SOL    HW164045   9.596   6.517  10.560
54673SOL    HW264046   9.434   6.497  10.555
54674SOL     OW64047  10.835   6.585   9.500
54674SOL    HW164048  10.772   6.509   9.513
54674SOL    HW264049  10.883   6.603   9.586
54675SOL     OW64050  10.497   7.378  10.926
54675SOL    HW164051  10.521   7.438  10.850
54675SOL    HW264052  10.504   7.283  10.896
54676SOL     OW64053   9.627   5.837  11.111
54676SOL    HW164054   9.698   5.908  11.117
54676SOL    HW264055   9.539   5.876  11.139
54677SOL     OW64056  10.776   7.003  10.263
54677SOL    HW164057  10.717   7.009  10.343
54677SOL    HW264058  10.761   6.915  10.217
54678SOL     OW64059  10.977   7.300   9.882
54678SOL    HW164060  10.936   7.277   9.794
54678SOL    HW264061  10.959   7.226   9.947
54679SOL     OW64062   9.908   6.315   9.580
54679SOL    HW164063   9.932   6.384   9.512
54679SOL    HW264064   9.830   6.348   9.634
54680SOL     OW64065  10.886   7.248   9.617
54680SOL    HW164066  10.975   7.294   9.620
54680SOL    HW264067  10.865   7.224   9.522
54681SOL     OW64068  10.117   6.191  10.775
54681SOL    HW164069  10.070   6.188  10.864
54681SOL    HW264070  10.066   6.136  10.709
54682SOL     OW64071  10.704   6.055  10.984
54682SOL    HW164072  10.684   6.098  11.072
54682SOL    HW264073  10.782   5.993  10.993
54683SOL     OW64074  10.283   6.476  10.882
54683SOL    HW164075  10.329   6.392  10.853
54683SOL    HW264076  10.227   6.510  10.807
54684SOL     OW64077  10.301   5.996  10.552
54684SOL    HW164078  10.224   6.030  10.606
54684SOL    HW264079  10.267   5.945  10.473
54685SOL     OW64080  10.351   6.287   9.739
54685SOL    HW164081  10.377   6.283   9.835
54685SOL    HW264082  10.266   6.236   9.725
54686SOL     OW64083   9.386   6.397  10.099
54686SOL    HW164084   9.485   6.385  10.108
54686SOL    HW264085   9.362   6.492  10.120
54687SOL     OW64086   9.440   7.407  10.881
54687SOL    HW164087   9.430   7.392  10.980
54687SOL    HW264088   9.354   7.443  10.845
54688SOL     OW64089  10.175   5.934   9.505
54688SOL    HW164090  10.234   5.997   9.456
54688SOL    HW264091  10.194   5.840   9.476
54689SOL     OW64092  11.029   6.171  11.141
54689SOL    HW164093  11.003   6.260  11.105
54689SOL    HW264094  11.027   6.103  11.068
54690SOL     OW64095  10.672   6.730   9.855
54690SOL    HW164096  10.755   6.701   9.807
54690SOL    HW264097  10.623   6.797   9.799
54691SOL     OW64098   9.860   5.782  10.195
54691SOL    HW164099   9.855   5.777  10.295
54691SOL    HW264100   9.862   5.878  10.166
54692SOL     OW64101  10.318   7.042   9.787
54692SOL    HW164102  10.272   7.114   9.735
54692SOL    HW264103  10.314   7.062   9.885
54693SOL     OW64104   9.661   7.387  10.163
54693SOL    HW164105   9.711   7.301  10.169
54693SOL    HW264106   9.726   7.464  10.160
54694SOL     OW64107  11.105   6.652  10.183
54694SOL    HW164108  11.043   6.637  10.107
54694SOL    HW264109  11.053   6.663  10.268
54695SOL     OW64110  10.537   7.136  10.816
54695SOL    HW164111  10.543   7.059  10.880
54695SOL    HW264112  10.485   7.110  10.736
54696SOL     OW64113   9.631   6.529   9.552
54696SOL    HW164114   9.713   6.568   9.510
54696SOL    HW264115   9.604   6.447   9.503
54697SOL     OW64116  10.768   6.321  10.038
54697SOL    HW164117  10.763   6.256  10.113
54697SOL    HW264118  10.848   6.380  10.051
54698SOL     OW64119   9.771   6.852  11.037
54698SOL    HW164120   9.721   6.853  10.951
54698SOL    HW264121   9.708   6.834  11.113
54699SOL     OW64122  10.421   7.362   9.547
54699SOL    HW164123  10.361   7.300   9.597
54699SOL    HW264124  10.452   7.318   9.462
54700SOL     OW64125   9.512   5.871  10.808
54700SOL    HW164126   9.432   5.931  10.795
54700SOL    HW264127   9.502   5.822  10.894
54701SOL     OW64128  10.942   6.963   9.391
54701SOL    HW164129  10.910   7.057   9.381
54701SOL    HW264130  10.866   6.900   9.379
54702SOL     OW64131   9.774   7.329   9.633
54702SOL    HW164132   9.807   7.368   9.719
54702SOL    HW264133   9.850   7.322   9.568
54703SOL     OW64134  10.710   5.693   9.736
54703SOL    HW164135  10.686   5.656   9.646
54703SOL    HW264136  10.809   5.709   9.740
54704SOL     OW64137   9.559   7.371  10.551
54704SOL    HW164138   9.616   7.306  10.601
54704SOL    HW264139   9.543   7.338  10.458
54705SOL     OW64140  10.250   7.284  10.214
54705SOL    HW164141  10.330   7.227  10.235
54705SOL    HW264142  10.201   7.244  10.137
54706SOL     OW64143   9.692   6.286   9.790
54706SOL    HW164144   9.737   6.196   9.787
54706SOL    HW264145   9.598   6.275   9.823
54707SOL     OW64146  10.857   5.808  11.039
54707SOL    HW164147  10.852   5.845  11.131
54707SOL    HW264148  10.785   5.739  11.027
54708SOL     OW64149   9.924   5.708   9.427
54708SOL    HW164150  10.022   5.686   9.434
54708SOL    HW264151   9.893   5.691   9.334
54709SOL     OW64152  10.091   5.850  11.059
54709SOL    HW164153  10.158   5.789  11.102
54709SOL    HW264154  10.018   5.869  11.124
54710SOL     OW64155  10.198   7.100  10.505
54710SOL    HW164156  10.175   7.075  10.411
54710SOL    HW264157  10.259   7.031  10.544
54711SOL     OW64158  10.661   6.176  10.743
54711SOL    HW164159  10.689   6.133  10.828
54711SOL    HW264160  10.686   6.272  10.744
54712SOL     OW64161  10.113   6.988  10.234
54712SOL    HW164162  10.203   7.002  10.192
54712SOL    HW264163  10.042   6.990  10.163
54713SOL     OW64164  10.232   6.089  10.209
54713SOL    HW164165  10.207   6.080  10.113
54713SOL    HW264166  10.280   6.007  10.240
54714SOL     OW64167   9.849   5.650   9.822
54714SOL    HW164168   9.768   5.651   9.880
54714SOL    HW264169   9.852   5.733   9.767
54715SOL     OW64170  10.744   6.774   9.351
54715SOL    HW164171  10.776   6.698   9.408
54715SOL    HW264172  10.652   6.801   9.381
54716SOL     OW64173   9.607   5.621   9.481
54716SOL    HW164174   9.656   5.705   9.460
54716SOL    HW264175   9.669   5.556   9.526
54717SOL     OW64176  10.245   5.822   9.790
54717SOL    HW164177  10.197   5.863   9.712
54717SOL    HW264178  10.344   5.820   9.771
54718SOL     OW64179  10.386   6.269  10.774
54718SOL    HW164180  10.306   6.208  10.777
54718SOL    HW264181  10.467   6.216  10.750
54719SOL     OW64182  10.537   7.156  10.103
54719SOL    HW164183  10.558   7.230  10.038
54719SOL    HW264184  10.605   7.156  10.176
54720SOL     OW64185   9.769   6.738  10.051
54720SOL    HW164186   9.698   6.711  10.116
54720SOL    HW264187   9.743   6.710   9.958
54721SOL     OW64188  10.581   7.383   9.901
54721SOL    HW164189  10.625   7.447   9.837
54721SOL    HW264190  10.531   7.435   9.971
54722SOL     OW64191  10.342   6.135   9.326
54722SOL    HW164192  10.301   6.217   9.287
54722SOL    HW264193  10.406   6.161   9.399
54723SOL     OW64194   9.388   6.142  10.696
54723SOL    HW164195   9.480   6.141  10.655
54723SOL    HW264196   9.382   6.216  10.763
54724SOL     OW64197   9.871   5.808  10.457
54724SOL    HW164198   9.909   5.724  10.494
54724SOL    HW264199   9.783   5.827  10.501
54725SOL     OW64200  10.176   6.040   9.952
54725SOL    HW164201  10.144   6.112   9.890
54725SOL    HW264202  10.200   5.959   9.899
54726SOL     OW64203  10.327   5.625  10.063
54726SOL    HW164204  10.255   5.630   9.994
54726SOL    HW264205  10.303   5.556  10.132
54727SOL     OW64206  10.739   6.759  10.177
54727SOL    HW164207  10.684   6.675  10.170
54727SOL    HW264208  10.765   6.788  10.085
54728SOL     OW64209  10.776   6.176  10.302
54728SOL    HW164210  10.746   6.081  10.309
54728SOL    HW264211  10.849   6.192  10.368
54729SOL     OW64212  11.167   6.419   9.687
54729SOL    HW164213  11.209   6.355   9.751
54729SOL    HW264214  11.129   6.368   9.609
54730SOL     OW64215   9.798   6.971   9.484
54730SOL    HW164216   9.711   6.956   9.531
54730SOL    HW264217   9.781   6.997   9.389
54731SOL     OW64218  10.974   6.866   9.967
54731SOL    HW164219  11.073   6.874   9.981
54731SOL    HW264220  10.929   6.950   9.998
54732SOL     OW64221  10.700   6.161   9.388
54732SOL    HW164222  10.646   6.140   9.469
54732SOL    HW264223  10.791   6.120   9.397
54733SOL     OW64224   9.837   5.842   9.638
54733SOL    HW164225   9.864   5.783   9.563
54733SOL    HW264226   9.837   5.937   9.607
54734SOL     OW64227  11.064   6.809  10.898
54734SOL    HW164228  11.155   6.770  10.885
54734SOL    HW264229  11.072   6.905  10.922
54735SOL     OW64230  10.374   6.933  10.650
54735SOL    HW164231  10.294   6.910  10.705
54735SOL    HW264232  10.457   6.907  10.699
54736SOL     OW64233  10.902   7.215  10.935
54736SOL    HW164234  10.929   7.249  10.845
54736SOL    HW264235  10.981   7.177  10.981
54737SOL     OW64236  10.421   6.781  10.410
54737SOL    HW164237  10.381   6.825  10.491
54737SOL    HW264238  10.380   6.818  10.327
54738SOL     OW64239  10.948   6.685  10.389
54738SOL    HW164240  10.953   6.766  10.448
54738SOL    HW264241  10.862   6.687  10.338
54739SOL     OW64242  10.225   5.675  10.712
54739SOL    HW164243  10.250   5.655  10.617
54739SOL    HW264244  10.297   5.731  10.754
54740SOL     OW64245  10.290   6.702  11.029
54740SOL    HW164246  10.191   6.708  11.039
54740SOL    HW264247  10.313   6.622  10.973
54741SOL     OW64248  10.015   6.636   9.678
54741SOL    HW164249  10.001   6.643   9.777
54741SOL    HW264250  10.099   6.585   9.660
54742SOL     OW64251   9.720   6.399  10.561
54742SOL    HW164252   9.806   6.411  10.611
54742SOL    HW264253   9.678   6.312  10.588
54743SOL     OW64254  10.584   5.972  10.572
54743SOL    HW164255  10.605   6.046  10.636
54743SOL    HW264256  10.495   5.989  10.529
54744SOL     OW64257   9.374   7.150  10.641
54744SOL    HW164258   9.328   7.232  10.607
54744SOL    HW264259   9.472   7.169  10.650
54745SOL     OW64260   9.677   6.686   9.811
54745SOL    HW164261   9.670   6.769   9.755
54745SOL    HW264262   9.681   6.606   9.751
54746SOL     OW64263   9.876   6.123  10.175
54746SOL    HW164264   9.888   6.189  10.101
54746SOL    HW264265   9.922   6.157  10.258
54747SOL     OW64266  10.562   6.934   9.698
54747SOL    HW164267  10.612   7.011   9.738
54747SOL    HW264268  10.467   6.936   9.730
54748SOL     OW64269  10.582   7.031  10.452
54748SOL    HW164270  10.629   7.044  10.539
54748SOL    HW264271  10.516   6.957  10.461
54749SOL     OW64272  10.892   6.225   9.782
54749SOL    HW164273  10.861   6.286   9.855
54749SOL    HW264274  10.942   6.277   9.713
54750SOL     OW64275   9.664   7.096  10.639
54750SOL    HW164276   9.643   7.052  10.552
54750SOL    HW264277   9.761   7.122  10.642
54751SOL     OW64278   9.712   6.337  10.908
54751SOL    HW164279   9.780   6.392  10.861
54751SOL    HW264280   9.752   6.249  10.935
54752SOL     OW64281  10.897   6.365  10.980
54752SOL    HW164282  10.805   6.403  10.975
54752SOL    HW264283  10.957   6.412  10.915
54753SOL     OW64284  10.323   5.691  11.080
54753SOL    HW164285  10.329   5.776  11.028
54753SOL    HW264286  10.355   5.615  11.023
54754SOL     OW64287   9.814   5.636  11.050
54754SOL    HW164288   9.772   5.579  10.980
54754SOL    HW264289   9.748   5.705  11.082
54755SOL     OW64290   9.883   6.456  10.339
54755SOL    HW164291   9.927   6.545  10.330
54755SOL    HW264292   9.820   6.456  10.416
54756SOL     OW64293  10.670   6.448  10.355
54756SOL    HW164294  10.595   6.448  10.289
54756SOL    HW264295  10.707   6.356  10.364
54757SOL     OW64296  10.519   6.111   9.585
54757SOL    HW164297  10.532   6.027   9.639
54757SOL    HW264298  10.490   6.185   9.645
54758SOL     OW64299   9.617   5.799  10.541
54758SOL    HW164300   9.594   5.836  10.631
54758SOL    HW264301   9.587   5.704  10.535
54759SOL     OW64302   9.347   6.896  10.592
54759SOL    HW164303   9.400   6.847  10.660
54759SOL    HW264304   9.369   6.994  10.597
54760SOL     OW64305  10.042   6.220  10.374
54760SOL    HW164306  10.101   6.194  10.298
54760SOL    HW264307  10.014   6.316  10.363
54761SOL     OW64308  11.038   6.521  11.164
54761SOL    HW164309  10.992   6.514  11.075
54761SOL    HW264310  10.976   6.565  11.230
54762SOL     OW64311   9.617   5.649   9.928
54762SOL    HW164312   9.606   5.743   9.961
54762SOL    HW264313   9.612   5.586  10.005
54763SOL     OW64314  10.932   5.953   9.684
54763SOL    HW164315  10.934   5.877   9.748
54763SOL    HW264316  10.884   6.030   9.724
54764SOL     OW64317  10.333   6.352  10.276
54764SOL    HW164318  10.348   6.373  10.372
54764SOL    HW264319  10.303   6.257  10.267
54765SOL     OW64320  10.290   7.159  11.010
54765SOL    HW164321  10.270   7.203  10.922
54765SOL    HW264322  10.329   7.068  10.994
54766SOL     OW64323  11.169   7.104  10.915
54766SOL    HW164324  11.183   7.131  10.820
54766SOL    HW264325  11.252   7.126  10.968
54767SOL     OW64326   9.660   6.484  11.114
54767SOL    HW164327   9.736   6.528  11.162
54767SOL    HW264328   9.695   6.437  11.032
54768SOL     OW64329  10.850   5.860   9.435
54768SOL    HW164330  10.789   5.785   9.458
54768SOL    HW264331  10.872   5.912   9.518
54769SOL     OW64332  10.613   6.424   9.352
54769SOL    HW164333  10.647   6.331   9.367
54769SOL    HW264334  10.631   6.451   9.257
54770SOL     OW64335  10.378   6.919  10.159
54770SOL    HW164336  10.385   6.835  10.104
54770SOL    HW264337  10.440   6.988  10.123
54771SOL     OW64338   9.629   6.396  10.259
54771SOL    HW164339   9.722   6.432  10.264
54771SOL    HW264340   9.623   6.311  10.311
54772SOL     OW64341   9.649   6.095  10.316
54772SOL    HW164342   9.597   6.012  10.299
54772SOL    HW264343   9.726   6.100  10.252
54773SOL     OW64344  10.448   5.966  10.988
54773SOL    HW164345  10.403   6.029  11.052
54773SOL    HW264346  10.541   5.997  10.971
54774SOL     OW64347  10.470   5.793  10.787
54774SOL    HW164348  10.470   5.857  10.864
54774SOL    HW264349  10.498   5.841  10.704
54775SOL     OW64350   9.318   6.912   9.510
54775SOL    HW164351   9.225   6.933   9.479
54775SOL    HW264352   9.328   6.813   9.523
54776SOL     OW64353   9.398   7.387  10.237
54776SOL    HW164354   9.356   7.301  10.210
54776SOL    HW264355   9.492   7.390  10.203
54777SOL     OW64356   9.814   7.154  10.220
54777SOL    HW164357   9.880   7.228  10.229
54777SOL    HW264358   9.858   7.075  10.178
54778SOL     OW64359  10.312   6.382  10.548
54778SOL    HW164360  10.353   6.350  10.634
54778SOL    HW264361  10.216   6.355  10.545
54779SOL     OW64362   9.350   6.130  10.424
54779SOL    HW164363   9.435   6.097  10.383
54779SOL    HW264364   9.363   6.145  10.522
54780SOL     OW64365   9.499   6.106  11.032
54780SOL    HW164366   9.558   6.066  10.962
54780SOL    HW264367   9.441   6.177  10.991
54781SOL     OW64368  10.679   6.536  10.970
54781SOL    HW164369  10.718   6.625  10.990
54781SOL    HW264370  10.689   6.516  10.873
54782SOL     OW64371  10.125   6.158   9.635
54782SOL    HW164372  10.132   6.069   9.589
54782SOL    HW264373  10.031   6.192   9.627
54783SOL     OW64374  10.967   6.190  10.516
54783SOL    HW164375  10.929   6.121  10.578
54783SOL    HW264376  11.049   6.154  10.472
54784SOL     OW64377   9.562   7.150  11.054
54784SOL    HW164378   9.532   7.207  11.130
54784SOL    HW264379   9.555   7.053  11.080
54785SOL     OW64380   9.981   6.050  10.579
54785SOL    HW164381   9.947   5.961  10.549
54785SOL    HW264382  10.007   6.104  10.499
54786SOL     OW64383  10.240   7.264  10.775
54786SOL    HW164384  10.216   7.246  10.680
54786SOL    HW264385  10.270   7.358  10.785
54787SOL     OW64386   9.783   6.086   9.501
54787SOL    HW164387   9.844   6.166   9.505
54787SOL    HW264388   9.688   6.117   9.508
54788SOL     OW64389   9.469   6.723  10.776
54788SOL    HW164390   9.491   6.662  10.852
54788SOL    HW264391   9.479   6.674  10.690
54789SOL     OW64392  10.657   6.645  10.544
54789SOL    HW164393  10.681   6.582  10.470
54789SOL    HW264394  10.567   6.685  10.526
54790SOL     OW64395  10.612   6.441   9.619
54790SOL    HW164396  10.526   6.410   9.661
54790SOL    HW264397  10.608   6.427   9.520
54791SOL     OW64398  11.069   7.333  10.464
54791SOL    HW164399  11.130   7.363  10.391
54791SOL    HW264400  11.031   7.244  10.442
54792SOL     OW64401  10.562   7.317  10.438
54792SOL    HW164402  10.646   7.322  10.384
54792SOL    HW264403  10.539   7.221  10.456
54793SOL     OW64404   9.393   6.844  10.332
54793SOL    HW164405   9.388   6.843  10.432
54793SOL    HW264406   9.310   6.803  10.294
54794SOL     OW64407   9.998   7.248  11.026
54794SOL    HW164408   9.942   7.329  11.035
54794SOL    HW264409  10.050   7.252  10.940
54795SOL     OW64410  11.036   5.721   9.833
54795SOL    HW164411  11.109   5.704   9.766
54795SOL    HW264412  11.005   5.634   9.871
54796SOL     OW64413  10.698   7.159   9.787
54796SOL    HW164414  10.765   7.171   9.713
54796SOL    HW264415  10.658   7.248   9.810
54797SOL     OW64416   9.440   7.380  11.161
54797SOL    HW164417   9.399   7.306  11.214
54797SOL    HW264418   9.504   7.431  11.219
54798SOL     OW64419  10.590   6.513   9.982
54798SOL    HW164420  10.650   6.432   9.984
54798SOL    HW264421  10.630   6.582   9.922
54799SOL     OW64422  10.140   6.859  10.732
54799SOL    HW164423  10.135   6.892  10.827
54799SOL    HW264424  10.054   6.878  10.686
54800SOL     OW64425   9.982   7.202   9.464
54800SOL    HW164426   9.991   7.212   9.365
54800SOL    HW264427   9.942   7.113   9.485
54801SOL     OW64428  10.960   7.306  10.704
54801SOL    HW164429  11.013   7.316  10.620
54801SOL    HW264430  10.933   7.396  10.738
54802SOL     OW64431  11.151   5.761  10.273
54802SOL    HW164432  11.190   5.676  10.237
54802SOL    HW264433  11.053   5.763  10.254
54803SOL     OW64434   9.573   5.912  10.030
54803SOL    HW164435   9.494   5.963   9.996
54803SOL    HW264436   9.564   5.897  10.128
54804SOL     OW64437  10.504   7.198   9.341
54804SOL    HW164438  10.510   7.105   9.378
54804SOL    HW264439  10.445   7.198   9.261
54805SOL     OW64440  10.132   6.588  10.682
54805SOL    HW164441  10.172   6.587  10.590
54805SOL    HW264442  10.142   6.680  10.722
54806SOL     OW64443  10.226   6.496   9.601
54806SOL    HW164444  10.289   6.534   9.533
54806SOL    HW264445  10.266   6.413   9.640
54807SOL     OW64446  10.814   7.193   9.354
54807SOL    HW164447  10.722   7.230   9.361
54807SOL    HW264448  10.852   7.213   9.264
54808SOL     OW64449   9.682   6.874  10.800
54808SOL    HW164450   9.669   6.967  10.766
54808SOL    HW264451   9.598   6.822  10.787
54809SOL     OW64452  10.924   6.878  10.599
54809SOL    HW164453  10.984   6.881  10.679
54809SOL    HW264454  10.849   6.942  10.612
54810SOL     OW64455  10.349   6.684  10.006
54810SOL    HW164456  10.279   6.637  10.060
54810SOL    HW264457  10.408   6.616   9.963
54811SOL     OW64458  10.324   5.822  10.281
54811SOL    HW164459  10.316   5.786  10.188
54811SOL    HW264460  10.322   5.746  10.346
54812SOL     OW64461   9.900   7.073   9.801
54812SOL    HW164462   9.942   7.015   9.731
54812SOL    HW264463   9.856   7.152   9.757
54813SOL     OW64464  11.019   5.971  10.691
54813SOL    HW164465  11.092   6.040  10.695
54813SOL    HW264466  11.047   5.896  10.632
54814SOL     OW64467   9.565   6.934   9.600
54814SOL    HW164468   9.469   6.935   9.573
54814SOL    HW264469   9.577   6.987   9.684
54815SOL     OW64470   9.415   6.599  11.036
54815SOL    HW164471   9.338   6.566  11.090
54815SOL    HW264472   9.500   6.569  11.078
54816SOL     OW64473   9.982   5.789  10.799
54816SOL    HW164474  10.072   5.773  10.759
54816SOL    HW264475   9.990   5.794  10.898
54817SOL     OW64476   9.385   5.931   9.343
54817SOL    HW164477   9.293   5.903   9.314
54817SOL    HW264478   9.416   6.008   9.287
54818SOL     OW64479  10.750   6.442  10.708
54818SOL    HW164480  10.693   6.494  10.645
54818SOL    HW264481  10.846   6.454  10.684
54819SOL     OW64482   9.382   5.752   9.628
54819SOL    HW164483   9.365   5.835   9.574
54819SOL    HW264484   9.472   5.715   9.606
54820SOL     OW64485  10.493   6.921   9.429
54820SOL    HW164486  10.394   6.910   9.431
54820SOL    HW264487  10.527   6.936   9.522
54821SOL     OW64488   9.923   6.428  10.741
54821SOL    HW164489   9.979   6.509  10.724
54821SOL    HW264490   9.982   6.348  10.744
54822SOL     OW64491  10.803   7.353  10.269
54822SOL    HW164492  10.836   7.417  10.200
54822SOL    HW264493  10.869   7.347  10.344
54823SOL     OW64494  10.026   6.151  11.018
54823SOL    HW164495  10.045   6.216  11.092
54823SOL    HW264496  10.086   6.071  11.027
54824SOL     OW64497  10.760   6.806  10.943
54824SOL    HW164498  10.751   6.796  11.042
54824SOL    HW264499  10.856   6.799  10.917
54825SOL     OW64500   9.700   7.327  10.870
54825SOL    HW164501   9.609   7.368  10.868
54825SOL    HW264502   9.693   7.233  10.902
54826SOL     OW64503  10.984   6.469  10.564
54826SOL    HW164504  10.957   6.380  10.527
54826SOL    HW264505  10.985   6.537  10.491
54827SOL     OW64506  10.535   5.911   9.759
54827SOL    HW164507  10.600   5.837   9.748
54827SOL    HW264508  10.555   5.961   9.843
54828SOL     OW64509   9.904   6.331   9.962
54828SOL    HW164510   9.954   6.416   9.943
54828SOL    HW264511   9.816   6.333   9.914
54829SOL     OW64512  11.087   5.928  10.952
54829SOL    HW164513  11.070   5.959  10.858
54829SOL    HW264514  11.003   5.891  10.990
54830SOL     OW64515  11.040   6.520  10.827
54830SOL    HW164516  11.078   6.611  10.842
54830SOL    HW264517  11.032   6.503  10.728
54831SOL     OW64518  10.169   6.960   9.326
54831SOL    HW164519  10.123   6.975   9.414
54831SOL    HW264520  10.213   7.045   9.296
54832SOL     OW64521   9.971   7.376  10.263
54832SOL    HW164522   9.925   7.464  10.250
54832SOL    HW264523  10.070   7.388  10.256
54833SOL     OW64524  10.169   6.542  10.171
54833SOL    HW164525  10.223   6.473  10.219
54833SOL    HW264526  10.137   6.611  10.237
54834SOL     OW64527  10.393   6.570   9.397
54834SOL    HW164528  10.370   6.623   9.315
54834SOL    HW264529  10.474   6.514   9.378
54835SOL     OW64530  11.171   7.155  10.161
54835SOL    HW164531  11.100   7.143  10.091
54835SOL    HW264532  11.172   7.076  10.221
54836SOL     OW64533   9.531   6.900  11.154
54836SOL    HW164534   9.466   6.827  11.133
54836SOL    HW264535   9.535   6.914  11.252
54837SOL     OW64536   9.389   6.826   9.963
54837SOL    HW164537   9.388   6.779  10.051
54837SOL    HW264538   9.471   6.798   9.912
54838SOL     OW64539   9.982   6.977  10.934
54838SOL    HW164540   9.904   6.927  10.972
54838SOL    HW264541   9.979   7.072  10.965
54839SOL     OW64542  11.134   5.778  10.537
54839SOL    HW164543  11.130   5.688  10.581
54839SOL    HW264544  11.137   5.767  10.438
54840SOL     OW64545   9.738   6.010   9.830
54840SOL    HW164546   9.768   5.938   9.768
54840SOL    HW264547   9.699   5.970   9.913
54841SOL     OW64548  11.015   7.073  10.414
54841SOL    HW164549  10.922   7.048  10.387
54841SOL    HW264550  11.041   7.023  10.496
54842SOL     OW64551   9.627   6.133  10.590
54842SOL    HW164552   9.665   6.074  10.662
54842SOL    HW264553   9.667   6.107  10.502
54843SOL     OW64554  10.122   7.172   9.997
54843SOL    HW164555  10.154   7.182   9.903
54843SOL    HW264556  10.043   7.110   9.999
54844SOL     OW64557  10.734   5.800  10.422
54844SOL    HW164558  10.786   5.735  10.477
54844SOL    HW264559  10.685   5.863  10.483
54845SOL     OW64560  10.311   5.620  10.464
54845SOL    HW164561  10.248   5.548  10.433
54845SOL    HW264562  10.404   5.584  10.464
54846SOL     OW64563  10.080   6.916   9.611
54846SOL    HW164564  10.034   6.829   9.628
54846SOL    HW264565  10.171   6.913   9.652
54847SOL     OW64566   9.928   7.153  10.594
54847SOL    HW164567   9.923   7.235  10.651
54847SOL    HW264568  10.017   7.150  10.549
54848SOL     OW64569  10.662   5.638   9.478
54848SOL    HW164570  10.697   5.597   9.394
54848SOL    HW264571  10.572   5.600   9.498
54849SOL     OW64572  10.610   6.039  10.001
54849SOL    HW164573  10.551   6.119  10.005
54849SOL    HW264574  10.625   6.004  10.094
54850SOL     OW64575  10.903   5.807  10.192
54850SOL    HW164576  10.819   5.806  10.246
54850SOL    HW264577  10.905   5.890  10.136
54851SOL     OW64578   9.349   6.663   9.610
54851SOL    HW164579   9.448   6.652   9.601
54851SOL    HW264580   9.309   6.577   9.642
54852SOL     OW64581  10.185   7.232   9.647
54852SOL    HW164582  10.108   7.197   9.593
54852SOL    HW264583  10.153   7.303   9.709
54853SOL     OW64584   9.540   6.214  11.285
54853SOL    HW164585   9.447   6.212  11.322
54853SOL    HW264586   9.541   6.175  11.193
54854SOL     OW64587   9.535   5.861  12.168
54854SOL    HW164588   9.570   5.844  12.260
54854SOL    HW264589   9.447   5.816  12.156
54855SOL     OW64590   9.329   5.954  11.819
54855SOL    HW164591   9.247   5.997  11.858
54855SOL    HW264592   9.301   5.881  11.756
54856SOL     OW64593   9.879   6.861  12.337
54856SOL    HW164594   9.786   6.854  12.300
54856SOL    HW264595   9.890   6.950  12.381
54857SOL     OW64596  10.865   7.097  11.875
54857SOL    HW164597  10.808   7.081  11.956
54857SOL    HW264598  10.806   7.107  11.795
54858SOL     OW64599  10.445   6.289  11.889
54858SOL    HW164600  10.502   6.367  11.864
54858SOL    HW264601  10.385   6.315  11.965
54859SOL     OW64602  11.065   6.193  11.403
54859SOL    HW164603  11.053   6.180  11.304
54859SOL    HW264604  11.035   6.112  11.452
54860SOL     OW64605  10.078   6.730  12.195
54860SOL    HW164606  10.000   6.747  12.255
54860SOL    HW264607  10.112   6.817  12.159
54861SOL     OW64608   9.995   6.598  11.837
54861SOL    HW164609  10.064   6.582  11.907
54861SOL    HW264610   9.922   6.655  11.875
54862SOL     OW64611   9.645   7.021  12.233
54862SOL    HW164612   9.567   6.990  12.180
54862SOL    HW264613   9.703   7.079  12.176
54863SOL     OW64614  10.770   7.091  12.511
54863SOL    HW164615  10.794   7.185  12.537
54863SOL    HW264616  10.754   7.037  12.593
54864SOL     OW64617   9.748   5.978  12.671
54864SOL    HW164618   9.830   5.922  12.680
54864SOL    HW264619   9.667   5.920  12.675
54865SOL     OW64620  10.913   6.033  11.909
54865SOL    HW164621  10.839   6.079  11.859
54865SOL    HW264622  10.964   6.101  11.962
54866SOL     OW64623   9.541   7.299  11.655
54866SOL    HW164624   9.575   7.376  11.709
54866SOL    HW264625   9.585   7.299  11.565
54867SOL     OW64626   9.540   7.020  11.710
54867SOL    HW164627   9.514   7.116  11.710
54867SOL    HW264628   9.469   6.966  11.755
54868SOL     OW64629   9.550   6.677  12.058
54868SOL    HW164630   9.564   6.593  12.110
54868SOL    HW264631   9.495   6.741  12.113
54869SOL     OW64632   9.930   7.372  12.611
54869SOL    HW164633   9.838   7.355  12.646
54869SOL    HW264634   9.958   7.464  12.637
54870SOL     OW64635   9.916   6.550  11.295
54870SOL    HW164636   9.923   6.634  11.241
54870SOL    HW264637   9.962   6.563  11.383
54871SOL     OW64638  10.904   5.700  12.652
54871SOL    HW164639  10.886   5.767  12.580
54871SOL    HW264640  10.901   5.746  12.741
54872SOL     OW64641   9.432   6.229  11.735
54872SOL    HW164642   9.387   6.141  11.752
54872SOL    HW264643   9.431   6.283  11.819
54873SOL     OW64644  11.152   7.353  11.531
54873SOL    HW164645  11.206   7.324  11.611
54873SOL    HW264646  11.182   7.443  11.502
54874SOL     OW64647   9.337   7.182  11.289
54874SOL    HW164648   9.318   7.086  11.310
54874SOL    HW264649   9.304   7.240  11.364
54875SOL     OW64650  10.999   6.508  11.784
54875SOL    HW164651  11.094   6.479  11.792
54875SOL    HW264652  10.991   6.573  11.709
54876SOL     OW64653  10.951   6.694  11.604
54876SOL    HW164654  11.037   6.696  11.552
54876SOL    HW264655  10.965   6.741  11.692
54877SOL     OW64656   9.923   6.951  11.898
54877SOL    HW164657   9.874   6.864  11.907
54877SOL    HW264658   9.900   6.994  11.811
54878SOL     OW64659  10.119   5.590  11.674
54878SOL    HW164660  10.159   5.681  11.665
54878SOL    HW264661  10.019   5.598  11.680
54879SOL     OW64662   9.507   6.562  12.436
54879SOL    HW164663   9.596   6.517  12.422
54879SOL    HW264664   9.434   6.497  12.417
54880SOL     OW64665  10.835   6.585  11.362
54880SOL    HW164666  10.772   6.509  11.375
54880SOL    HW264667  10.883   6.603  11.448
54881SOL     OW64668   9.627   5.837  12.973
54881SOL    HW164669   9.698   5.908  12.979
54881SOL    HW264670   9.539   5.876  13.001
54882SOL     OW64671  10.776   7.003  12.125
54882SOL    HW164672  10.717   7.009  12.205
54882SOL    HW264673  10.761   6.915  12.079
54883SOL     OW64674  10.977   7.300  11.744
54883SOL    HW164675  10.936   7.277  11.656
54883SOL    HW264676  10.959   7.226  11.809
54884SOL     OW64677   9.908   6.315  11.442
54884SOL    HW164678   9.932   6.384  11.374
54884SOL    HW264679   9.830   6.348  11.496
54885SOL     OW64680  10.591   5.931  12.116
54885SOL    HW164681  10.505   5.881  12.103
54885SOL    HW264682  10.653   5.877  12.172
54886SOL     OW64683  10.886   7.248  11.479
54886SOL    HW164684  10.975   7.294  11.482
54886SOL    HW264685  10.865   7.224  11.384
54887SOL     OW64686  10.117   6.191  12.637
54887SOL    HW164687  10.070   6.188  12.726
54887SOL    HW264688  10.066   6.136  12.571
54888SOL     OW64689  10.301   5.996  12.414
54888SOL    HW164690  10.224   6.030  12.468
54888SOL    HW264691  10.267   5.945  12.335
54889SOL     OW64692  10.351   6.287  11.601
54889SOL    HW164693  10.377   6.283  11.697
54889SOL    HW264694  10.266   6.236  11.587
54890SOL     OW64695   9.386   6.397  11.961
54890SOL    HW164696   9.485   6.385  11.970
54890SOL    HW264697   9.362   6.492  11.982
54891SOL     OW64698   9.440   7.407  12.743
54891SOL    HW164699   9.430   7.392  12.842
54891SOL    HW264700   9.354   7.443  12.707
54892SOL     OW64701  10.175   5.934  11.367
54892SOL    HW164702  10.234   5.997  11.318
54892SOL    HW264703  10.194   5.840  11.338
54893SOL     OW64704  10.672   6.730  11.717
54893SOL    HW164705  10.755   6.701  11.669
54893SOL    HW264706  10.623   6.797  11.661
54894SOL     OW64707   9.860   5.782  12.057
54894SOL    HW164708   9.855   5.777  12.157
54894SOL    HW264709   9.862   5.878  12.028
54895SOL     OW64710  10.318   7.042  11.649
54895SOL    HW164711  10.272   7.114  11.597
54895SOL    HW264712  10.314   7.062  11.747
54896SOL     OW64713   9.661   7.387  12.025
54896SOL    HW164714   9.711   7.301  12.031
54896SOL    HW264715   9.726   7.464  12.022
54897SOL     OW64716  11.105   6.652  12.045
54897SOL    HW164717  11.043   6.637  11.969
54897SOL    HW264718  11.053   6.663  12.130
54898SOL     OW64719   9.631   6.529  11.414
54898SOL    HW164720   9.713   6.568  11.372
54898SOL    HW264721   9.604   6.447  11.365
54899SOL     OW64722  10.768   6.321  11.900
54899SOL    HW164723  10.763   6.256  11.975
54899SOL    HW264724  10.848   6.380  11.913
54900SOL     OW64725  10.421   7.362  11.409
54900SOL    HW164726  10.361   7.300  11.459
54900SOL    HW264727  10.452   7.318  11.324
54901SOL     OW64728  10.942   6.963  11.253
54901SOL    HW164729  10.910   7.057  11.243
54901SOL    HW264730  10.866   6.900  11.241
54902SOL     OW64731   9.774   7.329  11.495
54902SOL    HW164732   9.807   7.368  11.581
54902SOL    HW264733   9.850   7.322  11.430
54903SOL     OW64734  10.710   5.693  11.598
54903SOL    HW164735  10.686   5.656  11.508
54903SOL    HW264736  10.809   5.709  11.602
54904SOL     OW64737   9.559   7.371  12.413
54904SOL    HW164738   9.616   7.306  12.463
54904SOL    HW264739   9.543   7.338  12.320
54905SOL     OW64740  10.250   7.284  12.076
54905SOL    HW164741  10.330   7.227  12.097
54905SOL    HW264742  10.201   7.244  11.999
54906SOL     OW64743   9.692   6.286  11.652
54906SOL    HW164744   9.737   6.196  11.649
54906SOL    HW264745   9.598   6.275  11.685
54907SOL     OW64746   9.924   5.708  11.289
54907SOL    HW164747  10.022   5.686  11.296
54907SOL    HW264748   9.893   5.691  11.196
54908SOL     OW64749  10.198   7.100  12.367
54908SOL    HW164750  10.175   7.075  12.273
54908SOL    HW264751  10.259   7.031  12.406
54909SOL     OW64752  10.113   6.988  12.096
54909SOL    HW164753  10.203   7.002  12.054
54909SOL    HW264754  10.042   6.990  12.025
54910SOL     OW64755  10.232   6.089  12.071
54910SOL    HW164756  10.207   6.080  11.975
54910SOL    HW264757  10.280   6.007  12.102
54911SOL     OW64758   9.849   5.650  11.684
54911SOL    HW164759   9.768   5.651  11.742
54911SOL    HW264760   9.852   5.733  11.629
54912SOL     OW64761  10.744   6.774  11.213
54912SOL    HW164762  10.776   6.698  11.270
54912SOL    HW264763  10.652   6.801  11.243
54913SOL     OW64764   9.607   5.621  11.343
54913SOL    HW164765   9.656   5.705  11.322
54913SOL    HW264766   9.669   5.556  11.388
54914SOL     OW64767  10.245   5.822  11.652
54914SOL    HW164768  10.197   5.863  11.574
54914SOL    HW264769  10.344   5.820  11.633
54915SOL     OW64770  10.537   7.156  11.965
54915SOL    HW164771  10.558   7.230  11.900
54915SOL    HW264772  10.605   7.156  12.038
54916SOL     OW64773   9.769   6.738  11.913
54916SOL    HW164774   9.698   6.711  11.978
54916SOL    HW264775   9.743   6.710  11.820
54917SOL     OW64776  10.581   7.383  11.763
54917SOL    HW164777  10.625   7.447  11.699
54917SOL    HW264778  10.531   7.435  11.833
54918SOL     OW64779  10.342   6.135  11.188
54918SOL    HW164780  10.301   6.217  11.149
54918SOL    HW264781  10.406   6.161  11.261
54919SOL     OW64782   9.388   6.142  12.558
54919SOL    HW164783   9.480   6.141  12.517
54919SOL    HW264784   9.382   6.216  12.625
54920SOL     OW64785   9.871   5.808  12.319
54920SOL    HW164786   9.909   5.724  12.356
54920SOL    HW264787   9.783   5.827  12.363
54921SOL     OW64788  10.176   6.040  11.814
54921SOL    HW164789  10.144   6.112  11.752
54921SOL    HW264790  10.200   5.959  11.761
54922SOL     OW64791  10.327   5.625  11.925
54922SOL    HW164792  10.255   5.630  11.856
54922SOL    HW264793  10.303   5.556  11.994
54923SOL     OW64794  10.739   6.759  12.039
54923SOL    HW164795  10.684   6.675  12.032
54923SOL    HW264796  10.765   6.788  11.947
54924SOL     OW64797  10.776   6.176  12.164
54924SOL    HW164798  10.746   6.081  12.171
54924SOL    HW264799  10.849   6.192  12.230
54925SOL     OW64800  11.167   6.419  11.549
54925SOL    HW164801  11.209   6.355  11.613
54925SOL    HW264802  11.129   6.368  11.471
54926SOL     OW64803   9.798   6.971  11.346
54926SOL    HW164804   9.711   6.956  11.393
54926SOL    HW264805   9.781   6.997  11.251
54927SOL     OW64806  10.974   6.866  11.829
54927SOL    HW164807  11.073   6.874  11.843
54927SOL    HW264808  10.929   6.950  11.860
54928SOL     OW64809  10.700   6.161  11.250
54928SOL    HW164810  10.646   6.140  11.331
54928SOL    HW264811  10.791   6.120  11.259
54929SOL     OW64812   9.837   5.842  11.500
54929SOL    HW164813   9.864   5.783  11.425
54929SOL    HW264814   9.837   5.937  11.469
54930SOL     OW64815  10.374   6.933  12.512
54930SOL    HW164816  10.294   6.910  12.567
54930SOL    HW264817  10.457   6.907  12.561
54931SOL     OW64818  10.421   6.781  12.272
54931SOL    HW164819  10.381   6.825  12.353
54931SOL    HW264820  10.380   6.818  12.189
54932SOL     OW64821  10.948   6.685  12.251
54932SOL    HW164822  10.953   6.766  12.310
54932SOL    HW264823  10.862   6.687  12.200
54933SOL     OW64824  10.225   5.675  12.574
54933SOL    HW164825  10.250   5.655  12.479
54933SOL    HW264826  10.297   5.731  12.616
54934SOL     OW64827  10.015   6.636  11.540
54934SOL    HW164828  10.001   6.643  11.639
54934SOL    HW264829  10.099   6.585  11.522
54935SOL     OW64830   9.720   6.399  12.423
54935SOL    HW164831   9.806   6.411  12.473
54935SOL    HW264832   9.678   6.312  12.450
54936SOL     OW64833  10.584   5.972  12.434
54936SOL    HW164834  10.605   6.046  12.498
54936SOL    HW264835  10.495   5.989  12.391
54937SOL     OW64836   9.374   7.150  12.503
54937SOL    HW164837   9.328   7.232  12.469
54937SOL    HW264838   9.472   7.169  12.512
54938SOL     OW64839   9.677   6.686  11.673
54938SOL    HW164840   9.670   6.769  11.617
54938SOL    HW264841   9.681   6.606  11.613
54939SOL     OW64842   9.876   6.123  12.037
54939SOL    HW164843   9.888   6.189  11.963
54939SOL    HW264844   9.922   6.157  12.120
54940SOL     OW64845  10.562   6.934  11.560
54940SOL    HW164846  10.612   7.011  11.600
54940SOL    HW264847  10.467   6.936  11.592
54941SOL     OW64848  10.582   7.031  12.314
54941SOL    HW164849  10.629   7.044  12.401
54941SOL    HW264850  10.516   6.957  12.323
54942SOL     OW64851  10.892   6.225  11.644
54942SOL    HW164852  10.861   6.286  11.717
54942SOL    HW264853  10.942   6.277  11.575
54943SOL     OW64854   9.664   7.096  12.501
54943SOL    HW164855   9.643   7.052  12.414
54943SOL    HW264856   9.761   7.122  12.504
54944SOL     OW64857   9.712   6.337  12.770
54944SOL    HW164858   9.780   6.392  12.723
54944SOL    HW264859   9.752   6.249  12.797
54945SOL     OW64860  10.897   6.365  12.842
54945SOL    HW164861  10.805   6.403  12.837
54945SOL    HW264862  10.957   6.412  12.777
54946SOL     OW64863   9.883   6.456  12.201
54946SOL    HW164864   9.927   6.545  12.192
54946SOL    HW264865   9.820   6.456  12.278
54947SOL     OW64866  10.670   6.448  12.217
54947SOL    HW164867  10.595   6.448  12.151
54947SOL    HW264868  10.707   6.356  12.226
54948SOL     OW64869  10.519   6.111  11.447
54948SOL    HW164870  10.532   6.027  11.501
54948SOL    HW264871  10.490   6.185  11.507
54949SOL     OW64872   9.617   5.799  12.403
54949SOL    HW164873   9.594   5.836  12.493
54949SOL    HW264874   9.587   5.704  12.397
54950SOL     OW64875   9.347   6.896  12.454
54950SOL    HW164876   9.400   6.847  12.522
54950SOL    HW264877   9.369   6.994  12.459
54951SOL     OW64878  10.042   6.220  12.236
54951SOL    HW164879  10.101   6.194  12.160
54951SOL    HW264880  10.014   6.316  12.225
54952SOL     OW64881   9.617   5.649  11.790
54952SOL    HW164882   9.606   5.743  11.823
54952SOL    HW264883   9.612   5.586  11.867
54953SOL     OW64884  10.932   5.953  11.546
54953SOL    HW164885  10.934   5.877  11.610
54953SOL    HW264886  10.884   6.030  11.586
54954SOL     OW64887  10.333   6.352  12.138
54954SOL    HW164888  10.348   6.373  12.234
54954SOL    HW264889  10.303   6.257  12.129
54955SOL     OW64890  10.290   7.159  12.872
54955SOL    HW164891  10.270   7.203  12.784
54955SOL    HW264892  10.329   7.068  12.856
54956SOL     OW64893  10.850   5.860  11.297
54956SOL    HW164894  10.789   5.785  11.320
54956SOL    HW264895  10.872   5.912  11.380
54957SOL     OW64896  10.613   6.424  11.214
54957SOL    HW164897  10.647   6.331  11.229
54957SOL    HW264898  10.631   6.451  11.119
54958SOL     OW64899  10.378   6.919  12.021
54958SOL    HW164900  10.385   6.835  11.966
54958SOL    HW264901  10.440   6.988  11.985
54959SOL     OW64902   9.629   6.396  12.121
54959SOL    HW164903   9.722   6.432  12.126
54959SOL    HW264904   9.623   6.311  12.173
54960SOL     OW64905   9.649   6.095  12.178
54960SOL    HW164906   9.597   6.012  12.161
54960SOL    HW264907   9.726   6.100  12.114
54961SOL     OW64908  10.448   5.966  12.850
54961SOL    HW164909  10.403   6.029  12.914
54961SOL    HW264910  10.541   5.997  12.833
54962SOL     OW64911  10.470   5.793  12.649
54962SOL    HW164912  10.470   5.857  12.726
54962SOL    HW264913  10.498   5.841  12.566
54963SOL     OW64914   9.318   6.912  11.372
54963SOL    HW164915   9.225   6.933  11.341
54963SOL    HW264916   9.328   6.813  11.385
54964SOL     OW64917   9.398   7.387  12.099
54964SOL    HW164918   9.356   7.301  12.072
54964SOL    HW264919   9.492   7.390  12.065
54965SOL     OW64920   9.814   7.154  12.082
54965SOL    HW164921   9.880   7.228  12.091
54965SOL    HW264922   9.858   7.075  12.040
54966SOL     OW64923  10.312   6.382  12.410
54966SOL    HW164924  10.353   6.350  12.496
54966SOL    HW264925  10.216   6.355  12.407
54967SOL     OW64926   9.350   6.130  12.286
54967SOL    HW164927   9.435   6.097  12.245
54967SOL    HW264928   9.363   6.145  12.384
54968SOL     OW64929  10.125   6.158  11.497
54968SOL    HW164930  10.132   6.069  11.451
54968SOL    HW264931  10.031   6.192  11.489
54969SOL     OW64932  10.967   6.190  12.378
54969SOL    HW164933  10.929   6.121  12.440
54969SOL    HW264934  11.049   6.154  12.334
54970SOL     OW64935   9.981   6.050  12.441
54970SOL    HW164936   9.947   5.961  12.411
54970SOL    HW264937  10.007   6.104  12.361
54971SOL     OW64938  10.240   7.264  12.637
54971SOL    HW164939  10.216   7.246  12.542
54971SOL    HW264940  10.270   7.358  12.647
54972SOL     OW64941   9.783   6.086  11.363
54972SOL    HW164942   9.844   6.166  11.367
54972SOL    HW264943   9.688   6.117  11.370
54973SOL     OW64944   9.469   6.723  12.638
54973SOL    HW164945   9.491   6.662  12.714
54973SOL    HW264946   9.479   6.674  12.552
54974SOL     OW64947  10.657   6.645  12.406
54974SOL    HW164948  10.681   6.582  12.332
54974SOL    HW264949  10.567   6.685  12.388
54975SOL     OW64950  10.612   6.441  11.481
54975SOL    HW164951  10.526   6.410  11.523
54975SOL    HW264952  10.608   6.427  11.382
54976SOL     OW64953  11.069   7.333  12.326
54976SOL    HW164954  11.130   7.363  12.253
54976SOL    HW264955  11.031   7.244  12.304
54977SOL     OW64956  10.562   7.317  12.300
54977SOL    HW164957  10.646   7.322  12.246
54977SOL    HW264958  10.539   7.221  12.318
54978SOL     OW64959   9.393   6.844  12.194
54978SOL    HW164960   9.388   6.843  12.294
54978SOL    HW264961   9.310   6.803  12.156
54979SOL     OW64962  11.036   5.721  11.695
54979SOL    HW164963  11.109   5.704  11.628
54979SOL    HW264964  11.005   5.634  11.733
54980SOL     OW64965  10.698   7.159  11.649
54980SOL    HW164966  10.765   7.171  11.575
54980SOL    HW264967  10.658   7.248  11.672
54981SOL     OW64968  10.590   6.513  11.844
54981SOL    HW164969  10.650   6.432  11.846
54981SOL    HW264970  10.630   6.582  11.784
54982SOL     OW64971   9.982   7.202  11.326
54982SOL    HW164972   9.991   7.212  11.227
54982SOL    HW264973   9.942   7.113  11.347
54983SOL     OW64974  10.960   7.306  12.566
54983SOL    HW164975  11.013   7.316  12.482
54983SOL    HW264976  10.933   7.396  12.600
54984SOL     OW64977  11.151   5.761  12.135
54984SOL    HW164978  11.190   5.676  12.099
54984SOL    HW264979  11.053   5.763  12.116
54985SOL     OW64980   9.573   5.912  11.892
54985SOL    HW164981   9.494   5.963  11.858
54985SOL    HW264982   9.564   5.897  11.990
54986SOL     OW64983  10.504   7.198  11.203
54986SOL    HW164984  10.510   7.105  11.240
54986SOL    HW264985  10.445   7.198  11.123
54987SOL     OW64986  10.132   6.588  12.544
54987SOL    HW164987  10.172   6.587  12.452
54987SOL    HW264988  10.142   6.680  12.584
54988SOL     OW64989  10.226   6.496  11.463
54988SOL    HW164990  10.289   6.534  11.395
54988SOL    HW264991  10.266   6.413  11.502
54989SOL     OW64992  10.814   7.193  11.216
54989SOL    HW164993  10.722   7.230  11.223
54989SOL    HW264994  10.852   7.213  11.126
54990SOL     OW64995   9.682   6.874  12.662
54990SOL    HW164996   9.669   6.967  12.628
54990SOL    HW264997   9.598   6.822  12.649
54991SOL     OW64998  10.924   6.878  12.461
54991SOL    HW164999  10.984   6.881  12.541
54991SOL    HW265000  10.849   6.942  12.474
54992SOL     OW65001  10.349   6.684  11.868
54992SOL    HW165002  10.279   6.637  11.922
54992SOL    HW265003  10.408   6.616  11.825
54993SOL     OW65004  10.324   5.822  12.143
54993SOL    HW165005  10.316   5.786  12.050
54993SOL    HW265006  10.322   5.746  12.208
54994SOL     OW65007   9.900   7.073  11.663
54994SOL    HW165008   9.942   7.015  11.593
54994SOL    HW265009   9.856   7.152  11.619
54995SOL     OW65010  11.019   5.971  12.553
54995SOL    HW165011  11.092   6.040  12.557
54995SOL    HW265012  11.047   5.896  12.494
54996SOL     OW65013   9.565   6.934  11.462
54996SOL    HW165014   9.469   6.935  11.435
54996SOL    HW265015   9.577   6.987  11.546
54997SOL     OW65016   9.385   5.931  11.205
54997SOL    HW165017   9.293   5.903  11.176
54997SOL    HW265018   9.416   6.008  11.149
54998SOL     OW65019  10.750   6.442  12.570
54998SOL    HW165020  10.693   6.494  12.507
54998SOL    HW265021  10.846   6.454  12.546
54999SOL     OW65022   9.382   5.752  11.490
54999SOL    HW165023   9.365   5.835  11.436
54999SOL    HW265024   9.472   5.715  11.468
55000SOL     OW65025  10.493   6.921  11.291
55000SOL    HW165026  10.394   6.910  11.293
55000SOL    HW265027  10.527   6.936  11.384
55001SOL     OW65028   9.923   6.428  12.603
55001SOL    HW165029   9.979   6.509  12.586
55001SOL    HW265030   9.982   6.348  12.606
55002SOL     OW65031  10.803   7.353  12.131
55002SOL    HW165032  10.836   7.417  12.062
55002SOL    HW265033  10.869   7.347  12.206
55003SOL     OW65034   9.700   7.327  12.732
55003SOL    HW165035   9.609   7.368  12.730
55003SOL    HW265036   9.693   7.233  12.764
55004SOL     OW65037  10.984   6.469  12.426
55004SOL    HW165038  10.957   6.380  12.389
55004SOL    HW265039  10.985   6.537  12.353
55005SOL     OW65040  10.535   5.911  11.621
55005SOL    HW165041  10.600   5.837  11.610
55005SOL    HW265042  10.555   5.961  11.705
55006SOL     OW65043   9.904   6.331  11.824
55006SOL    HW165044   9.954   6.416  11.805
55006SOL    HW265045   9.816   6.333  11.776
55007SOL     OW65046  11.040   6.520  12.689
55007SOL    HW165047  11.078   6.611  12.704
55007SOL    HW265048  11.032   6.503  12.590
55008SOL     OW65049  10.169   6.960  11.188
55008SOL    HW165050  10.123   6.975  11.276
55008SOL    HW265051  10.213   7.045  11.158
55009SOL     OW65052   9.971   7.376  12.125
55009SOL    HW165053   9.925   7.464  12.112
55009SOL    HW265054  10.070   7.388  12.118
55010SOL     OW65055  10.169   6.542  12.033
55010SOL    HW165056  10.223   6.473  12.081
55010SOL    HW265057  10.137   6.611  12.099
55011SOL     OW65058  10.393   6.570  11.259
55011SOL    HW165059  10.370   6.623  11.177
55011SOL    HW265060  10.474   6.514  11.240
55012SOL     OW65061  11.171   7.155  12.023
55012SOL    HW165062  11.100   7.143  11.953
55012SOL    HW265063  11.172   7.076  12.083
55013SOL     OW65064   9.389   6.826  11.825
55013SOL    HW165065   9.388   6.779  11.913
55013SOL    HW265066   9.471   6.798  11.774
55014SOL     OW65067  11.134   5.778  12.399
55014SOL    HW165068  11.130   5.688  12.443
55014SOL    HW265069  11.137   5.767  12.300
55015SOL     OW65070   9.738   6.010  11.692
55015SOL    HW165071   9.768   5.938  11.630
55015SOL    HW265072   9.699   5.970  11.775
55016SOL     OW65073  11.015   7.073  12.276
55016SOL    HW165074  10.922   7.048  12.249
55016SOL    HW265075  11.041   7.023  12.358
55017SOL     OW65076   9.627   6.133  12.452
55017SOL    HW165077   9.665   6.074  12.524
55017SOL    HW265078   9.667   6.107  12.364
55018SOL     OW65079  10.122   7.172  11.859
55018SOL    HW165080  10.154   7.182  11.765
55018SOL    HW265081  10.043   7.110  11.861
55019SOL     OW65082  10.734   5.800  12.284
55019SOL    HW165083  10.786   5.735  12.339
55019SOL    HW265084  10.685   5.863  12.345
55020SOL     OW65085  10.080   6.916  11.473
55020SOL    HW165086  10.034   6.829  11.490
55020SOL    HW265087  10.171   6.913  11.514
55021SOL     OW65088   9.928   7.153  12.456
55021SOL    HW165089   9.923   7.235  12.513
55021SOL    HW265090  10.017   7.150  12.411
55022SOL     OW65091  10.662   5.638  11.340
55022SOL    HW165092  10.697   5.597  11.256
55022SOL    HW265093  10.572   5.600  11.360
55023SOL     OW65094  10.610   6.039  11.863
55023SOL    HW165095  10.551   6.119  11.867
55023SOL    HW265096  10.625   6.004  11.956
55024SOL     OW65097  10.903   5.807  12.054
55024SOL    HW165098  10.819   5.806  12.108
55024SOL    HW265099  10.905   5.890  11.998
55025SOL     OW65100   9.349   6.663  11.472
55025SOL    HW165101   9.448   6.652  11.463
55025SOL    HW265102   9.309   6.577  11.504
55026SOL     OW65103  10.185   7.232  11.509
55026SOL    HW165104  10.108   7.197  11.455
55026SOL    HW265105  10.153   7.303  11.571
55027SOL     OW65106   9.540   8.076   0.113
55027SOL    HW165107   9.447   8.074   0.150
55027SOL    HW265108   9.541   8.037   0.021
55028SOL     OW65109   9.535   7.723   0.996
55028SOL    HW165110   9.570   7.706   1.088
55028SOL    HW265111   9.447   7.678   0.984
55029SOL     OW65112   9.329   7.816   0.647
55029SOL    HW165113   9.247   7.859   0.686
55029SOL    HW265114   9.301   7.743   0.584
55030SOL     OW65115   9.879   8.723   1.165
55030SOL    HW165116   9.786   8.716   1.128
55030SOL    HW265117   9.890   8.812   1.209
55031SOL     OW65118  10.865   8.959   0.703
55031SOL    HW165119  10.808   8.943   0.784
55031SOL    HW265120  10.806   8.969   0.623
55032SOL     OW65121  10.445   8.151   0.717
55032SOL    HW165122  10.502   8.229   0.692
55032SOL    HW265123  10.385   8.177   0.793
55033SOL     OW65124  11.065   8.055   0.231
55033SOL    HW165125  11.053   8.042   0.132
55033SOL    HW265126  11.035   7.974   0.280
55034SOL     OW65127  10.078   8.592   1.023
55034SOL    HW165128  10.000   8.609   1.083
55034SOL    HW265129  10.112   8.679   0.987
55035SOL     OW65130  10.160   8.246   1.823
55035SOL    HW165131  10.156   8.322   1.888
55035SOL    HW265132  10.182   8.282   1.732
55036SOL     OW65133   9.995   8.460   0.665
55036SOL    HW165134  10.064   8.444   0.735
55036SOL    HW265135   9.922   8.517   0.703
55037SOL     OW65136   9.996   8.609   1.803
55037SOL    HW165137  10.056   8.688   1.817
55037SOL    HW265138   9.910   8.640   1.762
55038SOL     OW65139   9.645   8.883   1.061
55038SOL    HW165140   9.567   8.852   1.008
55038SOL    HW265141   9.703   8.941   1.004
55039SOL     OW65142  10.770   8.953   1.339
55039SOL    HW165143  10.794   9.047   1.365
55039SOL    HW265144  10.754   8.899   1.421
55040SOL     OW65145   9.748   7.840   1.499
55040SOL    HW165146   9.830   7.784   1.508
55040SOL    HW265147   9.667   7.782   1.503
55041SOL     OW65148  10.913   7.895   0.737
55041SOL    HW165149  10.839   7.941   0.687
55041SOL    HW265150  10.964   7.963   0.790
55042SOL     OW65151  10.437   8.789   1.690
55042SOL    HW165152  10.484   8.789   1.778
55042SOL    HW265153  10.389   8.702   1.679
55043SOL     OW65154   9.540   8.882   0.538
55043SOL    HW165155   9.514   8.978   0.538
55043SOL    HW265156   9.469   8.828   0.583
55044SOL     OW65157   9.550   8.539   0.886
55044SOL    HW165158   9.564   8.455   0.938
55044SOL    HW265159   9.495   8.603   0.941
55045SOL     OW65160   9.930   9.234   1.439
55045SOL    HW165161   9.838   9.217   1.474
55045SOL    HW265162   9.958   9.326   1.465
55046SOL     OW65163   9.916   8.412   0.123
55046SOL    HW165164   9.923   8.496   0.069
55046SOL    HW265165   9.962   8.425   0.211
55047SOL     OW65166  10.904   7.562   1.480
55047SOL    HW165167  10.886   7.629   1.408
55047SOL    HW265168  10.901   7.608   1.569
55048SOL     OW65169   9.432   8.091   0.563
55048SOL    HW165170   9.387   8.003   0.580
55048SOL    HW265171   9.431   8.145   0.647
55049SOL     OW65172  11.152   9.215   0.359
55049SOL    HW165173  11.206   9.186   0.439
55049SOL    HW265174  11.182   9.305   0.330
55050SOL     OW65175   9.337   9.044   0.117
55050SOL    HW165176   9.318   8.948   0.138
55050SOL    HW265177   9.304   9.102   0.192
55051SOL     OW65178  10.999   8.370   0.612
55051SOL    HW165179  11.094   8.341   0.620
55051SOL    HW265180  10.991   8.435   0.537
55052SOL     OW65181  10.951   8.556   0.432
55052SOL    HW165182  11.037   8.558   0.380
55052SOL    HW265183  10.965   8.603   0.520
55053SOL     OW65184   9.423   8.185   1.597
55053SOL    HW165185   9.511   8.172   1.642
55053SOL    HW265186   9.410   8.282   1.575
55054SOL     OW65187   9.923   8.813   0.726
55054SOL    HW165188   9.874   8.726   0.735
55054SOL    HW265189   9.900   8.856   0.639
55055SOL     OW65190  10.603   8.676   1.423
55055SOL    HW165191  10.640   8.603   1.365
55055SOL    HW265192  10.655   8.681   1.508
55056SOL     OW65193  10.119   7.452   0.502
55056SOL    HW165194  10.159   7.543   0.493
55056SOL    HW265195  10.019   7.460   0.508
55057SOL     OW65196   9.507   8.424   1.264
55057SOL    HW165197   9.596   8.379   1.250
55057SOL    HW265198   9.434   8.359   1.245
55058SOL     OW65199  10.835   8.447   0.190
55058SOL    HW165200  10.772   8.371   0.203
55058SOL    HW265201  10.883   8.465   0.276
55059SOL     OW65202  10.497   9.240   1.616
55059SOL    HW165203  10.521   9.300   1.540
55059SOL    HW265204  10.504   9.145   1.586
55060SOL     OW65205   9.627   7.699   1.801
55060SOL    HW165206   9.698   7.770   1.807
55060SOL    HW265207   9.539   7.738   1.829
55061SOL     OW65208  10.776   8.865   0.953
55061SOL    HW165209  10.717   8.871   1.033
55061SOL    HW265210  10.761   8.777   0.907
55062SOL     OW65211  10.977   9.162   0.572
55062SOL    HW165212  10.936   9.139   0.484
55062SOL    HW265213  10.959   9.088   0.637
55063SOL     OW65214   9.908   8.177   0.270
55063SOL    HW165215   9.932   8.246   0.202
55063SOL    HW265216   9.830   8.210   0.324
55064SOL     OW65217  10.591   7.793   0.944
55064SOL    HW165218  10.505   7.743   0.931
55064SOL    HW265219  10.653   7.739   1.000
55065SOL     OW65220  10.886   9.110   0.307
55065SOL    HW165221  10.975   9.156   0.310
55065SOL    HW265222  10.865   9.086   0.212
55066SOL     OW65223  10.117   8.053   1.465
55066SOL    HW165224  10.070   8.050   1.554
55066SOL    HW265225  10.066   7.998   1.399
55067SOL     OW65226  10.704   7.917   1.674
55067SOL    HW165227  10.684   7.960   1.762
55067SOL    HW265228  10.782   7.855   1.683
55068SOL     OW65229  10.283   8.338   1.572
55068SOL    HW165230  10.329   8.254   1.543
55068SOL    HW265231  10.227   8.372   1.497
55069SOL     OW65232  10.301   7.858   1.242
55069SOL    HW165233  10.224   7.892   1.296
55069SOL    HW265234  10.267   7.807   1.163
55070SOL     OW65235  10.351   8.149   0.429
55070SOL    HW165236  10.377   8.145   0.525
55070SOL    HW265237  10.266   8.098   0.415
55071SOL     OW65238   9.386   8.259   0.789
55071SOL    HW165239   9.485   8.247   0.798
55071SOL    HW265240   9.362   8.354   0.810
55072SOL     OW65241   9.440   9.269   1.571
55072SOL    HW165242   9.430   9.254   1.670
55072SOL    HW265243   9.354   9.305   1.535
55073SOL     OW65244  10.175   7.796   0.195
55073SOL    HW165245  10.234   7.859   0.146
55073SOL    HW265246  10.194   7.702   0.166
55074SOL     OW65247  11.029   8.033   1.831
55074SOL    HW165248  11.003   8.122   1.795
55074SOL    HW265249  11.027   7.965   1.758
55075SOL     OW65250  10.672   8.592   0.545
55075SOL    HW165251  10.755   8.563   0.497
55075SOL    HW265252  10.623   8.659   0.489
55076SOL     OW65253   9.860   7.644   0.885
55076SOL    HW165254   9.855   7.639   0.985
55076SOL    HW265255   9.862   7.740   0.856
55077SOL     OW65256  10.318   8.904   0.477
55077SOL    HW165257  10.272   8.976   0.425
55077SOL    HW265258  10.314   8.924   0.575
55078SOL     OW65259   9.661   9.249   0.853
55078SOL    HW165260   9.711   9.163   0.859
55078SOL    HW265261   9.726   9.326   0.850
55079SOL     OW65262  11.105   8.514   0.873
55079SOL    HW165263  11.043   8.499   0.797
55079SOL    HW265264  11.053   8.525   0.958
55080SOL     OW65265  10.537   8.998   1.506
55080SOL    HW165266  10.543   8.921   1.570
55080SOL    HW265267  10.485   8.972   1.426
55081SOL     OW65268   9.631   8.391   0.242
55081SOL    HW165269   9.713   8.430   0.200
55081SOL    HW265270   9.604   8.309   0.193
55082SOL     OW65271  10.768   8.183   0.728
55082SOL    HW165272  10.763   8.118   0.803
55082SOL    HW265273  10.848   8.242   0.741
55083SOL     OW65274   9.771   8.714   1.727
55083SOL    HW165275   9.721   8.715   1.641
55083SOL    HW265276   9.708   8.696   1.803
55084SOL     OW65277  10.421   9.224   0.237
55084SOL    HW165278  10.361   9.162   0.287
55084SOL    HW265279  10.452   9.180   0.152
55085SOL     OW65280   9.512   7.733   1.498
55085SOL    HW165281   9.432   7.793   1.485
55085SOL    HW265282   9.502   7.684   1.584
55086SOL     OW65283  10.942   8.825   0.081
55086SOL    HW165284  10.910   8.919   0.071
55086SOL    HW265285  10.866   8.762   0.069
55087SOL     OW65286   9.774   9.191   0.323
55087SOL    HW165287   9.807   9.230   0.409
55087SOL    HW265288   9.850   9.184   0.258
55088SOL     OW65289  10.710   7.555   0.426
55088SOL    HW165290  10.686   7.518   0.336
55088SOL    HW265291  10.809   7.571   0.430
55089SOL     OW65292   9.559   9.233   1.241
55089SOL    HW165293   9.616   9.168   1.291
55089SOL    HW265294   9.543   9.200   1.148
55090SOL     OW65295  10.250   9.146   0.904
55090SOL    HW165296  10.330   9.089   0.925
55090SOL    HW265297  10.201   9.106   0.827
55091SOL     OW65298   9.692   8.148   0.480
55091SOL    HW165299   9.737   8.058   0.477
55091SOL    HW265300   9.598   8.137   0.513
55092SOL     OW65301  10.857   7.670   1.729
55092SOL    HW165302  10.852   7.707   1.821
55092SOL    HW265303  10.785   7.601   1.717
55093SOL     OW65304   9.924   7.570   0.117
55093SOL    HW165305  10.022   7.548   0.124
55093SOL    HW265306   9.893   7.553   0.024
55094SOL     OW65307  10.091   7.712   1.749
55094SOL    HW165308  10.158   7.651   1.792
55094SOL    HW265309  10.018   7.731   1.814
55095SOL     OW65310  10.198   8.962   1.195
55095SOL    HW165311  10.175   8.937   1.101
55095SOL    HW265312  10.259   8.893   1.234
55096SOL     OW65313  10.661   8.038   1.433
55096SOL    HW165314  10.689   7.995   1.518
55096SOL    HW265315  10.686   8.134   1.434
55097SOL     OW65316  10.113   8.850   0.924
55097SOL    HW165317  10.203   8.864   0.882
55097SOL    HW265318  10.042   8.852   0.853
55098SOL     OW65319  10.232   7.951   0.899
55098SOL    HW165320  10.207   7.942   0.803
55098SOL    HW265321  10.280   7.869   0.930
55099SOL     OW65322   9.849   7.512   0.512
55099SOL    HW165323   9.768   7.513   0.570
55099SOL    HW265324   9.852   7.595   0.457
55100SOL     OW65325  10.744   8.636   0.041
55100SOL    HW165326  10.776   8.560   0.098
55100SOL    HW265327  10.652   8.663   0.071
55101SOL     OW65328   9.607   7.483   0.171
55101SOL    HW165329   9.656   7.567   0.150
55101SOL    HW265330   9.669   7.418   0.216
55102SOL     OW65331  10.245   7.684   0.480
55102SOL    HW165332  10.197   7.725   0.402
55102SOL    HW265333  10.344   7.682   0.461
55103SOL     OW65334  10.386   8.131   1.464
55103SOL    HW165335  10.306   8.070   1.467
55103SOL    HW265336  10.467   8.078   1.440
55104SOL     OW65337  10.537   9.018   0.793
55104SOL    HW165338  10.558   9.092   0.728
55104SOL    HW265339  10.605   9.018   0.866
55105SOL     OW65340   9.769   8.600   0.741
55105SOL    HW165341   9.698   8.573   0.806
55105SOL    HW265342   9.743   8.572   0.648
55106SOL     OW65343  10.581   9.245   0.591
55106SOL    HW165344  10.625   9.309   0.527
55106SOL    HW265345  10.531   9.297   0.661
55107SOL     OW65346  10.342   7.997   0.016
55107SOL    HW165347  10.301   8.079  -0.023
55107SOL    HW265348  10.406   8.023   0.089
55108SOL     OW65349   9.388   8.004   1.386
55108SOL    HW165350   9.480   8.003   1.345
55108SOL    HW265351   9.382   8.078   1.453
55109SOL     OW65352   9.871   7.670   1.147
55109SOL    HW165353   9.909   7.586   1.184
55109SOL    HW265354   9.783   7.689   1.191
55110SOL     OW65355  10.176   7.902   0.642
55110SOL    HW165356  10.144   7.974   0.580
55110SOL    HW265357  10.200   7.821   0.589
55111SOL     OW65358  10.327   7.487   0.753
55111SOL    HW165359  10.255   7.492   0.684
55111SOL    HW265360  10.303   7.418   0.822
55112SOL     OW65361  10.739   8.621   0.867
55112SOL    HW165362  10.684   8.537   0.860
55112SOL    HW265363  10.765   8.650   0.775
55113SOL     OW65364  10.776   8.038   0.992
55113SOL    HW165365  10.746   7.943   0.999
55113SOL    HW265366  10.849   8.054   1.058
55114SOL     OW65367  11.167   8.281   0.377
55114SOL    HW165368  11.209   8.217   0.441
55114SOL    HW265369  11.129   8.230   0.299
55115SOL     OW65370   9.798   8.833   0.174
55115SOL    HW165371   9.711   8.818   0.221
55115SOL    HW265372   9.781   8.859   0.079
55116SOL     OW65373  10.974   8.728   0.657
55116SOL    HW165374  11.073   8.736   0.671
55116SOL    HW265375  10.929   8.812   0.688
55117SOL     OW65376  10.700   8.023   0.078
55117SOL    HW165377  10.646   8.002   0.159
55117SOL    HW265378  10.791   7.982   0.087
55118SOL     OW65379   9.837   7.704   0.328
55118SOL    HW165380   9.864   7.645   0.253
55118SOL    HW265381   9.837   7.799   0.297
55119SOL     OW65382  11.064   8.671   1.588
55119SOL    HW165383  11.155   8.632   1.575
55119SOL    HW265384  11.072   8.767   1.612
55120SOL     OW65385  10.374   8.795   1.340
55120SOL    HW165386  10.294   8.772   1.395
55120SOL    HW265387  10.457   8.769   1.389
55121SOL     OW65388  10.902   9.077   1.625
55121SOL    HW165389  10.929   9.111   1.535
55121SOL    HW265390  10.981   9.039   1.671
55122SOL     OW65391  10.421   8.643   1.100
55122SOL    HW165392  10.381   8.687   1.181
55122SOL    HW265393  10.380   8.680   1.017
55123SOL     OW65394  10.948   8.547   1.079
55123SOL    HW165395  10.953   8.628   1.138
55123SOL    HW265396  10.862   8.549   1.028
55124SOL     OW65397  10.225   7.537   1.402
55124SOL    HW165398  10.250   7.517   1.307
55124SOL    HW265399  10.297   7.593   1.444
55125SOL     OW65400  10.290   8.564   1.719
55125SOL    HW165401  10.191   8.570   1.729
55125SOL    HW265402  10.313   8.484   1.663
55126SOL     OW65403  10.015   8.498   0.368
55126SOL    HW165404  10.001   8.505   0.467
55126SOL    HW265405  10.099   8.447   0.350
55127SOL     OW65406   9.720   8.261   1.251
55127SOL    HW165407   9.806   8.273   1.301
55127SOL    HW265408   9.678   8.174   1.278
55128SOL     OW65409  10.584   7.834   1.262
55128SOL    HW165410  10.605   7.908   1.326
55128SOL    HW265411  10.495   7.851   1.219
55129SOL     OW65412   9.374   9.012   1.331
55129SOL    HW165413   9.328   9.094   1.297
55129SOL    HW265414   9.472   9.031   1.340
55130SOL     OW65415   9.677   8.548   0.501
55130SOL    HW165416   9.670   8.631   0.445
55130SOL    HW265417   9.681   8.468   0.441
55131SOL     OW65418   9.876   7.985   0.865
55131SOL    HW165419   9.888   8.051   0.791
55131SOL    HW265420   9.922   8.019   0.948
55132SOL     OW65421  10.562   8.796   0.388
55132SOL    HW165422  10.612   8.873   0.428
55132SOL    HW265423  10.467   8.798   0.420
55133SOL     OW65424  10.582   8.893   1.142
55133SOL    HW165425  10.629   8.906   1.229
55133SOL    HW265426  10.516   8.819   1.151
55134SOL     OW65427  10.892   8.087   0.472
55134SOL    HW165428  10.861   8.148   0.545
55134SOL    HW265429  10.942   8.139   0.403
55135SOL     OW65430   9.664   8.958   1.329
55135SOL    HW165431   9.643   8.914   1.242
55135SOL    HW265432   9.761   8.984   1.332
55136SOL     OW65433   9.712   8.199   1.598
55136SOL    HW165434   9.780   8.254   1.551
55136SOL    HW265435   9.752   8.111   1.625
55137SOL     OW65436  10.897   8.227   1.670
55137SOL    HW165437  10.805   8.265   1.665
55137SOL    HW265438  10.957   8.274   1.605
55138SOL     OW65439  10.323   7.553   1.770
55138SOL    HW165440  10.329   7.638   1.718
55138SOL    HW265441  10.355   7.477   1.713
55139SOL     OW65442   9.814   7.498   1.740
55139SOL    HW165443   9.772   7.441   1.670
55139SOL    HW265444   9.748   7.567   1.772
55140SOL     OW65445   9.883   8.318   1.029
55140SOL    HW165446   9.927   8.407   1.020
55140SOL    HW265447   9.820   8.318   1.106
55141SOL     OW65448  10.670   8.310   1.045
55141SOL    HW165449  10.595   8.310   0.979
55141SOL    HW265450  10.707   8.218   1.054
55142SOL     OW65451  10.519   7.973   0.275
55142SOL    HW165452  10.532   7.889   0.329
55142SOL    HW265453  10.490   8.047   0.335
55143SOL     OW65454   9.617   7.661   1.231
55143SOL    HW165455   9.594   7.698   1.321
55143SOL    HW265456   9.587   7.566   1.225
55144SOL     OW65457   9.347   8.758   1.282
55144SOL    HW165458   9.400   8.709   1.350
55144SOL    HW265459   9.369   8.856   1.287
55145SOL     OW65460  10.042   8.082   1.064
55145SOL    HW165461  10.101   8.056   0.988
55145SOL    HW265462  10.014   8.178   1.053
55146SOL     OW65463  11.038   8.383   1.854
55146SOL    HW165464  10.992   8.376   1.765
55146SOL    HW265465  10.976   8.427   1.920
55147SOL     OW65466   9.617   7.511   0.618
55147SOL    HW165467   9.606   7.605   0.651
55147SOL    HW265468   9.612   7.448   0.695
55148SOL     OW65469  10.932   7.815   0.374
55148SOL    HW165470  10.934   7.739   0.438
55148SOL    HW265471  10.884   7.892   0.414
55149SOL     OW65472  10.333   8.214   0.966
55149SOL    HW165473  10.348   8.235   1.062
55149SOL    HW265474  10.303   8.119   0.957
55150SOL     OW65475  10.290   9.021   1.700
55150SOL    HW165476  10.270   9.065   1.612
55150SOL    HW265477  10.329   8.930   1.684
55151SOL     OW65478  11.169   8.966   1.605
55151SOL    HW165479  11.183   8.993   1.510
55151SOL    HW265480  11.252   8.988   1.658
55152SOL     OW65481   9.660   8.346   1.804
55152SOL    HW165482   9.736   8.390   1.852
55152SOL    HW265483   9.695   8.299   1.722
55153SOL     OW65484  10.850   7.722   0.125
55153SOL    HW165485  10.789   7.647   0.148
55153SOL    HW265486  10.872   7.774   0.208
55154SOL     OW65487  10.613   8.286   0.042
55154SOL    HW165488  10.647   8.193   0.057
55154SOL    HW265489  10.631   8.313  -0.053
55155SOL     OW65490  10.378   8.781   0.849
55155SOL    HW165491  10.385   8.697   0.794
55155SOL    HW265492  10.440   8.850   0.813
55156SOL     OW65493   9.629   8.258   0.949
55156SOL    HW165494   9.722   8.294   0.954
55156SOL    HW265495   9.623   8.173   1.001
55157SOL     OW65496   9.649   7.957   1.006
55157SOL    HW165497   9.597   7.874   0.989
55157SOL    HW265498   9.726   7.962   0.942
55158SOL     OW65499  10.448   7.828   1.678
55158SOL    HW165500  10.403   7.891   1.742
55158SOL    HW265501  10.541   7.859   1.661
55159SOL     OW65502  10.470   7.655   1.477
55159SOL    HW165503  10.470   7.719   1.554
55159SOL    HW265504  10.498   7.703   1.394
55160SOL     OW65505   9.318   8.774   0.200
55160SOL    HW165506   9.225   8.795   0.169
55160SOL    HW265507   9.328   8.675   0.213
55161SOL     OW65508   9.398   9.249   0.927
55161SOL    HW165509   9.356   9.163   0.900
55161SOL    HW265510   9.492   9.252   0.893
55162SOL     OW65511   9.814   9.016   0.910
55162SOL    HW165512   9.880   9.090   0.919
55162SOL    HW265513   9.858   8.937   0.868
55163SOL     OW65514  10.312   8.244   1.238
55163SOL    HW165515  10.353   8.212   1.324
55163SOL    HW265516  10.216   8.217   1.235
55164SOL     OW65517   9.350   7.992   1.114
55164SOL    HW165518   9.435   7.959   1.073
55164SOL    HW265519   9.363   8.007   1.212
55165SOL     OW65520   9.499   7.968   1.722
55165SOL    HW165521   9.558   7.928   1.652
55165SOL    HW265522   9.441   8.039   1.681
55166SOL     OW65523  10.679   8.398   1.660
55166SOL    HW165524  10.718   8.487   1.680
55166SOL    HW265525  10.689   8.378   1.563
55167SOL     OW65526  10.125   8.020   0.325
55167SOL    HW165527  10.132   7.931   0.279
55167SOL    HW265528  10.031   8.054   0.317
55168SOL     OW65529  10.967   8.052   1.206
55168SOL    HW165530  10.929   7.983   1.268
55168SOL    HW265531  11.049   8.016   1.162
55169SOL     OW65532   9.562   9.012   1.744
55169SOL    HW165533   9.532   9.069   1.820
55169SOL    HW265534   9.555   8.915   1.770
55170SOL     OW65535   9.981   7.912   1.269
55170SOL    HW165536   9.947   7.823   1.239
55170SOL    HW265537  10.007   7.966   1.189
55171SOL     OW65538  10.240   9.126   1.465
55171SOL    HW165539  10.216   9.108   1.370
55171SOL    HW265540  10.270   9.220   1.475
55172SOL     OW65541   9.783   7.948   0.191
55172SOL    HW165542   9.844   8.028   0.195
55172SOL    HW265543   9.688   7.979   0.198
55173SOL     OW65544   9.469   8.585   1.466
55173SOL    HW165545   9.491   8.524   1.542
55173SOL    HW265546   9.479   8.536   1.380
55174SOL     OW65547  10.657   8.507   1.234
55174SOL    HW165548  10.681   8.444   1.160
55174SOL    HW265549  10.567   8.547   1.216
55175SOL     OW65550  10.612   8.303   0.309
55175SOL    HW165551  10.526   8.272   0.351
55175SOL    HW265552  10.608   8.289   0.210
55176SOL     OW65553  11.069   9.195   1.154
55176SOL    HW165554  11.130   9.225   1.081
55176SOL    HW265555  11.031   9.106   1.132
55177SOL     OW65556  10.562   9.179   1.128
55177SOL    HW165557  10.646   9.184   1.074
55177SOL    HW265558  10.539   9.083   1.146
55178SOL     OW65559   9.393   8.706   1.022
55178SOL    HW165560   9.388   8.705   1.122
55178SOL    HW265561   9.310   8.665   0.984
55179SOL     OW65562   9.998   9.110   1.716
55179SOL    HW165563   9.942   9.191   1.725
55179SOL    HW265564  10.050   9.114   1.630
55180SOL     OW65565  10.213   7.534   0.133
55180SOL    HW165566  10.264   7.535   0.047
55180SOL    HW265567  10.269   7.492   0.204
55181SOL     OW65568  11.036   7.583   0.523
55181SOL    HW165569  11.109   7.566   0.456
55181SOL    HW265570  11.005   7.496   0.561
55182SOL     OW65571  10.698   9.021   0.477
55182SOL    HW165572  10.765   9.033   0.403
55182SOL    HW265573  10.658   9.110   0.500
55183SOL     OW65574   9.440   9.242   1.851
55183SOL    HW165575   9.399   9.168   1.904
55183SOL    HW265576   9.504   9.293   1.909
55184SOL     OW65577  10.590   8.375   0.672
55184SOL    HW165578  10.650   8.294   0.674
55184SOL    HW265579  10.630   8.444   0.612
55185SOL     OW65580  10.140   8.721   1.422
55185SOL    HW165581  10.135   8.754   1.517
55185SOL    HW265582  10.054   8.740   1.376
55186SOL     OW65583   9.982   9.064   0.154
55186SOL    HW165584   9.991   9.074   0.055
55186SOL    HW265585   9.942   8.975   0.175
55187SOL     OW65586  10.960   9.168   1.394
55187SOL    HW165587  11.013   9.178   1.310
55187SOL    HW265588  10.933   9.258   1.428
55188SOL     OW65589  11.151   7.623   0.963
55188SOL    HW165590  11.190   7.538   0.927
55188SOL    HW265591  11.053   7.625   0.944
55189SOL     OW65592   9.573   7.774   0.720
55189SOL    HW165593   9.494   7.825   0.686
55189SOL    HW265594   9.564   7.759   0.818
55190SOL     OW65595  10.504   9.060   0.031
55190SOL    HW165596  10.510   8.967   0.068
55190SOL    HW265597  10.445   9.060  -0.049
55191SOL     OW65598  10.132   8.450   1.372
55191SOL    HW165599  10.172   8.449   1.280
55191SOL    HW265600  10.142   8.542   1.412
55192SOL     OW65601  10.226   8.358   0.291
55192SOL    HW165602  10.289   8.396   0.223
55192SOL    HW265603  10.266   8.275   0.330
55193SOL     OW65604  10.814   9.055   0.044
55193SOL    HW165605  10.722   9.092   0.051
55193SOL    HW265606  10.852   9.075  -0.046
55194SOL     OW65607   9.682   8.736   1.490
55194SOL    HW165608   9.669   8.829   1.456
55194SOL    HW265609   9.598   8.684   1.477
55195SOL     OW65610  10.924   8.740   1.289
55195SOL    HW165611  10.984   8.743   1.369
55195SOL    HW265612  10.849   8.804   1.302
55196SOL     OW65613  10.349   8.546   0.696
55196SOL    HW165614  10.279   8.499   0.750
55196SOL    HW265615  10.408   8.478   0.653
55197SOL     OW65616  10.324   7.684   0.971
55197SOL    HW165617  10.316   7.648   0.878
55197SOL    HW265618  10.322   7.608   1.036
55198SOL     OW65619   9.900   8.935   0.491
55198SOL    HW165620   9.942   8.877   0.421
55198SOL    HW265621   9.856   9.014   0.447
55199SOL     OW65622  11.019   7.833   1.381
55199SOL    HW165623  11.092   7.902   1.385
55199SOL    HW265624  11.047   7.758   1.322
55200SOL     OW65625   9.565   8.796   0.290
55200SOL    HW165626   9.469   8.797   0.263
55200SOL    HW265627   9.577   8.849   0.374
55201SOL     OW65628   9.415   8.461   1.726
55201SOL    HW165629   9.338   8.428   1.780
55201SOL    HW265630   9.500   8.431   1.768
55202SOL     OW65631  10.750   8.304   1.398
55202SOL    HW165632  10.693   8.356   1.335
55202SOL    HW265633  10.846   8.316   1.374
55203SOL     OW65634   9.382   7.614   0.318
55203SOL    HW165635   9.365   7.697   0.264
55203SOL    HW265636   9.472   7.577   0.296
55204SOL     OW65637  10.493   8.783   0.119
55204SOL    HW165638  10.394   8.772   0.121
55204SOL    HW265639  10.527   8.798   0.212
55205SOL     OW65640   9.923   8.290   1.431
55205SOL    HW165641   9.979   8.371   1.414
55205SOL    HW265642   9.982   8.210   1.434
55206SOL     OW65643  10.803   9.215   0.959
55206SOL    HW165644  10.836   9.279   0.890
55206SOL    HW265645  10.869   9.209   1.034
55207SOL     OW65646  10.026   8.013   1.708
55207SOL    HW165647  10.045   8.078   1.782
55207SOL    HW265648  10.086   7.933   1.717
55208SOL     OW65649  10.760   8.668   1.633
55208SOL    HW165650  10.751   8.658   1.732
55208SOL    HW265651  10.856   8.661   1.607
55209SOL     OW65652   9.700   9.189   1.560
55209SOL    HW165653   9.609   9.230   1.558
55209SOL    HW265654   9.693   9.095   1.592
55210SOL     OW65655  10.984   8.331   1.254
55210SOL    HW165656  10.957   8.242   1.217
55210SOL    HW265657  10.985   8.399   1.181
55211SOL     OW65658  10.535   7.773   0.449
55211SOL    HW165659  10.600   7.699   0.438
55211SOL    HW265660  10.555   7.823   0.533
55212SOL     OW65661   9.904   8.193   0.652
55212SOL    HW165662   9.954   8.278   0.633
55212SOL    HW265663   9.816   8.195   0.604
55213SOL     OW65664  11.087   7.790   1.642
55213SOL    HW165665  11.070   7.821   1.548
55213SOL    HW265666  11.003   7.753   1.680
55214SOL     OW65667  11.040   8.382   1.517
55214SOL    HW165668  11.078   8.473   1.532
55214SOL    HW265669  11.032   8.365   1.418
55215SOL     OW65670  10.169   8.822   0.016
55215SOL    HW165671  10.123   8.837   0.104
55215SOL    HW265672  10.213   8.907  -0.014
55216SOL     OW65673   9.971   9.238   0.953
55216SOL    HW165674   9.925   9.326   0.940
55216SOL    HW265675  10.070   9.250   0.946
55217SOL     OW65676  10.169   8.404   0.861
55217SOL    HW165677  10.223   8.335   0.909
55217SOL    HW265678  10.137   8.473   0.927
55218SOL     OW65679  10.393   8.432   0.087
55218SOL    HW165680  10.370   8.485   0.005
55218SOL    HW265681  10.474   8.376   0.068
55219SOL     OW65682  11.171   9.017   0.851
55219SOL    HW165683  11.100   9.005   0.781
55219SOL    HW265684  11.172   8.938   0.911
55220SOL     OW65685   9.531   8.762   1.844
55220SOL    HW165686   9.466   8.689   1.823
55220SOL    HW265687   9.535   8.776   1.942
55221SOL     OW65688   9.389   8.688   0.653
55221SOL    HW165689   9.388   8.641   0.741
55221SOL    HW265690   9.471   8.660   0.602
55222SOL     OW65691   9.982   8.839   1.624
55222SOL    HW165692   9.904   8.789   1.662
55222SOL    HW265693   9.979   8.934   1.655
55223SOL     OW65694  11.134   7.640   1.227
55223SOL    HW165695  11.130   7.550   1.271
55223SOL    HW265696  11.137   7.629   1.128
55224SOL     OW65697   9.738   7.872   0.520
55224SOL    HW165698   9.768   7.800   0.458
55224SOL    HW265699   9.699   7.832   0.603
55225SOL     OW65700  11.015   8.935   1.104
55225SOL    HW165701  10.922   8.910   1.077
55225SOL    HW265702  11.041   8.885   1.186
55226SOL     OW65703   9.627   7.995   1.280
55226SOL    HW165704   9.665   7.936   1.352
55226SOL    HW265705   9.667   7.969   1.192
55227SOL     OW65706  10.122   9.034   0.687
55227SOL    HW165707  10.154   9.044   0.593
55227SOL    HW265708  10.043   8.972   0.689
55228SOL     OW65709  10.734   7.662   1.112
55228SOL    HW165710  10.786   7.597   1.167
55228SOL    HW265711  10.685   7.725   1.173
55229SOL     OW65712  10.311   7.482   1.154
55229SOL    HW165713  10.248   7.410   1.123
55229SOL    HW265714  10.404   7.446   1.154
55230SOL     OW65715  10.080   8.778   0.301
55230SOL    HW165716  10.034   8.691   0.318
55230SOL    HW265717  10.171   8.775   0.342
55231SOL     OW65718   9.928   9.015   1.284
55231SOL    HW165719   9.923   9.097   1.341
55231SOL    HW265720  10.017   9.012   1.239
55232SOL     OW65721  10.662   7.500   0.168
55232SOL    HW165722  10.697   7.459   0.084
55232SOL    HW265723  10.572   7.462   0.188
55233SOL     OW65724  10.610   7.901   0.691
55233SOL    HW165725  10.551   7.981   0.695
55233SOL    HW265726  10.625   7.866   0.784
55234SOL     OW65727  10.903   7.669   0.882
55234SOL    HW165728  10.819   7.668   0.936
55234SOL    HW265729  10.905   7.752   0.826
55235SOL     OW65730   9.349   8.525   0.300
55235SOL    HW165731   9.448   8.514   0.291
55235SOL    HW265732   9.309   8.439   0.332
55236SOL     OW65733  10.185   9.094   0.337
55236SOL    HW165734  10.108   9.059   0.283
55236SOL    HW265735  10.153   9.165   0.399
55237SOL     OW65736   9.540   8.076   1.975
55237SOL    HW165737   9.447   8.074   2.012
55237SOL    HW265738   9.541   8.037   1.883
55238SOL     OW65739   9.535   7.723   2.858
55238SOL    HW165740   9.570   7.706   2.950
55238SOL    HW265741   9.447   7.678   2.846
55239SOL     OW65742   9.329   7.816   2.509
55239SOL    HW165743   9.247   7.859   2.548
55239SOL    HW265744   9.301   7.743   2.446
55240SOL     OW65745   9.879   8.723   3.027
55240SOL    HW165746   9.786   8.716   2.990
55240SOL    HW265747   9.890   8.812   3.071
55241SOL     OW65748  10.865   8.959   2.565
55241SOL    HW165749  10.808   8.943   2.646
55241SOL    HW265750  10.806   8.969   2.485
55242SOL     OW65751  10.445   8.151   2.579
55242SOL    HW165752  10.502   8.229   2.554
55242SOL    HW265753  10.385   8.177   2.655
55243SOL     OW65754  11.065   8.055   2.093
55243SOL    HW165755  11.053   8.042   1.994
55243SOL    HW265756  11.035   7.974   2.142
55244SOL     OW65757  10.078   8.592   2.885
55244SOL    HW165758  10.000   8.609   2.945
55244SOL    HW265759  10.112   8.679   2.849
55245SOL     OW65760  10.160   8.246   3.685
55245SOL    HW165761  10.156   8.322   3.750
55245SOL    HW265762  10.182   8.282   3.594
55246SOL     OW65763   9.995   8.460   2.527
55246SOL    HW165764  10.064   8.444   2.597
55246SOL    HW265765   9.922   8.517   2.565
55247SOL     OW65766   9.996   8.609   3.665
55247SOL    HW165767  10.056   8.688   3.679
55247SOL    HW265768   9.910   8.640   3.624
55248SOL     OW65769   9.645   8.883   2.923
55248SOL    HW165770   9.567   8.852   2.870
55248SOL    HW265771   9.703   8.941   2.866
55249SOL     OW65772  10.770   8.953   3.201
55249SOL    HW165773  10.794   9.047   3.227
55249SOL    HW265774  10.754   8.899   3.283
55250SOL     OW65775   9.748   7.840   3.361
55250SOL    HW165776   9.830   7.784   3.370
55250SOL    HW265777   9.667   7.782   3.365
55251SOL     OW65778  10.913   7.895   2.599
55251SOL    HW165779  10.839   7.941   2.549
55251SOL    HW265780  10.964   7.963   2.652
55252SOL     OW65781   9.541   9.161   2.345
55252SOL    HW165782   9.575   9.238   2.399
55252SOL    HW265783   9.585   9.161   2.255
55253SOL     OW65784  10.437   8.789   3.552
55253SOL    HW165785  10.484   8.789   3.640
55253SOL    HW265786  10.389   8.702   3.541
55254SOL     OW65787   9.540   8.882   2.400
55254SOL    HW165788   9.514   8.978   2.400
55254SOL    HW265789   9.469   8.828   2.445
55255SOL     OW65790   9.550   8.539   2.748
55255SOL    HW165791   9.564   8.455   2.800
55255SOL    HW265792   9.495   8.603   2.803
55256SOL     OW65793   9.930   9.234   3.301
55256SOL    HW165794   9.838   9.217   3.336
55256SOL    HW265795   9.958   9.326   3.327
55257SOL     OW65796   9.916   8.412   1.985
55257SOL    HW165797   9.923   8.496   1.931
55257SOL    HW265798   9.962   8.425   2.073
55258SOL     OW65799  10.904   7.562   3.342
55258SOL    HW165800  10.886   7.629   3.270
55258SOL    HW265801  10.901   7.608   3.431
55259SOL     OW65802   9.432   8.091   2.425
55259SOL    HW165803   9.387   8.003   2.442
55259SOL    HW265804   9.431   8.145   2.509
55260SOL     OW65805  11.152   9.215   2.221
55260SOL    HW165806  11.206   9.186   2.301
55260SOL    HW265807  11.182   9.305   2.192
55261SOL     OW65808   9.337   9.044   1.979
55261SOL    HW165809   9.318   8.948   2.000
55261SOL    HW265810   9.304   9.102   2.054
55262SOL     OW65811  10.999   8.370   2.474
55262SOL    HW165812  11.094   8.341   2.482
55262SOL    HW265813  10.991   8.435   2.399
55263SOL     OW65814  10.951   8.556   2.294
55263SOL    HW165815  11.037   8.558   2.242
55263SOL    HW265816  10.965   8.603   2.382
55264SOL     OW65817   9.423   8.185   3.459
55264SOL    HW165818   9.511   8.172   3.504
55264SOL    HW265819   9.410   8.282   3.437
55265SOL     OW65820   9.923   8.813   2.588
55265SOL    HW165821   9.874   8.726   2.597
55265SOL    HW265822   9.900   8.856   2.501
55266SOL     OW65823  10.603   8.676   3.285
55266SOL    HW165824  10.640   8.603   3.227
55266SOL    HW265825  10.655   8.681   3.370
55267SOL     OW65826  10.119   7.452   2.364
55267SOL    HW165827  10.159   7.543   2.355
55267SOL    HW265828  10.019   7.460   2.370
55268SOL     OW65829   9.507   8.424   3.126
55268SOL    HW165830   9.596   8.379   3.112
55268SOL    HW265831   9.434   8.359   3.107
55269SOL     OW65832  10.835   8.447   2.052
55269SOL    HW165833  10.772   8.371   2.065
55269SOL    HW265834  10.883   8.465   2.138
55270SOL     OW65835  10.497   9.240   3.478
55270SOL    HW165836  10.521   9.300   3.402
55270SOL    HW265837  10.504   9.145   3.448
55271SOL     OW65838   9.627   7.699   3.663
55271SOL    HW165839   9.698   7.770   3.669
55271SOL    HW265840   9.539   7.738   3.691
55272SOL     OW65841  10.776   8.865   2.815
55272SOL    HW165842  10.717   8.871   2.895
55272SOL    HW265843  10.761   8.777   2.769
55273SOL     OW65844  10.977   9.162   2.434
55273SOL    HW165845  10.936   9.139   2.346
55273SOL    HW265846  10.959   9.088   2.499
55274SOL     OW65847   9.908   8.177   2.132
55274SOL    HW165848   9.932   8.246   2.064
55274SOL    HW265849   9.830   8.210   2.186
55275SOL     OW65850  10.591   7.793   2.806
55275SOL    HW165851  10.505   7.743   2.793
55275SOL    HW265852  10.653   7.739   2.862
55276SOL     OW65853  10.886   9.110   2.169
55276SOL    HW165854  10.975   9.156   2.172
55276SOL    HW265855  10.865   9.086   2.074
55277SOL     OW65856  10.117   8.053   3.327
55277SOL    HW165857  10.070   8.050   3.416
55277SOL    HW265858  10.066   7.998   3.261
55278SOL     OW65859  10.704   7.917   3.536
55278SOL    HW165860  10.684   7.960   3.624
55278SOL    HW265861  10.782   7.855   3.545
55279SOL     OW65862  10.283   8.338   3.434
55279SOL    HW165863  10.329   8.254   3.405
55279SOL    HW265864  10.227   8.372   3.359
55280SOL     OW65865  10.301   7.858   3.104
55280SOL    HW165866  10.224   7.892   3.158
55280SOL    HW265867  10.267   7.807   3.025
55281SOL     OW65868  10.351   8.149   2.291
55281SOL    HW165869  10.377   8.145   2.387
55281SOL    HW265870  10.266   8.098   2.277
55282SOL     OW65871   9.386   8.259   2.651
55282SOL    HW165872   9.485   8.247   2.660
55282SOL    HW265873   9.362   8.354   2.672
55283SOL     OW65874   9.440   9.269   3.433
55283SOL    HW165875   9.430   9.254   3.532
55283SOL    HW265876   9.354   9.305   3.397
55284SOL     OW65877  10.175   7.796   2.057
55284SOL    HW165878  10.234   7.859   2.008
55284SOL    HW265879  10.194   7.702   2.028
55285SOL     OW65880  11.029   8.033   3.693
55285SOL    HW165881  11.003   8.122   3.657
55285SOL    HW265882  11.027   7.965   3.620
55286SOL     OW65883  10.672   8.592   2.407
55286SOL    HW165884  10.755   8.563   2.359
55286SOL    HW265885  10.623   8.659   2.351
55287SOL     OW65886   9.860   7.644   2.747
55287SOL    HW165887   9.855   7.639   2.847
55287SOL    HW265888   9.862   7.740   2.718
55288SOL     OW65889  10.318   8.904   2.339
55288SOL    HW165890  10.272   8.976   2.287
55288SOL    HW265891  10.314   8.924   2.437
55289SOL     OW65892   9.661   9.249   2.715
55289SOL    HW165893   9.711   9.163   2.721
55289SOL    HW265894   9.726   9.326   2.712
55290SOL     OW65895  11.105   8.514   2.735
55290SOL    HW165896  11.043   8.499   2.659
55290SOL    HW265897  11.053   8.525   2.820
55291SOL     OW65898  10.537   8.998   3.368
55291SOL    HW165899  10.543   8.921   3.432
55291SOL    HW265900  10.485   8.972   3.288
55292SOL     OW65901   9.631   8.391   2.104
55292SOL    HW165902   9.713   8.430   2.062
55292SOL    HW265903   9.604   8.309   2.055
55293SOL     OW65904  10.768   8.183   2.590
55293SOL    HW165905  10.763   8.118   2.665
55293SOL    HW265906  10.848   8.242   2.603
55294SOL     OW65907   9.771   8.714   3.589
55294SOL    HW165908   9.721   8.715   3.503
55294SOL    HW265909   9.708   8.696   3.665
55295SOL     OW65910  10.421   9.224   2.099
55295SOL    HW165911  10.361   9.162   2.149
55295SOL    HW265912  10.452   9.180   2.014
55296SOL     OW65913   9.512   7.733   3.360
55296SOL    HW165914   9.432   7.793   3.347
55296SOL    HW265915   9.502   7.684   3.446
55297SOL     OW65916  10.942   8.825   1.943
55297SOL    HW165917  10.910   8.919   1.933
55297SOL    HW265918  10.866   8.762   1.931
55298SOL     OW65919   9.774   9.191   2.185
55298SOL    HW165920   9.807   9.230   2.271
55298SOL    HW265921   9.850   9.184   2.120
55299SOL     OW65922  10.710   7.555   2.288
55299SOL    HW165923  10.686   7.518   2.198
55299SOL    HW265924  10.809   7.571   2.292
55300SOL     OW65925   9.559   9.233   3.103
55300SOL    HW165926   9.616   9.168   3.153
55300SOL    HW265927   9.543   9.200   3.010
55301SOL     OW65928  10.250   9.146   2.766
55301SOL    HW165929  10.330   9.089   2.787
55301SOL    HW265930  10.201   9.106   2.689
55302SOL     OW65931   9.692   8.148   2.342
55302SOL    HW165932   9.737   8.058   2.339
55302SOL    HW265933   9.598   8.137   2.375
55303SOL     OW65934  10.857   7.670   3.591
55303SOL    HW165935  10.852   7.707   3.683
55303SOL    HW265936  10.785   7.601   3.579
55304SOL     OW65937   9.924   7.570   1.979
55304SOL    HW165938  10.022   7.548   1.986
55304SOL    HW265939   9.893   7.553   1.886
55305SOL     OW65940  10.091   7.712   3.611
55305SOL    HW165941  10.158   7.651   3.654
55305SOL    HW265942  10.018   7.731   3.676
55306SOL     OW65943  10.198   8.962   3.057
55306SOL    HW165944  10.175   8.937   2.963
55306SOL    HW265945  10.259   8.893   3.096
55307SOL     OW65946  10.661   8.038   3.295
55307SOL    HW165947  10.689   7.995   3.380
55307SOL    HW265948  10.686   8.134   3.296
55308SOL     OW65949  10.113   8.850   2.786
55308SOL    HW165950  10.203   8.864   2.744
55308SOL    HW265951  10.042   8.852   2.715
55309SOL     OW65952  10.232   7.951   2.761
55309SOL    HW165953  10.207   7.942   2.665
55309SOL    HW265954  10.280   7.869   2.792
55310SOL     OW65955   9.849   7.512   2.374
55310SOL    HW165956   9.768   7.513   2.432
55310SOL    HW265957   9.852   7.595   2.319
55311SOL     OW65958  10.744   8.636   1.903
55311SOL    HW165959  10.776   8.560   1.960
55311SOL    HW265960  10.652   8.663   1.933
55312SOL     OW65961   9.607   7.483   2.033
55312SOL    HW165962   9.656   7.567   2.012
55312SOL    HW265963   9.669   7.418   2.078
55313SOL     OW65964  10.245   7.684   2.342
55313SOL    HW165965  10.197   7.725   2.264
55313SOL    HW265966  10.344   7.682   2.323
55314SOL     OW65967  10.386   8.131   3.326
55314SOL    HW165968  10.306   8.070   3.329
55314SOL    HW265969  10.467   8.078   3.302
55315SOL     OW65970  10.537   9.018   2.655
55315SOL    HW165971  10.558   9.092   2.590
55315SOL    HW265972  10.605   9.018   2.728
55316SOL     OW65973   9.769   8.600   2.603
55316SOL    HW165974   9.698   8.573   2.668
55316SOL    HW265975   9.743   8.572   2.510
55317SOL     OW65976  10.581   9.245   2.453
55317SOL    HW165977  10.625   9.309   2.389
55317SOL    HW265978  10.531   9.297   2.523
55318SOL     OW65979  10.342   7.997   1.878
55318SOL    HW165980  10.301   8.079   1.839
55318SOL    HW265981  10.406   8.023   1.951
55319SOL     OW65982   9.388   8.004   3.248
55319SOL    HW165983   9.480   8.003   3.207
55319SOL    HW265984   9.382   8.078   3.315
55320SOL     OW65985   9.871   7.670   3.009
55320SOL    HW165986   9.909   7.586   3.046
55320SOL    HW265987   9.783   7.689   3.053
55321SOL     OW65988  10.176   7.902   2.504
55321SOL    HW165989  10.144   7.974   2.442
55321SOL    HW265990  10.200   7.821   2.451
55322SOL     OW65991  10.327   7.487   2.615
55322SOL    HW165992  10.255   7.492   2.546
55322SOL    HW265993  10.303   7.418   2.684
55323SOL     OW65994  10.739   8.621   2.729
55323SOL    HW165995  10.684   8.537   2.722
55323SOL    HW265996  10.765   8.650   2.637
55324SOL     OW65997  10.776   8.038   2.854
55324SOL    HW165998  10.746   7.943   2.861
55324SOL    HW265999  10.849   8.054   2.920
55325SOL     OW66000  11.167   8.281   2.239
55325SOL    HW166001  11.209   8.217   2.303
55325SOL    HW266002  11.129   8.230   2.161
55326SOL     OW66003   9.798   8.833   2.036
55326SOL    HW166004   9.711   8.818   2.083
55326SOL    HW266005   9.781   8.859   1.941
55327SOL     OW66006  10.974   8.728   2.519
55327SOL    HW166007  11.073   8.736   2.533
55327SOL    HW266008  10.929   8.812   2.550
55328SOL     OW66009  10.700   8.023   1.940
55328SOL    HW166010  10.646   8.002   2.021
55328SOL    HW266011  10.791   7.982   1.949
55329SOL     OW66012   9.837   7.704   2.190
55329SOL    HW166013   9.864   7.645   2.115
55329SOL    HW266014   9.837   7.799   2.159
55330SOL     OW66015  11.064   8.671   3.450
55330SOL    HW166016  11.155   8.632   3.437
55330SOL    HW266017  11.072   8.767   3.474
55331SOL     OW66018  10.374   8.795   3.202
55331SOL    HW166019  10.294   8.772   3.257
55331SOL    HW266020  10.457   8.769   3.251
55332SOL     OW66021  10.902   9.077   3.487
55332SOL    HW166022  10.929   9.111   3.397
55332SOL    HW266023  10.981   9.039   3.533
55333SOL     OW66024  10.421   8.643   2.962
55333SOL    HW166025  10.381   8.687   3.043
55333SOL    HW266026  10.380   8.680   2.879
55334SOL     OW66027  10.948   8.547   2.941
55334SOL    HW166028  10.953   8.628   3.000
55334SOL    HW266029  10.862   8.549   2.890
55335SOL     OW66030  10.225   7.537   3.264
55335SOL    HW166031  10.250   7.517   3.169
55335SOL    HW266032  10.297   7.593   3.306
55336SOL     OW66033  10.290   8.564   3.581
55336SOL    HW166034  10.191   8.570   3.591
55336SOL    HW266035  10.313   8.484   3.525
55337SOL     OW66036  10.015   8.498   2.230
55337SOL    HW166037  10.001   8.505   2.329
55337SOL    HW266038  10.099   8.447   2.212
55338SOL     OW66039   9.720   8.261   3.113
55338SOL    HW166040   9.806   8.273   3.163
55338SOL    HW266041   9.678   8.174   3.140
55339SOL     OW66042  10.584   7.834   3.124
55339SOL    HW166043  10.605   7.908   3.188
55339SOL    HW266044  10.495   7.851   3.081
55340SOL     OW66045   9.374   9.012   3.193
55340SOL    HW166046   9.328   9.094   3.159
55340SOL    HW266047   9.472   9.031   3.202
55341SOL     OW66048   9.677   8.548   2.363
55341SOL    HW166049   9.670   8.631   2.307
55341SOL    HW266050   9.681   8.468   2.303
55342SOL     OW66051   9.876   7.985   2.727
55342SOL    HW166052   9.888   8.051   2.653
55342SOL    HW266053   9.922   8.019   2.810
55343SOL     OW66054  10.562   8.796   2.250
55343SOL    HW166055  10.612   8.873   2.290
55343SOL    HW266056  10.467   8.798   2.282
55344SOL     OW66057  10.582   8.893   3.004
55344SOL    HW166058  10.629   8.906   3.091
55344SOL    HW266059  10.516   8.819   3.013
55345SOL     OW66060  10.892   8.087   2.334
55345SOL    HW166061  10.861   8.148   2.407
55345SOL    HW266062  10.942   8.139   2.265
55346SOL     OW66063   9.664   8.958   3.191
55346SOL    HW166064   9.643   8.914   3.104
55346SOL    HW266065   9.761   8.984   3.194
55347SOL     OW66066   9.712   8.199   3.460
55347SOL    HW166067   9.780   8.254   3.413
55347SOL    HW266068   9.752   8.111   3.487
55348SOL     OW66069  10.897   8.227   3.532
55348SOL    HW166070  10.805   8.265   3.527
55348SOL    HW266071  10.957   8.274   3.467
55349SOL     OW66072  10.323   7.553   3.632
55349SOL    HW166073  10.329   7.638   3.580
55349SOL    HW266074  10.355   7.477   3.575
55350SOL     OW66075   9.814   7.498   3.602
55350SOL    HW166076   9.772   7.441   3.532
55350SOL    HW266077   9.748   7.567   3.634
55351SOL     OW66078   9.883   8.318   2.891
55351SOL    HW166079   9.927   8.407   2.882
55351SOL    HW266080   9.820   8.318   2.968
55352SOL     OW66081  10.670   8.310   2.907
55352SOL    HW166082  10.595   8.310   2.841
55352SOL    HW266083  10.707   8.218   2.916
55353SOL     OW66084  10.519   7.973   2.137
55353SOL    HW166085  10.532   7.889   2.191
55353SOL    HW266086  10.490   8.047   2.197
55354SOL     OW66087   9.617   7.661   3.093
55354SOL    HW166088   9.594   7.698   3.183
55354SOL    HW266089   9.587   7.566   3.087
55355SOL     OW66090   9.347   8.758   3.144
55355SOL    HW166091   9.400   8.709   3.212
55355SOL    HW266092   9.369   8.856   3.149
55356SOL     OW66093  10.042   8.082   2.926
55356SOL    HW166094  10.101   8.056   2.850
55356SOL    HW266095  10.014   8.178   2.915
55357SOL     OW66096  11.038   8.383   3.716
55357SOL    HW166097  10.992   8.376   3.627
55357SOL    HW266098  10.976   8.427   3.782
55358SOL     OW66099   9.617   7.511   2.480
55358SOL    HW166100   9.606   7.605   2.513
55358SOL    HW266101   9.612   7.448   2.557
55359SOL     OW66102  10.932   7.815   2.236
55359SOL    HW166103  10.934   7.739   2.300
55359SOL    HW266104  10.884   7.892   2.276
55360SOL     OW66105  10.333   8.214   2.828
55360SOL    HW166106  10.348   8.235   2.924
55360SOL    HW266107  10.303   8.119   2.819
55361SOL     OW66108  10.290   9.021   3.562
55361SOL    HW166109  10.270   9.065   3.474
55361SOL    HW266110  10.329   8.930   3.546
55362SOL     OW66111  11.169   8.966   3.467
55362SOL    HW166112  11.183   8.993   3.372
55362SOL    HW266113  11.252   8.988   3.520
55363SOL     OW66114   9.660   8.346   3.666
55363SOL    HW166115   9.736   8.390   3.714
55363SOL    HW266116   9.695   8.299   3.584
55364SOL     OW66117  10.850   7.722   1.987
55364SOL    HW166118  10.789   7.647   2.010
55364SOL    HW266119  10.872   7.774   2.070
55365SOL     OW66120  10.613   8.286   1.904
55365SOL    HW166121  10.647   8.193   1.919
55365SOL    HW266122  10.631   8.313   1.809
55366SOL     OW66123  10.378   8.781   2.711
55366SOL    HW166124  10.385   8.697   2.656
55366SOL    HW266125  10.440   8.850   2.675
55367SOL     OW66126   9.629   8.258   2.811
55367SOL    HW166127   9.722   8.294   2.816
55367SOL    HW266128   9.623   8.173   2.863
55368SOL     OW66129   9.649   7.957   2.868
55368SOL    HW166130   9.597   7.874   2.851
55368SOL    HW266131   9.726   7.962   2.804
55369SOL     OW66132  10.448   7.828   3.540
55369SOL    HW166133  10.403   7.891   3.604
55369SOL    HW266134  10.541   7.859   3.523
55370SOL     OW66135  10.470   7.655   3.339
55370SOL    HW166136  10.470   7.719   3.416
55370SOL    HW266137  10.498   7.703   3.256
55371SOL     OW66138   9.318   8.774   2.062
55371SOL    HW166139   9.225   8.795   2.031
55371SOL    HW266140   9.328   8.675   2.075
55372SOL     OW66141   9.398   9.249   2.789
55372SOL    HW166142   9.356   9.163   2.762
55372SOL    HW266143   9.492   9.252   2.755
55373SOL     OW66144   9.814   9.016   2.772
55373SOL    HW166145   9.880   9.090   2.781
55373SOL    HW266146   9.858   8.937   2.730
55374SOL     OW66147  10.312   8.244   3.100
55374SOL    HW166148  10.353   8.212   3.186
55374SOL    HW266149  10.216   8.217   3.097
55375SOL     OW66150   9.350   7.992   2.976
55375SOL    HW166151   9.435   7.959   2.935
55375SOL    HW266152   9.363   8.007   3.074
55376SOL     OW66153   9.499   7.968   3.584
55376SOL    HW166154   9.558   7.928   3.514
55376SOL    HW266155   9.441   8.039   3.543
55377SOL     OW66156  10.125   8.020   2.187
55377SOL    HW166157  10.132   7.931   2.141
55377SOL    HW266158  10.031   8.054   2.179
55378SOL     OW66159  10.967   8.052   3.068
55378SOL    HW166160  10.929   7.983   3.130
55378SOL    HW266161  11.049   8.016   3.024
55379SOL     OW66162   9.562   9.012   3.606
55379SOL    HW166163   9.532   9.069   3.682
55379SOL    HW266164   9.555   8.915   3.632
55380SOL     OW66165   9.981   7.912   3.131
55380SOL    HW166166   9.947   7.823   3.101
55380SOL    HW266167  10.007   7.966   3.051
55381SOL     OW66168  10.240   9.126   3.327
55381SOL    HW166169  10.216   9.108   3.232
55381SOL    HW266170  10.270   9.220   3.337
55382SOL     OW66171   9.783   7.948   2.053
55382SOL    HW166172   9.844   8.028   2.057
55382SOL    HW266173   9.688   7.979   2.060
55383SOL     OW66174   9.469   8.585   3.328
55383SOL    HW166175   9.491   8.524   3.404
55383SOL    HW266176   9.479   8.536   3.242
55384SOL     OW66177  10.657   8.507   3.096
55384SOL    HW166178  10.681   8.444   3.022
55384SOL    HW266179  10.567   8.547   3.078
55385SOL     OW66180  10.612   8.303   2.171
55385SOL    HW166181  10.526   8.272   2.213
55385SOL    HW266182  10.608   8.289   2.072
55386SOL     OW66183  11.069   9.195   3.016
55386SOL    HW166184  11.130   9.225   2.943
55386SOL    HW266185  11.031   9.106   2.994
55387SOL     OW66186  10.562   9.179   2.990
55387SOL    HW166187  10.646   9.184   2.936
55387SOL    HW266188  10.539   9.083   3.008
55388SOL     OW66189   9.393   8.706   2.884
55388SOL    HW166190   9.388   8.705   2.984
55388SOL    HW266191   9.310   8.665   2.846
55389SOL     OW66192   9.998   9.110   3.578
55389SOL    HW166193   9.942   9.191   3.587
55389SOL    HW266194  10.050   9.114   3.492
55390SOL     OW66195  11.036   7.583   2.385
55390SOL    HW166196  11.109   7.566   2.318
55390SOL    HW266197  11.005   7.496   2.423
55391SOL     OW66198  10.698   9.021   2.339
55391SOL    HW166199  10.765   9.033   2.265
55391SOL    HW266200  10.658   9.110   2.362
55392SOL     OW66201   9.440   9.242   3.713
55392SOL    HW166202   9.399   9.168   3.766
55392SOL    HW266203   9.504   9.293   3.771
55393SOL     OW66204  10.590   8.375   2.534
55393SOL    HW166205  10.650   8.294   2.536
55393SOL    HW266206  10.630   8.444   2.474
55394SOL     OW66207  10.140   8.721   3.284
55394SOL    HW166208  10.135   8.754   3.379
55394SOL    HW266209  10.054   8.740   3.238
55395SOL     OW66210   9.982   9.064   2.016
55395SOL    HW166211   9.991   9.074   1.917
55395SOL    HW266212   9.942   8.975   2.037
55396SOL     OW66213  10.960   9.168   3.256
55396SOL    HW166214  11.013   9.178   3.172
55396SOL    HW266215  10.933   9.258   3.290
55397SOL     OW66216  11.151   7.623   2.825
55397SOL    HW166217  11.190   7.538   2.789
55397SOL    HW266218  11.053   7.625   2.806
55398SOL     OW66219   9.573   7.774   2.582
55398SOL    HW166220   9.494   7.825   2.548
55398SOL    HW266221   9.564   7.759   2.680
55399SOL     OW66222  10.504   9.060   1.893
55399SOL    HW166223  10.510   8.967   1.930
55399SOL    HW266224  10.445   9.060   1.813
55400SOL     OW66225  10.132   8.450   3.234
55400SOL    HW166226  10.172   8.449   3.142
55400SOL    HW266227  10.142   8.542   3.274
55401SOL     OW66228  10.226   8.358   2.153
55401SOL    HW166229  10.289   8.396   2.085
55401SOL    HW266230  10.266   8.275   2.192
55402SOL     OW66231  10.814   9.055   1.906
55402SOL    HW166232  10.722   9.092   1.913
55402SOL    HW266233  10.852   9.075   1.816
55403SOL     OW66234   9.682   8.736   3.352
55403SOL    HW166235   9.669   8.829   3.318
55403SOL    HW266236   9.598   8.684   3.339
55404SOL     OW66237  10.924   8.740   3.151
55404SOL    HW166238  10.984   8.743   3.231
55404SOL    HW266239  10.849   8.804   3.164
55405SOL     OW66240  10.349   8.546   2.558
55405SOL    HW166241  10.279   8.499   2.612
55405SOL    HW266242  10.408   8.478   2.515
55406SOL     OW66243  10.324   7.684   2.833
55406SOL    HW166244  10.316   7.648   2.740
55406SOL    HW266245  10.322   7.608   2.898
55407SOL     OW66246   9.900   8.935   2.353
55407SOL    HW166247   9.942   8.877   2.283
55407SOL    HW266248   9.856   9.014   2.309
55408SOL     OW66249  11.019   7.833   3.243
55408SOL    HW166250  11.092   7.902   3.247
55408SOL    HW266251  11.047   7.758   3.184
55409SOL     OW66252   9.565   8.796   2.152
55409SOL    HW166253   9.469   8.797   2.125
55409SOL    HW266254   9.577   8.849   2.236
55410SOL     OW66255   9.415   8.461   3.588
55410SOL    HW166256   9.338   8.428   3.642
55410SOL    HW266257   9.500   8.431   3.630
55411SOL     OW66258   9.982   7.651   3.351
55411SOL    HW166259  10.072   7.635   3.311
55411SOL    HW266260   9.990   7.656   3.450
55412SOL     OW66261   9.385   7.793   1.895
55412SOL    HW166262   9.293   7.765   1.866
55412SOL    HW266263   9.416   7.870   1.839
55413SOL     OW66264  10.750   8.304   3.260
55413SOL    HW166265  10.693   8.356   3.197
55413SOL    HW266266  10.846   8.316   3.236
55414SOL     OW66267   9.382   7.614   2.180
55414SOL    HW166268   9.365   7.697   2.126
55414SOL    HW266269   9.472   7.577   2.158
55415SOL     OW66270  10.493   8.783   1.981
55415SOL    HW166271  10.394   8.772   1.983
55415SOL    HW266272  10.527   8.798   2.074
55416SOL     OW66273   9.923   8.290   3.293
55416SOL    HW166274   9.979   8.371   3.276
55416SOL    HW266275   9.982   8.210   3.296
55417SOL     OW66276  10.803   9.215   2.821
55417SOL    HW166277  10.836   9.279   2.752
55417SOL    HW266278  10.869   9.209   2.896
55418SOL     OW66279  10.026   8.013   3.570
55418SOL    HW166280  10.045   8.078   3.644
55418SOL    HW266281  10.086   7.933   3.579
55419SOL     OW66282  10.760   8.668   3.495
55419SOL    HW166283  10.751   8.658   3.594
55419SOL    HW266284  10.856   8.661   3.469
55420SOL     OW66285   9.700   9.189   3.422
55420SOL    HW166286   9.609   9.230   3.420
55420SOL    HW266287   9.693   9.095   3.454
55421SOL     OW66288  10.984   8.331   3.116
55421SOL    HW166289  10.957   8.242   3.079
55421SOL    HW266290  10.985   8.399   3.043
55422SOL     OW66291  10.535   7.773   2.311
55422SOL    HW166292  10.600   7.699   2.300
55422SOL    HW266293  10.555   7.823   2.395
55423SOL     OW66294   9.904   8.193   2.514
55423SOL    HW166295   9.954   8.278   2.495
55423SOL    HW266296   9.816   8.195   2.466
55424SOL     OW66297  11.087   7.790   3.504
55424SOL    HW166298  11.070   7.821   3.410
55424SOL    HW266299  11.003   7.753   3.542
55425SOL     OW66300  11.040   8.382   3.379
55425SOL    HW166301  11.078   8.473   3.394
55425SOL    HW266302  11.032   8.365   3.280
55426SOL     OW66303  10.169   8.822   1.878
55426SOL    HW166304  10.123   8.837   1.966
55426SOL    HW266305  10.213   8.907   1.848
55427SOL     OW66306   9.971   9.238   2.815
55427SOL    HW166307   9.925   9.326   2.802
55427SOL    HW266308  10.070   9.250   2.808
55428SOL     OW66309  10.169   8.404   2.723
55428SOL    HW166310  10.223   8.335   2.771
55428SOL    HW266311  10.137   8.473   2.789
55429SOL     OW66312  10.393   8.432   1.949
55429SOL    HW166313  10.370   8.485   1.867
55429SOL    HW266314  10.474   8.376   1.930
55430SOL     OW66315  11.171   9.017   2.713
55430SOL    HW166316  11.100   9.005   2.643
55430SOL    HW266317  11.172   8.938   2.773
55431SOL     OW66318   9.531   8.762   3.706
55431SOL    HW166319   9.466   8.689   3.685
55431SOL    HW266320   9.535   8.776   3.804
55432SOL     OW66321   9.389   8.688   2.515
55432SOL    HW166322   9.388   8.641   2.603
55432SOL    HW266323   9.471   8.660   2.464
55433SOL     OW66324   9.982   8.839   3.486
55433SOL    HW166325   9.904   8.789   3.524
55433SOL    HW266326   9.979   8.934   3.517
55434SOL     OW66327  11.134   7.640   3.089
55434SOL    HW166328  11.130   7.550   3.133
55434SOL    HW266329  11.137   7.629   2.990
55435SOL     OW66330   9.738   7.872   2.382
55435SOL    HW166331   9.768   7.800   2.320
55435SOL    HW266332   9.699   7.832   2.465
55436SOL     OW66333  11.015   8.935   2.966
55436SOL    HW166334  10.922   8.910   2.939
55436SOL    HW266335  11.041   8.885   3.048
55437SOL     OW66336   9.627   7.995   3.142
55437SOL    HW166337   9.665   7.936   3.214
55437SOL    HW266338   9.667   7.969   3.054
55438SOL     OW66339  10.122   9.034   2.549
55438SOL    HW166340  10.154   9.044   2.455
55438SOL    HW266341  10.043   8.972   2.551
55439SOL     OW66342  10.734   7.662   2.974
55439SOL    HW166343  10.786   7.597   3.029
55439SOL    HW266344  10.685   7.725   3.035
55440SOL     OW66345  10.311   7.482   3.016
55440SOL    HW166346  10.248   7.410   2.985
55440SOL    HW266347  10.404   7.446   3.016
55441SOL     OW66348  10.080   8.778   2.163
55441SOL    HW166349  10.034   8.691   2.180
55441SOL    HW266350  10.171   8.775   2.204
55442SOL     OW66351   9.928   9.015   3.146
55442SOL    HW166352   9.923   9.097   3.203
55442SOL    HW266353  10.017   9.012   3.101
55443SOL     OW66354  10.662   7.500   2.030
55443SOL    HW166355  10.697   7.459   1.946
55443SOL    HW266356  10.572   7.462   2.050
55444SOL     OW66357  10.610   7.901   2.553
55444SOL    HW166358  10.551   7.981   2.557
55444SOL    HW266359  10.625   7.866   2.646
55445SOL     OW66360  10.903   7.669   2.744
55445SOL    HW166361  10.819   7.668   2.798
55445SOL    HW266362  10.905   7.752   2.688
55446SOL     OW66363   9.349   8.525   2.162
55446SOL    HW166364   9.448   8.514   2.153
55446SOL    HW266365   9.309   8.439   2.194
55447SOL     OW66366  10.185   9.094   2.199
55447SOL    HW166367  10.108   9.059   2.145
55447SOL    HW266368  10.153   9.165   2.261
55448SOL     OW66369   9.540   8.076   3.837
55448SOL    HW166370   9.447   8.074   3.874
55448SOL    HW266371   9.541   8.037   3.745
55449SOL     OW66372   9.535   7.723   4.720
55449SOL    HW166373   9.570   7.706   4.812
55449SOL    HW266374   9.447   7.678   4.708
55450SOL     OW66375   9.329   7.816   4.371
55450SOL    HW166376   9.247   7.859   4.410
55450SOL    HW266377   9.301   7.743   4.308
55451SOL     OW66378   9.879   8.723   4.889
55451SOL    HW166379   9.786   8.716   4.852
55451SOL    HW266380   9.890   8.812   4.933
55452SOL     OW66381  10.865   8.959   4.427
55452SOL    HW166382  10.808   8.943   4.508
55452SOL    HW266383  10.806   8.969   4.347
55453SOL     OW66384  10.445   8.151   4.441
55453SOL    HW166385  10.502   8.229   4.416
55453SOL    HW266386  10.385   8.177   4.517
55454SOL     OW66387  11.065   8.055   3.955
55454SOL    HW166388  11.053   8.042   3.856
55454SOL    HW266389  11.035   7.974   4.004
55455SOL     OW66390  10.078   8.592   4.747
55455SOL    HW166391  10.000   8.609   4.807
55455SOL    HW266392  10.112   8.679   4.711
55456SOL     OW66393  10.160   8.246   5.547
55456SOL    HW166394  10.156   8.322   5.612
55456SOL    HW266395  10.182   8.282   5.456
55457SOL     OW66396   9.995   8.460   4.389
55457SOL    HW166397  10.064   8.444   4.459
55457SOL    HW266398   9.922   8.517   4.427
55458SOL     OW66399   9.996   8.609   5.527
55458SOL    HW166400  10.056   8.688   5.541
55458SOL    HW266401   9.910   8.640   5.486
55459SOL     OW66402   9.645   8.883   4.785
55459SOL    HW166403   9.567   8.852   4.732
55459SOL    HW266404   9.703   8.941   4.728
55460SOL     OW66405  10.770   8.953   5.063
55460SOL    HW166406  10.794   9.047   5.089
55460SOL    HW266407  10.754   8.899   5.145
55461SOL     OW66408   9.748   7.840   5.223
55461SOL    HW166409   9.830   7.784   5.232
55461SOL    HW266410   9.667   7.782   5.227
55462SOL     OW66411  10.913   7.895   4.461
55462SOL    HW166412  10.839   7.941   4.411
55462SOL    HW266413  10.964   7.963   4.514
55463SOL     OW66414   9.541   9.161   4.207
55463SOL    HW166415   9.575   9.238   4.261
55463SOL    HW266416   9.585   9.161   4.117
55464SOL     OW66417  10.437   8.789   5.414
55464SOL    HW166418  10.484   8.789   5.502
55464SOL    HW266419  10.389   8.702   5.403
55465SOL     OW66420   9.540   8.882   4.262
55465SOL    HW166421   9.514   8.978   4.262
55465SOL    HW266422   9.469   8.828   4.307
55466SOL     OW66423   9.550   8.539   4.610
55466SOL    HW166424   9.564   8.455   4.662
55466SOL    HW266425   9.495   8.603   4.665
55467SOL     OW66426   9.930   9.234   5.163
55467SOL    HW166427   9.838   9.217   5.198
55467SOL    HW266428   9.958   9.326   5.189
55468SOL     OW66429   9.916   8.412   3.847
55468SOL    HW166430   9.923   8.496   3.793
55468SOL    HW266431   9.962   8.425   3.935
55469SOL     OW66432  10.904   7.562   5.204
55469SOL    HW166433  10.886   7.629   5.132
55469SOL    HW266434  10.901   7.608   5.293
55470SOL     OW66435   9.432   8.091   4.287
55470SOL    HW166436   9.387   8.003   4.304
55470SOL    HW266437   9.431   8.145   4.371
55471SOL     OW66438  11.152   9.215   4.083
55471SOL    HW166439  11.206   9.186   4.163
55471SOL    HW266440  11.182   9.305   4.054
55472SOL     OW66441   9.337   9.044   3.841
55472SOL    HW166442   9.318   8.948   3.862
55472SOL    HW266443   9.304   9.102   3.916
55473SOL     OW66444  10.999   8.370   4.336
55473SOL    HW166445  11.094   8.341   4.344
55473SOL    HW266446  10.991   8.435   4.261
55474SOL     OW66447  10.951   8.556   4.156
55474SOL    HW166448  11.037   8.558   4.104
55474SOL    HW266449  10.965   8.603   4.244
55475SOL     OW66450   9.423   8.185   5.321
55475SOL    HW166451   9.511   8.172   5.366
55475SOL    HW266452   9.410   8.282   5.299
55476SOL     OW66453   9.923   8.813   4.450
55476SOL    HW166454   9.874   8.726   4.459
55476SOL    HW266455   9.900   8.856   4.363
55477SOL     OW66456  10.603   8.676   5.147
55477SOL    HW166457  10.640   8.603   5.089
55477SOL    HW266458  10.655   8.681   5.232
55478SOL     OW66459  10.119   7.452   4.226
55478SOL    HW166460  10.159   7.543   4.217
55478SOL    HW266461  10.019   7.460   4.232
55479SOL     OW66462   9.507   8.424   4.988
55479SOL    HW166463   9.596   8.379   4.974
55479SOL    HW266464   9.434   8.359   4.969
55480SOL     OW66465  10.835   8.447   3.914
55480SOL    HW166466  10.772   8.371   3.927
55480SOL    HW266467  10.883   8.465   4.000
55481SOL     OW66468  10.497   9.240   5.340
55481SOL    HW166469  10.521   9.300   5.264
55481SOL    HW266470  10.504   9.145   5.310
55482SOL     OW66471   9.627   7.699   5.525
55482SOL    HW166472   9.698   7.770   5.531
55482SOL    HW266473   9.539   7.738   5.553
55483SOL     OW66474  10.776   8.865   4.677
55483SOL    HW166475  10.717   8.871   4.757
55483SOL    HW266476  10.761   8.777   4.631
55484SOL     OW66477  10.977   9.162   4.296
55484SOL    HW166478  10.936   9.139   4.208
55484SOL    HW266479  10.959   9.088   4.361
55485SOL     OW66480   9.908   8.177   3.994
55485SOL    HW166481   9.932   8.246   3.926
55485SOL    HW266482   9.830   8.210   4.048
55486SOL     OW66483  10.591   7.793   4.668
55486SOL    HW166484  10.505   7.743   4.655
55486SOL    HW266485  10.653   7.739   4.724
55487SOL     OW66486  10.886   9.110   4.031
55487SOL    HW166487  10.975   9.156   4.034
55487SOL    HW266488  10.865   9.086   3.936
55488SOL     OW66489  10.117   8.053   5.189
55488SOL    HW166490  10.070   8.050   5.278
55488SOL    HW266491  10.066   7.998   5.123
55489SOL     OW66492  10.704   7.917   5.398
55489SOL    HW166493  10.684   7.960   5.486
55489SOL    HW266494  10.782   7.855   5.407
55490SOL     OW66495  10.283   8.338   5.296
55490SOL    HW166496  10.329   8.254   5.267
55490SOL    HW266497  10.227   8.372   5.221
55491SOL     OW66498  10.301   7.858   4.966
55491SOL    HW166499  10.224   7.892   5.020
55491SOL    HW266500  10.267   7.807   4.887
55492SOL     OW66501  10.351   8.149   4.153
55492SOL    HW166502  10.377   8.145   4.249
55492SOL    HW266503  10.266   8.098   4.139
55493SOL     OW66504   9.386   8.259   4.513
55493SOL    HW166505   9.485   8.247   4.522
55493SOL    HW266506   9.362   8.354   4.534
55494SOL     OW66507   9.440   9.269   5.295
55494SOL    HW166508   9.430   9.254   5.394
55494SOL    HW266509   9.354   9.305   5.259
55495SOL     OW66510  10.175   7.796   3.919
55495SOL    HW166511  10.234   7.859   3.870
55495SOL    HW266512  10.194   7.702   3.890
55496SOL     OW66513  11.029   8.033   5.555
55496SOL    HW166514  11.003   8.122   5.519
55496SOL    HW266515  11.027   7.965   5.482
55497SOL     OW66516  10.672   8.592   4.269
55497SOL    HW166517  10.755   8.563   4.221
55497SOL    HW266518  10.623   8.659   4.213
55498SOL     OW66519   9.860   7.644   4.609
55498SOL    HW166520   9.855   7.639   4.709
55498SOL    HW266521   9.862   7.740   4.580
55499SOL     OW66522  10.318   8.904   4.201
55499SOL    HW166523  10.272   8.976   4.149
55499SOL    HW266524  10.314   8.924   4.299
55500SOL     OW66525   9.661   9.249   4.577
55500SOL    HW166526   9.711   9.163   4.583
55500SOL    HW266527   9.726   9.326   4.574
55501SOL     OW66528  11.105   8.514   4.597
55501SOL    HW166529  11.043   8.499   4.521
55501SOL    HW266530  11.053   8.525   4.682
55502SOL     OW66531  10.537   8.998   5.230
55502SOL    HW166532  10.543   8.921   5.294
55502SOL    HW266533  10.485   8.972   5.150
55503SOL     OW66534   9.631   8.391   3.966
55503SOL    HW166535   9.713   8.430   3.924
55503SOL    HW266536   9.604   8.309   3.917
55504SOL     OW66537  10.768   8.183   4.452
55504SOL    HW166538  10.763   8.118   4.527
55504SOL    HW266539  10.848   8.242   4.465
55505SOL     OW66540   9.771   8.714   5.451
55505SOL    HW166541   9.721   8.715   5.365
55505SOL    HW266542   9.708   8.696   5.527
55506SOL     OW66543  10.421   9.224   3.961
55506SOL    HW166544  10.361   9.162   4.011
55506SOL    HW266545  10.452   9.180   3.876
55507SOL     OW66546   9.512   7.733   5.222
55507SOL    HW166547   9.432   7.793   5.209
55507SOL    HW266548   9.502   7.684   5.308
55508SOL     OW66549  10.942   8.825   3.805
55508SOL    HW166550  10.910   8.919   3.795
55508SOL    HW266551  10.866   8.762   3.793
55509SOL     OW66552   9.774   9.191   4.047
55509SOL    HW166553   9.807   9.230   4.133
55509SOL    HW266554   9.850   9.184   3.982
55510SOL     OW66555  10.710   7.555   4.150
55510SOL    HW166556  10.686   7.518   4.060
55510SOL    HW266557  10.809   7.571   4.154
55511SOL     OW66558   9.559   9.233   4.965
55511SOL    HW166559   9.616   9.168   5.015
55511SOL    HW266560   9.543   9.200   4.872
55512SOL     OW66561  10.250   9.146   4.628
55512SOL    HW166562  10.330   9.089   4.649
55512SOL    HW266563  10.201   9.106   4.551
55513SOL     OW66564   9.692   8.148   4.204
55513SOL    HW166565   9.737   8.058   4.201
55513SOL    HW266566   9.598   8.137   4.237
55514SOL     OW66567  10.857   7.670   5.453
55514SOL    HW166568  10.852   7.707   5.545
55514SOL    HW266569  10.785   7.601   5.441
55515SOL     OW66570   9.924   7.570   3.841
55515SOL    HW166571  10.022   7.548   3.848
55515SOL    HW266572   9.893   7.553   3.748
55516SOL     OW66573  10.091   7.712   5.473
55516SOL    HW166574  10.158   7.651   5.516
55516SOL    HW266575  10.018   7.731   5.538
55517SOL     OW66576  10.198   8.962   4.919
55517SOL    HW166577  10.175   8.937   4.825
55517SOL    HW266578  10.259   8.893   4.958
55518SOL     OW66579  10.661   8.038   5.157
55518SOL    HW166580  10.689   7.995   5.242
55518SOL    HW266581  10.686   8.134   5.158
55519SOL     OW66582  10.113   8.850   4.648
55519SOL    HW166583  10.203   8.864   4.606
55519SOL    HW266584  10.042   8.852   4.577
55520SOL     OW66585  10.232   7.951   4.623
55520SOL    HW166586  10.207   7.942   4.527
55520SOL    HW266587  10.280   7.869   4.654
55521SOL     OW66588   9.849   7.512   4.236
55521SOL    HW166589   9.768   7.513   4.294
55521SOL    HW266590   9.852   7.595   4.181
55522SOL     OW66591  10.744   8.636   3.765
55522SOL    HW166592  10.776   8.560   3.822
55522SOL    HW266593  10.652   8.663   3.795
55523SOL     OW66594   9.607   7.483   3.895
55523SOL    HW166595   9.656   7.567   3.874
55523SOL    HW266596   9.669   7.418   3.940
55524SOL     OW66597  10.245   7.684   4.204
55524SOL    HW166598  10.197   7.725   4.126
55524SOL    HW266599  10.344   7.682   4.185
55525SOL     OW66600  10.386   8.131   5.188
55525SOL    HW166601  10.306   8.070   5.191
55525SOL    HW266602  10.467   8.078   5.164
55526SOL     OW66603  10.537   9.018   4.517
55526SOL    HW166604  10.558   9.092   4.452
55526SOL    HW266605  10.605   9.018   4.590
55527SOL     OW66606   9.769   8.600   4.465
55527SOL    HW166607   9.698   8.573   4.530
55527SOL    HW266608   9.743   8.572   4.372
55528SOL     OW66609  10.581   9.245   4.315
55528SOL    HW166610  10.625   9.309   4.251
55528SOL    HW266611  10.531   9.297   4.385
55529SOL     OW66612  10.342   7.997   3.740
55529SOL    HW166613  10.301   8.079   3.701
55529SOL    HW266614  10.406   8.023   3.813
55530SOL     OW66615   9.388   8.004   5.110
55530SOL    HW166616   9.480   8.003   5.069
55530SOL    HW266617   9.382   8.078   5.177
55531SOL     OW66618   9.871   7.670   4.871
55531SOL    HW166619   9.909   7.586   4.908
55531SOL    HW266620   9.783   7.689   4.915
55532SOL     OW66621  10.176   7.902   4.366
55532SOL    HW166622  10.144   7.974   4.304
55532SOL    HW266623  10.200   7.821   4.313
55533SOL     OW66624  10.327   7.487   4.477
55533SOL    HW166625  10.255   7.492   4.408
55533SOL    HW266626  10.303   7.418   4.546
55534SOL     OW66627  10.739   8.621   4.591
55534SOL    HW166628  10.684   8.537   4.584
55534SOL    HW266629  10.765   8.650   4.499
55535SOL     OW66630  10.776   8.038   4.716
55535SOL    HW166631  10.746   7.943   4.723
55535SOL    HW266632  10.849   8.054   4.782
55536SOL     OW66633  11.167   8.281   4.101
55536SOL    HW166634  11.209   8.217   4.165
55536SOL    HW266635  11.129   8.230   4.023
55537SOL     OW66636   9.798   8.833   3.898
55537SOL    HW166637   9.711   8.818   3.945
55537SOL    HW266638   9.781   8.859   3.803
55538SOL     OW66639  10.974   8.728   4.381
55538SOL    HW166640  11.073   8.736   4.395
55538SOL    HW266641  10.929   8.812   4.412
55539SOL     OW66642  10.700   8.023   3.802
55539SOL    HW166643  10.646   8.002   3.883
55539SOL    HW266644  10.791   7.982   3.811
55540SOL     OW66645   9.837   7.704   4.052
55540SOL    HW166646   9.864   7.645   3.977
55540SOL    HW266647   9.837   7.799   4.021
55541SOL     OW66648  11.064   8.671   5.312
55541SOL    HW166649  11.155   8.632   5.299
55541SOL    HW266650  11.072   8.767   5.336
55542SOL     OW66651  10.374   8.795   5.064
55542SOL    HW166652  10.294   8.772   5.119
55542SOL    HW266653  10.457   8.769   5.113
55543SOL     OW66654  10.902   9.077   5.349
55543SOL    HW166655  10.929   9.111   5.259
55543SOL    HW266656  10.981   9.039   5.395
55544SOL     OW66657  10.421   8.643   4.824
55544SOL    HW166658  10.381   8.687   4.905
55544SOL    HW266659  10.380   8.680   4.741
55545SOL     OW66660  10.948   8.547   4.803
55545SOL    HW166661  10.953   8.628   4.862
55545SOL    HW266662  10.862   8.549   4.752
55546SOL     OW66663  10.225   7.537   5.126
55546SOL    HW166664  10.250   7.517   5.031
55546SOL    HW266665  10.297   7.593   5.168
55547SOL     OW66666  10.290   8.564   5.443
55547SOL    HW166667  10.191   8.570   5.453
55547SOL    HW266668  10.313   8.484   5.387
55548SOL     OW66669  10.015   8.498   4.092
55548SOL    HW166670  10.001   8.505   4.191
55548SOL    HW266671  10.099   8.447   4.074
55549SOL     OW66672   9.720   8.261   4.975
55549SOL    HW166673   9.806   8.273   5.025
55549SOL    HW266674   9.678   8.174   5.002
55550SOL     OW66675  10.584   7.834   4.986
55550SOL    HW166676  10.605   7.908   5.050
55550SOL    HW266677  10.495   7.851   4.943
55551SOL     OW66678   9.374   9.012   5.055
55551SOL    HW166679   9.328   9.094   5.021
55551SOL    HW266680   9.472   9.031   5.064
55552SOL     OW66681   9.677   8.548   4.225
55552SOL    HW166682   9.670   8.631   4.169
55552SOL    HW266683   9.681   8.468   4.165
55553SOL     OW66684   9.876   7.985   4.589
55553SOL    HW166685   9.888   8.051   4.515
55553SOL    HW266686   9.922   8.019   4.672
55554SOL     OW66687  10.562   8.796   4.112
55554SOL    HW166688  10.612   8.873   4.152
55554SOL    HW266689  10.467   8.798   4.144
55555SOL     OW66690  10.582   8.893   4.866
55555SOL    HW166691  10.629   8.906   4.953
55555SOL    HW266692  10.516   8.819   4.875
55556SOL     OW66693  10.892   8.087   4.196
55556SOL    HW166694  10.861   8.148   4.269
55556SOL    HW266695  10.942   8.139   4.127
55557SOL     OW66696   9.664   8.958   5.053
55557SOL    HW166697   9.643   8.914   4.966
55557SOL    HW266698   9.761   8.984   5.056
55558SOL     OW66699  10.897   8.227   5.394
55558SOL    HW166700  10.805   8.265   5.389
55558SOL    HW266701  10.957   8.274   5.329
55559SOL     OW66702  10.323   7.553   5.494
55559SOL    HW166703  10.329   7.638   5.442
55559SOL    HW266704  10.355   7.477   5.437
55560SOL     OW66705   9.814   7.498   5.464
55560SOL    HW166706   9.772   7.441   5.394
55560SOL    HW266707   9.748   7.567   5.496
55561SOL     OW66708   9.883   8.318   4.753
55561SOL    HW166709   9.927   8.407   4.744
55561SOL    HW266710   9.820   8.318   4.830
55562SOL     OW66711  10.670   8.310   4.769
55562SOL    HW166712  10.595   8.310   4.703
55562SOL    HW266713  10.707   8.218   4.778
55563SOL     OW66714  10.519   7.973   3.999
55563SOL    HW166715  10.532   7.889   4.053
55563SOL    HW266716  10.490   8.047   4.059
55564SOL     OW66717   9.617   7.661   4.955
55564SOL    HW166718   9.594   7.698   5.045
55564SOL    HW266719   9.587   7.566   4.949
55565SOL     OW66720   9.347   8.758   5.006
55565SOL    HW166721   9.400   8.709   5.074
55565SOL    HW266722   9.369   8.856   5.011
55566SOL     OW66723  10.042   8.082   4.788
55566SOL    HW166724  10.101   8.056   4.712
55566SOL    HW266725  10.014   8.178   4.777
55567SOL     OW66726  11.038   8.383   5.578
55567SOL    HW166727  10.992   8.376   5.489
55567SOL    HW266728  10.976   8.427   5.644
55568SOL     OW66729   9.617   7.511   4.342
55568SOL    HW166730   9.606   7.605   4.375
55568SOL    HW266731   9.612   7.448   4.419
55569SOL     OW66732  10.932   7.815   4.098
55569SOL    HW166733  10.934   7.739   4.162
55569SOL    HW266734  10.884   7.892   4.138
55570SOL     OW66735  10.333   8.214   4.690
55570SOL    HW166736  10.348   8.235   4.786
55570SOL    HW266737  10.303   8.119   4.681
55571SOL     OW66738  10.290   9.021   5.424
55571SOL    HW166739  10.270   9.065   5.336
55571SOL    HW266740  10.329   8.930   5.408
55572SOL     OW66741  11.169   8.966   5.329
55572SOL    HW166742  11.183   8.993   5.234
55572SOL    HW266743  11.252   8.988   5.382
55573SOL     OW66744   9.660   8.346   5.528
55573SOL    HW166745   9.736   8.390   5.576
55573SOL    HW266746   9.695   8.299   5.446
55574SOL     OW66747  10.850   7.722   3.849
55574SOL    HW166748  10.789   7.647   3.872
55574SOL    HW266749  10.872   7.774   3.932
55575SOL     OW66750  10.613   8.286   3.766
55575SOL    HW166751  10.647   8.193   3.781
55575SOL    HW266752  10.631   8.313   3.671
55576SOL     OW66753  10.378   8.781   4.573
55576SOL    HW166754  10.385   8.697   4.518
55576SOL    HW266755  10.440   8.850   4.537
55577SOL     OW66756   9.629   8.258   4.673
55577SOL    HW166757   9.722   8.294   4.678
55577SOL    HW266758   9.623   8.173   4.725
55578SOL     OW66759   9.649   7.957   4.730
55578SOL    HW166760   9.597   7.874   4.713
55578SOL    HW266761   9.726   7.962   4.666
55579SOL     OW66762  10.448   7.828   5.402
55579SOL    HW166763  10.403   7.891   5.466
55579SOL    HW266764  10.541   7.859   5.385
55580SOL     OW66765  10.470   7.655   5.201
55580SOL    HW166766  10.470   7.719   5.278
55580SOL    HW266767  10.498   7.703   5.118
55581SOL     OW66768   9.318   8.774   3.924
55581SOL    HW166769   9.225   8.795   3.893
55581SOL    HW266770   9.328   8.675   3.937
55582SOL     OW66771   9.398   9.249   4.651
55582SOL    HW166772   9.356   9.163   4.624
55582SOL    HW266773   9.492   9.252   4.617
55583SOL     OW66774   9.814   9.016   4.634
55583SOL    HW166775   9.880   9.090   4.643
55583SOL    HW266776   9.858   8.937   4.592
55584SOL     OW66777  10.312   8.244   4.962
55584SOL    HW166778  10.353   8.212   5.048
55584SOL    HW266779  10.216   8.217   4.959
55585SOL     OW66780   9.350   7.992   4.838
55585SOL    HW166781   9.435   7.959   4.797
55585SOL    HW266782   9.363   8.007   4.936
55586SOL     OW66783   9.499   7.968   5.446
55586SOL    HW166784   9.558   7.928   5.376
55586SOL    HW266785   9.441   8.039   5.405
55587SOL     OW66786  10.679   8.398   5.384
55587SOL    HW166787  10.718   8.487   5.404
55587SOL    HW266788  10.689   8.378   5.287
55588SOL     OW66789  10.125   8.020   4.049
55588SOL    HW166790  10.132   7.931   4.003
55588SOL    HW266791  10.031   8.054   4.041
55589SOL     OW66792  10.967   8.052   4.930
55589SOL    HW166793  10.929   7.983   4.992
55589SOL    HW266794  11.049   8.016   4.886
55590SOL     OW66795   9.562   9.012   5.468
55590SOL    HW166796   9.532   9.069   5.544
55590SOL    HW266797   9.555   8.915   5.494
55591SOL     OW66798   9.981   7.912   4.993
55591SOL    HW166799   9.947   7.823   4.963
55591SOL    HW266800  10.007   7.966   4.913
55592SOL     OW66801  10.240   9.126   5.189
55592SOL    HW166802  10.216   9.108   5.094
55592SOL    HW266803  10.270   9.220   5.199
55593SOL     OW66804   9.783   7.948   3.915
55593SOL    HW166805   9.844   8.028   3.919
55593SOL    HW266806   9.688   7.979   3.922
55594SOL     OW66807   9.469   8.585   5.190
55594SOL    HW166808   9.491   8.524   5.266
55594SOL    HW266809   9.479   8.536   5.104
55595SOL     OW66810  10.657   8.507   4.958
55595SOL    HW166811  10.681   8.444   4.884
55595SOL    HW266812  10.567   8.547   4.940
55596SOL     OW66813  10.612   8.303   4.033
55596SOL    HW166814  10.526   8.272   4.075
55596SOL    HW266815  10.608   8.289   3.934
55597SOL     OW66816  11.069   9.195   4.878
55597SOL    HW166817  11.130   9.225   4.805
55597SOL    HW266818  11.031   9.106   4.856
55598SOL     OW66819  10.562   9.179   4.852
55598SOL    HW166820  10.646   9.184   4.798
55598SOL    HW266821  10.539   9.083   4.870
55599SOL     OW66822   9.393   8.706   4.746
55599SOL    HW166823   9.388   8.705   4.846
55599SOL    HW266824   9.310   8.665   4.708
55600SOL     OW66825  11.036   7.583   4.247
55600SOL    HW166826  11.109   7.566   4.180
55600SOL    HW266827  11.005   7.496   4.285
55601SOL     OW66828  10.698   9.021   4.201
55601SOL    HW166829  10.765   9.033   4.127
55601SOL    HW266830  10.658   9.110   4.224
55602SOL     OW66831   9.440   9.242   5.575
55602SOL    HW166832   9.399   9.168   5.628
55602SOL    HW266833   9.504   9.293   5.633
55603SOL     OW66834  10.590   8.375   4.396
55603SOL    HW166835  10.650   8.294   4.398
55603SOL    HW266836  10.630   8.444   4.336
55604SOL     OW66837  10.140   8.721   5.146
55604SOL    HW166838  10.135   8.754   5.241
55604SOL    HW266839  10.054   8.740   5.100
55605SOL     OW66840   9.982   9.064   3.878
55605SOL    HW166841   9.991   9.074   3.779
55605SOL    HW266842   9.942   8.975   3.899
55606SOL     OW66843  10.960   9.168   5.118
55606SOL    HW166844  11.013   9.178   5.034
55606SOL    HW266845  10.933   9.258   5.152
55607SOL     OW66846  11.151   7.623   4.687
55607SOL    HW166847  11.190   7.538   4.651
55607SOL    HW266848  11.053   7.625   4.668
55608SOL     OW66849   9.573   7.774   4.444
55608SOL    HW166850   9.494   7.825   4.410
55608SOL    HW266851   9.564   7.759   4.542
55609SOL     OW66852  10.504   9.060   3.755
55609SOL    HW166853  10.510   8.967   3.792
55609SOL    HW266854  10.445   9.060   3.675
55610SOL     OW66855  10.132   8.450   5.096
55610SOL    HW166856  10.172   8.449   5.004
55610SOL    HW266857  10.142   8.542   5.136
55611SOL     OW66858  10.226   8.358   4.015
55611SOL    HW166859  10.289   8.396   3.947
55611SOL    HW266860  10.266   8.275   4.054
55612SOL     OW66861  10.814   9.055   3.768
55612SOL    HW166862  10.722   9.092   3.775
55612SOL    HW266863  10.852   9.075   3.678
55613SOL     OW66864   9.682   8.736   5.214
55613SOL    HW166865   9.669   8.829   5.180
55613SOL    HW266866   9.598   8.684   5.201
55614SOL     OW66867  10.924   8.740   5.013
55614SOL    HW166868  10.984   8.743   5.093
55614SOL    HW266869  10.849   8.804   5.026
55615SOL     OW66870  10.349   8.546   4.420
55615SOL    HW166871  10.279   8.499   4.474
55615SOL    HW266872  10.408   8.478   4.377
55616SOL     OW66873  10.324   7.684   4.695
55616SOL    HW166874  10.316   7.648   4.602
55616SOL    HW266875  10.322   7.608   4.760
55617SOL     OW66876   9.900   8.935   4.215
55617SOL    HW166877   9.942   8.877   4.145
55617SOL    HW266878   9.856   9.014   4.171
55618SOL     OW66879  11.019   7.833   5.105
55618SOL    HW166880  11.092   7.902   5.109
55618SOL    HW266881  11.047   7.758   5.046
55619SOL     OW66882   9.565   8.796   4.014
55619SOL    HW166883   9.469   8.797   3.987
55619SOL    HW266884   9.577   8.849   4.098
55620SOL     OW66885   9.415   8.461   5.450
55620SOL    HW166886   9.338   8.428   5.504
55620SOL    HW266887   9.500   8.431   5.492
55621SOL     OW66888   9.982   7.651   5.213
55621SOL    HW166889  10.072   7.635   5.173
55621SOL    HW266890   9.990   7.656   5.312
55622SOL     OW66891   9.385   7.793   3.757
55622SOL    HW166892   9.293   7.765   3.728
55622SOL    HW266893   9.416   7.870   3.701
55623SOL     OW66894  10.750   8.304   5.122
55623SOL    HW166895  10.693   8.356   5.059
55623SOL    HW266896  10.846   8.316   5.098
55624SOL     OW66897   9.382   7.614   4.042
55624SOL    HW166898   9.365   7.697   3.988
55624SOL    HW266899   9.472   7.577   4.020
55625SOL     OW66900  10.493   8.783   3.843
55625SOL    HW166901  10.394   8.772   3.845
55625SOL    HW266902  10.527   8.798   3.936
55626SOL     OW66903   9.923   8.290   5.155
55626SOL    HW166904   9.979   8.371   5.138
55626SOL    HW266905   9.982   8.210   5.158
55627SOL     OW66906  10.803   9.215   4.683
55627SOL    HW166907  10.836   9.279   4.614
55627SOL    HW266908  10.869   9.209   4.758
55628SOL     OW66909  10.026   8.013   5.432
55628SOL    HW166910  10.045   8.078   5.506
55628SOL    HW266911  10.086   7.933   5.441
55629SOL     OW66912  10.760   8.668   5.357
55629SOL    HW166913  10.751   8.658   5.456
55629SOL    HW266914  10.856   8.661   5.331
55630SOL     OW66915   9.700   9.189   5.284
55630SOL    HW166916   9.609   9.230   5.282
55630SOL    HW266917   9.693   9.095   5.316
55631SOL     OW66918  10.984   8.331   4.978
55631SOL    HW166919  10.957   8.242   4.941
55631SOL    HW266920  10.985   8.399   4.905
55632SOL     OW66921  10.535   7.773   4.173
55632SOL    HW166922  10.600   7.699   4.162
55632SOL    HW266923  10.555   7.823   4.257
55633SOL     OW66924   9.904   8.193   4.376
55633SOL    HW166925   9.954   8.278   4.357
55633SOL    HW266926   9.816   8.195   4.328
55634SOL     OW66927  11.087   7.790   5.366
55634SOL    HW166928  11.070   7.821   5.272
55634SOL    HW266929  11.003   7.753   5.404
55635SOL     OW66930  11.040   8.382   5.241
55635SOL    HW166931  11.078   8.473   5.256
55635SOL    HW266932  11.032   8.365   5.142
55636SOL     OW66933  10.169   8.822   3.740
55636SOL    HW166934  10.123   8.837   3.828
55636SOL    HW266935  10.213   8.907   3.710
55637SOL     OW66936   9.971   9.238   4.677
55637SOL    HW166937   9.925   9.326   4.664
55637SOL    HW266938  10.070   9.250   4.670
55638SOL     OW66939  10.169   8.404   4.585
55638SOL    HW166940  10.223   8.335   4.633
55638SOL    HW266941  10.137   8.473   4.651
55639SOL     OW66942  10.393   8.432   3.811
55639SOL    HW166943  10.370   8.485   3.729
55639SOL    HW266944  10.474   8.376   3.792
55640SOL     OW66945  11.171   9.017   4.575
55640SOL    HW166946  11.100   9.005   4.505
55640SOL    HW266947  11.172   8.938   4.635
55641SOL     OW66948   9.531   8.762   5.568
55641SOL    HW166949   9.466   8.689   5.547
55641SOL    HW266950   9.535   8.776   5.666
55642SOL     OW66951   9.389   8.688   4.377
55642SOL    HW166952   9.388   8.641   4.465
55642SOL    HW266953   9.471   8.660   4.326
55643SOL     OW66954   9.982   8.839   5.348
55643SOL    HW166955   9.904   8.789   5.386
55643SOL    HW266956   9.979   8.934   5.379
55644SOL     OW66957  11.134   7.640   4.951
55644SOL    HW166958  11.130   7.550   4.995
55644SOL    HW266959  11.137   7.629   4.852
55645SOL     OW66960   9.738   7.872   4.244
55645SOL    HW166961   9.768   7.800   4.182
55645SOL    HW266962   9.699   7.832   4.327
55646SOL     OW66963  11.015   8.935   4.828
55646SOL    HW166964  10.922   8.910   4.801
55646SOL    HW266965  11.041   8.885   4.910
55647SOL     OW66966   9.627   7.995   5.004
55647SOL    HW166967   9.665   7.936   5.076
55647SOL    HW266968   9.667   7.969   4.916
55648SOL     OW66969  10.122   9.034   4.411
55648SOL    HW166970  10.154   9.044   4.317
55648SOL    HW266971  10.043   8.972   4.413
55649SOL     OW66972  10.734   7.662   4.836
55649SOL    HW166973  10.786   7.597   4.891
55649SOL    HW266974  10.685   7.725   4.897
55650SOL     OW66975  10.311   7.482   4.878
55650SOL    HW166976  10.248   7.410   4.847
55650SOL    HW266977  10.404   7.446   4.878
55651SOL     OW66978  10.080   8.778   4.025
55651SOL    HW166979  10.034   8.691   4.042
55651SOL    HW266980  10.171   8.775   4.066
55652SOL     OW66981   9.928   9.015   5.008
55652SOL    HW166982   9.923   9.097   5.065
55652SOL    HW266983  10.017   9.012   4.963
55653SOL     OW66984  10.662   7.500   3.892
55653SOL    HW166985  10.697   7.459   3.808
55653SOL    HW266986  10.572   7.462   3.912
55654SOL     OW66987  10.610   7.901   4.415
55654SOL    HW166988  10.551   7.981   4.419
55654SOL    HW266989  10.625   7.866   4.508
55655SOL     OW66990  10.903   7.669   4.606
55655SOL    HW166991  10.819   7.668   4.660
55655SOL    HW266992  10.905   7.752   4.550
55656SOL     OW66993   9.349   8.525   4.024
55656SOL    HW166994   9.448   8.514   4.015
55656SOL    HW266995   9.309   8.439   4.056
55657SOL     OW66996  10.185   9.094   4.061
55657SOL    HW166997  10.108   9.059   4.007
55657SOL    HW266998  10.153   9.165   4.123
55658SOL     OW66999   9.540   8.076   5.699
55658SOL    HW167000   9.447   8.074   5.736
55658SOL    HW267001   9.541   8.037   5.607
55659SOL     OW67002   9.535   7.723   6.582
55659SOL    HW167003   9.570   7.706   6.674
55659SOL    HW267004   9.447   7.678   6.570
55660SOL     OW67005   9.329   7.816   6.233
55660SOL    HW167006   9.247   7.859   6.272
55660SOL    HW267007   9.301   7.743   6.170
55661SOL     OW67008   9.879   8.723   6.751
55661SOL    HW167009   9.786   8.716   6.714
55661SOL    HW267010   9.890   8.812   6.795
55662SOL     OW67011  10.865   8.959   6.289
55662SOL    HW167012  10.808   8.943   6.370
55662SOL    HW267013  10.806   8.969   6.209
55663SOL     OW67014  10.445   8.151   6.303
55663SOL    HW167015  10.502   8.229   6.278
55663SOL    HW267016  10.385   8.177   6.379
55664SOL     OW67017  11.065   8.055   5.817
55664SOL    HW167018  11.053   8.042   5.718
55664SOL    HW267019  11.035   7.974   5.866
55665SOL     OW67020  10.078   8.592   6.609
55665SOL    HW167021  10.000   8.609   6.669
55665SOL    HW267022  10.112   8.679   6.573
55666SOL     OW67023   9.995   8.460   6.251
55666SOL    HW167024  10.064   8.444   6.321
55666SOL    HW267025   9.922   8.517   6.289
55667SOL     OW67026   9.996   8.609   7.389
55667SOL    HW167027  10.056   8.688   7.403
55667SOL    HW267028   9.910   8.640   7.348
55668SOL     OW67029   9.645   8.883   6.647
55668SOL    HW167030   9.567   8.852   6.594
55668SOL    HW267031   9.703   8.941   6.590
55669SOL     OW67032  10.770   8.953   6.925
55669SOL    HW167033  10.794   9.047   6.951
55669SOL    HW267034  10.754   8.899   7.007
55670SOL     OW67035   9.748   7.840   7.085
55670SOL    HW167036   9.830   7.784   7.094
55670SOL    HW267037   9.667   7.782   7.089
55671SOL     OW67038  10.913   7.895   6.323
55671SOL    HW167039  10.839   7.941   6.273
55671SOL    HW267040  10.964   7.963   6.376
55672SOL     OW67041   9.541   9.161   6.069
55672SOL    HW167042   9.575   9.238   6.123
55672SOL    HW267043   9.585   9.161   5.979
55673SOL     OW67044  10.437   8.789   7.276
55673SOL    HW167045  10.484   8.789   7.364
55673SOL    HW267046  10.389   8.702   7.265
55674SOL     OW67047   9.540   8.882   6.124
55674SOL    HW167048   9.514   8.978   6.124
55674SOL    HW267049   9.469   8.828   6.169
55675SOL     OW67050   9.550   8.539   6.472
55675SOL    HW167051   9.564   8.455   6.524
55675SOL    HW267052   9.495   8.603   6.527
55676SOL     OW67053   9.930   9.234   7.025
55676SOL    HW167054   9.838   9.217   7.060
55676SOL    HW267055   9.958   9.326   7.051
55677SOL     OW67056   9.916   8.412   5.709
55677SOL    HW167057   9.923   8.496   5.655
55677SOL    HW267058   9.962   8.425   5.797
55678SOL     OW67059  10.904   7.562   7.066
55678SOL    HW167060  10.886   7.629   6.994
55678SOL    HW267061  10.901   7.608   7.155
55679SOL     OW67062   9.432   8.091   6.149
55679SOL    HW167063   9.387   8.003   6.166
55679SOL    HW267064   9.431   8.145   6.233
55680SOL     OW67065  11.152   9.215   5.945
55680SOL    HW167066  11.206   9.186   6.025
55680SOL    HW267067  11.182   9.305   5.916
55681SOL     OW67068   9.337   9.044   5.703
55681SOL    HW167069   9.318   8.948   5.724
55681SOL    HW267070   9.304   9.102   5.778
55682SOL     OW67071  10.999   8.370   6.198
55682SOL    HW167072  11.094   8.341   6.206
55682SOL    HW267073  10.991   8.435   6.123
55683SOL     OW67074  10.951   8.556   6.018
55683SOL    HW167075  11.037   8.558   5.966
55683SOL    HW267076  10.965   8.603   6.106
55684SOL     OW67077   9.423   8.185   7.183
55684SOL    HW167078   9.511   8.172   7.228
55684SOL    HW267079   9.410   8.282   7.161
55685SOL     OW67080   9.923   8.813   6.312
55685SOL    HW167081   9.874   8.726   6.321
55685SOL    HW267082   9.900   8.856   6.225
55686SOL     OW67083  10.603   8.676   7.009
55686SOL    HW167084  10.640   8.603   6.951
55686SOL    HW267085  10.655   8.681   7.094
55687SOL     OW67086  10.119   7.452   6.088
55687SOL    HW167087  10.159   7.543   6.079
55687SOL    HW267088  10.019   7.460   6.094
55688SOL     OW67089   9.507   8.424   6.850
55688SOL    HW167090   9.596   8.379   6.836
55688SOL    HW267091   9.434   8.359   6.831
55689SOL     OW67092  10.835   8.447   5.776
55689SOL    HW167093  10.772   8.371   5.789
55689SOL    HW267094  10.883   8.465   5.862
55690SOL     OW67095  10.497   9.240   7.202
55690SOL    HW167096  10.521   9.300   7.126
55690SOL    HW267097  10.504   9.145   7.172
55691SOL     OW67098   9.627   7.699   7.387
55691SOL    HW167099   9.698   7.770   7.393
55691SOL    HW267100   9.539   7.738   7.415
55692SOL     OW67101  10.776   8.865   6.539
55692SOL    HW167102  10.717   8.871   6.619
55692SOL    HW267103  10.761   8.777   6.493
55693SOL     OW67104  10.977   9.162   6.158
55693SOL    HW167105  10.936   9.139   6.070
55693SOL    HW267106  10.959   9.088   6.223
55694SOL     OW67107   9.908   8.177   5.856
55694SOL    HW167108   9.932   8.246   5.788
55694SOL    HW267109   9.830   8.210   5.910
55695SOL     OW67110  10.591   7.793   6.530
55695SOL    HW167111  10.505   7.743   6.517
55695SOL    HW267112  10.653   7.739   6.586
55696SOL     OW67113  10.886   9.110   5.893
55696SOL    HW167114  10.975   9.156   5.896
55696SOL    HW267115  10.865   9.086   5.798
55697SOL     OW67116  10.117   8.053   7.051
55697SOL    HW167117  10.070   8.050   7.140
55697SOL    HW267118  10.066   7.998   6.985
55698SOL     OW67119  10.704   7.917   7.260
55698SOL    HW167120  10.684   7.960   7.348
55698SOL    HW267121  10.782   7.855   7.269
55699SOL     OW67122  10.283   8.338   7.158
55699SOL    HW167123  10.329   8.254   7.129
55699SOL    HW267124  10.227   8.372   7.083
55700SOL     OW67125  10.301   7.858   6.828
55700SOL    HW167126  10.224   7.892   6.882
55700SOL    HW267127  10.267   7.807   6.749
55701SOL     OW67128  10.351   8.149   6.015
55701SOL    HW167129  10.377   8.145   6.111
55701SOL    HW267130  10.266   8.098   6.001
55702SOL     OW67131   9.386   8.259   6.375
55702SOL    HW167132   9.485   8.247   6.384
55702SOL    HW267133   9.362   8.354   6.396
55703SOL     OW67134   9.440   9.269   7.157
55703SOL    HW167135   9.430   9.254   7.256
55703SOL    HW267136   9.354   9.305   7.121
55704SOL     OW67137  10.175   7.796   5.781
55704SOL    HW167138  10.234   7.859   5.732
55704SOL    HW267139  10.194   7.702   5.752
55705SOL     OW67140  11.029   8.033   7.417
55705SOL    HW167141  11.003   8.122   7.381
55705SOL    HW267142  11.027   7.965   7.344
55706SOL     OW67143  10.672   8.592   6.131
55706SOL    HW167144  10.755   8.563   6.083
55706SOL    HW267145  10.623   8.659   6.075
55707SOL     OW67146   9.860   7.644   6.471
55707SOL    HW167147   9.855   7.639   6.571
55707SOL    HW267148   9.862   7.740   6.442
55708SOL     OW67149  10.318   8.904   6.063
55708SOL    HW167150  10.272   8.976   6.011
55708SOL    HW267151  10.314   8.924   6.161
55709SOL     OW67152   9.661   9.249   6.439
55709SOL    HW167153   9.711   9.163   6.445
55709SOL    HW267154   9.726   9.326   6.436
55710SOL     OW67155  11.105   8.514   6.459
55710SOL    HW167156  11.043   8.499   6.383
55710SOL    HW267157  11.053   8.525   6.544
55711SOL     OW67158  10.537   8.998   7.092
55711SOL    HW167159  10.543   8.921   7.156
55711SOL    HW267160  10.485   8.972   7.012
55712SOL     OW67161   9.631   8.391   5.828
55712SOL    HW167162   9.713   8.430   5.786
55712SOL    HW267163   9.604   8.309   5.779
55713SOL     OW67164  10.768   8.183   6.314
55713SOL    HW167165  10.763   8.118   6.389
55713SOL    HW267166  10.848   8.242   6.327
55714SOL     OW67167   9.771   8.714   7.313
55714SOL    HW167168   9.721   8.715   7.227
55714SOL    HW267169   9.708   8.696   7.389
55715SOL     OW67170  10.421   9.224   5.823
55715SOL    HW167171  10.361   9.162   5.873
55715SOL    HW267172  10.452   9.180   5.738
55716SOL     OW67173   9.512   7.733   7.084
55716SOL    HW167174   9.432   7.793   7.071
55716SOL    HW267175   9.502   7.684   7.170
55717SOL     OW67176  10.942   8.825   5.667
55717SOL    HW167177  10.910   8.919   5.657
55717SOL    HW267178  10.866   8.762   5.655
55718SOL     OW67179   9.774   9.191   5.909
55718SOL    HW167180   9.807   9.230   5.995
55718SOL    HW267181   9.850   9.184   5.844
55719SOL     OW67182  10.710   7.555   6.012
55719SOL    HW167183  10.686   7.518   5.922
55719SOL    HW267184  10.809   7.571   6.016
55720SOL     OW67185   9.559   9.233   6.827
55720SOL    HW167186   9.616   9.168   6.877
55720SOL    HW267187   9.543   9.200   6.734
55721SOL     OW67188  10.250   9.146   6.490
55721SOL    HW167189  10.330   9.089   6.511
55721SOL    HW267190  10.201   9.106   6.413
55722SOL     OW67191   9.692   8.148   6.066
55722SOL    HW167192   9.737   8.058   6.063
55722SOL    HW267193   9.598   8.137   6.099
55723SOL     OW67194  10.857   7.670   7.315
55723SOL    HW167195  10.852   7.707   7.407
55723SOL    HW267196  10.785   7.601   7.303
55724SOL     OW67197   9.924   7.570   5.703
55724SOL    HW167198  10.022   7.548   5.710
55724SOL    HW267199   9.893   7.553   5.610
55725SOL     OW67200  10.091   7.712   7.335
55725SOL    HW167201  10.158   7.651   7.378
55725SOL    HW267202  10.018   7.731   7.400
55726SOL     OW67203  10.198   8.962   6.781
55726SOL    HW167204  10.175   8.937   6.687
55726SOL    HW267205  10.259   8.893   6.820
55727SOL     OW67206  10.661   8.038   7.019
55727SOL    HW167207  10.689   7.995   7.104
55727SOL    HW267208  10.686   8.134   7.020
55728SOL     OW67209  10.113   8.850   6.510
55728SOL    HW167210  10.203   8.864   6.468
55728SOL    HW267211  10.042   8.852   6.439
55729SOL     OW67212  10.232   7.951   6.485
55729SOL    HW167213  10.207   7.942   6.389
55729SOL    HW267214  10.280   7.869   6.516
55730SOL     OW67215   9.849   7.512   6.098
55730SOL    HW167216   9.768   7.513   6.156
55730SOL    HW267217   9.852   7.595   6.043
55731SOL     OW67218  10.744   8.636   5.627
55731SOL    HW167219  10.776   8.560   5.684
55731SOL    HW267220  10.652   8.663   5.657
55732SOL     OW67221   9.607   7.483   5.757
55732SOL    HW167222   9.656   7.567   5.736
55732SOL    HW267223   9.669   7.418   5.802
55733SOL     OW67224  10.245   7.684   6.066
55733SOL    HW167225  10.197   7.725   5.988
55733SOL    HW267226  10.344   7.682   6.047
55734SOL     OW67227  10.386   8.131   7.050
55734SOL    HW167228  10.306   8.070   7.053
55734SOL    HW267229  10.467   8.078   7.026
55735SOL     OW67230  10.537   9.018   6.379
55735SOL    HW167231  10.558   9.092   6.314
55735SOL    HW267232  10.605   9.018   6.452
55736SOL     OW67233   9.769   8.600   6.327
55736SOL    HW167234   9.698   8.573   6.392
55736SOL    HW267235   9.743   8.572   6.234
55737SOL     OW67236  10.581   9.245   6.177
55737SOL    HW167237  10.625   9.309   6.113
55737SOL    HW267238  10.531   9.297   6.247
55738SOL     OW67239  10.342   7.997   5.602
55738SOL    HW167240  10.301   8.079   5.563
55738SOL    HW267241  10.406   8.023   5.675
55739SOL     OW67242   9.388   8.004   6.972
55739SOL    HW167243   9.480   8.003   6.931
55739SOL    HW267244   9.382   8.078   7.039
55740SOL     OW67245   9.871   7.670   6.733
55740SOL    HW167246   9.909   7.586   6.770
55740SOL    HW267247   9.783   7.689   6.777
55741SOL     OW67248  10.176   7.902   6.228
55741SOL    HW167249  10.144   7.974   6.166
55741SOL    HW267250  10.200   7.821   6.175
55742SOL     OW67251  10.327   7.487   6.339
55742SOL    HW167252  10.255   7.492   6.270
55742SOL    HW267253  10.303   7.418   6.408
55743SOL     OW67254  10.739   8.621   6.453
55743SOL    HW167255  10.684   8.537   6.446
55743SOL    HW267256  10.765   8.650   6.361
55744SOL     OW67257  10.776   8.038   6.578
55744SOL    HW167258  10.746   7.943   6.585
55744SOL    HW267259  10.849   8.054   6.644
55745SOL     OW67260  11.167   8.281   5.963
55745SOL    HW167261  11.209   8.217   6.027
55745SOL    HW267262  11.129   8.230   5.885
55746SOL     OW67263   9.798   8.833   5.760
55746SOL    HW167264   9.711   8.818   5.807
55746SOL    HW267265   9.781   8.859   5.665
55747SOL     OW67266  10.974   8.728   6.243
55747SOL    HW167267  11.073   8.736   6.257
55747SOL    HW267268  10.929   8.812   6.274
55748SOL     OW67269  10.700   8.023   5.664
55748SOL    HW167270  10.646   8.002   5.745
55748SOL    HW267271  10.791   7.982   5.673
55749SOL     OW67272   9.837   7.704   5.914
55749SOL    HW167273   9.864   7.645   5.839
55749SOL    HW267274   9.837   7.799   5.883
55750SOL     OW67275  11.064   8.671   7.174
55750SOL    HW167276  11.155   8.632   7.161
55750SOL    HW267277  11.072   8.767   7.198
55751SOL     OW67278  10.374   8.795   6.926
55751SOL    HW167279  10.294   8.772   6.981
55751SOL    HW267280  10.457   8.769   6.975
55752SOL     OW67281  10.902   9.077   7.211
55752SOL    HW167282  10.929   9.111   7.121
55752SOL    HW267283  10.981   9.039   7.257
55753SOL     OW67284  10.421   8.643   6.686
55753SOL    HW167285  10.381   8.687   6.767
55753SOL    HW267286  10.380   8.680   6.603
55754SOL     OW67287  10.948   8.547   6.665
55754SOL    HW167288  10.953   8.628   6.724
55754SOL    HW267289  10.862   8.549   6.614
55755SOL     OW67290  10.225   7.537   6.988
55755SOL    HW167291  10.250   7.517   6.893
55755SOL    HW267292  10.297   7.593   7.030
55756SOL     OW67293  10.290   8.564   7.305
55756SOL    HW167294  10.191   8.570   7.315
55756SOL    HW267295  10.313   8.484   7.249
55757SOL     OW67296  10.015   8.498   5.954
55757SOL    HW167297  10.001   8.505   6.053
55757SOL    HW267298  10.099   8.447   5.936
55758SOL     OW67299   9.720   8.261   6.837
55758SOL    HW167300   9.806   8.273   6.887
55758SOL    HW267301   9.678   8.174   6.864
55759SOL     OW67302  10.584   7.834   6.848
55759SOL    HW167303  10.605   7.908   6.912
55759SOL    HW267304  10.495   7.851   6.805
55760SOL     OW67305   9.374   9.012   6.917
55760SOL    HW167306   9.328   9.094   6.883
55760SOL    HW267307   9.472   9.031   6.926
55761SOL     OW67308   9.677   8.548   6.087
55761SOL    HW167309   9.670   8.631   6.031
55761SOL    HW267310   9.681   8.468   6.027
55762SOL     OW67311   9.876   7.985   6.451
55762SOL    HW167312   9.888   8.051   6.377
55762SOL    HW267313   9.922   8.019   6.534
55763SOL     OW67314  10.562   8.796   5.974
55763SOL    HW167315  10.612   8.873   6.014
55763SOL    HW267316  10.467   8.798   6.006
55764SOL     OW67317  10.582   8.893   6.728
55764SOL    HW167318  10.629   8.906   6.815
55764SOL    HW267319  10.516   8.819   6.737
55765SOL     OW67320  10.892   8.087   6.058
55765SOL    HW167321  10.861   8.148   6.131
55765SOL    HW267322  10.942   8.139   5.989
55766SOL     OW67323   9.664   8.958   6.915
55766SOL    HW167324   9.643   8.914   6.828
55766SOL    HW267325   9.761   8.984   6.918
55767SOL     OW67326   9.712   8.199   7.184
55767SOL    HW167327   9.780   8.254   7.137
55767SOL    HW267328   9.752   8.111   7.211
55768SOL     OW67329  10.897   8.227   7.256
55768SOL    HW167330  10.805   8.265   7.251
55768SOL    HW267331  10.957   8.274   7.191
55769SOL     OW67332  10.323   7.553   7.356
55769SOL    HW167333  10.329   7.638   7.304
55769SOL    HW267334  10.355   7.477   7.299
55770SOL     OW67335   9.814   7.498   7.326
55770SOL    HW167336   9.772   7.441   7.256
55770SOL    HW267337   9.748   7.567   7.358
55771SOL     OW67338   9.883   8.318   6.615
55771SOL    HW167339   9.927   8.407   6.606
55771SOL    HW267340   9.820   8.318   6.692
55772SOL     OW67341  10.670   8.310   6.631
55772SOL    HW167342  10.595   8.310   6.565
55772SOL    HW267343  10.707   8.218   6.640
55773SOL     OW67344  10.519   7.973   5.861
55773SOL    HW167345  10.532   7.889   5.915
55773SOL    HW267346  10.490   8.047   5.921
55774SOL     OW67347   9.617   7.661   6.817
55774SOL    HW167348   9.594   7.698   6.907
55774SOL    HW267349   9.587   7.566   6.811
55775SOL     OW67350   9.347   8.758   6.868
55775SOL    HW167351   9.400   8.709   6.936
55775SOL    HW267352   9.369   8.856   6.873
55776SOL     OW67353  10.042   8.082   6.650
55776SOL    HW167354  10.101   8.056   6.574
55776SOL    HW267355  10.014   8.178   6.639
55777SOL     OW67356  11.038   8.383   7.440
55777SOL    HW167357  10.992   8.376   7.351
55777SOL    HW267358  10.976   8.427   7.506
55778SOL     OW67359   9.617   7.511   6.204
55778SOL    HW167360   9.606   7.605   6.237
55778SOL    HW267361   9.612   7.448   6.281
55779SOL     OW67362  10.932   7.815   5.960
55779SOL    HW167363  10.934   7.739   6.024
55779SOL    HW267364  10.884   7.892   6.000
55780SOL     OW67365  10.333   8.214   6.552
55780SOL    HW167366  10.348   8.235   6.648
55780SOL    HW267367  10.303   8.119   6.543
55781SOL     OW67368  10.290   9.021   7.286
55781SOL    HW167369  10.270   9.065   7.198
55781SOL    HW267370  10.329   8.930   7.270
55782SOL     OW67371  11.169   8.966   7.191
55782SOL    HW167372  11.183   8.993   7.096
55782SOL    HW267373  11.252   8.988   7.244
55783SOL     OW67374   9.660   8.346   7.390
55783SOL    HW167375   9.736   8.390   7.438
55783SOL    HW267376   9.695   8.299   7.308
55784SOL     OW67377  10.850   7.722   5.711
55784SOL    HW167378  10.789   7.647   5.734
55784SOL    HW267379  10.872   7.774   5.794
55785SOL     OW67380  10.613   8.286   5.628
55785SOL    HW167381  10.647   8.193   5.643
55785SOL    HW267382  10.631   8.313   5.533
55786SOL     OW67383  10.378   8.781   6.435
55786SOL    HW167384  10.385   8.697   6.380
55786SOL    HW267385  10.440   8.850   6.399
55787SOL     OW67386   9.629   8.258   6.535
55787SOL    HW167387   9.722   8.294   6.540
55787SOL    HW267388   9.623   8.173   6.587
55788SOL     OW67389   9.649   7.957   6.592
55788SOL    HW167390   9.597   7.874   6.575
55788SOL    HW267391   9.726   7.962   6.528
55789SOL     OW67392  10.448   7.828   7.264
55789SOL    HW167393  10.403   7.891   7.328
55789SOL    HW267394  10.541   7.859   7.247
55790SOL     OW67395  10.470   7.655   7.063
55790SOL    HW167396  10.470   7.719   7.140
55790SOL    HW267397  10.498   7.703   6.980
55791SOL     OW67398   9.318   8.774   5.786
55791SOL    HW167399   9.225   8.795   5.755
55791SOL    HW267400   9.328   8.675   5.799
55792SOL     OW67401   9.398   9.249   6.513
55792SOL    HW167402   9.356   9.163   6.486
55792SOL    HW267403   9.492   9.252   6.479
55793SOL     OW67404   9.814   9.016   6.496
55793SOL    HW167405   9.880   9.090   6.505
55793SOL    HW267406   9.858   8.937   6.454
55794SOL     OW67407  10.312   8.244   6.824
55794SOL    HW167408  10.353   8.212   6.910
55794SOL    HW267409  10.216   8.217   6.821
55795SOL     OW67410   9.350   7.992   6.700
55795SOL    HW167411   9.435   7.959   6.659
55795SOL    HW267412   9.363   8.007   6.798
55796SOL     OW67413   9.499   7.968   7.308
55796SOL    HW167414   9.558   7.928   7.238
55796SOL    HW267415   9.441   8.039   7.267
55797SOL     OW67416  10.679   8.398   7.246
55797SOL    HW167417  10.718   8.487   7.266
55797SOL    HW267418  10.689   8.378   7.149
55798SOL     OW67419  10.125   8.020   5.911
55798SOL    HW167420  10.132   7.931   5.865
55798SOL    HW267421  10.031   8.054   5.903
55799SOL     OW67422  10.967   8.052   6.792
55799SOL    HW167423  10.929   7.983   6.854
55799SOL    HW267424  11.049   8.016   6.748
55800SOL     OW67425   9.562   9.012   7.330
55800SOL    HW167426   9.532   9.069   7.406
55800SOL    HW267427   9.555   8.915   7.356
55801SOL     OW67428   9.981   7.912   6.855
55801SOL    HW167429   9.947   7.823   6.825
55801SOL    HW267430  10.007   7.966   6.775
55802SOL     OW67431  10.240   9.126   7.051
55802SOL    HW167432  10.216   9.108   6.956
55802SOL    HW267433  10.270   9.220   7.061
55803SOL     OW67434   9.783   7.948   5.777
55803SOL    HW167435   9.844   8.028   5.781
55803SOL    HW267436   9.688   7.979   5.784
55804SOL     OW67437   9.469   8.585   7.052
55804SOL    HW167438   9.491   8.524   7.128
55804SOL    HW267439   9.479   8.536   6.966
55805SOL     OW67440  10.657   8.507   6.820
55805SOL    HW167441  10.681   8.444   6.746
55805SOL    HW267442  10.567   8.547   6.802
55806SOL     OW67443  10.612   8.303   5.895
55806SOL    HW167444  10.526   8.272   5.937
55806SOL    HW267445  10.608   8.289   5.796
55807SOL     OW67446  11.069   9.195   6.740
55807SOL    HW167447  11.130   9.225   6.667
55807SOL    HW267448  11.031   9.106   6.718
55808SOL     OW67449  10.562   9.179   6.714
55808SOL    HW167450  10.646   9.184   6.660
55808SOL    HW267451  10.539   9.083   6.732
55809SOL     OW67452   9.393   8.706   6.608
55809SOL    HW167453   9.388   8.705   6.708
55809SOL    HW267454   9.310   8.665   6.570
55810SOL     OW67455   9.998   9.110   7.302
55810SOL    HW167456   9.942   9.191   7.311
55810SOL    HW267457  10.050   9.114   7.216
55811SOL     OW67458  11.036   7.583   6.109
55811SOL    HW167459  11.109   7.566   6.042
55811SOL    HW267460  11.005   7.496   6.147
55812SOL     OW67461  10.698   9.021   6.063
55812SOL    HW167462  10.765   9.033   5.989
55812SOL    HW267463  10.658   9.110   6.086
55813SOL     OW67464   9.440   9.242   7.437
55813SOL    HW167465   9.399   9.168   7.490
55813SOL    HW267466   9.504   9.293   7.495
55814SOL     OW67467  10.590   8.375   6.258
55814SOL    HW167468  10.650   8.294   6.260
55814SOL    HW267469  10.630   8.444   6.198
55815SOL     OW67470  10.140   8.721   7.008
55815SOL    HW167471  10.135   8.754   7.103
55815SOL    HW267472  10.054   8.740   6.962
55816SOL     OW67473   9.982   9.064   5.740
55816SOL    HW167474   9.991   9.074   5.641
55816SOL    HW267475   9.942   8.975   5.761
55817SOL     OW67476  10.960   9.168   6.980
55817SOL    HW167477  11.013   9.178   6.896
55817SOL    HW267478  10.933   9.258   7.014
55818SOL     OW67479  11.151   7.623   6.549
55818SOL    HW167480  11.190   7.538   6.513
55818SOL    HW267481  11.053   7.625   6.530
55819SOL     OW67482   9.573   7.774   6.306
55819SOL    HW167483   9.494   7.825   6.272
55819SOL    HW267484   9.564   7.759   6.404
55820SOL     OW67485  10.504   9.060   5.617
55820SOL    HW167486  10.510   8.967   5.654
55820SOL    HW267487  10.445   9.060   5.537
55821SOL     OW67488  10.132   8.450   6.958
55821SOL    HW167489  10.172   8.449   6.866
55821SOL    HW267490  10.142   8.542   6.998
55822SOL     OW67491  10.226   8.358   5.877
55822SOL    HW167492  10.289   8.396   5.809
55822SOL    HW267493  10.266   8.275   5.916
55823SOL     OW67494  10.814   9.055   5.630
55823SOL    HW167495  10.722   9.092   5.637
55823SOL    HW267496  10.852   9.075   5.540
55824SOL     OW67497   9.682   8.736   7.076
55824SOL    HW167498   9.669   8.829   7.042
55824SOL    HW267499   9.598   8.684   7.063
55825SOL     OW67500  10.924   8.740   6.875
55825SOL    HW167501  10.984   8.743   6.955
55825SOL    HW267502  10.849   8.804   6.888
55826SOL     OW67503  10.349   8.546   6.282
55826SOL    HW167504  10.279   8.499   6.336
55826SOL    HW267505  10.408   8.478   6.239
55827SOL     OW67506  10.324   7.684   6.557
55827SOL    HW167507  10.316   7.648   6.464
55827SOL    HW267508  10.322   7.608   6.622
55828SOL     OW67509   9.900   8.935   6.077
55828SOL    HW167510   9.942   8.877   6.007
55828SOL    HW267511   9.856   9.014   6.033
55829SOL     OW67512  11.019   7.833   6.967
55829SOL    HW167513  11.092   7.902   6.971
55829SOL    HW267514  11.047   7.758   6.908
55830SOL     OW67515   9.565   8.796   5.876
55830SOL    HW167516   9.469   8.797   5.849
55830SOL    HW267517   9.577   8.849   5.960
55831SOL     OW67518   9.415   8.461   7.312
55831SOL    HW167519   9.338   8.428   7.366
55831SOL    HW267520   9.500   8.431   7.354
55832SOL     OW67521   9.982   7.651   7.075
55832SOL    HW167522  10.072   7.635   7.035
55832SOL    HW267523   9.990   7.656   7.174
55833SOL     OW67524   9.385   7.793   5.619
55833SOL    HW167525   9.293   7.765   5.590
55833SOL    HW267526   9.416   7.870   5.563
55834SOL     OW67527  10.750   8.304   6.984
55834SOL    HW167528  10.693   8.356   6.921
55834SOL    HW267529  10.846   8.316   6.960
55835SOL     OW67530   9.382   7.614   5.904
55835SOL    HW167531   9.365   7.697   5.850
55835SOL    HW267532   9.472   7.577   5.882
55836SOL     OW67533  10.493   8.783   5.705
55836SOL    HW167534  10.394   8.772   5.707
55836SOL    HW267535  10.527   8.798   5.798
55837SOL     OW67536   9.923   8.290   7.017
55837SOL    HW167537   9.979   8.371   7.000
55837SOL    HW267538   9.982   8.210   7.020
55838SOL     OW67539  10.803   9.215   6.545
55838SOL    HW167540  10.836   9.279   6.476
55838SOL    HW267541  10.869   9.209   6.620
55839SOL     OW67542  10.026   8.013   7.294
55839SOL    HW167543  10.045   8.078   7.368
55839SOL    HW267544  10.086   7.933   7.303
55840SOL     OW67545  10.760   8.668   7.219
55840SOL    HW167546  10.751   8.658   7.318
55840SOL    HW267547  10.856   8.661   7.193
55841SOL     OW67548   9.700   9.189   7.146
55841SOL    HW167549   9.609   9.230   7.144
55841SOL    HW267550   9.693   9.095   7.178
55842SOL     OW67551  10.984   8.331   6.840
55842SOL    HW167552  10.957   8.242   6.803
55842SOL    HW267553  10.985   8.399   6.767
55843SOL     OW67554  10.535   7.773   6.035
55843SOL    HW167555  10.600   7.699   6.024
55843SOL    HW267556  10.555   7.823   6.119
55844SOL     OW67557   9.904   8.193   6.238
55844SOL    HW167558   9.954   8.278   6.219
55844SOL    HW267559   9.816   8.195   6.190
55845SOL     OW67560  11.087   7.790   7.228
55845SOL    HW167561  11.070   7.821   7.134
55845SOL    HW267562  11.003   7.753   7.266
55846SOL     OW67563  11.040   8.382   7.103
55846SOL    HW167564  11.078   8.473   7.118
55846SOL    HW267565  11.032   8.365   7.004
55847SOL     OW67566  10.169   8.822   5.602
55847SOL    HW167567  10.123   8.837   5.690
55847SOL    HW267568  10.213   8.907   5.572
55848SOL     OW67569   9.971   9.238   6.539
55848SOL    HW167570   9.925   9.326   6.526
55848SOL    HW267571  10.070   9.250   6.532
55849SOL     OW67572  10.169   8.404   6.447
55849SOL    HW167573  10.223   8.335   6.495
55849SOL    HW267574  10.137   8.473   6.513
55850SOL     OW67575  10.393   8.432   5.673
55850SOL    HW167576  10.370   8.485   5.591
55850SOL    HW267577  10.474   8.376   5.654
55851SOL     OW67578  11.171   9.017   6.437
55851SOL    HW167579  11.100   9.005   6.367
55851SOL    HW267580  11.172   8.938   6.497
55852SOL     OW67581   9.531   8.762   7.430
55852SOL    HW167582   9.466   8.689   7.409
55852SOL    HW267583   9.535   8.776   7.528
55853SOL     OW67584   9.389   8.688   6.239
55853SOL    HW167585   9.388   8.641   6.327
55853SOL    HW267586   9.471   8.660   6.188
55854SOL     OW67587   9.982   8.839   7.210
55854SOL    HW167588   9.904   8.789   7.248
55854SOL    HW267589   9.979   8.934   7.241
55855SOL     OW67590  11.134   7.640   6.813
55855SOL    HW167591  11.130   7.550   6.857
55855SOL    HW267592  11.137   7.629   6.714
55856SOL     OW67593   9.738   7.872   6.106
55856SOL    HW167594   9.768   7.800   6.044
55856SOL    HW267595   9.699   7.832   6.189
55857SOL     OW67596  11.015   8.935   6.690
55857SOL    HW167597  10.922   8.910   6.663
55857SOL    HW267598  11.041   8.885   6.772
55858SOL     OW67599   9.627   7.995   6.866
55858SOL    HW167600   9.665   7.936   6.938
55858SOL    HW267601   9.667   7.969   6.778
55859SOL     OW67602  10.122   9.034   6.273
55859SOL    HW167603  10.154   9.044   6.179
55859SOL    HW267604  10.043   8.972   6.275
55860SOL     OW67605  10.734   7.662   6.698
55860SOL    HW167606  10.786   7.597   6.753
55860SOL    HW267607  10.685   7.725   6.759
55861SOL     OW67608  10.311   7.482   6.740
55861SOL    HW167609  10.248   7.410   6.709
55861SOL    HW267610  10.404   7.446   6.740
55862SOL     OW67611  10.080   8.778   5.887
55862SOL    HW167612  10.034   8.691   5.904
55862SOL    HW267613  10.171   8.775   5.928
55863SOL     OW67614   9.928   9.015   6.870
55863SOL    HW167615   9.923   9.097   6.927
55863SOL    HW267616  10.017   9.012   6.825
55864SOL     OW67617  10.662   7.500   5.754
55864SOL    HW167618  10.697   7.459   5.670
55864SOL    HW267619  10.572   7.462   5.774
55865SOL     OW67620  10.610   7.901   6.277
55865SOL    HW167621  10.551   7.981   6.281
55865SOL    HW267622  10.625   7.866   6.370
55866SOL     OW67623  10.903   7.669   6.468
55866SOL    HW167624  10.819   7.668   6.522
55866SOL    HW267625  10.905   7.752   6.412
55867SOL     OW67626   9.349   8.525   5.886
55867SOL    HW167627   9.448   8.514   5.877
55867SOL    HW267628   9.309   8.439   5.918
55868SOL     OW67629  10.185   9.094   5.923
55868SOL    HW167630  10.108   9.059   5.869
55868SOL    HW267631  10.153   9.165   5.985
55869SOL     OW67632   9.540   8.076   7.561
55869SOL    HW167633   9.447   8.074   7.598
55869SOL    HW267634   9.541   8.037   7.469
55870SOL     OW67635   9.535   7.723   8.444
55870SOL    HW167636   9.570   7.706   8.536
55870SOL    HW267637   9.447   7.678   8.432
55871SOL     OW67638   9.329   7.816   8.095
55871SOL    HW167639   9.247   7.859   8.134
55871SOL    HW267640   9.301   7.743   8.032
55872SOL     OW67641   9.879   8.723   8.613
55872SOL    HW167642   9.786   8.716   8.576
55872SOL    HW267643   9.890   8.812   8.657
55873SOL     OW67644  10.865   8.959   8.151
55873SOL    HW167645  10.808   8.943   8.232
55873SOL    HW267646  10.806   8.969   8.071
55874SOL     OW67647  10.445   8.151   8.165
55874SOL    HW167648  10.502   8.229   8.140
55874SOL    HW267649  10.385   8.177   8.241
55875SOL     OW67650  11.065   8.055   7.679
55875SOL    HW167651  11.053   8.042   7.580
55875SOL    HW267652  11.035   7.974   7.728
55876SOL     OW67653  10.078   8.592   8.471
55876SOL    HW167654  10.000   8.609   8.531
55876SOL    HW267655  10.112   8.679   8.435
55877SOL     OW67656  10.160   8.246   9.271
55877SOL    HW167657  10.156   8.322   9.336
55877SOL    HW267658  10.182   8.282   9.180
55878SOL     OW67659   9.995   8.460   8.113
55878SOL    HW167660  10.064   8.444   8.183
55878SOL    HW267661   9.922   8.517   8.151
55879SOL     OW67662   9.996   8.609   9.251
55879SOL    HW167663  10.056   8.688   9.265
55879SOL    HW267664   9.910   8.640   9.210
55880SOL     OW67665   9.645   8.883   8.509
55880SOL    HW167666   9.567   8.852   8.456
55880SOL    HW267667   9.703   8.941   8.452
55881SOL     OW67668  10.770   8.953   8.787
55881SOL    HW167669  10.794   9.047   8.813
55881SOL    HW267670  10.754   8.899   8.869
55882SOL     OW67671   9.748   7.840   8.947
55882SOL    HW167672   9.830   7.784   8.956
55882SOL    HW267673   9.667   7.782   8.951
55883SOL     OW67674  10.913   7.895   8.185
55883SOL    HW167675  10.839   7.941   8.135
55883SOL    HW267676  10.964   7.963   8.238
55884SOL     OW67677   9.541   9.161   7.931
55884SOL    HW167678   9.575   9.238   7.985
55884SOL    HW267679   9.585   9.161   7.841
55885SOL     OW67680  10.437   8.789   9.138
55885SOL    HW167681  10.484   8.789   9.226
55885SOL    HW267682  10.389   8.702   9.127
55886SOL     OW67683   9.540   8.882   7.986
55886SOL    HW167684   9.514   8.978   7.986
55886SOL    HW267685   9.469   8.828   8.031
55887SOL     OW67686   9.550   8.539   8.334
55887SOL    HW167687   9.564   8.455   8.386
55887SOL    HW267688   9.495   8.603   8.389
55888SOL     OW67689   9.930   9.234   8.887
55888SOL    HW167690   9.838   9.217   8.922
55888SOL    HW267691   9.958   9.326   8.913
55889SOL     OW67692   9.916   8.412   7.571
55889SOL    HW167693   9.923   8.496   7.517
55889SOL    HW267694   9.962   8.425   7.659
55890SOL     OW67695  10.904   7.562   8.928
55890SOL    HW167696  10.886   7.629   8.856
55890SOL    HW267697  10.901   7.608   9.017
55891SOL     OW67698   9.432   8.091   8.011
55891SOL    HW167699   9.387   8.003   8.028
55891SOL    HW267700   9.431   8.145   8.095
55892SOL     OW67701  11.152   9.215   7.807
55892SOL    HW167702  11.206   9.186   7.887
55892SOL    HW267703  11.182   9.305   7.778
55893SOL     OW67704   9.337   9.044   7.565
55893SOL    HW167705   9.318   8.948   7.586
55893SOL    HW267706   9.304   9.102   7.640
55894SOL     OW67707  10.999   8.370   8.060
55894SOL    HW167708  11.094   8.341   8.068
55894SOL    HW267709  10.991   8.435   7.985
55895SOL     OW67710  10.951   8.556   7.880
55895SOL    HW167711  11.037   8.558   7.828
55895SOL    HW267712  10.965   8.603   7.968
55896SOL     OW67713   9.423   8.185   9.045
55896SOL    HW167714   9.511   8.172   9.090
55896SOL    HW267715   9.410   8.282   9.023
55897SOL     OW67716   9.923   8.813   8.174
55897SOL    HW167717   9.874   8.726   8.183
55897SOL    HW267718   9.900   8.856   8.087
55898SOL     OW67719  10.603   8.676   8.871
55898SOL    HW167720  10.640   8.603   8.813
55898SOL    HW267721  10.655   8.681   8.956
55899SOL     OW67722  10.119   7.452   7.950
55899SOL    HW167723  10.159   7.543   7.941
55899SOL    HW267724  10.019   7.460   7.956
55900SOL     OW67725   9.507   8.424   8.712
55900SOL    HW167726   9.596   8.379   8.698
55900SOL    HW267727   9.434   8.359   8.693
55901SOL     OW67728  10.835   8.447   7.638
55901SOL    HW167729  10.772   8.371   7.651
55901SOL    HW267730  10.883   8.465   7.724
55902SOL     OW67731  10.497   9.240   9.064
55902SOL    HW167732  10.521   9.300   8.988
55902SOL    HW267733  10.504   9.145   9.034
55903SOL     OW67734   9.627   7.699   9.249
55903SOL    HW167735   9.698   7.770   9.255
55903SOL    HW267736   9.539   7.738   9.277
55904SOL     OW67737  10.776   8.865   8.401
55904SOL    HW167738  10.717   8.871   8.481
55904SOL    HW267739  10.761   8.777   8.355
55905SOL     OW67740  10.977   9.162   8.020
55905SOL    HW167741  10.936   9.139   7.932
55905SOL    HW267742  10.959   9.088   8.085
55906SOL     OW67743   9.908   8.177   7.718
55906SOL    HW167744   9.932   8.246   7.650
55906SOL    HW267745   9.830   8.210   7.772
55907SOL     OW67746  10.591   7.793   8.392
55907SOL    HW167747  10.505   7.743   8.379
55907SOL    HW267748  10.653   7.739   8.448
55908SOL     OW67749  10.886   9.110   7.755
55908SOL    HW167750  10.975   9.156   7.758
55908SOL    HW267751  10.865   9.086   7.660
55909SOL     OW67752  10.117   8.053   8.913
55909SOL    HW167753  10.070   8.050   9.002
55909SOL    HW267754  10.066   7.998   8.847
55910SOL     OW67755  10.704   7.917   9.122
55910SOL    HW167756  10.684   7.960   9.210
55910SOL    HW267757  10.782   7.855   9.131
55911SOL     OW67758  10.283   8.338   9.020
55911SOL    HW167759  10.329   8.254   8.991
55911SOL    HW267760  10.227   8.372   8.945
55912SOL     OW67761  10.301   7.858   8.690
55912SOL    HW167762  10.224   7.892   8.744
55912SOL    HW267763  10.267   7.807   8.611
55913SOL     OW67764  10.351   8.149   7.877
55913SOL    HW167765  10.377   8.145   7.973
55913SOL    HW267766  10.266   8.098   7.863
55914SOL     OW67767   9.386   8.259   8.237
55914SOL    HW167768   9.485   8.247   8.246
55914SOL    HW267769   9.362   8.354   8.258
55915SOL     OW67770   9.440   9.269   9.019
55915SOL    HW167771   9.430   9.254   9.118
55915SOL    HW267772   9.354   9.305   8.983
55916SOL     OW67773  10.175   7.796   7.643
55916SOL    HW167774  10.234   7.859   7.594
55916SOL    HW267775  10.194   7.702   7.614
55917SOL     OW67776  11.029   8.033   9.279
55917SOL    HW167777  11.003   8.122   9.243
55917SOL    HW267778  11.027   7.965   9.206
55918SOL     OW67779  10.672   8.592   7.993
55918SOL    HW167780  10.755   8.563   7.945
55918SOL    HW267781  10.623   8.659   7.937
55919SOL     OW67782   9.860   7.644   8.333
55919SOL    HW167783   9.855   7.639   8.433
55919SOL    HW267784   9.862   7.740   8.304
55920SOL     OW67785  10.318   8.904   7.925
55920SOL    HW167786  10.272   8.976   7.873
55920SOL    HW267787  10.314   8.924   8.023
55921SOL     OW67788   9.661   9.249   8.301
55921SOL    HW167789   9.711   9.163   8.307
55921SOL    HW267790   9.726   9.326   8.298
55922SOL     OW67791  11.105   8.514   8.321
55922SOL    HW167792  11.043   8.499   8.245
55922SOL    HW267793  11.053   8.525   8.406
55923SOL     OW67794  10.537   8.998   8.954
55923SOL    HW167795  10.543   8.921   9.018
55923SOL    HW267796  10.485   8.972   8.874
55924SOL     OW67797   9.631   8.391   7.690
55924SOL    HW167798   9.713   8.430   7.648
55924SOL    HW267799   9.604   8.309   7.641
55925SOL     OW67800  10.768   8.183   8.176
55925SOL    HW167801  10.763   8.118   8.251
55925SOL    HW267802  10.848   8.242   8.189
55926SOL     OW67803   9.771   8.714   9.175
55926SOL    HW167804   9.721   8.715   9.089
55926SOL    HW267805   9.708   8.696   9.251
55927SOL     OW67806  10.421   9.224   7.685
55927SOL    HW167807  10.361   9.162   7.735
55927SOL    HW267808  10.452   9.180   7.600
55928SOL     OW67809   9.512   7.733   8.946
55928SOL    HW167810   9.432   7.793   8.933
55928SOL    HW267811   9.502   7.684   9.032
55929SOL     OW67812  10.942   8.825   7.529
55929SOL    HW167813  10.910   8.919   7.519
55929SOL    HW267814  10.866   8.762   7.517
55930SOL     OW67815   9.774   9.191   7.771
55930SOL    HW167816   9.807   9.230   7.857
55930SOL    HW267817   9.850   9.184   7.706
55931SOL     OW67818  10.710   7.555   7.874
55931SOL    HW167819  10.686   7.518   7.784
55931SOL    HW267820  10.809   7.571   7.878
55932SOL     OW67821   9.559   9.233   8.689
55932SOL    HW167822   9.616   9.168   8.739
55932SOL    HW267823   9.543   9.200   8.596
55933SOL     OW67824  10.250   9.146   8.352
55933SOL    HW167825  10.330   9.089   8.373
55933SOL    HW267826  10.201   9.106   8.275
55934SOL     OW67827   9.692   8.148   7.928
55934SOL    HW167828   9.737   8.058   7.925
55934SOL    HW267829   9.598   8.137   7.961
55935SOL     OW67830  10.857   7.670   9.177
55935SOL    HW167831  10.852   7.707   9.269
55935SOL    HW267832  10.785   7.601   9.165
55936SOL     OW67833   9.924   7.570   7.565
55936SOL    HW167834  10.022   7.548   7.572
55936SOL    HW267835   9.893   7.553   7.472
55937SOL     OW67836  10.091   7.712   9.197
55937SOL    HW167837  10.158   7.651   9.240
55937SOL    HW267838  10.018   7.731   9.262
55938SOL     OW67839  10.198   8.962   8.643
55938SOL    HW167840  10.175   8.937   8.549
55938SOL    HW267841  10.259   8.893   8.682
55939SOL     OW67842  10.661   8.038   8.881
55939SOL    HW167843  10.689   7.995   8.966
55939SOL    HW267844  10.686   8.134   8.882
55940SOL     OW67845  10.113   8.850   8.372
55940SOL    HW167846  10.203   8.864   8.330
55940SOL    HW267847  10.042   8.852   8.301
55941SOL     OW67848  10.232   7.951   8.347
55941SOL    HW167849  10.207   7.942   8.251
55941SOL    HW267850  10.280   7.869   8.378
55942SOL     OW67851   9.849   7.512   7.960
55942SOL    HW167852   9.768   7.513   8.018
55942SOL    HW267853   9.852   7.595   7.905
55943SOL     OW67854  10.744   8.636   7.489
55943SOL    HW167855  10.776   8.560   7.546
55943SOL    HW267856  10.652   8.663   7.519
55944SOL     OW67857   9.607   7.483   7.619
55944SOL    HW167858   9.656   7.567   7.598
55944SOL    HW267859   9.669   7.418   7.664
55945SOL     OW67860  10.245   7.684   7.928
55945SOL    HW167861  10.197   7.725   7.850
55945SOL    HW267862  10.344   7.682   7.909
55946SOL     OW67863  10.386   8.131   8.912
55946SOL    HW167864  10.306   8.070   8.915
55946SOL    HW267865  10.467   8.078   8.888
55947SOL     OW67866  10.537   9.018   8.241
55947SOL    HW167867  10.558   9.092   8.176
55947SOL    HW267868  10.605   9.018   8.314
55948SOL     OW67869   9.769   8.600   8.189
55948SOL    HW167870   9.698   8.573   8.254
55948SOL    HW267871   9.743   8.572   8.096
55949SOL     OW67872  10.581   9.245   8.039
55949SOL    HW167873  10.625   9.309   7.975
55949SOL    HW267874  10.531   9.297   8.109
55950SOL     OW67875  10.342   7.997   7.464
55950SOL    HW167876  10.301   8.079   7.425
55950SOL    HW267877  10.406   8.023   7.537
55951SOL     OW67878   9.388   8.004   8.834
55951SOL    HW167879   9.480   8.003   8.793
55951SOL    HW267880   9.382   8.078   8.901
55952SOL     OW67881   9.871   7.670   8.595
55952SOL    HW167882   9.909   7.586   8.632
55952SOL    HW267883   9.783   7.689   8.639
55953SOL     OW67884  10.176   7.902   8.090
55953SOL    HW167885  10.144   7.974   8.028
55953SOL    HW267886  10.200   7.821   8.037
55954SOL     OW67887  10.327   7.487   8.201
55954SOL    HW167888  10.255   7.492   8.132
55954SOL    HW267889  10.303   7.418   8.270
55955SOL     OW67890  10.739   8.621   8.315
55955SOL    HW167891  10.684   8.537   8.308
55955SOL    HW267892  10.765   8.650   8.223
55956SOL     OW67893  10.776   8.038   8.440
55956SOL    HW167894  10.746   7.943   8.447
55956SOL    HW267895  10.849   8.054   8.506
55957SOL     OW67896  11.167   8.281   7.825
55957SOL    HW167897  11.209   8.217   7.889
55957SOL    HW267898  11.129   8.230   7.747
55958SOL     OW67899   9.798   8.833   7.622
55958SOL    HW167900   9.711   8.818   7.669
55958SOL    HW267901   9.781   8.859   7.527
55959SOL     OW67902  10.974   8.728   8.105
55959SOL    HW167903  11.073   8.736   8.119
55959SOL    HW267904  10.929   8.812   8.136
55960SOL     OW67905  10.700   8.023   7.526
55960SOL    HW167906  10.646   8.002   7.607
55960SOL    HW267907  10.791   7.982   7.535
55961SOL     OW67908   9.837   7.704   7.776
55961SOL    HW167909   9.864   7.645   7.701
55961SOL    HW267910   9.837   7.799   7.745
55962SOL     OW67911  11.064   8.671   9.036
55962SOL    HW167912  11.155   8.632   9.023
55962SOL    HW267913  11.072   8.767   9.060
55963SOL     OW67914  10.374   8.795   8.788
55963SOL    HW167915  10.294   8.772   8.843
55963SOL    HW267916  10.457   8.769   8.837
55964SOL     OW67917  10.902   9.077   9.073
55964SOL    HW167918  10.929   9.111   8.983
55964SOL    HW267919  10.981   9.039   9.119
55965SOL     OW67920  10.421   8.643   8.548
55965SOL    HW167921  10.381   8.687   8.629
55965SOL    HW267922  10.380   8.680   8.465
55966SOL     OW67923  10.948   8.547   8.527
55966SOL    HW167924  10.953   8.628   8.586
55966SOL    HW267925  10.862   8.549   8.476
55967SOL     OW67926  10.225   7.537   8.850
55967SOL    HW167927  10.250   7.517   8.755
55967SOL    HW267928  10.297   7.593   8.892
55968SOL     OW67929  10.290   8.564   9.167
55968SOL    HW167930  10.191   8.570   9.177
55968SOL    HW267931  10.313   8.484   9.111
55969SOL     OW67932  10.015   8.498   7.816
55969SOL    HW167933  10.001   8.505   7.915
55969SOL    HW267934  10.099   8.447   7.798
55970SOL     OW67935   9.720   8.261   8.699
55970SOL    HW167936   9.806   8.273   8.749
55970SOL    HW267937   9.678   8.174   8.726
55971SOL     OW67938  10.584   7.834   8.710
55971SOL    HW167939  10.605   7.908   8.774
55971SOL    HW267940  10.495   7.851   8.667
55972SOL     OW67941   9.374   9.012   8.779
55972SOL    HW167942   9.328   9.094   8.745
55972SOL    HW267943   9.472   9.031   8.788
55973SOL     OW67944   9.677   8.548   7.949
55973SOL    HW167945   9.670   8.631   7.893
55973SOL    HW267946   9.681   8.468   7.889
55974SOL     OW67947   9.876   7.985   8.313
55974SOL    HW167948   9.888   8.051   8.239
55974SOL    HW267949   9.922   8.019   8.396
55975SOL     OW67950  10.562   8.796   7.836
55975SOL    HW167951  10.612   8.873   7.876
55975SOL    HW267952  10.467   8.798   7.868
55976SOL     OW67953  10.582   8.893   8.590
55976SOL    HW167954  10.629   8.906   8.677
55976SOL    HW267955  10.516   8.819   8.599
55977SOL     OW67956  10.892   8.087   7.920
55977SOL    HW167957  10.861   8.148   7.993
55977SOL    HW267958  10.942   8.139   7.851
55978SOL     OW67959   9.664   8.958   8.777
55978SOL    HW167960   9.643   8.914   8.690
55978SOL    HW267961   9.761   8.984   8.780
55979SOL     OW67962   9.712   8.199   9.046
55979SOL    HW167963   9.780   8.254   8.999
55979SOL    HW267964   9.752   8.111   9.073
55980SOL     OW67965  10.897   8.227   9.118
55980SOL    HW167966  10.805   8.265   9.113
55980SOL    HW267967  10.957   8.274   9.053
55981SOL     OW67968  10.323   7.553   9.218
55981SOL    HW167969  10.329   7.638   9.166
55981SOL    HW267970  10.355   7.477   9.161
55982SOL     OW67971   9.814   7.498   9.188
55982SOL    HW167972   9.772   7.441   9.118
55982SOL    HW267973   9.748   7.567   9.220
55983SOL     OW67974   9.883   8.318   8.477
55983SOL    HW167975   9.927   8.407   8.468
55983SOL    HW267976   9.820   8.318   8.554
55984SOL     OW67977  10.670   8.310   8.493
55984SOL    HW167978  10.595   8.310   8.427
55984SOL    HW267979  10.707   8.218   8.502
55985SOL     OW67980  10.519   7.973   7.723
55985SOL    HW167981  10.532   7.889   7.777
55985SOL    HW267982  10.490   8.047   7.783
55986SOL     OW67983   9.617   7.661   8.679
55986SOL    HW167984   9.594   7.698   8.769
55986SOL    HW267985   9.587   7.566   8.673
55987SOL     OW67986   9.347   8.758   8.730
55987SOL    HW167987   9.400   8.709   8.798
55987SOL    HW267988   9.369   8.856   8.735
55988SOL     OW67989  10.042   8.082   8.512
55988SOL    HW167990  10.101   8.056   8.436
55988SOL    HW267991  10.014   8.178   8.501
55989SOL     OW67992  11.038   8.383   9.302
55989SOL    HW167993  10.992   8.376   9.213
55989SOL    HW267994  10.976   8.427   9.368
55990SOL     OW67995   9.617   7.511   8.066
55990SOL    HW167996   9.606   7.605   8.099
55990SOL    HW267997   9.612   7.448   8.143
55991SOL     OW67998  10.932   7.815   7.822
55991SOL    HW167999  10.934   7.739   7.886
55991SOL    HW268000  10.884   7.892   7.862
55992SOL     OW68001  10.333   8.214   8.414
55992SOL    HW168002  10.348   8.235   8.510
55992SOL    HW268003  10.303   8.119   8.405
55993SOL     OW68004  10.290   9.021   9.148
55993SOL    HW168005  10.270   9.065   9.060
55993SOL    HW268006  10.329   8.930   9.132
55994SOL     OW68007  11.169   8.966   9.053
55994SOL    HW168008  11.183   8.993   8.958
55994SOL    HW268009  11.252   8.988   9.106
55995SOL     OW68010   9.660   8.346   9.252
55995SOL    HW168011   9.736   8.390   9.300
55995SOL    HW268012   9.695   8.299   9.170
55996SOL     OW68013  10.850   7.722   7.573
55996SOL    HW168014  10.789   7.647   7.596
55996SOL    HW268015  10.872   7.774   7.656
55997SOL     OW68016  10.613   8.286   7.490
55997SOL    HW168017  10.647   8.193   7.505
55997SOL    HW268018  10.631   8.313   7.395
55998SOL     OW68019  10.378   8.781   8.297
55998SOL    HW168020  10.385   8.697   8.242
55998SOL    HW268021  10.440   8.850   8.261
55999SOL     OW68022   9.629   8.258   8.397
55999SOL    HW168023   9.722   8.294   8.402
55999SOL    HW268024   9.623   8.173   8.449
56000SOL     OW68025   9.649   7.957   8.454
56000SOL    HW168026   9.597   7.874   8.437
56000SOL    HW268027   9.726   7.962   8.390
56001SOL     OW68028  10.448   7.828   9.126
56001SOL    HW168029  10.403   7.891   9.190
56001SOL    HW268030  10.541   7.859   9.109
56002SOL     OW68031  10.470   7.655   8.925
56002SOL    HW168032  10.470   7.719   9.002
56002SOL    HW268033  10.498   7.703   8.842
56003SOL     OW68034   9.318   8.774   7.648
56003SOL    HW168035   9.225   8.795   7.617
56003SOL    HW268036   9.328   8.675   7.661
56004SOL     OW68037   9.398   9.249   8.375
56004SOL    HW168038   9.356   9.163   8.348
56004SOL    HW268039   9.492   9.252   8.341
56005SOL     OW68040   9.814   9.016   8.358
56005SOL    HW168041   9.880   9.090   8.367
56005SOL    HW268042   9.858   8.937   8.316
56006SOL     OW68043  10.312   8.244   8.686
56006SOL    HW168044  10.353   8.212   8.772
56006SOL    HW268045  10.216   8.217   8.683
56007SOL     OW68046   9.350   7.992   8.562
56007SOL    HW168047   9.435   7.959   8.521
56007SOL    HW268048   9.363   8.007   8.660
56008SOL     OW68049   9.499   7.968   9.170
56008SOL    HW168050   9.558   7.928   9.100
56008SOL    HW268051   9.441   8.039   9.129
56009SOL     OW68052  10.679   8.398   9.108
56009SOL    HW168053  10.718   8.487   9.128
56009SOL    HW268054  10.689   8.378   9.011
56010SOL     OW68055  10.125   8.020   7.773
56010SOL    HW168056  10.132   7.931   7.727
56010SOL    HW268057  10.031   8.054   7.765
56011SOL     OW68058  10.967   8.052   8.654
56011SOL    HW168059  10.929   7.983   8.716
56011SOL    HW268060  11.049   8.016   8.610
56012SOL     OW68061   9.562   9.012   9.192
56012SOL    HW168062   9.532   9.069   9.268
56012SOL    HW268063   9.555   8.915   9.218
56013SOL     OW68064   9.981   7.912   8.717
56013SOL    HW168065   9.947   7.823   8.687
56013SOL    HW268066  10.007   7.966   8.637
56014SOL     OW68067  10.240   9.126   8.913
56014SOL    HW168068  10.216   9.108   8.818
56014SOL    HW268069  10.270   9.220   8.923
56015SOL     OW68070   9.783   7.948   7.639
56015SOL    HW168071   9.844   8.028   7.643
56015SOL    HW268072   9.688   7.979   7.646
56016SOL     OW68073   9.469   8.585   8.914
56016SOL    HW168074   9.491   8.524   8.990
56016SOL    HW268075   9.479   8.536   8.828
56017SOL     OW68076  10.657   8.507   8.682
56017SOL    HW168077  10.681   8.444   8.608
56017SOL    HW268078  10.567   8.547   8.664
56018SOL     OW68079  10.612   8.303   7.757
56018SOL    HW168080  10.526   8.272   7.799
56018SOL    HW268081  10.608   8.289   7.658
56019SOL     OW68082  11.069   9.195   8.602
56019SOL    HW168083  11.130   9.225   8.529
56019SOL    HW268084  11.031   9.106   8.580
56020SOL     OW68085  10.562   9.179   8.576
56020SOL    HW168086  10.646   9.184   8.522
56020SOL    HW268087  10.539   9.083   8.594
56021SOL     OW68088   9.393   8.706   8.470
56021SOL    HW168089   9.388   8.705   8.570
56021SOL    HW268090   9.310   8.665   8.432
56022SOL     OW68091   9.998   9.110   9.164
56022SOL    HW168092   9.942   9.191   9.173
56022SOL    HW268093  10.050   9.114   9.078
56023SOL     OW68094  11.036   7.583   7.971
56023SOL    HW168095  11.109   7.566   7.904
56023SOL    HW268096  11.005   7.496   8.009
56024SOL     OW68097  10.698   9.021   7.925
56024SOL    HW168098  10.765   9.033   7.851
56024SOL    HW268099  10.658   9.110   7.948
56025SOL     OW68100   9.440   9.242   9.299
56025SOL    HW168101   9.399   9.168   9.352
56025SOL    HW268102   9.504   9.293   9.357
56026SOL     OW68103  10.590   8.375   8.120
56026SOL    HW168104  10.650   8.294   8.122
56026SOL    HW268105  10.630   8.444   8.060
56027SOL     OW68106  10.140   8.721   8.870
56027SOL    HW168107  10.135   8.754   8.965
56027SOL    HW268108  10.054   8.740   8.824
56028SOL     OW68109   9.982   9.064   7.602
56028SOL    HW168110   9.991   9.074   7.503
56028SOL    HW268111   9.942   8.975   7.623
56029SOL     OW68112  10.960   9.168   8.842
56029SOL    HW168113  11.013   9.178   8.758
56029SOL    HW268114  10.933   9.258   8.876
56030SOL     OW68115  11.151   7.623   8.411
56030SOL    HW168116  11.190   7.538   8.375
56030SOL    HW268117  11.053   7.625   8.392
56031SOL     OW68118   9.573   7.774   8.168
56031SOL    HW168119   9.494   7.825   8.134
56031SOL    HW268120   9.564   7.759   8.266
56032SOL     OW68121  10.504   9.060   7.479
56032SOL    HW168122  10.510   8.967   7.516
56032SOL    HW268123  10.445   9.060   7.399
56033SOL     OW68124  10.132   8.450   8.820
56033SOL    HW168125  10.172   8.449   8.728
56033SOL    HW268126  10.142   8.542   8.860
56034SOL     OW68127  10.226   8.358   7.739
56034SOL    HW168128  10.289   8.396   7.671
56034SOL    HW268129  10.266   8.275   7.778
56035SOL     OW68130  10.814   9.055   7.492
56035SOL    HW168131  10.722   9.092   7.499
56035SOL    HW268132  10.852   9.075   7.402
56036SOL     OW68133   9.682   8.736   8.938
56036SOL    HW168134   9.669   8.829   8.904
56036SOL    HW268135   9.598   8.684   8.925
56037SOL     OW68136  10.924   8.740   8.737
56037SOL    HW168137  10.984   8.743   8.817
56037SOL    HW268138  10.849   8.804   8.750
56038SOL     OW68139  10.349   8.546   8.144
56038SOL    HW168140  10.279   8.499   8.198
56038SOL    HW268141  10.408   8.478   8.101
56039SOL     OW68142  10.324   7.684   8.419
56039SOL    HW168143  10.316   7.648   8.326
56039SOL    HW268144  10.322   7.608   8.484
56040SOL     OW68145   9.900   8.935   7.939
56040SOL    HW168146   9.942   8.877   7.869
56040SOL    HW268147   9.856   9.014   7.895
56041SOL     OW68148  11.019   7.833   8.829
56041SOL    HW168149  11.092   7.902   8.833
56041SOL    HW268150  11.047   7.758   8.770
56042SOL     OW68151   9.565   8.796   7.738
56042SOL    HW168152   9.469   8.797   7.711
56042SOL    HW268153   9.577   8.849   7.822
56043SOL     OW68154   9.415   8.461   9.174
56043SOL    HW168155   9.338   8.428   9.228
56043SOL    HW268156   9.500   8.431   9.216
56044SOL     OW68157   9.982   7.651   8.937
56044SOL    HW168158  10.072   7.635   8.897
56044SOL    HW268159   9.990   7.656   9.036
56045SOL     OW68160   9.385   7.793   7.481
56045SOL    HW168161   9.293   7.765   7.452
56045SOL    HW268162   9.416   7.870   7.425
56046SOL     OW68163  10.750   8.304   8.846
56046SOL    HW168164  10.693   8.356   8.783
56046SOL    HW268165  10.846   8.316   8.822
56047SOL     OW68166   9.382   7.614   7.766
56047SOL    HW168167   9.365   7.697   7.712
56047SOL    HW268168   9.472   7.577   7.744
56048SOL     OW68169  10.493   8.783   7.567
56048SOL    HW168170  10.394   8.772   7.569
56048SOL    HW268171  10.527   8.798   7.660
56049SOL     OW68172   9.923   8.290   8.879
56049SOL    HW168173   9.979   8.371   8.862
56049SOL    HW268174   9.982   8.210   8.882
56050SOL     OW68175  10.803   9.215   8.407
56050SOL    HW168176  10.836   9.279   8.338
56050SOL    HW268177  10.869   9.209   8.482
56051SOL     OW68178  10.026   8.013   9.156
56051SOL    HW168179  10.045   8.078   9.230
56051SOL    HW268180  10.086   7.933   9.165
56052SOL     OW68181  10.760   8.668   9.081
56052SOL    HW168182  10.751   8.658   9.180
56052SOL    HW268183  10.856   8.661   9.055
56053SOL     OW68184   9.700   9.189   9.008
56053SOL    HW168185   9.609   9.230   9.006
56053SOL    HW268186   9.693   9.095   9.040
56054SOL     OW68187  10.984   8.331   8.702
56054SOL    HW168188  10.957   8.242   8.665
56054SOL    HW268189  10.985   8.399   8.629
56055SOL     OW68190  10.535   7.773   7.897
56055SOL    HW168191  10.600   7.699   7.886
56055SOL    HW268192  10.555   7.823   7.981
56056SOL     OW68193   9.904   8.193   8.100
56056SOL    HW168194   9.954   8.278   8.081
56056SOL    HW268195   9.816   8.195   8.052
56057SOL     OW68196  11.087   7.790   9.090
56057SOL    HW168197  11.070   7.821   8.996
56057SOL    HW268198  11.003   7.753   9.128
56058SOL     OW68199  11.040   8.382   8.965
56058SOL    HW168200  11.078   8.473   8.980
56058SOL    HW268201  11.032   8.365   8.866
56059SOL     OW68202  10.169   8.822   7.464
56059SOL    HW168203  10.123   8.837   7.552
56059SOL    HW268204  10.213   8.907   7.434
56060SOL     OW68205   9.971   9.238   8.401
56060SOL    HW168206   9.925   9.326   8.388
56060SOL    HW268207  10.070   9.250   8.394
56061SOL     OW68208  10.169   8.404   8.309
56061SOL    HW168209  10.223   8.335   8.357
56061SOL    HW268210  10.137   8.473   8.375
56062SOL     OW68211  10.393   8.432   7.535
56062SOL    HW168212  10.370   8.485   7.453
56062SOL    HW268213  10.474   8.376   7.516
56063SOL     OW68214  11.171   9.017   8.299
56063SOL    HW168215  11.100   9.005   8.229
56063SOL    HW268216  11.172   8.938   8.359
56064SOL     OW68217   9.531   8.762   9.292
56064SOL    HW168218   9.466   8.689   9.271
56064SOL    HW268219   9.535   8.776   9.390
56065SOL     OW68220   9.389   8.688   8.101
56065SOL    HW168221   9.388   8.641   8.189
56065SOL    HW268222   9.471   8.660   8.050
56066SOL     OW68223   9.982   8.839   9.072
56066SOL    HW168224   9.904   8.789   9.110
56066SOL    HW268225   9.979   8.934   9.103
56067SOL     OW68226  11.134   7.640   8.675
56067SOL    HW168227  11.130   7.550   8.719
56067SOL    HW268228  11.137   7.629   8.576
56068SOL     OW68229   9.738   7.872   7.968
56068SOL    HW168230   9.768   7.800   7.906
56068SOL    HW268231   9.699   7.832   8.051
56069SOL     OW68232  11.015   8.935   8.552
56069SOL    HW168233  10.922   8.910   8.525
56069SOL    HW268234  11.041   8.885   8.634
56070SOL     OW68235   9.627   7.995   8.728
56070SOL    HW168236   9.665   7.936   8.800
56070SOL    HW268237   9.667   7.969   8.640
56071SOL     OW68238  10.122   9.034   8.135
56071SOL    HW168239  10.154   9.044   8.041
56071SOL    HW268240  10.043   8.972   8.137
56072SOL     OW68241  10.734   7.662   8.560
56072SOL    HW168242  10.786   7.597   8.615
56072SOL    HW268243  10.685   7.725   8.621
56073SOL     OW68244  10.080   8.778   7.749
56073SOL    HW168245  10.034   8.691   7.766
56073SOL    HW268246  10.171   8.775   7.790
56074SOL     OW68247   9.928   9.015   8.732
56074SOL    HW168248   9.923   9.097   8.789
56074SOL    HW268249  10.017   9.012   8.687
56075SOL     OW68250  10.662   7.500   7.616
56075SOL    HW168251  10.697   7.459   7.532
56075SOL    HW268252  10.572   7.462   7.636
56076SOL     OW68253  10.610   7.901   8.139
56076SOL    HW168254  10.551   7.981   8.143
56076SOL    HW268255  10.625   7.866   8.232
56077SOL     OW68256  10.903   7.669   8.330
56077SOL    HW168257  10.819   7.668   8.384
56077SOL    HW268258  10.905   7.752   8.274
56078SOL     OW68259   9.349   8.525   7.748
56078SOL    HW168260   9.448   8.514   7.739
56078SOL    HW268261   9.309   8.439   7.780
56079SOL     OW68262  10.185   9.094   7.785
56079SOL    HW168263  10.108   9.059   7.731
56079SOL    HW268264  10.153   9.165   7.847
56080SOL     OW68265   9.540   8.076   9.423
56080SOL    HW168266   9.447   8.074   9.460
56080SOL    HW268267   9.541   8.037   9.331
56081SOL     OW68268   9.535   7.723  10.306
56081SOL    HW168269   9.570   7.706  10.398
56081SOL    HW268270   9.447   7.678  10.294
56082SOL     OW68271   9.329   7.816   9.957
56082SOL    HW168272   9.247   7.859   9.996
56082SOL    HW268273   9.301   7.743   9.894
56083SOL     OW68274   9.879   8.723  10.475
56083SOL    HW168275   9.786   8.716  10.438
56083SOL    HW268276   9.890   8.812  10.519
56084SOL     OW68277  10.865   8.959  10.013
56084SOL    HW168278  10.808   8.943  10.094
56084SOL    HW268279  10.806   8.969   9.933
56085SOL     OW68280  10.445   8.151  10.027
56085SOL    HW168281  10.502   8.229  10.002
56085SOL    HW268282  10.385   8.177  10.103
56086SOL     OW68283  11.065   8.055   9.541
56086SOL    HW168284  11.053   8.042   9.442
56086SOL    HW268285  11.035   7.974   9.590
56087SOL     OW68286  10.078   8.592  10.333
56087SOL    HW168287  10.000   8.609  10.393
56087SOL    HW268288  10.112   8.679  10.297
56088SOL     OW68289  10.160   8.246  11.133
56088SOL    HW168290  10.156   8.322  11.198
56088SOL    HW268291  10.182   8.282  11.042
56089SOL     OW68292   9.995   8.460   9.975
56089SOL    HW168293  10.064   8.444  10.045
56089SOL    HW268294   9.922   8.517  10.013
56090SOL     OW68295   9.996   8.609  11.113
56090SOL    HW168296  10.056   8.688  11.127
56090SOL    HW268297   9.910   8.640  11.072
56091SOL     OW68298   9.645   8.883  10.371
56091SOL    HW168299   9.567   8.852  10.318
56091SOL    HW268300   9.703   8.941  10.314
56092SOL     OW68301  10.770   8.953  10.649
56092SOL    HW168302  10.794   9.047  10.675
56092SOL    HW268303  10.754   8.899  10.731
56093SOL     OW68304   9.748   7.840  10.809
56093SOL    HW168305   9.830   7.784  10.818
56093SOL    HW268306   9.667   7.782  10.813
56094SOL     OW68307  10.913   7.895  10.047
56094SOL    HW168308  10.839   7.941   9.997
56094SOL    HW268309  10.964   7.963  10.100
56095SOL     OW68310   9.541   9.161   9.793
56095SOL    HW168311   9.575   9.238   9.847
56095SOL    HW268312   9.585   9.161   9.703
56096SOL     OW68313  10.437   8.789  11.000
56096SOL    HW168314  10.484   8.789  11.088
56096SOL    HW268315  10.389   8.702  10.989
56097SOL     OW68316   9.540   8.882   9.848
56097SOL    HW168317   9.514   8.978   9.848
56097SOL    HW268318   9.469   8.828   9.893
56098SOL     OW68319   9.550   8.539  10.196
56098SOL    HW168320   9.564   8.455  10.248
56098SOL    HW268321   9.495   8.603  10.251
56099SOL     OW68322   9.930   9.234  10.749
56099SOL    HW168323   9.838   9.217  10.784
56099SOL    HW268324   9.958   9.326  10.775
56100SOL     OW68325   9.916   8.412   9.433
56100SOL    HW168326   9.923   8.496   9.379
56100SOL    HW268327   9.962   8.425   9.521
56101SOL     OW68328  10.904   7.562  10.790
56101SOL    HW168329  10.886   7.629  10.718
56101SOL    HW268330  10.901   7.608  10.879
56102SOL     OW68331   9.432   8.091   9.873
56102SOL    HW168332   9.387   8.003   9.890
56102SOL    HW268333   9.431   8.145   9.957
56103SOL     OW68334  11.152   9.215   9.669
56103SOL    HW168335  11.206   9.186   9.749
56103SOL    HW268336  11.182   9.305   9.640
56104SOL     OW68337   9.337   9.044   9.427
56104SOL    HW168338   9.318   8.948   9.448
56104SOL    HW268339   9.304   9.102   9.502
56105SOL     OW68340  10.999   8.370   9.922
56105SOL    HW168341  11.094   8.341   9.930
56105SOL    HW268342  10.991   8.435   9.847
56106SOL     OW68343  10.951   8.556   9.742
56106SOL    HW168344  11.037   8.558   9.690
56106SOL    HW268345  10.965   8.603   9.830
56107SOL     OW68346   9.423   8.185  10.907
56107SOL    HW168347   9.511   8.172  10.952
56107SOL    HW268348   9.410   8.282  10.885
56108SOL     OW68349   9.923   8.813  10.036
56108SOL    HW168350   9.874   8.726  10.045
56108SOL    HW268351   9.900   8.856   9.949
56109SOL     OW68352  10.603   8.676  10.733
56109SOL    HW168353  10.640   8.603  10.675
56109SOL    HW268354  10.655   8.681  10.818
56110SOL     OW68355  10.119   7.452   9.812
56110SOL    HW168356  10.159   7.543   9.803
56110SOL    HW268357  10.019   7.460   9.818
56111SOL     OW68358   9.507   8.424  10.574
56111SOL    HW168359   9.596   8.379  10.560
56111SOL    HW268360   9.434   8.359  10.555
56112SOL     OW68361  10.835   8.447   9.500
56112SOL    HW168362  10.772   8.371   9.513
56112SOL    HW268363  10.883   8.465   9.586
56113SOL     OW68364  10.497   9.240  10.926
56113SOL    HW168365  10.521   9.300  10.850
56113SOL    HW268366  10.504   9.145  10.896
56114SOL     OW68367   9.627   7.699  11.111
56114SOL    HW168368   9.698   7.770  11.117
56114SOL    HW268369   9.539   7.738  11.139
56115SOL     OW68370  10.776   8.865  10.263
56115SOL    HW168371  10.717   8.871  10.343
56115SOL    HW268372  10.761   8.777  10.217
56116SOL     OW68373  10.977   9.162   9.882
56116SOL    HW168374  10.936   9.139   9.794
56116SOL    HW268375  10.959   9.088   9.947
56117SOL     OW68376   9.908   8.177   9.580
56117SOL    HW168377   9.932   8.246   9.512
56117SOL    HW268378   9.830   8.210   9.634
56118SOL     OW68379  10.591   7.793  10.254
56118SOL    HW168380  10.505   7.743  10.241
56118SOL    HW268381  10.653   7.739  10.310
56119SOL     OW68382  10.886   9.110   9.617
56119SOL    HW168383  10.975   9.156   9.620
56119SOL    HW268384  10.865   9.086   9.522
56120SOL     OW68385  10.117   8.053  10.775
56120SOL    HW168386  10.070   8.050  10.864
56120SOL    HW268387  10.066   7.998  10.709
56121SOL     OW68388  10.704   7.917  10.984
56121SOL    HW168389  10.684   7.960  11.072
56121SOL    HW268390  10.782   7.855  10.993
56122SOL     OW68391  10.283   8.338  10.882
56122SOL    HW168392  10.329   8.254  10.853
56122SOL    HW268393  10.227   8.372  10.807
56123SOL     OW68394  10.301   7.858  10.552
56123SOL    HW168395  10.224   7.892  10.606
56123SOL    HW268396  10.267   7.807  10.473
56124SOL     OW68397  10.351   8.149   9.739
56124SOL    HW168398  10.377   8.145   9.835
56124SOL    HW268399  10.266   8.098   9.725
56125SOL     OW68400   9.386   8.259  10.099
56125SOL    HW168401   9.485   8.247  10.108
56125SOL    HW268402   9.362   8.354  10.120
56126SOL     OW68403   9.440   9.269  10.881
56126SOL    HW168404   9.430   9.254  10.980
56126SOL    HW268405   9.354   9.305  10.845
56127SOL     OW68406  10.175   7.796   9.505
56127SOL    HW168407  10.234   7.859   9.456
56127SOL    HW268408  10.194   7.702   9.476
56128SOL     OW68409  11.029   8.033  11.141
56128SOL    HW168410  11.003   8.122  11.105
56128SOL    HW268411  11.027   7.965  11.068
56129SOL     OW68412  10.672   8.592   9.855
56129SOL    HW168413  10.755   8.563   9.807
56129SOL    HW268414  10.623   8.659   9.799
56130SOL     OW68415   9.860   7.644  10.195
56130SOL    HW168416   9.855   7.639  10.295
56130SOL    HW268417   9.862   7.740  10.166
56131SOL     OW68418  10.318   8.904   9.787
56131SOL    HW168419  10.272   8.976   9.735
56131SOL    HW268420  10.314   8.924   9.885
56132SOL     OW68421   9.661   9.249  10.163
56132SOL    HW168422   9.711   9.163  10.169
56132SOL    HW268423   9.726   9.326  10.160
56133SOL     OW68424  11.105   8.514  10.183
56133SOL    HW168425  11.043   8.499  10.107
56133SOL    HW268426  11.053   8.525  10.268
56134SOL     OW68427  10.537   8.998  10.816
56134SOL    HW168428  10.543   8.921  10.880
56134SOL    HW268429  10.485   8.972  10.736
56135SOL     OW68430   9.631   8.391   9.552
56135SOL    HW168431   9.713   8.430   9.510
56135SOL    HW268432   9.604   8.309   9.503
56136SOL     OW68433  10.768   8.183  10.038
56136SOL    HW168434  10.763   8.118  10.113
56136SOL    HW268435  10.848   8.242  10.051
56137SOL     OW68436   9.771   8.714  11.037
56137SOL    HW168437   9.721   8.715  10.951
56137SOL    HW268438   9.708   8.696  11.113
56138SOL     OW68439  10.421   9.224   9.547
56138SOL    HW168440  10.361   9.162   9.597
56138SOL    HW268441  10.452   9.180   9.462
56139SOL     OW68442   9.512   7.733  10.808
56139SOL    HW168443   9.432   7.793  10.795
56139SOL    HW268444   9.502   7.684  10.894
56140SOL     OW68445  10.942   8.825   9.391
56140SOL    HW168446  10.910   8.919   9.381
56140SOL    HW268447  10.866   8.762   9.379
56141SOL     OW68448   9.774   9.191   9.633
56141SOL    HW168449   9.807   9.230   9.719
56141SOL    HW268450   9.850   9.184   9.568
56142SOL     OW68451  10.710   7.555   9.736
56142SOL    HW168452  10.686   7.518   9.646
56142SOL    HW268453  10.809   7.571   9.740
56143SOL     OW68454   9.559   9.233  10.551
56143SOL    HW168455   9.616   9.168  10.601
56143SOL    HW268456   9.543   9.200  10.458
56144SOL     OW68457  10.250   9.146  10.214
56144SOL    HW168458  10.330   9.089  10.235
56144SOL    HW268459  10.201   9.106  10.137
56145SOL     OW68460   9.692   8.148   9.790
56145SOL    HW168461   9.737   8.058   9.787
56145SOL    HW268462   9.598   8.137   9.823
56146SOL     OW68463  10.857   7.670  11.039
56146SOL    HW168464  10.852   7.707  11.131
56146SOL    HW268465  10.785   7.601  11.027
56147SOL     OW68466   9.924   7.570   9.427
56147SOL    HW168467  10.022   7.548   9.434
56147SOL    HW268468   9.893   7.553   9.334
56148SOL     OW68469  10.091   7.712  11.059
56148SOL    HW168470  10.158   7.651  11.102
56148SOL    HW268471  10.018   7.731  11.124
56149SOL     OW68472  10.198   8.962  10.505
56149SOL    HW168473  10.175   8.937  10.411
56149SOL    HW268474  10.259   8.893  10.544
56150SOL     OW68475  10.661   8.038  10.743
56150SOL    HW168476  10.689   7.995  10.828
56150SOL    HW268477  10.686   8.134  10.744
56151SOL     OW68478  10.113   8.850  10.234
56151SOL    HW168479  10.203   8.864  10.192
56151SOL    HW268480  10.042   8.852  10.163
56152SOL     OW68481  10.232   7.951  10.209
56152SOL    HW168482  10.207   7.942  10.113
56152SOL    HW268483  10.280   7.869  10.240
56153SOL     OW68484   9.849   7.512   9.822
56153SOL    HW168485   9.768   7.513   9.880
56153SOL    HW268486   9.852   7.595   9.767
56154SOL     OW68487  10.744   8.636   9.351
56154SOL    HW168488  10.776   8.560   9.408
56154SOL    HW268489  10.652   8.663   9.381
56155SOL     OW68490   9.607   7.483   9.481
56155SOL    HW168491   9.656   7.567   9.460
56155SOL    HW268492   9.669   7.418   9.526
56156SOL     OW68493  10.245   7.684   9.790
56156SOL    HW168494  10.197   7.725   9.712
56156SOL    HW268495  10.344   7.682   9.771
56157SOL     OW68496  10.386   8.131  10.774
56157SOL    HW168497  10.306   8.070  10.777
56157SOL    HW268498  10.467   8.078  10.750
56158SOL     OW68499  10.537   9.018  10.103
56158SOL    HW168500  10.558   9.092  10.038
56158SOL    HW268501  10.605   9.018  10.176
56159SOL     OW68502   9.769   8.600  10.051
56159SOL    HW168503   9.698   8.573  10.116
56159SOL    HW268504   9.743   8.572   9.958
56160SOL     OW68505  10.581   9.245   9.901
56160SOL    HW168506  10.625   9.309   9.837
56160SOL    HW268507  10.531   9.297   9.971
56161SOL     OW68508  10.342   7.997   9.326
56161SOL    HW168509  10.301   8.079   9.287
56161SOL    HW268510  10.406   8.023   9.399
56162SOL     OW68511   9.388   8.004  10.696
56162SOL    HW168512   9.480   8.003  10.655
56162SOL    HW268513   9.382   8.078  10.763
56163SOL     OW68514   9.871   7.670  10.457
56163SOL    HW168515   9.909   7.586  10.494
56163SOL    HW268516   9.783   7.689  10.501
56164SOL     OW68517  10.176   7.902   9.952
56164SOL    HW168518  10.144   7.974   9.890
56164SOL    HW268519  10.200   7.821   9.899
56165SOL     OW68520  10.327   7.487  10.063
56165SOL    HW168521  10.255   7.492   9.994
56165SOL    HW268522  10.303   7.418  10.132
56166SOL     OW68523  10.739   8.621  10.177
56166SOL    HW168524  10.684   8.537  10.170
56166SOL    HW268525  10.765   8.650  10.085
56167SOL     OW68526  10.776   8.038  10.302
56167SOL    HW168527  10.746   7.943  10.309
56167SOL    HW268528  10.849   8.054  10.368
56168SOL     OW68529  11.167   8.281   9.687
56168SOL    HW168530  11.209   8.217   9.751
56168SOL    HW268531  11.129   8.230   9.609
56169SOL     OW68532   9.798   8.833   9.484
56169SOL    HW168533   9.711   8.818   9.531
56169SOL    HW268534   9.781   8.859   9.389
56170SOL     OW68535  10.974   8.728   9.967
56170SOL    HW168536  11.073   8.736   9.981
56170SOL    HW268537  10.929   8.812   9.998
56171SOL     OW68538  10.700   8.023   9.388
56171SOL    HW168539  10.646   8.002   9.469
56171SOL    HW268540  10.791   7.982   9.397
56172SOL     OW68541   9.837   7.704   9.638
56172SOL    HW168542   9.864   7.645   9.563
56172SOL    HW268543   9.837   7.799   9.607
56173SOL     OW68544  11.064   8.671  10.898
56173SOL    HW168545  11.155   8.632  10.885
56173SOL    HW268546  11.072   8.767  10.922
56174SOL     OW68547  10.374   8.795  10.650
56174SOL    HW168548  10.294   8.772  10.705
56174SOL    HW268549  10.457   8.769  10.699
56175SOL     OW68550  10.902   9.077  10.935
56175SOL    HW168551  10.929   9.111  10.845
56175SOL    HW268552  10.981   9.039  10.981
56176SOL     OW68553  10.421   8.643  10.410
56176SOL    HW168554  10.381   8.687  10.491
56176SOL    HW268555  10.380   8.680  10.327
56177SOL     OW68556  10.948   8.547  10.389
56177SOL    HW168557  10.953   8.628  10.448
56177SOL    HW268558  10.862   8.549  10.338
56178SOL     OW68559  10.225   7.537  10.712
56178SOL    HW168560  10.250   7.517  10.617
56178SOL    HW268561  10.297   7.593  10.754
56179SOL     OW68562  10.290   8.564  11.029
56179SOL    HW168563  10.191   8.570  11.039
56179SOL    HW268564  10.313   8.484  10.973
56180SOL     OW68565  10.015   8.498   9.678
56180SOL    HW168566  10.001   8.505   9.777
56180SOL    HW268567  10.099   8.447   9.660
56181SOL     OW68568   9.720   8.261  10.561
56181SOL    HW168569   9.806   8.273  10.611
56181SOL    HW268570   9.678   8.174  10.588
56182SOL     OW68571  10.584   7.834  10.572
56182SOL    HW168572  10.605   7.908  10.636
56182SOL    HW268573  10.495   7.851  10.529
56183SOL     OW68574   9.374   9.012  10.641
56183SOL    HW168575   9.328   9.094  10.607
56183SOL    HW268576   9.472   9.031  10.650
56184SOL     OW68577   9.677   8.548   9.811
56184SOL    HW168578   9.670   8.631   9.755
56184SOL    HW268579   9.681   8.468   9.751
56185SOL     OW68580   9.876   7.985  10.175
56185SOL    HW168581   9.888   8.051  10.101
56185SOL    HW268582   9.922   8.019  10.258
56186SOL     OW68583  10.562   8.796   9.698
56186SOL    HW168584  10.612   8.873   9.738
56186SOL    HW268585  10.467   8.798   9.730
56187SOL     OW68586  10.582   8.893  10.452
56187SOL    HW168587  10.629   8.906  10.539
56187SOL    HW268588  10.516   8.819  10.461
56188SOL     OW68589  10.892   8.087   9.782
56188SOL    HW168590  10.861   8.148   9.855
56188SOL    HW268591  10.942   8.139   9.713
56189SOL     OW68592   9.664   8.958  10.639
56189SOL    HW168593   9.643   8.914  10.552
56189SOL    HW268594   9.761   8.984  10.642
56190SOL     OW68595   9.712   8.199  10.908
56190SOL    HW168596   9.780   8.254  10.861
56190SOL    HW268597   9.752   8.111  10.935
56191SOL     OW68598  10.897   8.227  10.980
56191SOL    HW168599  10.805   8.265  10.975
56191SOL    HW268600  10.957   8.274  10.915
56192SOL     OW68601  10.323   7.553  11.080
56192SOL    HW168602  10.329   7.638  11.028
56192SOL    HW268603  10.355   7.477  11.023
56193SOL     OW68604   9.814   7.498  11.050
56193SOL    HW168605   9.772   7.441  10.980
56193SOL    HW268606   9.748   7.567  11.082
56194SOL     OW68607   9.883   8.318  10.339
56194SOL    HW168608   9.927   8.407  10.330
56194SOL    HW268609   9.820   8.318  10.416
56195SOL     OW68610  10.670   8.310  10.355
56195SOL    HW168611  10.595   8.310  10.289
56195SOL    HW268612  10.707   8.218  10.364
56196SOL     OW68613  10.519   7.973   9.585
56196SOL    HW168614  10.532   7.889   9.639
56196SOL    HW268615  10.490   8.047   9.645
56197SOL     OW68616   9.617   7.661  10.541
56197SOL    HW168617   9.594   7.698  10.631
56197SOL    HW268618   9.587   7.566  10.535
56198SOL     OW68619   9.347   8.758  10.592
56198SOL    HW168620   9.400   8.709  10.660
56198SOL    HW268621   9.369   8.856  10.597
56199SOL     OW68622  10.042   8.082  10.374
56199SOL    HW168623  10.101   8.056  10.298
56199SOL    HW268624  10.014   8.178  10.363
56200SOL     OW68625  11.038   8.383  11.164
56200SOL    HW168626  10.992   8.376  11.075
56200SOL    HW268627  10.976   8.427  11.230
56201SOL     OW68628   9.617   7.511   9.928
56201SOL    HW168629   9.606   7.605   9.961
56201SOL    HW268630   9.612   7.448  10.005
56202SOL     OW68631  10.932   7.815   9.684
56202SOL    HW168632  10.934   7.739   9.748
56202SOL    HW268633  10.884   7.892   9.724
56203SOL     OW68634  10.333   8.214  10.276
56203SOL    HW168635  10.348   8.235  10.372
56203SOL    HW268636  10.303   8.119  10.267
56204SOL     OW68637  10.290   9.021  11.010
56204SOL    HW168638  10.270   9.065  10.922
56204SOL    HW268639  10.329   8.930  10.994
56205SOL     OW68640  11.169   8.966  10.915
56205SOL    HW168641  11.183   8.993  10.820
56205SOL    HW268642  11.252   8.988  10.968
56206SOL     OW68643   9.660   8.346  11.114
56206SOL    HW168644   9.736   8.390  11.162
56206SOL    HW268645   9.695   8.299  11.032
56207SOL     OW68646  10.850   7.722   9.435
56207SOL    HW168647  10.789   7.647   9.458
56207SOL    HW268648  10.872   7.774   9.518
56208SOL     OW68649  10.613   8.286   9.352
56208SOL    HW168650  10.647   8.193   9.367
56208SOL    HW268651  10.631   8.313   9.257
56209SOL     OW68652  10.378   8.781  10.159
56209SOL    HW168653  10.385   8.697  10.104
56209SOL    HW268654  10.440   8.850  10.123
56210SOL     OW68655   9.629   8.258  10.259
56210SOL    HW168656   9.722   8.294  10.264
56210SOL    HW268657   9.623   8.173  10.311
56211SOL     OW68658   9.649   7.957  10.316
56211SOL    HW168659   9.597   7.874  10.299
56211SOL    HW268660   9.726   7.962  10.252
56212SOL     OW68661  10.448   7.828  10.988
56212SOL    HW168662  10.403   7.891  11.052
56212SOL    HW268663  10.541   7.859  10.971
56213SOL     OW68664  10.470   7.655  10.787
56213SOL    HW168665  10.470   7.719  10.864
56213SOL    HW268666  10.498   7.703  10.704
56214SOL     OW68667   9.318   8.774   9.510
56214SOL    HW168668   9.225   8.795   9.479
56214SOL    HW268669   9.328   8.675   9.523
56215SOL     OW68670   9.398   9.249  10.237
56215SOL    HW168671   9.356   9.163  10.210
56215SOL    HW268672   9.492   9.252  10.203
56216SOL     OW68673   9.814   9.016  10.220
56216SOL    HW168674   9.880   9.090  10.229
56216SOL    HW268675   9.858   8.937  10.178
56217SOL     OW68676  10.312   8.244  10.548
56217SOL    HW168677  10.353   8.212  10.634
56217SOL    HW268678  10.216   8.217  10.545
56218SOL     OW68679   9.350   7.992  10.424
56218SOL    HW168680   9.435   7.959  10.383
56218SOL    HW268681   9.363   8.007  10.522
56219SOL     OW68682   9.499   7.968  11.032
56219SOL    HW168683   9.558   7.928  10.962
56219SOL    HW268684   9.441   8.039  10.991
56220SOL     OW68685  10.679   8.398  10.970
56220SOL    HW168686  10.718   8.487  10.990
56220SOL    HW268687  10.689   8.378  10.873
56221SOL     OW68688  10.125   8.020   9.635
56221SOL    HW168689  10.132   7.931   9.589
56221SOL    HW268690  10.031   8.054   9.627
56222SOL     OW68691  10.967   8.052  10.516
56222SOL    HW168692  10.929   7.983  10.578
56222SOL    HW268693  11.049   8.016  10.472
56223SOL     OW68694   9.562   9.012  11.054
56223SOL    HW168695   9.532   9.069  11.130
56223SOL    HW268696   9.555   8.915  11.080
56224SOL     OW68697   9.981   7.912  10.579
56224SOL    HW168698   9.947   7.823  10.549
56224SOL    HW268699  10.007   7.966  10.499
56225SOL     OW68700  10.240   9.126  10.775
56225SOL    HW168701  10.216   9.108  10.680
56225SOL    HW268702  10.270   9.220  10.785
56226SOL     OW68703   9.783   7.948   9.501
56226SOL    HW168704   9.844   8.028   9.505
56226SOL    HW268705   9.688   7.979   9.508
56227SOL     OW68706   9.469   8.585  10.776
56227SOL    HW168707   9.491   8.524  10.852
56227SOL    HW268708   9.479   8.536  10.690
56228SOL     OW68709  10.657   8.507  10.544
56228SOL    HW168710  10.681   8.444  10.470
56228SOL    HW268711  10.567   8.547  10.526
56229SOL     OW68712  10.612   8.303   9.619
56229SOL    HW168713  10.526   8.272   9.661
56229SOL    HW268714  10.608   8.289   9.520
56230SOL     OW68715  11.069   9.195  10.464
56230SOL    HW168716  11.130   9.225  10.391
56230SOL    HW268717  11.031   9.106  10.442
56231SOL     OW68718  10.562   9.179  10.438
56231SOL    HW168719  10.646   9.184  10.384
56231SOL    HW268720  10.539   9.083  10.456
56232SOL     OW68721   9.393   8.706  10.332
56232SOL    HW168722   9.388   8.705  10.432
56232SOL    HW268723   9.310   8.665  10.294
56233SOL     OW68724   9.998   9.110  11.026
56233SOL    HW168725   9.942   9.191  11.035
56233SOL    HW268726  10.050   9.114  10.940
56234SOL     OW68727  11.036   7.583   9.833
56234SOL    HW168728  11.109   7.566   9.766
56234SOL    HW268729  11.005   7.496   9.871
56235SOL     OW68730  10.698   9.021   9.787
56235SOL    HW168731  10.765   9.033   9.713
56235SOL    HW268732  10.658   9.110   9.810
56236SOL     OW68733   9.440   9.242  11.161
56236SOL    HW168734   9.399   9.168  11.214
56236SOL    HW268735   9.504   9.293  11.219
56237SOL     OW68736  10.590   8.375   9.982
56237SOL    HW168737  10.650   8.294   9.984
56237SOL    HW268738  10.630   8.444   9.922
56238SOL     OW68739  10.140   8.721  10.732
56238SOL    HW168740  10.135   8.754  10.827
56238SOL    HW268741  10.054   8.740  10.686
56239SOL     OW68742   9.982   9.064   9.464
56239SOL    HW168743   9.991   9.074   9.365
56239SOL    HW268744   9.942   8.975   9.485
56240SOL     OW68745  10.960   9.168  10.704
56240SOL    HW168746  11.013   9.178  10.620
56240SOL    HW268747  10.933   9.258  10.738
56241SOL     OW68748  11.151   7.623  10.273
56241SOL    HW168749  11.190   7.538  10.237
56241SOL    HW268750  11.053   7.625  10.254
56242SOL     OW68751   9.573   7.774  10.030
56242SOL    HW168752   9.494   7.825   9.996
56242SOL    HW268753   9.564   7.759  10.128
56243SOL     OW68754  10.504   9.060   9.341
56243SOL    HW168755  10.510   8.967   9.378
56243SOL    HW268756  10.445   9.060   9.261
56244SOL     OW68757  10.132   8.450  10.682
56244SOL    HW168758  10.172   8.449  10.590
56244SOL    HW268759  10.142   8.542  10.722
56245SOL     OW68760  10.226   8.358   9.601
56245SOL    HW168761  10.289   8.396   9.533
56245SOL    HW268762  10.266   8.275   9.640
56246SOL     OW68763  10.814   9.055   9.354
56246SOL    HW168764  10.722   9.092   9.361
56246SOL    HW268765  10.852   9.075   9.264
56247SOL     OW68766   9.682   8.736  10.800
56247SOL    HW168767   9.669   8.829  10.766
56247SOL    HW268768   9.598   8.684  10.787
56248SOL     OW68769  10.924   8.740  10.599
56248SOL    HW168770  10.984   8.743  10.679
56248SOL    HW268771  10.849   8.804  10.612
56249SOL     OW68772  10.349   8.546  10.006
56249SOL    HW168773  10.279   8.499  10.060
56249SOL    HW268774  10.408   8.478   9.963
56250SOL     OW68775  10.324   7.684  10.281
56250SOL    HW168776  10.316   7.648  10.188
56250SOL    HW268777  10.322   7.608  10.346
56251SOL     OW68778   9.900   8.935   9.801
56251SOL    HW168779   9.942   8.877   9.731
56251SOL    HW268780   9.856   9.014   9.757
56252SOL     OW68781  11.019   7.833  10.691
56252SOL    HW168782  11.092   7.902  10.695
56252SOL    HW268783  11.047   7.758  10.632
56253SOL     OW68784   9.565   8.796   9.600
56253SOL    HW168785   9.469   8.797   9.573
56253SOL    HW268786   9.577   8.849   9.684
56254SOL     OW68787   9.415   8.461  11.036
56254SOL    HW168788   9.338   8.428  11.090
56254SOL    HW268789   9.500   8.431  11.078
56255SOL     OW68790   9.982   7.651  10.799
56255SOL    HW168791  10.072   7.635  10.759
56255SOL    HW268792   9.990   7.656  10.898
56256SOL     OW68793   9.385   7.793   9.343
56256SOL    HW168794   9.293   7.765   9.314
56256SOL    HW268795   9.416   7.870   9.287
56257SOL     OW68796  10.750   8.304  10.708
56257SOL    HW168797  10.693   8.356  10.645
56257SOL    HW268798  10.846   8.316  10.684
56258SOL     OW68799   9.382   7.614   9.628
56258SOL    HW168800   9.365   7.697   9.574
56258SOL    HW268801   9.472   7.577   9.606
56259SOL     OW68802  10.493   8.783   9.429
56259SOL    HW168803  10.394   8.772   9.431
56259SOL    HW268804  10.527   8.798   9.522
56260SOL     OW68805   9.923   8.290  10.741
56260SOL    HW168806   9.979   8.371  10.724
56260SOL    HW268807   9.982   8.210  10.744
56261SOL     OW68808  10.803   9.215  10.269
56261SOL    HW168809  10.836   9.279  10.200
56261SOL    HW268810  10.869   9.209  10.344
56262SOL     OW68811  10.026   8.013  11.018
56262SOL    HW168812  10.045   8.078  11.092
56262SOL    HW268813  10.086   7.933  11.027
56263SOL     OW68814  10.760   8.668  10.943
56263SOL    HW168815  10.751   8.658  11.042
56263SOL    HW268816  10.856   8.661  10.917
56264SOL     OW68817   9.700   9.189  10.870
56264SOL    HW168818   9.609   9.230  10.868
56264SOL    HW268819   9.693   9.095  10.902
56265SOL     OW68820  10.984   8.331  10.564
56265SOL    HW168821  10.957   8.242  10.527
56265SOL    HW268822  10.985   8.399  10.491
56266SOL     OW68823  10.535   7.773   9.759
56266SOL    HW168824  10.600   7.699   9.748
56266SOL    HW268825  10.555   7.823   9.843
56267SOL     OW68826   9.904   8.193   9.962
56267SOL    HW168827   9.954   8.278   9.943
56267SOL    HW268828   9.816   8.195   9.914
56268SOL     OW68829  11.087   7.790  10.952
56268SOL    HW168830  11.070   7.821  10.858
56268SOL    HW268831  11.003   7.753  10.990
56269SOL     OW68832  11.040   8.382  10.827
56269SOL    HW168833  11.078   8.473  10.842
56269SOL    HW268834  11.032   8.365  10.728
56270SOL     OW68835  10.169   8.822   9.326
56270SOL    HW168836  10.123   8.837   9.414
56270SOL    HW268837  10.213   8.907   9.296
56271SOL     OW68838   9.971   9.238  10.263
56271SOL    HW168839   9.925   9.326  10.250
56271SOL    HW268840  10.070   9.250  10.256
56272SOL     OW68841  10.169   8.404  10.171
56272SOL    HW168842  10.223   8.335  10.219
56272SOL    HW268843  10.137   8.473  10.237
56273SOL     OW68844  10.393   8.432   9.397
56273SOL    HW168845  10.370   8.485   9.315
56273SOL    HW268846  10.474   8.376   9.378
56274SOL     OW68847  11.171   9.017  10.161
56274SOL    HW168848  11.100   9.005  10.091
56274SOL    HW268849  11.172   8.938  10.221
56275SOL     OW68850   9.531   8.762  11.154
56275SOL    HW168851   9.466   8.689  11.133
56275SOL    HW268852   9.535   8.776  11.252
56276SOL     OW68853   9.389   8.688   9.963
56276SOL    HW168854   9.388   8.641  10.051
56276SOL    HW268855   9.471   8.660   9.912
56277SOL     OW68856   9.982   8.839  10.934
56277SOL    HW168857   9.904   8.789  10.972
56277SOL    HW268858   9.979   8.934  10.965
56278SOL     OW68859  11.134   7.640  10.537
56278SOL    HW168860  11.130   7.550  10.581
56278SOL    HW268861  11.137   7.629  10.438
56279SOL     OW68862   9.738   7.872   9.830
56279SOL    HW168863   9.768   7.800   9.768
56279SOL    HW268864   9.699   7.832   9.913
56280SOL     OW68865  11.015   8.935  10.414
56280SOL    HW168866  10.922   8.910  10.387
56280SOL    HW268867  11.041   8.885  10.496
56281SOL     OW68868   9.627   7.995  10.590
56281SOL    HW168869   9.665   7.936  10.662
56281SOL    HW268870   9.667   7.969  10.502
56282SOL     OW68871  10.122   9.034   9.997
56282SOL    HW168872  10.154   9.044   9.903
56282SOL    HW268873  10.043   8.972   9.999
56283SOL     OW68874  10.734   7.662  10.422
56283SOL    HW168875  10.786   7.597  10.477
56283SOL    HW268876  10.685   7.725  10.483
56284SOL     OW68877  10.311   7.482  10.464
56284SOL    HW168878  10.248   7.410  10.433
56284SOL    HW268879  10.404   7.446  10.464
56285SOL     OW68880  10.080   8.778   9.611
56285SOL    HW168881  10.034   8.691   9.628
56285SOL    HW268882  10.171   8.775   9.652
56286SOL     OW68883   9.928   9.015  10.594
56286SOL    HW168884   9.923   9.097  10.651
56286SOL    HW268885  10.017   9.012  10.549
56287SOL     OW68886  10.662   7.500   9.478
56287SOL    HW168887  10.697   7.459   9.394
56287SOL    HW268888  10.572   7.462   9.498
56288SOL     OW68889  10.610   7.901  10.001
56288SOL    HW168890  10.551   7.981  10.005
56288SOL    HW268891  10.625   7.866  10.094
56289SOL     OW68892  10.903   7.669  10.192
56289SOL    HW168893  10.819   7.668  10.246
56289SOL    HW268894  10.905   7.752  10.136
56290SOL     OW68895   9.349   8.525   9.610
56290SOL    HW168896   9.448   8.514   9.601
56290SOL    HW268897   9.309   8.439   9.642
56291SOL     OW68898  10.185   9.094   9.647
56291SOL    HW168899  10.108   9.059   9.593
56291SOL    HW268900  10.153   9.165   9.709
56292SOL     OW68901   9.540   8.076  11.285
56292SOL    HW168902   9.447   8.074  11.322
56292SOL    HW268903   9.541   8.037  11.193
56293SOL     OW68904   9.535   7.723  12.168
56293SOL    HW168905   9.570   7.706  12.260
56293SOL    HW268906   9.447   7.678  12.156
56294SOL     OW68907   9.329   7.816  11.819
56294SOL    HW168908   9.247   7.859  11.858
56294SOL    HW268909   9.301   7.743  11.756
56295SOL     OW68910   9.879   8.723  12.337
56295SOL    HW168911   9.786   8.716  12.300
56295SOL    HW268912   9.890   8.812  12.381
56296SOL     OW68913  10.865   8.959  11.875
56296SOL    HW168914  10.808   8.943  11.956
56296SOL    HW268915  10.806   8.969  11.795
56297SOL     OW68916  10.445   8.151  11.889
56297SOL    HW168917  10.502   8.229  11.864
56297SOL    HW268918  10.385   8.177  11.965
56298SOL     OW68919  11.065   8.055  11.403
56298SOL    HW168920  11.053   8.042  11.304
56298SOL    HW268921  11.035   7.974  11.452
56299SOL     OW68922  10.078   8.592  12.195
56299SOL    HW168923  10.000   8.609  12.255
56299SOL    HW268924  10.112   8.679  12.159
56300SOL     OW68925   9.995   8.460  11.837
56300SOL    HW168926  10.064   8.444  11.907
56300SOL    HW268927   9.922   8.517  11.875
56301SOL     OW68928   9.645   8.883  12.233
56301SOL    HW168929   9.567   8.852  12.180
56301SOL    HW268930   9.703   8.941  12.176
56302SOL     OW68931  10.770   8.953  12.511
56302SOL    HW168932  10.794   9.047  12.537
56302SOL    HW268933  10.754   8.899  12.593
56303SOL     OW68934   9.748   7.840  12.671
56303SOL    HW168935   9.830   7.784  12.680
56303SOL    HW268936   9.667   7.782  12.675
56304SOL     OW68937  10.913   7.895  11.909
56304SOL    HW168938  10.839   7.941  11.859
56304SOL    HW268939  10.964   7.963  11.962
56305SOL     OW68940   9.541   9.161  11.655
56305SOL    HW168941   9.575   9.238  11.709
56305SOL    HW268942   9.585   9.161  11.565
56306SOL     OW68943   9.540   8.882  11.710
56306SOL    HW168944   9.514   8.978  11.710
56306SOL    HW268945   9.469   8.828  11.755
56307SOL     OW68946   9.550   8.539  12.058
56307SOL    HW168947   9.564   8.455  12.110
56307SOL    HW268948   9.495   8.603  12.113
56308SOL     OW68949   9.930   9.234  12.611
56308SOL    HW168950   9.838   9.217  12.646
56308SOL    HW268951   9.958   9.326  12.637
56309SOL     OW68952   9.916   8.412  11.295
56309SOL    HW168953   9.923   8.496  11.241
56309SOL    HW268954   9.962   8.425  11.383
56310SOL     OW68955  10.904   7.562  12.652
56310SOL    HW168956  10.886   7.629  12.580
56310SOL    HW268957  10.901   7.608  12.741
56311SOL     OW68958   9.432   8.091  11.735
56311SOL    HW168959   9.387   8.003  11.752
56311SOL    HW268960   9.431   8.145  11.819
56312SOL     OW68961  11.152   9.215  11.531
56312SOL    HW168962  11.206   9.186  11.611
56312SOL    HW268963  11.182   9.305  11.502
56313SOL     OW68964   9.337   9.044  11.289
56313SOL    HW168965   9.318   8.948  11.310
56313SOL    HW268966   9.304   9.102  11.364
56314SOL     OW68967  10.999   8.370  11.784
56314SOL    HW168968  11.094   8.341  11.792
56314SOL    HW268969  10.991   8.435  11.709
56315SOL     OW68970  10.951   8.556  11.604
56315SOL    HW168971  11.037   8.558  11.552
56315SOL    HW268972  10.965   8.603  11.692
56316SOL     OW68973   9.923   8.813  11.898
56316SOL    HW168974   9.874   8.726  11.907
56316SOL    HW268975   9.900   8.856  11.811
56317SOL     OW68976  10.119   7.452  11.674
56317SOL    HW168977  10.159   7.543  11.665
56317SOL    HW268978  10.019   7.460  11.680
56318SOL     OW68979   9.507   8.424  12.436
56318SOL    HW168980   9.596   8.379  12.422
56318SOL    HW268981   9.434   8.359  12.417
56319SOL     OW68982  10.835   8.447  11.362
56319SOL    HW168983  10.772   8.371  11.375
56319SOL    HW268984  10.883   8.465  11.448
56320SOL     OW68985   9.627   7.699  12.973
56320SOL    HW168986   9.698   7.770  12.979
56320SOL    HW268987   9.539   7.738  13.001
56321SOL     OW68988  10.776   8.865  12.125
56321SOL    HW168989  10.717   8.871  12.205
56321SOL    HW268990  10.761   8.777  12.079
56322SOL     OW68991  10.977   9.162  11.744
56322SOL    HW168992  10.936   9.139  11.656
56322SOL    HW268993  10.959   9.088  11.809
56323SOL     OW68994   9.908   8.177  11.442
56323SOL    HW168995   9.932   8.246  11.374
56323SOL    HW268996   9.830   8.210  11.496
56324SOL     OW68997  10.591   7.793  12.116
56324SOL    HW168998  10.505   7.743  12.103
56324SOL    HW268999  10.653   7.739  12.172
56325SOL     OW69000  10.886   9.110  11.479
56325SOL    HW169001  10.975   9.156  11.482
56325SOL    HW269002  10.865   9.086  11.384
56326SOL     OW69003  10.117   8.053  12.637
56326SOL    HW169004  10.070   8.050  12.726
56326SOL    HW269005  10.066   7.998  12.571
56327SOL     OW69006  10.301   7.858  12.414
56327SOL    HW169007  10.224   7.892  12.468
56327SOL    HW269008  10.267   7.807  12.335
56328SOL     OW69009  10.351   8.149  11.601
56328SOL    HW169010  10.377   8.145  11.697
56328SOL    HW269011  10.266   8.098  11.587
56329SOL     OW69012   9.386   8.259  11.961
56329SOL    HW169013   9.485   8.247  11.970
56329SOL    HW269014   9.362   8.354  11.982
56330SOL     OW69015   9.440   9.269  12.743
56330SOL    HW169016   9.430   9.254  12.842
56330SOL    HW269017   9.354   9.305  12.707
56331SOL     OW69018  10.175   7.796  11.367
56331SOL    HW169019  10.234   7.859  11.318
56331SOL    HW269020  10.194   7.702  11.338
56332SOL     OW69021  10.672   8.592  11.717
56332SOL    HW169022  10.755   8.563  11.669
56332SOL    HW269023  10.623   8.659  11.661
56333SOL     OW69024   9.860   7.644  12.057
56333SOL    HW169025   9.855   7.639  12.157
56333SOL    HW269026   9.862   7.740  12.028
56334SOL     OW69027  10.318   8.904  11.649
56334SOL    HW169028  10.272   8.976  11.597
56334SOL    HW269029  10.314   8.924  11.747
56335SOL     OW69030   9.661   9.249  12.025
56335SOL    HW169031   9.711   9.163  12.031
56335SOL    HW269032   9.726   9.326  12.022
56336SOL     OW69033  11.105   8.514  12.045
56336SOL    HW169034  11.043   8.499  11.969
56336SOL    HW269035  11.053   8.525  12.130
56337SOL     OW69036   9.631   8.391  11.414
56337SOL    HW169037   9.713   8.430  11.372
56337SOL    HW269038   9.604   8.309  11.365
56338SOL     OW69039  10.768   8.183  11.900
56338SOL    HW169040  10.763   8.118  11.975
56338SOL    HW269041  10.848   8.242  11.913
56339SOL     OW69042  10.421   9.224  11.409
56339SOL    HW169043  10.361   9.162  11.459
56339SOL    HW269044  10.452   9.180  11.324
56340SOL     OW69045   9.512   7.733  12.670
56340SOL    HW169046   9.432   7.793  12.657
56340SOL    HW269047   9.502   7.684  12.756
56341SOL     OW69048  10.942   8.825  11.253
56341SOL    HW169049  10.910   8.919  11.243
56341SOL    HW269050  10.866   8.762  11.241
56342SOL     OW69051   9.774   9.191  11.495
56342SOL    HW169052   9.807   9.230  11.581
56342SOL    HW269053   9.850   9.184  11.430
56343SOL     OW69054   9.559   9.233  12.413
56343SOL    HW169055   9.616   9.168  12.463
56343SOL    HW269056   9.543   9.200  12.320
56344SOL     OW69057  10.250   9.146  12.076
56344SOL    HW169058  10.330   9.089  12.097
56344SOL    HW269059  10.201   9.106  11.999
56345SOL     OW69060   9.692   8.148  11.652
56345SOL    HW169061   9.737   8.058  11.649
56345SOL    HW269062   9.598   8.137  11.685
56346SOL     OW69063   9.924   7.570  11.289
56346SOL    HW169064  10.022   7.548  11.296
56346SOL    HW269065   9.893   7.553  11.196
56347SOL     OW69066  10.198   8.962  12.367
56347SOL    HW169067  10.175   8.937  12.273
56347SOL    HW269068  10.259   8.893  12.406
56348SOL     OW69069  10.113   8.850  12.096
56348SOL    HW169070  10.203   8.864  12.054
56348SOL    HW269071  10.042   8.852  12.025
56349SOL     OW69072  10.232   7.951  12.071
56349SOL    HW169073  10.207   7.942  11.975
56349SOL    HW269074  10.280   7.869  12.102
56350SOL     OW69075   9.849   7.512  11.684
56350SOL    HW169076   9.768   7.513  11.742
56350SOL    HW269077   9.852   7.595  11.629
56351SOL     OW69078  10.744   8.636  11.213
56351SOL    HW169079  10.776   8.560  11.270
56351SOL    HW269080  10.652   8.663  11.243
56352SOL     OW69081   9.607   7.483  11.343
56352SOL    HW169082   9.656   7.567  11.322
56352SOL    HW269083   9.669   7.418  11.388
56353SOL     OW69084  10.245   7.684  11.652
56353SOL    HW169085  10.197   7.725  11.574
56353SOL    HW269086  10.344   7.682  11.633
56354SOL     OW69087  10.537   9.018  11.965
56354SOL    HW169088  10.558   9.092  11.900
56354SOL    HW269089  10.605   9.018  12.038
56355SOL     OW69090   9.769   8.600  11.913
56355SOL    HW169091   9.698   8.573  11.978
56355SOL    HW269092   9.743   8.572  11.820
56356SOL     OW69093  10.581   9.245  11.763
56356SOL    HW169094  10.625   9.309  11.699
56356SOL    HW269095  10.531   9.297  11.833
56357SOL     OW69096  10.342   7.997  11.188
56357SOL    HW169097  10.301   8.079  11.149
56357SOL    HW269098  10.406   8.023  11.261
56358SOL     OW69099   9.388   8.004  12.558
56358SOL    HW169100   9.480   8.003  12.517
56358SOL    HW269101   9.382   8.078  12.625
56359SOL     OW69102   9.871   7.670  12.319
56359SOL    HW169103   9.909   7.586  12.356
56359SOL    HW269104   9.783   7.689  12.363
56360SOL     OW69105  10.176   7.902  11.814
56360SOL    HW169106  10.144   7.974  11.752
56360SOL    HW269107  10.200   7.821  11.761
56361SOL     OW69108  10.327   7.487  11.925
56361SOL    HW169109  10.255   7.492  11.856
56361SOL    HW269110  10.303   7.418  11.994
56362SOL     OW69111  10.739   8.621  12.039
56362SOL    HW169112  10.684   8.537  12.032
56362SOL    HW269113  10.765   8.650  11.947
56363SOL     OW69114  10.776   8.038  12.164
56363SOL    HW169115  10.746   7.943  12.171
56363SOL    HW269116  10.849   8.054  12.230
56364SOL     OW69117  11.167   8.281  11.549
56364SOL    HW169118  11.209   8.217  11.613
56364SOL    HW269119  11.129   8.230  11.471
56365SOL     OW69120   9.798   8.833  11.346
56365SOL    HW169121   9.711   8.818  11.393
56365SOL    HW269122   9.781   8.859  11.251
56366SOL     OW69123  10.974   8.728  11.829
56366SOL    HW169124  11.073   8.736  11.843
56366SOL    HW269125  10.929   8.812  11.860
56367SOL     OW69126  10.700   8.023  11.250
56367SOL    HW169127  10.646   8.002  11.331
56367SOL    HW269128  10.791   7.982  11.259
56368SOL     OW69129   9.837   7.704  11.500
56368SOL    HW169130   9.864   7.645  11.425
56368SOL    HW269131   9.837   7.799  11.469
56369SOL     OW69132  10.374   8.795  12.512
56369SOL    HW169133  10.294   8.772  12.567
56369SOL    HW269134  10.457   8.769  12.561
56370SOL     OW69135  10.421   8.643  12.272
56370SOL    HW169136  10.381   8.687  12.353
56370SOL    HW269137  10.380   8.680  12.189
56371SOL     OW69138  10.948   8.547  12.251
56371SOL    HW169139  10.953   8.628  12.310
56371SOL    HW269140  10.862   8.549  12.200
56372SOL     OW69141  10.225   7.537  12.574
56372SOL    HW169142  10.250   7.517  12.479
56372SOL    HW269143  10.297   7.593  12.616
56373SOL     OW69144  10.015   8.498  11.540
56373SOL    HW169145  10.001   8.505  11.639
56373SOL    HW269146  10.099   8.447  11.522
56374SOL     OW69147   9.720   8.261  12.423
56374SOL    HW169148   9.806   8.273  12.473
56374SOL    HW269149   9.678   8.174  12.450
56375SOL     OW69150  10.584   7.834  12.434
56375SOL    HW169151  10.605   7.908  12.498
56375SOL    HW269152  10.495   7.851  12.391
56376SOL     OW69153   9.374   9.012  12.503
56376SOL    HW169154   9.328   9.094  12.469
56376SOL    HW269155   9.472   9.031  12.512
56377SOL     OW69156   9.677   8.548  11.673
56377SOL    HW169157   9.670   8.631  11.617
56377SOL    HW269158   9.681   8.468  11.613
56378SOL     OW69159   9.876   7.985  12.037
56378SOL    HW169160   9.888   8.051  11.963
56378SOL    HW269161   9.922   8.019  12.120
56379SOL     OW69162  10.562   8.796  11.560
56379SOL    HW169163  10.612   8.873  11.600
56379SOL    HW269164  10.467   8.798  11.592
56380SOL     OW69165  10.582   8.893  12.314
56380SOL    HW169166  10.629   8.906  12.401
56380SOL    HW269167  10.516   8.819  12.323
56381SOL     OW69168  10.892   8.087  11.644
56381SOL    HW169169  10.861   8.148  11.717
56381SOL    HW269170  10.942   8.139  11.575
56382SOL     OW69171   9.664   8.958  12.501
56382SOL    HW169172   9.643   8.914  12.414
56382SOL    HW269173   9.761   8.984  12.504
56383SOL     OW69174   9.712   8.199  12.770
56383SOL    HW169175   9.780   8.254  12.723
56383SOL    HW269176   9.752   8.111  12.797
56384SOL     OW69177  10.897   8.227  12.842
56384SOL    HW169178  10.805   8.265  12.837
56384SOL    HW269179  10.957   8.274  12.777
56385SOL     OW69180   9.883   8.318  12.201
56385SOL    HW169181   9.927   8.407  12.192
56385SOL    HW269182   9.820   8.318  12.278
56386SOL     OW69183  10.670   8.310  12.217
56386SOL    HW169184  10.595   8.310  12.151
56386SOL    HW269185  10.707   8.218  12.226
56387SOL     OW69186  10.519   7.973  11.447
56387SOL    HW169187  10.532   7.889  11.501
56387SOL    HW269188  10.490   8.047  11.507
56388SOL     OW69189   9.617   7.661  12.403
56388SOL    HW169190   9.594   7.698  12.493
56388SOL    HW269191   9.587   7.566  12.397
56389SOL     OW69192   9.347   8.758  12.454
56389SOL    HW169193   9.400   8.709  12.522
56389SOL    HW269194   9.369   8.856  12.459
56390SOL     OW69195  10.042   8.082  12.236
56390SOL    HW169196  10.101   8.056  12.160
56390SOL    HW269197  10.014   8.178  12.225
56391SOL     OW69198   9.617   7.511  11.790
56391SOL    HW169199   9.606   7.605  11.823
56391SOL    HW269200   9.612   7.448  11.867
56392SOL     OW69201  10.932   7.815  11.546
56392SOL    HW169202  10.934   7.739  11.610
56392SOL    HW269203  10.884   7.892  11.586
56393SOL     OW69204  10.333   8.214  12.138
56393SOL    HW169205  10.348   8.235  12.234
56393SOL    HW269206  10.303   8.119  12.129
56394SOL     OW69207  10.290   9.021  12.872
56394SOL    HW169208  10.270   9.065  12.784
56394SOL    HW269209  10.329   8.930  12.856
56395SOL     OW69210  10.850   7.722  11.297
56395SOL    HW169211  10.789   7.647  11.320
56395SOL    HW269212  10.872   7.774  11.380
56396SOL     OW69213  10.613   8.286  11.214
56396SOL    HW169214  10.647   8.193  11.229
56396SOL    HW269215  10.631   8.313  11.119
56397SOL     OW69216  10.378   8.781  12.021
56397SOL    HW169217  10.385   8.697  11.966
56397SOL    HW269218  10.440   8.850  11.985
56398SOL     OW69219   9.629   8.258  12.121
56398SOL    HW169220   9.722   8.294  12.126
56398SOL    HW269221   9.623   8.173  12.173
56399SOL     OW69222   9.649   7.957  12.178
56399SOL    HW169223   9.597   7.874  12.161
56399SOL    HW269224   9.726   7.962  12.114
56400SOL     OW69225  10.448   7.828  12.850
56400SOL    HW169226  10.403   7.891  12.914
56400SOL    HW269227  10.541   7.859  12.833
56401SOL     OW69228  10.470   7.655  12.649
56401SOL    HW169229  10.470   7.719  12.726
56401SOL    HW269230  10.498   7.703  12.566
56402SOL     OW69231   9.318   8.774  11.372
56402SOL    HW169232   9.225   8.795  11.341
56402SOL    HW269233   9.328   8.675  11.385
56403SOL     OW69234   9.398   9.249  12.099
56403SOL    HW169235   9.356   9.163  12.072
56403SOL    HW269236   9.492   9.252  12.065
56404SOL     OW69237   9.814   9.016  12.082
56404SOL    HW169238   9.880   9.090  12.091
56404SOL    HW269239   9.858   8.937  12.040
56405SOL     OW69240  10.312   8.244  12.410
56405SOL    HW169241  10.353   8.212  12.496
56405SOL    HW269242  10.216   8.217  12.407
56406SOL     OW69243   9.350   7.992  12.286
56406SOL    HW169244   9.435   7.959  12.245
56406SOL    HW269245   9.363   8.007  12.384
56407SOL     OW69246  10.125   8.020  11.497
56407SOL    HW169247  10.132   7.931  11.451
56407SOL    HW269248  10.031   8.054  11.489
56408SOL     OW69249  10.967   8.052  12.378
56408SOL    HW169250  10.929   7.983  12.440
56408SOL    HW269251  11.049   8.016  12.334
56409SOL     OW69252   9.981   7.912  12.441
56409SOL    HW169253   9.947   7.823  12.411
56409SOL    HW269254  10.007   7.966  12.361
56410SOL     OW69255  10.240   9.126  12.637
56410SOL    HW169256  10.216   9.108  12.542
56410SOL    HW269257  10.270   9.220  12.647
56411SOL     OW69258   9.783   7.948  11.363
56411SOL    HW169259   9.844   8.028  11.367
56411SOL    HW269260   9.688   7.979  11.370
56412SOL     OW69261   9.469   8.585  12.638
56412SOL    HW169262   9.491   8.524  12.714
56412SOL    HW269263   9.479   8.536  12.552
56413SOL     OW69264  10.657   8.507  12.406
56413SOL    HW169265  10.681   8.444  12.332
56413SOL    HW269266  10.567   8.547  12.388
56414SOL     OW69267  10.612   8.303  11.481
56414SOL    HW169268  10.526   8.272  11.523
56414SOL    HW269269  10.608   8.289  11.382
56415SOL     OW69270  11.069   9.195  12.326
56415SOL    HW169271  11.130   9.225  12.253
56415SOL    HW269272  11.031   9.106  12.304
56416SOL     OW69273  10.562   9.179  12.300
56416SOL    HW169274  10.646   9.184  12.246
56416SOL    HW269275  10.539   9.083  12.318
56417SOL     OW69276   9.393   8.706  12.194
56417SOL    HW169277   9.388   8.705  12.294
56417SOL    HW269278   9.310   8.665  12.156
56418SOL     OW69279  11.036   7.583  11.695
56418SOL    HW169280  11.109   7.566  11.628
56418SOL    HW269281  11.005   7.496  11.733
56419SOL     OW69282  10.698   9.021  11.649
56419SOL    HW169283  10.765   9.033  11.575
56419SOL    HW269284  10.658   9.110  11.672
56420SOL     OW69285  10.590   8.375  11.844
56420SOL    HW169286  10.650   8.294  11.846
56420SOL    HW269287  10.630   8.444  11.784
56421SOL     OW69288   9.982   9.064  11.326
56421SOL    HW169289   9.991   9.074  11.227
56421SOL    HW269290   9.942   8.975  11.347
56422SOL     OW69291  10.960   9.168  12.566
56422SOL    HW169292  11.013   9.178  12.482
56422SOL    HW269293  10.933   9.258  12.600
56423SOL     OW69294  11.151   7.623  12.135
56423SOL    HW169295  11.190   7.538  12.099
56423SOL    HW269296  11.053   7.625  12.116
56424SOL     OW69297   9.573   7.774  11.892
56424SOL    HW169298   9.494   7.825  11.858
56424SOL    HW269299   9.564   7.759  11.990
56425SOL     OW69300  10.504   9.060  11.203
56425SOL    HW169301  10.510   8.967  11.240
56425SOL    HW269302  10.445   9.060  11.123
56426SOL     OW69303  10.132   8.450  12.544
56426SOL    HW169304  10.172   8.449  12.452
56426SOL    HW269305  10.142   8.542  12.584
56427SOL     OW69306  10.226   8.358  11.463
56427SOL    HW169307  10.289   8.396  11.395
56427SOL    HW269308  10.266   8.275  11.502
56428SOL     OW69309  10.814   9.055  11.216
56428SOL    HW169310  10.722   9.092  11.223
56428SOL    HW269311  10.852   9.075  11.126
56429SOL     OW69312   9.682   8.736  12.662
56429SOL    HW169313   9.669   8.829  12.628
56429SOL    HW269314   9.598   8.684  12.649
56430SOL     OW69315  10.924   8.740  12.461
56430SOL    HW169316  10.984   8.743  12.541
56430SOL    HW269317  10.849   8.804  12.474
56431SOL     OW69318  10.349   8.546  11.868
56431SOL    HW169319  10.279   8.499  11.922
56431SOL    HW269320  10.408   8.478  11.825
56432SOL     OW69321  10.324   7.684  12.143
56432SOL    HW169322  10.316   7.648  12.050
56432SOL    HW269323  10.322   7.608  12.208
56433SOL     OW69324   9.900   8.935  11.663
56433SOL    HW169325   9.942   8.877  11.593
56433SOL    HW269326   9.856   9.014  11.619
56434SOL     OW69327  11.019   7.833  12.553
56434SOL    HW169328  11.092   7.902  12.557
56434SOL    HW269329  11.047   7.758  12.494
56435SOL     OW69330   9.565   8.796  11.462
56435SOL    HW169331   9.469   8.797  11.435
56435SOL    HW269332   9.577   8.849  11.546
56436SOL     OW69333   9.385   7.793  11.205
56436SOL    HW169334   9.293   7.765  11.176
56436SOL    HW269335   9.416   7.870  11.149
56437SOL     OW69336  10.750   8.304  12.570
56437SOL    HW169337  10.693   8.356  12.507
56437SOL    HW269338  10.846   8.316  12.546
56438SOL     OW69339   9.382   7.614  11.490
56438SOL    HW169340   9.365   7.697  11.436
56438SOL    HW269341   9.472   7.577  11.468
56439SOL     OW69342  10.493   8.783  11.291
56439SOL    HW169343  10.394   8.772  11.293
56439SOL    HW269344  10.527   8.798  11.384
56440SOL     OW69345   9.923   8.290  12.603
56440SOL    HW169346   9.979   8.371  12.586
56440SOL    HW269347   9.982   8.210  12.606
56441SOL     OW69348   9.700   9.189  12.732
56441SOL    HW169349   9.609   9.230  12.730
56441SOL    HW269350   9.693   9.095  12.764
56442SOL     OW69351  10.984   8.331  12.426
56442SOL    HW169352  10.957   8.242  12.389
56442SOL    HW269353  10.985   8.399  12.353
56443SOL     OW69354  10.535   7.773  11.621
56443SOL    HW169355  10.600   7.699  11.610
56443SOL    HW269356  10.555   7.823  11.705
56444SOL     OW69357   9.904   8.193  11.824
56444SOL    HW169358   9.954   8.278  11.805
56444SOL    HW269359   9.816   8.195  11.776
56445SOL     OW69360  11.087   7.790  12.814
56445SOL    HW169361  11.070   7.821  12.720
56445SOL    HW269362  11.003   7.753  12.852
56446SOL     OW69363  11.040   8.382  12.689
56446SOL    HW169364  11.078   8.473  12.704
56446SOL    HW269365  11.032   8.365  12.590
56447SOL     OW69366  10.169   8.822  11.188
56447SOL    HW169367  10.123   8.837  11.276
56447SOL    HW269368  10.213   8.907  11.158
56448SOL     OW69369   9.971   9.238  12.125
56448SOL    HW169370   9.925   9.326  12.112
56448SOL    HW269371  10.070   9.250  12.118
56449SOL     OW69372  10.169   8.404  12.033
56449SOL    HW169373  10.223   8.335  12.081
56449SOL    HW269374  10.137   8.473  12.099
56450SOL     OW69375  10.393   8.432  11.259
56450SOL    HW169376  10.370   8.485  11.177
56450SOL    HW269377  10.474   8.376  11.240
56451SOL     OW69378  11.171   9.017  12.023
56451SOL    HW169379  11.100   9.005  11.953
56451SOL    HW269380  11.172   8.938  12.083
56452SOL     OW69381   9.389   8.688  11.825
56452SOL    HW169382   9.388   8.641  11.913
56452SOL    HW269383   9.471   8.660  11.774
56453SOL     OW69384  11.134   7.640  12.399
56453SOL    HW169385  11.130   7.550  12.443
56453SOL    HW269386  11.137   7.629  12.300
56454SOL     OW69387   9.738   7.872  11.692
56454SOL    HW169388   9.768   7.800  11.630
56454SOL    HW269389   9.699   7.832  11.775
56455SOL     OW69390  11.015   8.935  12.276
56455SOL    HW169391  10.922   8.910  12.249
56455SOL    HW269392  11.041   8.885  12.358
56456SOL     OW69393   9.627   7.995  12.452
56456SOL    HW169394   9.665   7.936  12.524
56456SOL    HW269395   9.667   7.969  12.364
56457SOL     OW69396  10.122   9.034  11.859
56457SOL    HW169397  10.154   9.044  11.765
56457SOL    HW269398  10.043   8.972  11.861
56458SOL     OW69399  10.734   7.662  12.284
56458SOL    HW169400  10.786   7.597  12.339
56458SOL    HW269401  10.685   7.725  12.345
56459SOL     OW69402  10.311   7.482  12.326
56459SOL    HW169403  10.248   7.410  12.295
56459SOL    HW269404  10.404   7.446  12.326
56460SOL     OW69405  10.080   8.778  11.473
56460SOL    HW169406  10.034   8.691  11.490
56460SOL    HW269407  10.171   8.775  11.514
56461SOL     OW69408   9.928   9.015  12.456
56461SOL    HW169409   9.923   9.097  12.513
56461SOL    HW269410  10.017   9.012  12.411
56462SOL     OW69411  10.662   7.500  11.340
56462SOL    HW169412  10.697   7.459  11.256
56462SOL    HW269413  10.572   7.462  11.360
56463SOL     OW69414  10.610   7.901  11.863
56463SOL    HW169415  10.551   7.981  11.867
56463SOL    HW269416  10.625   7.866  11.956
56464SOL     OW69417  10.903   7.669  12.054
56464SOL    HW169418  10.819   7.668  12.108
56464SOL    HW269419  10.905   7.752  11.998
56465SOL     OW69420   9.349   8.525  11.472
56465SOL    HW169421   9.448   8.514  11.463
56465SOL    HW269422   9.309   8.439  11.504
56466SOL     OW69423  10.185   9.094  11.509
56466SOL    HW169424  10.108   9.059  11.455
56466SOL    HW269425  10.153   9.165  11.571
56467SOL     OW69426   9.540   9.938   0.113
56467SOL    HW169427   9.447   9.936   0.150
56467SOL    HW269428   9.541   9.899   0.021
56468SOL     OW69429   9.535   9.585   0.996
56468SOL    HW169430   9.570   9.568   1.088
56468SOL    HW269431   9.447   9.540   0.984
56469SOL     OW69432   9.329   9.678   0.647
56469SOL    HW169433   9.247   9.721   0.686
56469SOL    HW269434   9.301   9.605   0.584
56470SOL     OW69435  10.865  10.821   0.703
56470SOL    HW169436  10.808  10.805   0.784
56470SOL    HW269437  10.806  10.831   0.623
56471SOL     OW69438  10.445  10.013   0.717
56471SOL    HW169439  10.502  10.091   0.692
56471SOL    HW269440  10.385  10.039   0.793
56472SOL     OW69441  11.065   9.917   0.231
56472SOL    HW169442  11.053   9.904   0.132
56472SOL    HW269443  11.035   9.836   0.280
56473SOL     OW69444  10.078  10.454   1.023
56473SOL    HW169445  10.000  10.471   1.083
56473SOL    HW269446  10.112  10.541   0.987
56474SOL     OW69447  10.160  10.108   1.823
56474SOL    HW169448  10.156  10.184   1.888
56474SOL    HW269449  10.182  10.144   1.732
56475SOL     OW69450   9.995  10.322   0.665
56475SOL    HW169451  10.064  10.306   0.735
56475SOL    HW269452   9.922  10.379   0.703
56476SOL     OW69453   9.996  10.471   1.803
56476SOL    HW169454  10.056  10.550   1.817
56476SOL    HW269455   9.910  10.502   1.762
56477SOL     OW69456   9.645  10.745   1.061
56477SOL    HW169457   9.567  10.714   1.008
56477SOL    HW269458   9.703  10.803   1.004
56478SOL     OW69459  10.770  10.815   1.339
56478SOL    HW169460  10.794  10.909   1.365
56478SOL    HW269461  10.754  10.761   1.421
56479SOL     OW69462   9.748   9.702   1.499
56479SOL    HW169463   9.830   9.646   1.508
56479SOL    HW269464   9.667   9.644   1.503
56480SOL     OW69465  10.913   9.757   0.737
56480SOL    HW169466  10.839   9.803   0.687
56480SOL    HW269467  10.964   9.825   0.790
56481SOL     OW69468   9.541  11.023   0.483
56481SOL    HW169469   9.575  11.100   0.537
56481SOL    HW269470   9.585  11.023   0.393
56482SOL     OW69471  10.437  10.651   1.690
56482SOL    HW169472  10.484  10.651   1.778
56482SOL    HW269473  10.389  10.564   1.679
56483SOL     OW69474   9.540  10.744   0.538
56483SOL    HW169475   9.514  10.840   0.538
56483SOL    HW269476   9.469  10.690   0.583
56484SOL     OW69477   9.550  10.401   0.886
56484SOL    HW169478   9.564  10.317   0.938
56484SOL    HW269479   9.495  10.465   0.941
56485SOL     OW69480   9.930  11.096   1.439
56485SOL    HW169481   9.838  11.079   1.474
56485SOL    HW269482   9.958  11.188   1.465
56486SOL     OW69483   9.916  10.274   0.123
56486SOL    HW169484   9.923  10.358   0.069
56486SOL    HW269485   9.962  10.287   0.211
56487SOL     OW69486  10.904   9.424   1.480
56487SOL    HW169487  10.886   9.491   1.408
56487SOL    HW269488  10.901   9.470   1.569
56488SOL     OW69489   9.432   9.953   0.563
56488SOL    HW169490   9.387   9.865   0.580
56488SOL    HW269491   9.431  10.007   0.647
56489SOL     OW69492  11.152  11.077   0.359
56489SOL    HW169493  11.206  11.048   0.439
56489SOL    HW269494  11.182  11.167   0.330
56490SOL     OW69495   9.337  10.906   0.117
56490SOL    HW169496   9.318  10.810   0.138
56490SOL    HW269497   9.304  10.964   0.192
56491SOL     OW69498  10.999  10.232   0.612
56491SOL    HW169499  11.094  10.203   0.620
56491SOL    HW269500  10.991  10.297   0.537
56492SOL     OW69501  10.951  10.418   0.432
56492SOL    HW169502  11.037  10.420   0.380
56492SOL    HW269503  10.965  10.465   0.520
56493SOL     OW69504   9.423  10.047   1.597
56493SOL    HW169505   9.511  10.034   1.642
56493SOL    HW269506   9.410  10.144   1.575
56494SOL     OW69507   9.923  10.675   0.726
56494SOL    HW169508   9.874  10.588   0.735
56494SOL    HW269509   9.900  10.718   0.639
56495SOL     OW69510  10.603  10.538   1.423
56495SOL    HW169511  10.640  10.465   1.365
56495SOL    HW269512  10.655  10.543   1.508
56496SOL     OW69513  10.119   9.314   0.502
56496SOL    HW169514  10.159   9.405   0.493
56496SOL    HW269515  10.019   9.322   0.508
56497SOL     OW69516   9.507  10.286   1.264
56497SOL    HW169517   9.596  10.241   1.250
56497SOL    HW269518   9.434  10.221   1.245
56498SOL     OW69519  10.835  10.309   0.190
56498SOL    HW169520  10.772  10.233   0.203
56498SOL    HW269521  10.883  10.327   0.276
56499SOL     OW69522  10.497  11.102   1.616
56499SOL    HW169523  10.521  11.162   1.540
56499SOL    HW269524  10.504  11.007   1.586
56500SOL     OW69525   9.627   9.561   1.801
56500SOL    HW169526   9.698   9.632   1.807
56500SOL    HW269527   9.539   9.600   1.829
56501SOL     OW69528  10.776  10.727   0.953
56501SOL    HW169529  10.717  10.733   1.033
56501SOL    HW269530  10.761  10.639   0.907
56502SOL     OW69531  10.977  11.024   0.572
56502SOL    HW169532  10.936  11.001   0.484
56502SOL    HW269533  10.959  10.950   0.637
56503SOL     OW69534   9.908  10.039   0.270
56503SOL    HW169535   9.932  10.108   0.202
56503SOL    HW269536   9.830  10.072   0.324
56504SOL     OW69537  10.591   9.655   0.944
56504SOL    HW169538  10.505   9.605   0.931
56504SOL    HW269539  10.653   9.601   1.000
56505SOL     OW69540  10.886  10.972   0.307
56505SOL    HW169541  10.975  11.018   0.310
56505SOL    HW269542  10.865  10.948   0.212
56506SOL     OW69543  10.117   9.915   1.465
56506SOL    HW169544  10.070   9.912   1.554
56506SOL    HW269545  10.066   9.860   1.399
56507SOL     OW69546  10.704   9.779   1.674
56507SOL    HW169547  10.684   9.822   1.762
56507SOL    HW269548  10.782   9.717   1.683
56508SOL     OW69549  10.283  10.200   1.572
56508SOL    HW169550  10.329  10.116   1.543
56508SOL    HW269551  10.227  10.234   1.497
56509SOL     OW69552  10.301   9.720   1.242
56509SOL    HW169553  10.224   9.754   1.296
56509SOL    HW269554  10.267   9.669   1.163
56510SOL     OW69555  10.351  10.011   0.429
56510SOL    HW169556  10.377  10.007   0.525
56510SOL    HW269557  10.266   9.960   0.415
56511SOL     OW69558   9.386  10.121   0.789
56511SOL    HW169559   9.485  10.109   0.798
56511SOL    HW269560   9.362  10.216   0.810
56512SOL     OW69561   9.440  11.131   1.571
56512SOL    HW169562   9.430  11.116   1.670
56512SOL    HW269563   9.354  11.167   1.535
56513SOL     OW69564  10.175   9.658   0.195
56513SOL    HW169565  10.234   9.721   0.146
56513SOL    HW269566  10.194   9.564   0.166
56514SOL     OW69567  11.029   9.895   1.831
56514SOL    HW169568  11.003   9.984   1.795
56514SOL    HW269569  11.027   9.827   1.758
56515SOL     OW69570  10.672  10.454   0.545
56515SOL    HW169571  10.755  10.425   0.497
56515SOL    HW269572  10.623  10.521   0.489
56516SOL     OW69573   9.860   9.506   0.885
56516SOL    HW169574   9.855   9.501   0.985
56516SOL    HW269575   9.862   9.602   0.856
56517SOL     OW69576  10.318  10.766   0.477
56517SOL    HW169577  10.272  10.838   0.425
56517SOL    HW269578  10.314  10.786   0.575
56518SOL     OW69579   9.661  11.111   0.853
56518SOL    HW169580   9.711  11.025   0.859
56518SOL    HW269581   9.726  11.188   0.850
56519SOL     OW69582  11.105  10.376   0.873
56519SOL    HW169583  11.043  10.361   0.797
56519SOL    HW269584  11.053  10.387   0.958
56520SOL     OW69585  10.537  10.860   1.506
56520SOL    HW169586  10.543  10.783   1.570
56520SOL    HW269587  10.485  10.834   1.426
56521SOL     OW69588   9.631  10.253   0.242
56521SOL    HW169589   9.713  10.292   0.200
56521SOL    HW269590   9.604  10.171   0.193
56522SOL     OW69591  10.768  10.045   0.728
56522SOL    HW169592  10.763   9.980   0.803
56522SOL    HW269593  10.848  10.104   0.741
56523SOL     OW69594   9.771  10.576   1.727
56523SOL    HW169595   9.721  10.577   1.641
56523SOL    HW269596   9.708  10.558   1.803
56524SOL     OW69597  10.421  11.086   0.237
56524SOL    HW169598  10.361  11.024   0.287
56524SOL    HW269599  10.452  11.042   0.152
56525SOL     OW69600   9.512   9.595   1.498
56525SOL    HW169601   9.432   9.655   1.485
56525SOL    HW269602   9.502   9.546   1.584
56526SOL     OW69603  10.942  10.687   0.081
56526SOL    HW169604  10.910  10.781   0.071
56526SOL    HW269605  10.866  10.624   0.069
56527SOL     OW69606   9.774  11.053   0.323
56527SOL    HW169607   9.807  11.092   0.409
56527SOL    HW269608   9.850  11.046   0.258
56528SOL     OW69609  10.710   9.417   0.426
56528SOL    HW169610  10.686   9.380   0.336
56528SOL    HW269611  10.809   9.433   0.430
56529SOL     OW69612   9.559  11.095   1.241
56529SOL    HW169613   9.616  11.030   1.291
56529SOL    HW269614   9.543  11.062   1.148
56530SOL     OW69615  10.250  11.008   0.904
56530SOL    HW169616  10.330  10.951   0.925
56530SOL    HW269617  10.201  10.968   0.827
56531SOL     OW69618   9.692  10.010   0.480
56531SOL    HW169619   9.737   9.920   0.477
56531SOL    HW269620   9.598   9.999   0.513
56532SOL     OW69621  10.857   9.532   1.729
56532SOL    HW169622  10.852   9.569   1.821
56532SOL    HW269623  10.785   9.463   1.717
56533SOL     OW69624   9.924   9.432   0.117
56533SOL    HW169625  10.022   9.410   0.124
56533SOL    HW269626   9.893   9.415   0.024
56534SOL     OW69627  10.091   9.574   1.749
56534SOL    HW169628  10.158   9.513   1.792
56534SOL    HW269629  10.018   9.593   1.814
56535SOL     OW69630  10.198  10.824   1.195
56535SOL    HW169631  10.175  10.799   1.101
56535SOL    HW269632  10.259  10.755   1.234
56536SOL     OW69633  10.661   9.900   1.433
56536SOL    HW169634  10.689   9.857   1.518
56536SOL    HW269635  10.686   9.996   1.434
56537SOL     OW69636  10.113  10.712   0.924
56537SOL    HW169637  10.203  10.726   0.882
56537SOL    HW269638  10.042  10.714   0.853
56538SOL     OW69639  10.232   9.813   0.899
56538SOL    HW169640  10.207   9.804   0.803
56538SOL    HW269641  10.280   9.731   0.930
56539SOL     OW69642   9.849   9.374   0.512
56539SOL    HW169643   9.768   9.375   0.570
56539SOL    HW269644   9.852   9.457   0.457
56540SOL     OW69645  10.744  10.498   0.041
56540SOL    HW169646  10.776  10.422   0.098
56540SOL    HW269647  10.652  10.525   0.071
56541SOL     OW69648   9.607   9.345   0.171
56541SOL    HW169649   9.656   9.429   0.150
56541SOL    HW269650   9.669   9.280   0.216
56542SOL     OW69651  10.245   9.546   0.480
56542SOL    HW169652  10.197   9.587   0.402
56542SOL    HW269653  10.344   9.544   0.461
56543SOL     OW69654  10.386   9.993   1.464
56543SOL    HW169655  10.306   9.932   1.467
56543SOL    HW269656  10.467   9.940   1.440
56544SOL     OW69657  10.537  10.880   0.793
56544SOL    HW169658  10.558  10.954   0.728
56544SOL    HW269659  10.605  10.880   0.866
56545SOL     OW69660   9.769  10.462   0.741
56545SOL    HW169661   9.698  10.435   0.806
56545SOL    HW269662   9.743  10.434   0.648
56546SOL     OW69663  10.581  11.107   0.591
56546SOL    HW169664  10.625  11.171   0.527
56546SOL    HW269665  10.531  11.159   0.661
56547SOL     OW69666  10.342   9.859   0.016
56547SOL    HW169667  10.301   9.941  -0.023
56547SOL    HW269668  10.406   9.885   0.089
56548SOL     OW69669   9.388   9.866   1.386
56548SOL    HW169670   9.480   9.865   1.345
56548SOL    HW269671   9.382   9.940   1.453
56549SOL     OW69672   9.871   9.532   1.147
56549SOL    HW169673   9.909   9.448   1.184
56549SOL    HW269674   9.783   9.551   1.191
56550SOL     OW69675  10.176   9.764   0.642
56550SOL    HW169676  10.144   9.836   0.580
56550SOL    HW269677  10.200   9.683   0.589
56551SOL     OW69678  10.327   9.349   0.753
56551SOL    HW169679  10.255   9.354   0.684
56551SOL    HW269680  10.303   9.280   0.822
56552SOL     OW69681  10.739  10.483   0.867
56552SOL    HW169682  10.684  10.399   0.860
56552SOL    HW269683  10.765  10.512   0.775
56553SOL     OW69684  10.776   9.900   0.992
56553SOL    HW169685  10.746   9.805   0.999
56553SOL    HW269686  10.849   9.916   1.058
56554SOL     OW69687  11.167  10.143   0.377
56554SOL    HW169688  11.209  10.079   0.441
56554SOL    HW269689  11.129  10.092   0.299
56555SOL     OW69690   9.798  10.695   0.174
56555SOL    HW169691   9.711  10.680   0.221
56555SOL    HW269692   9.781  10.721   0.079
56556SOL     OW69693  10.974  10.590   0.657
56556SOL    HW169694  11.073  10.598   0.671
56556SOL    HW269695  10.929  10.674   0.688
56557SOL     OW69696  10.700   9.885   0.078
56557SOL    HW169697  10.646   9.864   0.159
56557SOL    HW269698  10.791   9.844   0.087
56558SOL     OW69699   9.837   9.566   0.328
56558SOL    HW169700   9.864   9.507   0.253
56558SOL    HW269701   9.837   9.661   0.297
56559SOL     OW69702  11.064  10.533   1.588
56559SOL    HW169703  11.155  10.494   1.575
56559SOL    HW269704  11.072  10.629   1.612
56560SOL     OW69705  10.374  10.657   1.340
56560SOL    HW169706  10.294  10.634   1.395
56560SOL    HW269707  10.457  10.631   1.389
56561SOL     OW69708  10.902  10.939   1.625
56561SOL    HW169709  10.929  10.973   1.535
56561SOL    HW269710  10.981  10.901   1.671
56562SOL     OW69711  10.421  10.505   1.100
56562SOL    HW169712  10.381  10.549   1.181
56562SOL    HW269713  10.380  10.542   1.017
56563SOL     OW69714  10.948  10.409   1.079
56563SOL    HW169715  10.953  10.490   1.138
56563SOL    HW269716  10.862  10.411   1.028
56564SOL     OW69717  10.225   9.399   1.402
56564SOL    HW169718  10.250   9.379   1.307
56564SOL    HW269719  10.297   9.455   1.444
56565SOL     OW69720  10.290  10.426   1.719
56565SOL    HW169721  10.191  10.432   1.729
56565SOL    HW269722  10.313  10.346   1.663
56566SOL     OW69723  10.015  10.360   0.368
56566SOL    HW169724  10.001  10.367   0.467
56566SOL    HW269725  10.099  10.309   0.350
56567SOL     OW69726   9.720  10.123   1.251
56567SOL    HW169727   9.806  10.135   1.301
56567SOL    HW269728   9.678  10.036   1.278
56568SOL     OW69729  10.584   9.696   1.262
56568SOL    HW169730  10.605   9.770   1.326
56568SOL    HW269731  10.495   9.713   1.219
56569SOL     OW69732   9.374  10.874   1.331
56569SOL    HW169733   9.328  10.956   1.297
56569SOL    HW269734   9.472  10.893   1.340
56570SOL     OW69735   9.677  10.410   0.501
56570SOL    HW169736   9.670  10.493   0.445
56570SOL    HW269737   9.681  10.330   0.441
56571SOL     OW69738   9.876   9.847   0.865
56571SOL    HW169739   9.888   9.913   0.791
56571SOL    HW269740   9.922   9.881   0.948
56572SOL     OW69741  10.562  10.658   0.388
56572SOL    HW169742  10.612  10.735   0.428
56572SOL    HW269743  10.467  10.660   0.420
56573SOL     OW69744  10.582  10.755   1.142
56573SOL    HW169745  10.629  10.768   1.229
56573SOL    HW269746  10.516  10.681   1.151
56574SOL     OW69747  10.892   9.949   0.472
56574SOL    HW169748  10.861  10.010   0.545
56574SOL    HW269749  10.942  10.001   0.403
56575SOL     OW69750   9.664  10.820   1.329
56575SOL    HW169751   9.643  10.776   1.242
56575SOL    HW269752   9.761  10.846   1.332
56576SOL     OW69753   9.712  10.061   1.598
56576SOL    HW169754   9.780  10.116   1.551
56576SOL    HW269755   9.752   9.973   1.625
56577SOL     OW69756  10.897  10.089   1.670
56577SOL    HW169757  10.805  10.127   1.665
56577SOL    HW269758  10.957  10.136   1.605
56578SOL     OW69759  10.323   9.415   1.770
56578SOL    HW169760  10.329   9.500   1.718
56578SOL    HW269761  10.355   9.339   1.713
56579SOL     OW69762   9.814   9.360   1.740
56579SOL    HW169763   9.772   9.303   1.670
56579SOL    HW269764   9.748   9.429   1.772
56580SOL     OW69765   9.883  10.180   1.029
56580SOL    HW169766   9.927  10.269   1.020
56580SOL    HW269767   9.820  10.180   1.106
56581SOL     OW69768  10.670  10.172   1.045
56581SOL    HW169769  10.595  10.172   0.979
56581SOL    HW269770  10.707  10.080   1.054
56582SOL     OW69771  10.519   9.835   0.275
56582SOL    HW169772  10.532   9.751   0.329
56582SOL    HW269773  10.490   9.909   0.335
56583SOL     OW69774   9.617   9.523   1.231
56583SOL    HW169775   9.594   9.560   1.321
56583SOL    HW269776   9.587   9.428   1.225
56584SOL     OW69777   9.347  10.620   1.282
56584SOL    HW169778   9.400  10.571   1.350
56584SOL    HW269779   9.369  10.718   1.287
56585SOL     OW69780  10.042   9.944   1.064
56585SOL    HW169781  10.101   9.918   0.988
56585SOL    HW269782  10.014  10.040   1.053
56586SOL     OW69783  11.038  10.245   1.854
56586SOL    HW169784  10.992  10.238   1.765
56586SOL    HW269785  10.976  10.289   1.920
56587SOL     OW69786   9.617   9.373   0.618
56587SOL    HW169787   9.606   9.467   0.651
56587SOL    HW269788   9.612   9.310   0.695
56588SOL     OW69789  10.932   9.677   0.374
56588SOL    HW169790  10.934   9.601   0.438
56588SOL    HW269791  10.884   9.754   0.414
56589SOL     OW69792  10.333  10.076   0.966
56589SOL    HW169793  10.348  10.097   1.062
56589SOL    HW269794  10.303   9.981   0.957
56590SOL     OW69795  10.290  10.883   1.700
56590SOL    HW169796  10.270  10.927   1.612
56590SOL    HW269797  10.329  10.792   1.684
56591SOL     OW69798  11.169  10.828   1.605
56591SOL    HW169799  11.183  10.855   1.510
56591SOL    HW269800  11.252  10.850   1.658
56592SOL     OW69801   9.660  10.208   1.804
56592SOL    HW169802   9.736  10.252   1.852
56592SOL    HW269803   9.695  10.161   1.722
56593SOL     OW69804  10.850   9.584   0.125
56593SOL    HW169805  10.789   9.509   0.148
56593SOL    HW269806  10.872   9.636   0.208
56594SOL     OW69807  10.613  10.148   0.042
56594SOL    HW169808  10.647  10.055   0.057
56594SOL    HW269809  10.631  10.175  -0.053
56595SOL     OW69810  10.378  10.643   0.849
56595SOL    HW169811  10.385  10.559   0.794
56595SOL    HW269812  10.440  10.712   0.813
56596SOL     OW69813   9.629  10.120   0.949
56596SOL    HW169814   9.722  10.156   0.954
56596SOL    HW269815   9.623  10.035   1.001
56597SOL     OW69816   9.649   9.819   1.006
56597SOL    HW169817   9.597   9.736   0.989
56597SOL    HW269818   9.726   9.824   0.942
56598SOL     OW69819  10.448   9.690   1.678
56598SOL    HW169820  10.403   9.753   1.742
56598SOL    HW269821  10.541   9.721   1.661
56599SOL     OW69822  10.470   9.517   1.477
56599SOL    HW169823  10.470   9.581   1.554
56599SOL    HW269824  10.498   9.565   1.394
56600SOL     OW69825   9.318  10.636   0.200
56600SOL    HW169826   9.225  10.657   0.169
56600SOL    HW269827   9.328  10.537   0.213
56601SOL     OW69828   9.398  11.111   0.927
56601SOL    HW169829   9.356  11.025   0.900
56601SOL    HW269830   9.492  11.114   0.893
56602SOL     OW69831   9.814  10.878   0.910
56602SOL    HW169832   9.880  10.952   0.919
56602SOL    HW269833   9.858  10.799   0.868
56603SOL     OW69834  10.312  10.106   1.238
56603SOL    HW169835  10.353  10.074   1.324
56603SOL    HW269836  10.216  10.079   1.235
56604SOL     OW69837   9.350   9.854   1.114
56604SOL    HW169838   9.435   9.821   1.073
56604SOL    HW269839   9.363   9.869   1.212
56605SOL     OW69840   9.499   9.830   1.722
56605SOL    HW169841   9.558   9.790   1.652
56605SOL    HW269842   9.441   9.901   1.681
56606SOL     OW69843  10.679  10.260   1.660
56606SOL    HW169844  10.718  10.349   1.680
56606SOL    HW269845  10.689  10.240   1.563
56607SOL     OW69846  10.125   9.882   0.325
56607SOL    HW169847  10.132   9.793   0.279
56607SOL    HW269848  10.031   9.916   0.317
56608SOL     OW69849  10.967   9.914   1.206
56608SOL    HW169850  10.929   9.845   1.268
56608SOL    HW269851  11.049   9.878   1.162
56609SOL     OW69852   9.562  10.874   1.744
56609SOL    HW169853   9.532  10.931   1.820
56609SOL    HW269854   9.555  10.777   1.770
56610SOL     OW69855   9.981   9.774   1.269
56610SOL    HW169856   9.947   9.685   1.239
56610SOL    HW269857  10.007   9.828   1.189
56611SOL     OW69858  10.240  10.988   1.465
56611SOL    HW169859  10.216  10.970   1.370
56611SOL    HW269860  10.270  11.082   1.475
56612SOL     OW69861   9.783   9.810   0.191
56612SOL    HW169862   9.844   9.890   0.195
56612SOL    HW269863   9.688   9.841   0.198
56613SOL     OW69864   9.469  10.447   1.466
56613SOL    HW169865   9.491  10.386   1.542
56613SOL    HW269866   9.479  10.398   1.380
56614SOL     OW69867  10.612  10.165   0.309
56614SOL    HW169868  10.526  10.134   0.351
56614SOL    HW269869  10.608  10.151   0.210
56615SOL     OW69870  11.069  11.057   1.154
56615SOL    HW169871  11.130  11.087   1.081
56615SOL    HW269872  11.031  10.968   1.132
56616SOL     OW69873  10.562  11.041   1.128
56616SOL    HW169874  10.646  11.046   1.074
56616SOL    HW269875  10.539  10.945   1.146
56617SOL     OW69876   9.393  10.568   1.022
56617SOL    HW169877   9.388  10.567   1.122
56617SOL    HW269878   9.310  10.527   0.984
56618SOL     OW69879   9.998  10.972   1.716
56618SOL    HW169880   9.942  11.053   1.725
56618SOL    HW269881  10.050  10.976   1.630
56619SOL     OW69882  10.213   9.396   0.133
56619SOL    HW169883  10.264   9.397   0.047
56619SOL    HW269884  10.269   9.354   0.204
56620SOL     OW69885  11.036   9.445   0.523
56620SOL    HW169886  11.109   9.428   0.456
56620SOL    HW269887  11.005   9.358   0.561
56621SOL     OW69888  10.698  10.883   0.477
56621SOL    HW169889  10.765  10.895   0.403
56621SOL    HW269890  10.658  10.972   0.500
56622SOL     OW69891   9.440  11.104   1.851
56622SOL    HW169892   9.399  11.030   1.904
56622SOL    HW269893   9.504  11.155   1.909
56623SOL     OW69894  10.590  10.237   0.672
56623SOL    HW169895  10.650  10.156   0.674
56623SOL    HW269896  10.630  10.306   0.612
56624SOL     OW69897  10.140  10.583   1.422
56624SOL    HW169898  10.135  10.616   1.517
56624SOL    HW269899  10.054  10.602   1.376
56625SOL     OW69900   9.982  10.926   0.154
56625SOL    HW169901   9.991  10.936   0.055
56625SOL    HW269902   9.942  10.837   0.175
56626SOL     OW69903  10.960  11.030   1.394
56626SOL    HW169904  11.013  11.040   1.310
56626SOL    HW269905  10.933  11.120   1.428
56627SOL     OW69906  11.151   9.485   0.963
56627SOL    HW169907  11.190   9.400   0.927
56627SOL    HW269908  11.053   9.487   0.944
56628SOL     OW69909   9.573   9.636   0.720
56628SOL    HW169910   9.494   9.687   0.686
56628SOL    HW269911   9.564   9.621   0.818
56629SOL     OW69912  10.504  10.922   0.031
56629SOL    HW169913  10.510  10.829   0.068
56629SOL    HW269914  10.445  10.922  -0.049
56630SOL     OW69915  10.132  10.312   1.372
56630SOL    HW169916  10.172  10.311   1.280
56630SOL    HW269917  10.142  10.404   1.412
56631SOL     OW69918  10.226  10.220   0.291
56631SOL    HW169919  10.289  10.258   0.223
56631SOL    HW269920  10.266  10.137   0.330
56632SOL     OW69921  10.814  10.917   0.044
56632SOL    HW169922  10.722  10.954   0.051
56632SOL    HW269923  10.852  10.937  -0.046
56633SOL     OW69924   9.682  10.598   1.490
56633SOL    HW169925   9.669  10.691   1.456
56633SOL    HW269926   9.598  10.546   1.477
56634SOL     OW69927  10.924  10.602   1.289
56634SOL    HW169928  10.984  10.605   1.369
56634SOL    HW269929  10.849  10.666   1.302
56635SOL     OW69930  10.349  10.408   0.696
56635SOL    HW169931  10.279  10.361   0.750
56635SOL    HW269932  10.408  10.340   0.653
56636SOL     OW69933  10.324   9.546   0.971
56636SOL    HW169934  10.316   9.510   0.878
56636SOL    HW269935  10.322   9.470   1.036
56637SOL     OW69936   9.900  10.797   0.491
56637SOL    HW169937   9.942  10.739   0.421
56637SOL    HW269938   9.856  10.876   0.447
56638SOL     OW69939  11.019   9.695   1.381
56638SOL    HW169940  11.092   9.764   1.385
56638SOL    HW269941  11.047   9.620   1.322
56639SOL     OW69942   9.565  10.658   0.290
56639SOL    HW169943   9.469  10.659   0.263
56639SOL    HW269944   9.577  10.711   0.374
56640SOL     OW69945   9.415  10.323   1.726
56640SOL    HW169946   9.338  10.290   1.780
56640SOL    HW269947   9.500  10.293   1.768
56641SOL     OW69948   9.982   9.513   1.489
56641SOL    HW169949  10.072   9.497   1.449
56641SOL    HW269950   9.990   9.518   1.588
56642SOL     OW69951  10.750  10.166   1.398
56642SOL    HW169952  10.693  10.218   1.335
56642SOL    HW269953  10.846  10.178   1.374
56643SOL     OW69954   9.382   9.476   0.318
56643SOL    HW169955   9.365   9.559   0.264
56643SOL    HW269956   9.472   9.439   0.296
56644SOL     OW69957  10.493  10.645   0.119
56644SOL    HW169958  10.394  10.634   0.121
56644SOL    HW269959  10.527  10.660   0.212
56645SOL     OW69960   9.923  10.152   1.431
56645SOL    HW169961   9.979  10.233   1.414
56645SOL    HW269962   9.982  10.072   1.434
56646SOL     OW69963  10.803  11.077   0.959
56646SOL    HW169964  10.836  11.141   0.890
56646SOL    HW269965  10.869  11.071   1.034
56647SOL     OW69966  10.026   9.875   1.708
56647SOL    HW169967  10.045   9.940   1.782
56647SOL    HW269968  10.086   9.795   1.717
56648SOL     OW69969  10.760  10.530   1.633
56648SOL    HW169970  10.751  10.520   1.732
56648SOL    HW269971  10.856  10.523   1.607
56649SOL     OW69972   9.700  11.051   1.560
56649SOL    HW169973   9.609  11.092   1.558
56649SOL    HW269974   9.693  10.957   1.592
56650SOL     OW69975  10.984  10.193   1.254
56650SOL    HW169976  10.957  10.104   1.217
56650SOL    HW269977  10.985  10.261   1.181
56651SOL     OW69978  10.535   9.635   0.449
56651SOL    HW169979  10.600   9.561   0.438
56651SOL    HW269980  10.555   9.685   0.533
56652SOL     OW69981   9.904  10.055   0.652
56652SOL    HW169982   9.954  10.140   0.633
56652SOL    HW269983   9.816  10.057   0.604
56653SOL     OW69984  11.087   9.652   1.642
56653SOL    HW169985  11.070   9.683   1.548
56653SOL    HW269986  11.003   9.615   1.680
56654SOL     OW69987  11.040  10.244   1.517
56654SOL    HW169988  11.078  10.335   1.532
56654SOL    HW269989  11.032  10.227   1.418
56655SOL     OW69990  10.169  10.684   0.016
56655SOL    HW169991  10.123  10.699   0.104
56655SOL    HW269992  10.213  10.769  -0.014
56656SOL     OW69993   9.971  11.100   0.953
56656SOL    HW169994   9.925  11.188   0.940
56656SOL    HW269995  10.070  11.112   0.946
56657SOL     OW69996  10.169  10.266   0.861
56657SOL    HW169997  10.223  10.197   0.909
56657SOL    HW269998  10.137  10.335   0.927
56658SOL     OW69999  10.393  10.294   0.087
56658SOL    HW170000  10.370  10.347   0.005
56658SOL    HW270001  10.474  10.238   0.068
56659SOL     OW70002  11.171  10.879   0.851
56659SOL    HW170003  11.100  10.867   0.781
56659SOL    HW270004  11.172  10.800   0.911
56660SOL     OW70005   9.531  10.624   1.844
56660SOL    HW170006   9.466  10.551   1.823
56660SOL    HW270007   9.535  10.638   1.942
56661SOL     OW70008   9.389  10.550   0.653
56661SOL    HW170009   9.388  10.503   0.741
56661SOL    HW270010   9.471  10.522   0.602
56662SOL     OW70011   9.982  10.701   1.624
56662SOL    HW170012   9.904  10.651   1.662
56662SOL    HW270013   9.979  10.796   1.655
56663SOL     OW70014  11.134   9.502   1.227
56663SOL    HW170015  11.130   9.412   1.271
56663SOL    HW270016  11.137   9.491   1.128
56664SOL     OW70017   9.738   9.734   0.520
56664SOL    HW170018   9.768   9.662   0.458
56664SOL    HW270019   9.699   9.694   0.603
56665SOL     OW70020  11.015  10.797   1.104
56665SOL    HW170021  10.922  10.772   1.077
56665SOL    HW270022  11.041  10.747   1.186
56666SOL     OW70023   9.627   9.857   1.280
56666SOL    HW170024   9.665   9.798   1.352
56666SOL    HW270025   9.667   9.831   1.192
56667SOL     OW70026  10.122  10.896   0.687
56667SOL    HW170027  10.154  10.906   0.593
56667SOL    HW270028  10.043  10.834   0.689
56668SOL     OW70029  10.734   9.524   1.112
56668SOL    HW170030  10.786   9.459   1.167
56668SOL    HW270031  10.685   9.587   1.173
56669SOL     OW70032  10.311   9.344   1.154
56669SOL    HW170033  10.248   9.272   1.123
56669SOL    HW270034  10.404   9.308   1.154
56670SOL     OW70035  10.080  10.640   0.301
56670SOL    HW170036  10.034  10.553   0.318
56670SOL    HW270037  10.171  10.637   0.342
56671SOL     OW70038   9.928  10.877   1.284
56671SOL    HW170039   9.923  10.959   1.341
56671SOL    HW270040  10.017  10.874   1.239
56672SOL     OW70041  10.662   9.362   0.168
56672SOL    HW170042  10.697   9.321   0.084
56672SOL    HW270043  10.572   9.324   0.188
56673SOL     OW70044  10.610   9.763   0.691
56673SOL    HW170045  10.551   9.843   0.695
56673SOL    HW270046  10.625   9.728   0.784
56674SOL     OW70047  10.903   9.531   0.882
56674SOL    HW170048  10.819   9.530   0.936
56674SOL    HW270049  10.905   9.614   0.826
56675SOL     OW70050   9.349  10.387   0.300
56675SOL    HW170051   9.448  10.376   0.291
56675SOL    HW270052   9.309  10.301   0.332
56676SOL     OW70053  10.185  10.956   0.337
56676SOL    HW170054  10.108  10.921   0.283
56676SOL    HW270055  10.153  11.027   0.399
56677SOL     OW70056   9.540   9.938   1.975
56677SOL    HW170057   9.447   9.936   2.012
56677SOL    HW270058   9.541   9.899   1.883
56678SOL     OW70059   9.535   9.585   2.858
56678SOL    HW170060   9.570   9.568   2.950
56678SOL    HW270061   9.447   9.540   2.846
56679SOL     OW70062   9.329   9.678   2.509
56679SOL    HW170063   9.247   9.721   2.548
56679SOL    HW270064   9.301   9.605   2.446
56680SOL     OW70065   9.879  10.585   3.027
56680SOL    HW170066   9.786  10.578   2.990
56680SOL    HW270067   9.890  10.674   3.071
56681SOL     OW70068  10.865  10.821   2.565
56681SOL    HW170069  10.808  10.805   2.646
56681SOL    HW270070  10.806  10.831   2.485
56682SOL     OW70071  10.445  10.013   2.579
56682SOL    HW170072  10.502  10.091   2.554
56682SOL    HW270073  10.385  10.039   2.655
56683SOL     OW70074  11.065   9.917   2.093
56683SOL    HW170075  11.053   9.904   1.994
56683SOL    HW270076  11.035   9.836   2.142
56684SOL     OW70077  10.078  10.454   2.885
56684SOL    HW170078  10.000  10.471   2.945
56684SOL    HW270079  10.112  10.541   2.849
56685SOL     OW70080  10.160  10.108   3.685
56685SOL    HW170081  10.156  10.184   3.750
56685SOL    HW270082  10.182  10.144   3.594
56686SOL     OW70083   9.995  10.322   2.527
56686SOL    HW170084  10.064  10.306   2.597
56686SOL    HW270085   9.922  10.379   2.565
56687SOL     OW70086   9.996  10.471   3.665
56687SOL    HW170087  10.056  10.550   3.679
56687SOL    HW270088   9.910  10.502   3.624
56688SOL     OW70089   9.645  10.745   2.923
56688SOL    HW170090   9.567  10.714   2.870
56688SOL    HW270091   9.703  10.803   2.866
56689SOL     OW70092  10.770  10.815   3.201
56689SOL    HW170093  10.794  10.909   3.227
56689SOL    HW270094  10.754  10.761   3.283
56690SOL     OW70095   9.748   9.702   3.361
56690SOL    HW170096   9.830   9.646   3.370
56690SOL    HW270097   9.667   9.644   3.365
56691SOL     OW70098  10.913   9.757   2.599
56691SOL    HW170099  10.839   9.803   2.549
56691SOL    HW270100  10.964   9.825   2.652
56692SOL     OW70101   9.541  11.023   2.345
56692SOL    HW170102   9.575  11.100   2.399
56692SOL    HW270103   9.585  11.023   2.255
56693SOL     OW70104  10.437  10.651   3.552
56693SOL    HW170105  10.484  10.651   3.640
56693SOL    HW270106  10.389  10.564   3.541
56694SOL     OW70107   9.540  10.744   2.400
56694SOL    HW170108   9.514  10.840   2.400
56694SOL    HW270109   9.469  10.690   2.445
56695SOL     OW70110   9.550  10.401   2.748
56695SOL    HW170111   9.564  10.317   2.800
56695SOL    HW270112   9.495  10.465   2.803
56696SOL     OW70113   9.930  11.096   3.301
56696SOL    HW170114   9.838  11.079   3.336
56696SOL    HW270115   9.958  11.188   3.327
56697SOL     OW70116   9.916  10.274   1.985
56697SOL    HW170117   9.923  10.358   1.931
56697SOL    HW270118   9.962  10.287   2.073
56698SOL     OW70119  10.904   9.424   3.342
56698SOL    HW170120  10.886   9.491   3.270
56698SOL    HW270121  10.901   9.470   3.431
56699SOL     OW70122   9.432   9.953   2.425
56699SOL    HW170123   9.387   9.865   2.442
56699SOL    HW270124   9.431  10.007   2.509
56700SOL     OW70125  11.152  11.077   2.221
56700SOL    HW170126  11.206  11.048   2.301
56700SOL    HW270127  11.182  11.167   2.192
56701SOL     OW70128   9.337  10.906   1.979
56701SOL    HW170129   9.318  10.810   2.000
56701SOL    HW270130   9.304  10.964   2.054
56702SOL     OW70131  10.999  10.232   2.474
56702SOL    HW170132  11.094  10.203   2.482
56702SOL    HW270133  10.991  10.297   2.399
56703SOL     OW70134  10.951  10.418   2.294
56703SOL    HW170135  11.037  10.420   2.242
56703SOL    HW270136  10.965  10.465   2.382
56704SOL     OW70137   9.423  10.047   3.459
56704SOL    HW170138   9.511  10.034   3.504
56704SOL    HW270139   9.410  10.144   3.437
56705SOL     OW70140   9.923  10.675   2.588
56705SOL    HW170141   9.874  10.588   2.597
56705SOL    HW270142   9.900  10.718   2.501
56706SOL     OW70143  10.603  10.538   3.285
56706SOL    HW170144  10.640  10.465   3.227
56706SOL    HW270145  10.655  10.543   3.370
56707SOL     OW70146  10.119   9.314   2.364
56707SOL    HW170147  10.159   9.405   2.355
56707SOL    HW270148  10.019   9.322   2.370
56708SOL     OW70149   9.507  10.286   3.126
56708SOL    HW170150   9.596  10.241   3.112
56708SOL    HW270151   9.434  10.221   3.107
56709SOL     OW70152  10.835  10.309   2.052
56709SOL    HW170153  10.772  10.233   2.065
56709SOL    HW270154  10.883  10.327   2.138
56710SOL     OW70155  10.497  11.102   3.478
56710SOL    HW170156  10.521  11.162   3.402
56710SOL    HW270157  10.504  11.007   3.448
56711SOL     OW70158   9.627   9.561   3.663
56711SOL    HW170159   9.698   9.632   3.669
56711SOL    HW270160   9.539   9.600   3.691
56712SOL     OW70161  10.776  10.727   2.815
56712SOL    HW170162  10.717  10.733   2.895
56712SOL    HW270163  10.761  10.639   2.769
56713SOL     OW70164  10.977  11.024   2.434
56713SOL    HW170165  10.936  11.001   2.346
56713SOL    HW270166  10.959  10.950   2.499
56714SOL     OW70167   9.908  10.039   2.132
56714SOL    HW170168   9.932  10.108   2.064
56714SOL    HW270169   9.830  10.072   2.186
56715SOL     OW70170  10.591   9.655   2.806
56715SOL    HW170171  10.505   9.605   2.793
56715SOL    HW270172  10.653   9.601   2.862
56716SOL     OW70173  10.886  10.972   2.169
56716SOL    HW170174  10.975  11.018   2.172
56716SOL    HW270175  10.865  10.948   2.074
56717SOL     OW70176  10.117   9.915   3.327
56717SOL    HW170177  10.070   9.912   3.416
56717SOL    HW270178  10.066   9.860   3.261
56718SOL     OW70179  10.704   9.779   3.536
56718SOL    HW170180  10.684   9.822   3.624
56718SOL    HW270181  10.782   9.717   3.545
56719SOL     OW70182  10.283  10.200   3.434
56719SOL    HW170183  10.329  10.116   3.405
56719SOL    HW270184  10.227  10.234   3.359
56720SOL     OW70185  10.301   9.720   3.104
56720SOL    HW170186  10.224   9.754   3.158
56720SOL    HW270187  10.267   9.669   3.025
56721SOL     OW70188  10.351  10.011   2.291
56721SOL    HW170189  10.377  10.007   2.387
56721SOL    HW270190  10.266   9.960   2.277
56722SOL     OW70191   9.386  10.121   2.651
56722SOL    HW170192   9.485  10.109   2.660
56722SOL    HW270193   9.362  10.216   2.672
56723SOL     OW70194   9.440  11.131   3.433
56723SOL    HW170195   9.430  11.116   3.532
56723SOL    HW270196   9.354  11.167   3.397
56724SOL     OW70197  10.175   9.658   2.057
56724SOL    HW170198  10.234   9.721   2.008
56724SOL    HW270199  10.194   9.564   2.028
56725SOL     OW70200  11.029   9.895   3.693
56725SOL    HW170201  11.003   9.984   3.657
56725SOL    HW270202  11.027   9.827   3.620
56726SOL     OW70203  10.672  10.454   2.407
56726SOL    HW170204  10.755  10.425   2.359
56726SOL    HW270205  10.623  10.521   2.351
56727SOL     OW70206   9.860   9.506   2.747
56727SOL    HW170207   9.855   9.501   2.847
56727SOL    HW270208   9.862   9.602   2.718
56728SOL     OW70209  10.318  10.766   2.339
56728SOL    HW170210  10.272  10.838   2.287
56728SOL    HW270211  10.314  10.786   2.437
56729SOL     OW70212   9.661  11.111   2.715
56729SOL    HW170213   9.711  11.025   2.721
56729SOL    HW270214   9.726  11.188   2.712
56730SOL     OW70215  11.105  10.376   2.735
56730SOL    HW170216  11.043  10.361   2.659
56730SOL    HW270217  11.053  10.387   2.820
56731SOL     OW70218  10.537  10.860   3.368
56731SOL    HW170219  10.543  10.783   3.432
56731SOL    HW270220  10.485  10.834   3.288
56732SOL     OW70221   9.631  10.253   2.104
56732SOL    HW170222   9.713  10.292   2.062
56732SOL    HW270223   9.604  10.171   2.055
56733SOL     OW70224  10.768  10.045   2.590
56733SOL    HW170225  10.763   9.980   2.665
56733SOL    HW270226  10.848  10.104   2.603
56734SOL     OW70227   9.771  10.576   3.589
56734SOL    HW170228   9.721  10.577   3.503
56734SOL    HW270229   9.708  10.558   3.665
56735SOL     OW70230  10.421  11.086   2.099
56735SOL    HW170231  10.361  11.024   2.149
56735SOL    HW270232  10.452  11.042   2.014
56736SOL     OW70233   9.512   9.595   3.360
56736SOL    HW170234   9.432   9.655   3.347
56736SOL    HW270235   9.502   9.546   3.446
56737SOL     OW70236  10.942  10.687   1.943
56737SOL    HW170237  10.910  10.781   1.933
56737SOL    HW270238  10.866  10.624   1.931
56738SOL     OW70239   9.774  11.053   2.185
56738SOL    HW170240   9.807  11.092   2.271
56738SOL    HW270241   9.850  11.046   2.120
56739SOL     OW70242  10.710   9.417   2.288
56739SOL    HW170243  10.686   9.380   2.198
56739SOL    HW270244  10.809   9.433   2.292
56740SOL     OW70245   9.559  11.095   3.103
56740SOL    HW170246   9.616  11.030   3.153
56740SOL    HW270247   9.543  11.062   3.010
56741SOL     OW70248  10.250  11.008   2.766
56741SOL    HW170249  10.330  10.951   2.787
56741SOL    HW270250  10.201  10.968   2.689
56742SOL     OW70251   9.692  10.010   2.342
56742SOL    HW170252   9.737   9.920   2.339
56742SOL    HW270253   9.598   9.999   2.375
56743SOL     OW70254  10.857   9.532   3.591
56743SOL    HW170255  10.852   9.569   3.683
56743SOL    HW270256  10.785   9.463   3.579
56744SOL     OW70257   9.924   9.432   1.979
56744SOL    HW170258  10.022   9.410   1.986
56744SOL    HW270259   9.893   9.415   1.886
56745SOL     OW70260  10.091   9.574   3.611
56745SOL    HW170261  10.158   9.513   3.654
56745SOL    HW270262  10.018   9.593   3.676
56746SOL     OW70263  10.198  10.824   3.057
56746SOL    HW170264  10.175  10.799   2.963
56746SOL    HW270265  10.259  10.755   3.096
56747SOL     OW70266  10.661   9.900   3.295
56747SOL    HW170267  10.689   9.857   3.380
56747SOL    HW270268  10.686   9.996   3.296
56748SOL     OW70269  10.113  10.712   2.786
56748SOL    HW170270  10.203  10.726   2.744
56748SOL    HW270271  10.042  10.714   2.715
56749SOL     OW70272  10.232   9.813   2.761
56749SOL    HW170273  10.207   9.804   2.665
56749SOL    HW270274  10.280   9.731   2.792
56750SOL     OW70275   9.849   9.374   2.374
56750SOL    HW170276   9.768   9.375   2.432
56750SOL    HW270277   9.852   9.457   2.319
56751SOL     OW70278  10.744  10.498   1.903
56751SOL    HW170279  10.776  10.422   1.960
56751SOL    HW270280  10.652  10.525   1.933
56752SOL     OW70281   9.607   9.345   2.033
56752SOL    HW170282   9.656   9.429   2.012
56752SOL    HW270283   9.669   9.280   2.078
56753SOL     OW70284  10.245   9.546   2.342
56753SOL    HW170285  10.197   9.587   2.264
56753SOL    HW270286  10.344   9.544   2.323
56754SOL     OW70287  10.386   9.993   3.326
56754SOL    HW170288  10.306   9.932   3.329
56754SOL    HW270289  10.467   9.940   3.302
56755SOL     OW70290  10.537  10.880   2.655
56755SOL    HW170291  10.558  10.954   2.590
56755SOL    HW270292  10.605  10.880   2.728
56756SOL     OW70293   9.769  10.462   2.603
56756SOL    HW170294   9.698  10.435   2.668
56756SOL    HW270295   9.743  10.434   2.510
56757SOL     OW70296  10.581  11.107   2.453
56757SOL    HW170297  10.625  11.171   2.389
56757SOL    HW270298  10.531  11.159   2.523
56758SOL     OW70299  10.342   9.859   1.878
56758SOL    HW170300  10.301   9.941   1.839
56758SOL    HW270301  10.406   9.885   1.951
56759SOL     OW70302   9.388   9.866   3.248
56759SOL    HW170303   9.480   9.865   3.207
56759SOL    HW270304   9.382   9.940   3.315
56760SOL     OW70305   9.871   9.532   3.009
56760SOL    HW170306   9.909   9.448   3.046
56760SOL    HW270307   9.783   9.551   3.053
56761SOL     OW70308  10.176   9.764   2.504
56761SOL    HW170309  10.144   9.836   2.442
56761SOL    HW270310  10.200   9.683   2.451
56762SOL     OW70311  10.327   9.349   2.615
56762SOL    HW170312  10.255   9.354   2.546
56762SOL    HW270313  10.303   9.280   2.684
56763SOL     OW70314  10.739  10.483   2.729
56763SOL    HW170315  10.684  10.399   2.722
56763SOL    HW270316  10.765  10.512   2.637
56764SOL     OW70317  10.776   9.900   2.854
56764SOL    HW170318  10.746   9.805   2.861
56764SOL    HW270319  10.849   9.916   2.920
56765SOL     OW70320  11.167  10.143   2.239
56765SOL    HW170321  11.209  10.079   2.303
56765SOL    HW270322  11.129  10.092   2.161
56766SOL     OW70323   9.798  10.695   2.036
56766SOL    HW170324   9.711  10.680   2.083
56766SOL    HW270325   9.781  10.721   1.941
56767SOL     OW70326  10.974  10.590   2.519
56767SOL    HW170327  11.073  10.598   2.533
56767SOL    HW270328  10.929  10.674   2.550
56768SOL     OW70329  10.700   9.885   1.940
56768SOL    HW170330  10.646   9.864   2.021
56768SOL    HW270331  10.791   9.844   1.949
56769SOL     OW70332   9.837   9.566   2.190
56769SOL    HW170333   9.864   9.507   2.115
56769SOL    HW270334   9.837   9.661   2.159
56770SOL     OW70335  11.064  10.533   3.450
56770SOL    HW170336  11.155  10.494   3.437
56770SOL    HW270337  11.072  10.629   3.474
56771SOL     OW70338  10.374  10.657   3.202
56771SOL    HW170339  10.294  10.634   3.257
56771SOL    HW270340  10.457  10.631   3.251
56772SOL     OW70341  10.902  10.939   3.487
56772SOL    HW170342  10.929  10.973   3.397
56772SOL    HW270343  10.981  10.901   3.533
56773SOL     OW70344  10.421  10.505   2.962
56773SOL    HW170345  10.381  10.549   3.043
56773SOL    HW270346  10.380  10.542   2.879
56774SOL     OW70347  10.948  10.409   2.941
56774SOL    HW170348  10.953  10.490   3.000
56774SOL    HW270349  10.862  10.411   2.890
56775SOL     OW70350  10.225   9.399   3.264
56775SOL    HW170351  10.250   9.379   3.169
56775SOL    HW270352  10.297   9.455   3.306
56776SOL     OW70353  10.290  10.426   3.581
56776SOL    HW170354  10.191  10.432   3.591
56776SOL    HW270355  10.313  10.346   3.525
56777SOL     OW70356  10.015  10.360   2.230
56777SOL    HW170357  10.001  10.367   2.329
56777SOL    HW270358  10.099  10.309   2.212
56778SOL     OW70359   9.720  10.123   3.113
56778SOL    HW170360   9.806  10.135   3.163
56778SOL    HW270361   9.678  10.036   3.140
56779SOL     OW70362  10.584   9.696   3.124
56779SOL    HW170363  10.605   9.770   3.188
56779SOL    HW270364  10.495   9.713   3.081
56780SOL     OW70365   9.374  10.874   3.193
56780SOL    HW170366   9.328  10.956   3.159
56780SOL    HW270367   9.472  10.893   3.202
56781SOL     OW70368   9.677  10.410   2.363
56781SOL    HW170369   9.670  10.493   2.307
56781SOL    HW270370   9.681  10.330   2.303
56782SOL     OW70371   9.876   9.847   2.727
56782SOL    HW170372   9.888   9.913   2.653
56782SOL    HW270373   9.922   9.881   2.810
56783SOL     OW70374  10.562  10.658   2.250
56783SOL    HW170375  10.612  10.735   2.290
56783SOL    HW270376  10.467  10.660   2.282
56784SOL     OW70377  10.582  10.755   3.004
56784SOL    HW170378  10.629  10.768   3.091
56784SOL    HW270379  10.516  10.681   3.013
56785SOL     OW70380  10.892   9.949   2.334
56785SOL    HW170381  10.861  10.010   2.407
56785SOL    HW270382  10.942  10.001   2.265
56786SOL     OW70383   9.664  10.820   3.191
56786SOL    HW170384   9.643  10.776   3.104
56786SOL    HW270385   9.761  10.846   3.194
56787SOL     OW70386   9.712  10.061   3.460
56787SOL    HW170387   9.780  10.116   3.413
56787SOL    HW270388   9.752   9.973   3.487
56788SOL     OW70389  10.897  10.089   3.532
56788SOL    HW170390  10.805  10.127   3.527
56788SOL    HW270391  10.957  10.136   3.467
56789SOL     OW70392  10.323   9.415   3.632
56789SOL    HW170393  10.329   9.500   3.580
56789SOL    HW270394  10.355   9.339   3.575
56790SOL     OW70395   9.814   9.360   3.602
56790SOL    HW170396   9.772   9.303   3.532
56790SOL    HW270397   9.748   9.429   3.634
56791SOL     OW70398   9.883  10.180   2.891
56791SOL    HW170399   9.927  10.269   2.882
56791SOL    HW270400   9.820  10.180   2.968
56792SOL     OW70401  10.670  10.172   2.907
56792SOL    HW170402  10.595  10.172   2.841
56792SOL    HW270403  10.707  10.080   2.916
56793SOL     OW70404  10.519   9.835   2.137
56793SOL    HW170405  10.532   9.751   2.191
56793SOL    HW270406  10.490   9.909   2.197
56794SOL     OW70407   9.617   9.523   3.093
56794SOL    HW170408   9.594   9.560   3.183
56794SOL    HW270409   9.587   9.428   3.087
56795SOL     OW70410   9.347  10.620   3.144
56795SOL    HW170411   9.400  10.571   3.212
56795SOL    HW270412   9.369  10.718   3.149
56796SOL     OW70413  10.042   9.944   2.926
56796SOL    HW170414  10.101   9.918   2.850
56796SOL    HW270415  10.014  10.040   2.915
56797SOL     OW70416  11.038  10.245   3.716
56797SOL    HW170417  10.992  10.238   3.627
56797SOL    HW270418  10.976  10.289   3.782
56798SOL     OW70419   9.617   9.373   2.480
56798SOL    HW170420   9.606   9.467   2.513
56798SOL    HW270421   9.612   9.310   2.557
56799SOL     OW70422  10.932   9.677   2.236
56799SOL    HW170423  10.934   9.601   2.300
56799SOL    HW270424  10.884   9.754   2.276
56800SOL     OW70425  10.333  10.076   2.828
56800SOL    HW170426  10.348  10.097   2.924
56800SOL    HW270427  10.303   9.981   2.819
56801SOL     OW70428  10.290  10.883   3.562
56801SOL    HW170429  10.270  10.927   3.474
56801SOL    HW270430  10.329  10.792   3.546
56802SOL     OW70431  11.169  10.828   3.467
56802SOL    HW170432  11.183  10.855   3.372
56802SOL    HW270433  11.252  10.850   3.520
56803SOL     OW70434   9.660  10.208   3.666
56803SOL    HW170435   9.736  10.252   3.714
56803SOL    HW270436   9.695  10.161   3.584
56804SOL     OW70437  10.850   9.584   1.987
56804SOL    HW170438  10.789   9.509   2.010
56804SOL    HW270439  10.872   9.636   2.070
56805SOL     OW70440  10.613  10.148   1.904
56805SOL    HW170441  10.647  10.055   1.919
56805SOL    HW270442  10.631  10.175   1.809
56806SOL     OW70443  10.378  10.643   2.711
56806SOL    HW170444  10.385  10.559   2.656
56806SOL    HW270445  10.440  10.712   2.675
56807SOL     OW70446   9.629  10.120   2.811
56807SOL    HW170447   9.722  10.156   2.816
56807SOL    HW270448   9.623  10.035   2.863
56808SOL     OW70449   9.649   9.819   2.868
56808SOL    HW170450   9.597   9.736   2.851
56808SOL    HW270451   9.726   9.824   2.804
56809SOL     OW70452  10.448   9.690   3.540
56809SOL    HW170453  10.403   9.753   3.604
56809SOL    HW270454  10.541   9.721   3.523
56810SOL     OW70455  10.470   9.517   3.339
56810SOL    HW170456  10.470   9.581   3.416
56810SOL    HW270457  10.498   9.565   3.256
56811SOL     OW70458   9.318  10.636   2.062
56811SOL    HW170459   9.225  10.657   2.031
56811SOL    HW270460   9.328  10.537   2.075
56812SOL     OW70461   9.398  11.111   2.789
56812SOL    HW170462   9.356  11.025   2.762
56812SOL    HW270463   9.492  11.114   2.755
56813SOL     OW70464   9.814  10.878   2.772
56813SOL    HW170465   9.880  10.952   2.781
56813SOL    HW270466   9.858  10.799   2.730
56814SOL     OW70467  10.312  10.106   3.100
56814SOL    HW170468  10.353  10.074   3.186
56814SOL    HW270469  10.216  10.079   3.097
56815SOL     OW70470   9.350   9.854   2.976
56815SOL    HW170471   9.435   9.821   2.935
56815SOL    HW270472   9.363   9.869   3.074
56816SOL     OW70473   9.499   9.830   3.584
56816SOL    HW170474   9.558   9.790   3.514
56816SOL    HW270475   9.441   9.901   3.543
56817SOL     OW70476  10.679  10.260   3.522
56817SOL    HW170477  10.718  10.349   3.542
56817SOL    HW270478  10.689  10.240   3.425
56818SOL     OW70479  10.125   9.882   2.187
56818SOL    HW170480  10.132   9.793   2.141
56818SOL    HW270481  10.031   9.916   2.179
56819SOL     OW70482  10.967   9.914   3.068
56819SOL    HW170483  10.929   9.845   3.130
56819SOL    HW270484  11.049   9.878   3.024
56820SOL     OW70485   9.562  10.874   3.606
56820SOL    HW170486   9.532  10.931   3.682
56820SOL    HW270487   9.555  10.777   3.632
56821SOL     OW70488   9.981   9.774   3.131
56821SOL    HW170489   9.947   9.685   3.101
56821SOL    HW270490  10.007   9.828   3.051
56822SOL     OW70491  10.240  10.988   3.327
56822SOL    HW170492  10.216  10.970   3.232
56822SOL    HW270493  10.270  11.082   3.337
56823SOL     OW70494   9.783   9.810   2.053
56823SOL    HW170495   9.844   9.890   2.057
56823SOL    HW270496   9.688   9.841   2.060
56824SOL     OW70497   9.469  10.447   3.328
56824SOL    HW170498   9.491  10.386   3.404
56824SOL    HW270499   9.479  10.398   3.242
56825SOL     OW70500  10.657  10.369   3.096
56825SOL    HW170501  10.681  10.306   3.022
56825SOL    HW270502  10.567  10.409   3.078
56826SOL     OW70503  10.612  10.165   2.171
56826SOL    HW170504  10.526  10.134   2.213
56826SOL    HW270505  10.608  10.151   2.072
56827SOL     OW70506  11.069  11.057   3.016
56827SOL    HW170507  11.130  11.087   2.943
56827SOL    HW270508  11.031  10.968   2.994
56828SOL     OW70509  10.562  11.041   2.990
56828SOL    HW170510  10.646  11.046   2.936
56828SOL    HW270511  10.539  10.945   3.008
56829SOL     OW70512   9.393  10.568   2.884
56829SOL    HW170513   9.388  10.567   2.984
56829SOL    HW270514   9.310  10.527   2.846
56830SOL     OW70515   9.998  10.972   3.578
56830SOL    HW170516   9.942  11.053   3.587
56830SOL    HW270517  10.050  10.976   3.492
56831SOL     OW70518  11.036   9.445   2.385
56831SOL    HW170519  11.109   9.428   2.318
56831SOL    HW270520  11.005   9.358   2.423
56832SOL     OW70521  10.698  10.883   2.339
56832SOL    HW170522  10.765  10.895   2.265
56832SOL    HW270523  10.658  10.972   2.362
56833SOL     OW70524   9.440  11.104   3.713
56833SOL    HW170525   9.399  11.030   3.766
56833SOL    HW270526   9.504  11.155   3.771
56834SOL     OW70527  10.590  10.237   2.534
56834SOL    HW170528  10.650  10.156   2.536
56834SOL    HW270529  10.630  10.306   2.474
56835SOL     OW70530  10.140  10.583   3.284
56835SOL    HW170531  10.135  10.616   3.379
56835SOL    HW270532  10.054  10.602   3.238
56836SOL     OW70533   9.982  10.926   2.016
56836SOL    HW170534   9.991  10.936   1.917
56836SOL    HW270535   9.942  10.837   2.037
56837SOL     OW70536  10.960  11.030   3.256
56837SOL    HW170537  11.013  11.040   3.172
56837SOL    HW270538  10.933  11.120   3.290
56838SOL     OW70539  11.151   9.485   2.825
56838SOL    HW170540  11.190   9.400   2.789
56838SOL    HW270541  11.053   9.487   2.806
56839SOL     OW70542   9.573   9.636   2.582
56839SOL    HW170543   9.494   9.687   2.548
56839SOL    HW270544   9.564   9.621   2.680
56840SOL     OW70545  10.504  10.922   1.893
56840SOL    HW170546  10.510  10.829   1.930
56840SOL    HW270547  10.445  10.922   1.813
56841SOL     OW70548  10.132  10.312   3.234
56841SOL    HW170549  10.172  10.311   3.142
56841SOL    HW270550  10.142  10.404   3.274
56842SOL     OW70551  10.226  10.220   2.153
56842SOL    HW170552  10.289  10.258   2.085
56842SOL    HW270553  10.266  10.137   2.192
56843SOL     OW70554  10.814  10.917   1.906
56843SOL    HW170555  10.722  10.954   1.913
56843SOL    HW270556  10.852  10.937   1.816
56844SOL     OW70557   9.682  10.598   3.352
56844SOL    HW170558   9.669  10.691   3.318
56844SOL    HW270559   9.598  10.546   3.339
56845SOL     OW70560  10.924  10.602   3.151
56845SOL    HW170561  10.984  10.605   3.231
56845SOL    HW270562  10.849  10.666   3.164
56846SOL     OW70563  10.349  10.408   2.558
56846SOL    HW170564  10.279  10.361   2.612
56846SOL    HW270565  10.408  10.340   2.515
56847SOL     OW70566  10.324   9.546   2.833
56847SOL    HW170567  10.316   9.510   2.740
56847SOL    HW270568  10.322   9.470   2.898
56848SOL     OW70569   9.900  10.797   2.353
56848SOL    HW170570   9.942  10.739   2.283
56848SOL    HW270571   9.856  10.876   2.309
56849SOL     OW70572  11.019   9.695   3.243
56849SOL    HW170573  11.092   9.764   3.247
56849SOL    HW270574  11.047   9.620   3.184
56850SOL     OW70575   9.565  10.658   2.152
56850SOL    HW170576   9.469  10.659   2.125
56850SOL    HW270577   9.577  10.711   2.236
56851SOL     OW70578   9.415  10.323   3.588
56851SOL    HW170579   9.338  10.290   3.642
56851SOL    HW270580   9.500  10.293   3.630
56852SOL     OW70581   9.982   9.513   3.351
56852SOL    HW170582  10.072   9.497   3.311
56852SOL    HW270583   9.990   9.518   3.450
56853SOL     OW70584   9.385   9.655   1.895
56853SOL    HW170585   9.293   9.627   1.866
56853SOL    HW270586   9.416   9.732   1.839
56854SOL     OW70587  10.750  10.166   3.260
56854SOL    HW170588  10.693  10.218   3.197
56854SOL    HW270589  10.846  10.178   3.236
56855SOL     OW70590   9.382   9.476   2.180
56855SOL    HW170591   9.365   9.559   2.126
56855SOL    HW270592   9.472   9.439   2.158
56856SOL     OW70593  10.493  10.645   1.981
56856SOL    HW170594  10.394  10.634   1.983
56856SOL    HW270595  10.527  10.660   2.074
56857SOL     OW70596   9.923  10.152   3.293
56857SOL    HW170597   9.979  10.233   3.276
56857SOL    HW270598   9.982  10.072   3.296
56858SOL     OW70599  10.803  11.077   2.821
56858SOL    HW170600  10.836  11.141   2.752
56858SOL    HW270601  10.869  11.071   2.896
56859SOL     OW70602  10.026   9.875   3.570
56859SOL    HW170603  10.045   9.940   3.644
56859SOL    HW270604  10.086   9.795   3.579
56860SOL     OW70605  10.760  10.530   3.495
56860SOL    HW170606  10.751  10.520   3.594
56860SOL    HW270607  10.856  10.523   3.469
56861SOL     OW70608   9.700  11.051   3.422
56861SOL    HW170609   9.609  11.092   3.420
56861SOL    HW270610   9.693  10.957   3.454
56862SOL     OW70611  10.984  10.193   3.116
56862SOL    HW170612  10.957  10.104   3.079
56862SOL    HW270613  10.985  10.261   3.043
56863SOL     OW70614  10.535   9.635   2.311
56863SOL    HW170615  10.600   9.561   2.300
56863SOL    HW270616  10.555   9.685   2.395
56864SOL     OW70617   9.904  10.055   2.514
56864SOL    HW170618   9.954  10.140   2.495
56864SOL    HW270619   9.816  10.057   2.466
56865SOL     OW70620  11.087   9.652   3.504
56865SOL    HW170621  11.070   9.683   3.410
56865SOL    HW270622  11.003   9.615   3.542
56866SOL     OW70623  11.040  10.244   3.379
56866SOL    HW170624  11.078  10.335   3.394
56866SOL    HW270625  11.032  10.227   3.280
56867SOL     OW70626  10.169  10.684   1.878
56867SOL    HW170627  10.123  10.699   1.966
56867SOL    HW270628  10.213  10.769   1.848
56868SOL     OW70629   9.971  11.100   2.815
56868SOL    HW170630   9.925  11.188   2.802
56868SOL    HW270631  10.070  11.112   2.808
56869SOL     OW70632  10.169  10.266   2.723
56869SOL    HW170633  10.223  10.197   2.771
56869SOL    HW270634  10.137  10.335   2.789
56870SOL     OW70635  10.393  10.294   1.949
56870SOL    HW170636  10.370  10.347   1.867
56870SOL    HW270637  10.474  10.238   1.930
56871SOL     OW70638  11.171  10.879   2.713
56871SOL    HW170639  11.100  10.867   2.643
56871SOL    HW270640  11.172  10.800   2.773
56872SOL     OW70641   9.531  10.624   3.706
56872SOL    HW170642   9.466  10.551   3.685
56872SOL    HW270643   9.535  10.638   3.804
56873SOL     OW70644   9.389  10.550   2.515
56873SOL    HW170645   9.388  10.503   2.603
56873SOL    HW270646   9.471  10.522   2.464
56874SOL     OW70647   9.982  10.701   3.486
56874SOL    HW170648   9.904  10.651   3.524
56874SOL    HW270649   9.979  10.796   3.517
56875SOL     OW70650  11.134   9.502   3.089
56875SOL    HW170651  11.130   9.412   3.133
56875SOL    HW270652  11.137   9.491   2.990
56876SOL     OW70653   9.738   9.734   2.382
56876SOL    HW170654   9.768   9.662   2.320
56876SOL    HW270655   9.699   9.694   2.465
56877SOL     OW70656  11.015  10.797   2.966
56877SOL    HW170657  10.922  10.772   2.939
56877SOL    HW270658  11.041  10.747   3.048
56878SOL     OW70659   9.627   9.857   3.142
56878SOL    HW170660   9.665   9.798   3.214
56878SOL    HW270661   9.667   9.831   3.054
56879SOL     OW70662  10.122  10.896   2.549
56879SOL    HW170663  10.154  10.906   2.455
56879SOL    HW270664  10.043  10.834   2.551
56880SOL     OW70665  10.734   9.524   2.974
56880SOL    HW170666  10.786   9.459   3.029
56880SOL    HW270667  10.685   9.587   3.035
56881SOL     OW70668  10.311   9.344   3.016
56881SOL    HW170669  10.248   9.272   2.985
56881SOL    HW270670  10.404   9.308   3.016
56882SOL     OW70671  10.080  10.640   2.163
56882SOL    HW170672  10.034  10.553   2.180
56882SOL    HW270673  10.171  10.637   2.204
56883SOL     OW70674   9.928  10.877   3.146
56883SOL    HW170675   9.923  10.959   3.203
56883SOL    HW270676  10.017  10.874   3.101
56884SOL     OW70677  10.662   9.362   2.030
56884SOL    HW170678  10.697   9.321   1.946
56884SOL    HW270679  10.572   9.324   2.050
56885SOL     OW70680  10.610   9.763   2.553
56885SOL    HW170681  10.551   9.843   2.557
56885SOL    HW270682  10.625   9.728   2.646
56886SOL     OW70683  10.903   9.531   2.744
56886SOL    HW170684  10.819   9.530   2.798
56886SOL    HW270685  10.905   9.614   2.688
56887SOL     OW70686   9.349  10.387   2.162
56887SOL    HW170687   9.448  10.376   2.153
56887SOL    HW270688   9.309  10.301   2.194
56888SOL     OW70689  10.185  10.956   2.199
56888SOL    HW170690  10.108  10.921   2.145
56888SOL    HW270691  10.153  11.027   2.261
56889SOL     OW70692   9.540   9.938   3.837
56889SOL    HW170693   9.447   9.936   3.874
56889SOL    HW270694   9.541   9.899   3.745
56890SOL     OW70695   9.535   9.585   4.720
56890SOL    HW170696   9.570   9.568   4.812
56890SOL    HW270697   9.447   9.540   4.708
56891SOL     OW70698   9.329   9.678   4.371
56891SOL    HW170699   9.247   9.721   4.410
56891SOL    HW270700   9.301   9.605   4.308
56892SOL     OW70701   9.879  10.585   4.889
56892SOL    HW170702   9.786  10.578   4.852
56892SOL    HW270703   9.890  10.674   4.933
56893SOL     OW70704  10.865  10.821   4.427
56893SOL    HW170705  10.808  10.805   4.508
56893SOL    HW270706  10.806  10.831   4.347
56894SOL     OW70707  10.445  10.013   4.441
56894SOL    HW170708  10.502  10.091   4.416
56894SOL    HW270709  10.385  10.039   4.517
56895SOL     OW70710  11.065   9.917   3.955
56895SOL    HW170711  11.053   9.904   3.856
56895SOL    HW270712  11.035   9.836   4.004
56896SOL     OW70713  10.078  10.454   4.747
56896SOL    HW170714  10.000  10.471   4.807
56896SOL    HW270715  10.112  10.541   4.711
56897SOL     OW70716  10.160  10.108   5.547
56897SOL    HW170717  10.156  10.184   5.612
56897SOL    HW270718  10.182  10.144   5.456
56898SOL     OW70719   9.995  10.322   4.389
56898SOL    HW170720  10.064  10.306   4.459
56898SOL    HW270721   9.922  10.379   4.427
56899SOL     OW70722   9.996  10.471   5.527
56899SOL    HW170723  10.056  10.550   5.541
56899SOL    HW270724   9.910  10.502   5.486
56900SOL     OW70725   9.645  10.745   4.785
56900SOL    HW170726   9.567  10.714   4.732
56900SOL    HW270727   9.703  10.803   4.728
56901SOL     OW70728  10.770  10.815   5.063
56901SOL    HW170729  10.794  10.909   5.089
56901SOL    HW270730  10.754  10.761   5.145
56902SOL     OW70731   9.748   9.702   5.223
56902SOL    HW170732   9.830   9.646   5.232
56902SOL    HW270733   9.667   9.644   5.227
56903SOL     OW70734  10.913   9.757   4.461
56903SOL    HW170735  10.839   9.803   4.411
56903SOL    HW270736  10.964   9.825   4.514
56904SOL     OW70737   9.541  11.023   4.207
56904SOL    HW170738   9.575  11.100   4.261
56904SOL    HW270739   9.585  11.023   4.117
56905SOL     OW70740  10.437  10.651   5.414
56905SOL    HW170741  10.484  10.651   5.502
56905SOL    HW270742  10.389  10.564   5.403
56906SOL     OW70743   9.540  10.744   4.262
56906SOL    HW170744   9.514  10.840   4.262
56906SOL    HW270745   9.469  10.690   4.307
56907SOL     OW70746   9.550  10.401   4.610
56907SOL    HW170747   9.564  10.317   4.662
56907SOL    HW270748   9.495  10.465   4.665
56908SOL     OW70749   9.930  11.096   5.163
56908SOL    HW170750   9.838  11.079   5.198
56908SOL    HW270751   9.958  11.188   5.189
56909SOL     OW70752   9.916  10.274   3.847
56909SOL    HW170753   9.923  10.358   3.793
56909SOL    HW270754   9.962  10.287   3.935
56910SOL     OW70755  10.904   9.424   5.204
56910SOL    HW170756  10.886   9.491   5.132
56910SOL    HW270757  10.901   9.470   5.293
56911SOL     OW70758   9.432   9.953   4.287
56911SOL    HW170759   9.387   9.865   4.304
56911SOL    HW270760   9.431  10.007   4.371
56912SOL     OW70761  11.152  11.077   4.083
56912SOL    HW170762  11.206  11.048   4.163
56912SOL    HW270763  11.182  11.167   4.054
56913SOL     OW70764   9.337  10.906   3.841
56913SOL    HW170765   9.318  10.810   3.862
56913SOL    HW270766   9.304  10.964   3.916
56914SOL     OW70767  10.999  10.232   4.336
56914SOL    HW170768  11.094  10.203   4.344
56914SOL    HW270769  10.991  10.297   4.261
56915SOL     OW70770  10.951  10.418   4.156
56915SOL    HW170771  11.037  10.420   4.104
56915SOL    HW270772  10.965  10.465   4.244
56916SOL     OW70773   9.423  10.047   5.321
56916SOL    HW170774   9.511  10.034   5.366
56916SOL    HW270775   9.410  10.144   5.299
56917SOL     OW70776   9.923  10.675   4.450
56917SOL    HW170777   9.874  10.588   4.459
56917SOL    HW270778   9.900  10.718   4.363
56918SOL     OW70779  10.603  10.538   5.147
56918SOL    HW170780  10.640  10.465   5.089
56918SOL    HW270781  10.655  10.543   5.232
56919SOL     OW70782  10.119   9.314   4.226
56919SOL    HW170783  10.159   9.405   4.217
56919SOL    HW270784  10.019   9.322   4.232
56920SOL     OW70785   9.507  10.286   4.988
56920SOL    HW170786   9.596  10.241   4.974
56920SOL    HW270787   9.434  10.221   4.969
56921SOL     OW70788  10.835  10.309   3.914
56921SOL    HW170789  10.772  10.233   3.927
56921SOL    HW270790  10.883  10.327   4.000
56922SOL     OW70791  10.497  11.102   5.340
56922SOL    HW170792  10.521  11.162   5.264
56922SOL    HW270793  10.504  11.007   5.310
56923SOL     OW70794   9.627   9.561   5.525
56923SOL    HW170795   9.698   9.632   5.531
56923SOL    HW270796   9.539   9.600   5.553
56924SOL     OW70797  10.776  10.727   4.677
56924SOL    HW170798  10.717  10.733   4.757
56924SOL    HW270799  10.761  10.639   4.631
56925SOL     OW70800  10.977  11.024   4.296
56925SOL    HW170801  10.936  11.001   4.208
56925SOL    HW270802  10.959  10.950   4.361
56926SOL     OW70803   9.908  10.039   3.994
56926SOL    HW170804   9.932  10.108   3.926
56926SOL    HW270805   9.830  10.072   4.048
56927SOL     OW70806  10.591   9.655   4.668
56927SOL    HW170807  10.505   9.605   4.655
56927SOL    HW270808  10.653   9.601   4.724
56928SOL     OW70809  10.886  10.972   4.031
56928SOL    HW170810  10.975  11.018   4.034
56928SOL    HW270811  10.865  10.948   3.936
56929SOL     OW70812  10.117   9.915   5.189
56929SOL    HW170813  10.070   9.912   5.278
56929SOL    HW270814  10.066   9.860   5.123
56930SOL     OW70815  10.704   9.779   5.398
56930SOL    HW170816  10.684   9.822   5.486
56930SOL    HW270817  10.782   9.717   5.407
56931SOL     OW70818  10.283  10.200   5.296
56931SOL    HW170819  10.329  10.116   5.267
56931SOL    HW270820  10.227  10.234   5.221
56932SOL     OW70821  10.301   9.720   4.966
56932SOL    HW170822  10.224   9.754   5.020
56932SOL    HW270823  10.267   9.669   4.887
56933SOL     OW70824  10.351  10.011   4.153
56933SOL    HW170825  10.377  10.007   4.249
56933SOL    HW270826  10.266   9.960   4.139
56934SOL     OW70827   9.386  10.121   4.513
56934SOL    HW170828   9.485  10.109   4.522
56934SOL    HW270829   9.362  10.216   4.534
56935SOL     OW70830   9.440  11.131   5.295
56935SOL    HW170831   9.430  11.116   5.394
56935SOL    HW270832   9.354  11.167   5.259
56936SOL     OW70833  10.175   9.658   3.919
56936SOL    HW170834  10.234   9.721   3.870
56936SOL    HW270835  10.194   9.564   3.890
56937SOL     OW70836  11.029   9.895   5.555
56937SOL    HW170837  11.003   9.984   5.519
56937SOL    HW270838  11.027   9.827   5.482
56938SOL     OW70839  10.672  10.454   4.269
56938SOL    HW170840  10.755  10.425   4.221
56938SOL    HW270841  10.623  10.521   4.213
56939SOL     OW70842   9.860   9.506   4.609
56939SOL    HW170843   9.855   9.501   4.709
56939SOL    HW270844   9.862   9.602   4.580
56940SOL     OW70845  10.318  10.766   4.201
56940SOL    HW170846  10.272  10.838   4.149
56940SOL    HW270847  10.314  10.786   4.299
56941SOL     OW70848   9.661  11.111   4.577
56941SOL    HW170849   9.711  11.025   4.583
56941SOL    HW270850   9.726  11.188   4.574
56942SOL     OW70851  11.105  10.376   4.597
56942SOL    HW170852  11.043  10.361   4.521
56942SOL    HW270853  11.053  10.387   4.682
56943SOL     OW70854  10.537  10.860   5.230
56943SOL    HW170855  10.543  10.783   5.294
56943SOL    HW270856  10.485  10.834   5.150
56944SOL     OW70857   9.631  10.253   3.966
56944SOL    HW170858   9.713  10.292   3.924
56944SOL    HW270859   9.604  10.171   3.917
56945SOL     OW70860  10.768  10.045   4.452
56945SOL    HW170861  10.763   9.980   4.527
56945SOL    HW270862  10.848  10.104   4.465
56946SOL     OW70863   9.771  10.576   5.451
56946SOL    HW170864   9.721  10.577   5.365
56946SOL    HW270865   9.708  10.558   5.527
56947SOL     OW70866  10.421  11.086   3.961
56947SOL    HW170867  10.361  11.024   4.011
56947SOL    HW270868  10.452  11.042   3.876
56948SOL     OW70869   9.512   9.595   5.222
56948SOL    HW170870   9.432   9.655   5.209
56948SOL    HW270871   9.502   9.546   5.308
56949SOL     OW70872  10.942  10.687   3.805
56949SOL    HW170873  10.910  10.781   3.795
56949SOL    HW270874  10.866  10.624   3.793
56950SOL     OW70875   9.774  11.053   4.047
56950SOL    HW170876   9.807  11.092   4.133
56950SOL    HW270877   9.850  11.046   3.982
56951SOL     OW70878  10.710   9.417   4.150
56951SOL    HW170879  10.686   9.380   4.060
56951SOL    HW270880  10.809   9.433   4.154
56952SOL     OW70881   9.559  11.095   4.965
56952SOL    HW170882   9.616  11.030   5.015
56952SOL    HW270883   9.543  11.062   4.872
56953SOL     OW70884  10.250  11.008   4.628
56953SOL    HW170885  10.330  10.951   4.649
56953SOL    HW270886  10.201  10.968   4.551
56954SOL     OW70887   9.692  10.010   4.204
56954SOL    HW170888   9.737   9.920   4.201
56954SOL    HW270889   9.598   9.999   4.237
56955SOL     OW70890  10.857   9.532   5.453
56955SOL    HW170891  10.852   9.569   5.545
56955SOL    HW270892  10.785   9.463   5.441
56956SOL     OW70893   9.924   9.432   3.841
56956SOL    HW170894  10.022   9.410   3.848
56956SOL    HW270895   9.893   9.415   3.748
56957SOL     OW70896  10.091   9.574   5.473
56957SOL    HW170897  10.158   9.513   5.516
56957SOL    HW270898  10.018   9.593   5.538
56958SOL     OW70899  10.198  10.824   4.919
56958SOL    HW170900  10.175  10.799   4.825
56958SOL    HW270901  10.259  10.755   4.958
56959SOL     OW70902  10.661   9.900   5.157
56959SOL    HW170903  10.689   9.857   5.242
56959SOL    HW270904  10.686   9.996   5.158
56960SOL     OW70905  10.113  10.712   4.648
56960SOL    HW170906  10.203  10.726   4.606
56960SOL    HW270907  10.042  10.714   4.577
56961SOL     OW70908  10.232   9.813   4.623
56961SOL    HW170909  10.207   9.804   4.527
56961SOL    HW270910  10.280   9.731   4.654
56962SOL     OW70911   9.849   9.374   4.236
56962SOL    HW170912   9.768   9.375   4.294
56962SOL    HW270913   9.852   9.457   4.181
56963SOL     OW70914  10.744  10.498   3.765
56963SOL    HW170915  10.776  10.422   3.822
56963SOL    HW270916  10.652  10.525   3.795
56964SOL     OW70917   9.607   9.345   3.895
56964SOL    HW170918   9.656   9.429   3.874
56964SOL    HW270919   9.669   9.280   3.940
56965SOL     OW70920  10.245   9.546   4.204
56965SOL    HW170921  10.197   9.587   4.126
56965SOL    HW270922  10.344   9.544   4.185
56966SOL     OW70923  10.386   9.993   5.188
56966SOL    HW170924  10.306   9.932   5.191
56966SOL    HW270925  10.467   9.940   5.164
56967SOL     OW70926  10.537  10.880   4.517
56967SOL    HW170927  10.558  10.954   4.452
56967SOL    HW270928  10.605  10.880   4.590
56968SOL     OW70929   9.769  10.462   4.465
56968SOL    HW170930   9.698  10.435   4.530
56968SOL    HW270931   9.743  10.434   4.372
56969SOL     OW70932  10.581  11.107   4.315
56969SOL    HW170933  10.625  11.171   4.251
56969SOL    HW270934  10.531  11.159   4.385
56970SOL     OW70935  10.342   9.859   3.740
56970SOL    HW170936  10.301   9.941   3.701
56970SOL    HW270937  10.406   9.885   3.813
56971SOL     OW70938   9.388   9.866   5.110
56971SOL    HW170939   9.480   9.865   5.069
56971SOL    HW270940   9.382   9.940   5.177
56972SOL     OW70941   9.871   9.532   4.871
56972SOL    HW170942   9.909   9.448   4.908
56972SOL    HW270943   9.783   9.551   4.915
56973SOL     OW70944  10.176   9.764   4.366
56973SOL    HW170945  10.144   9.836   4.304
56973SOL    HW270946  10.200   9.683   4.313
56974SOL     OW70947  10.327   9.349   4.477
56974SOL    HW170948  10.255   9.354   4.408
56974SOL    HW270949  10.303   9.280   4.546
56975SOL     OW70950  10.739  10.483   4.591
56975SOL    HW170951  10.684  10.399   4.584
56975SOL    HW270952  10.765  10.512   4.499
56976SOL     OW70953  10.776   9.900   4.716
56976SOL    HW170954  10.746   9.805   4.723
56976SOL    HW270955  10.849   9.916   4.782
56977SOL     OW70956  11.167  10.143   4.101
56977SOL    HW170957  11.209  10.079   4.165
56977SOL    HW270958  11.129  10.092   4.023
56978SOL     OW70959   9.798  10.695   3.898
56978SOL    HW170960   9.711  10.680   3.945
56978SOL    HW270961   9.781  10.721   3.803
56979SOL     OW70962  10.974  10.590   4.381
56979SOL    HW170963  11.073  10.598   4.395
56979SOL    HW270964  10.929  10.674   4.412
56980SOL     OW70965  10.700   9.885   3.802
56980SOL    HW170966  10.646   9.864   3.883
56980SOL    HW270967  10.791   9.844   3.811
56981SOL     OW70968   9.837   9.566   4.052
56981SOL    HW170969   9.864   9.507   3.977
56981SOL    HW270970   9.837   9.661   4.021
56982SOL     OW70971  11.064  10.533   5.312
56982SOL    HW170972  11.155  10.494   5.299
56982SOL    HW270973  11.072  10.629   5.336
56983SOL     OW70974  10.374  10.657   5.064
56983SOL    HW170975  10.294  10.634   5.119
56983SOL    HW270976  10.457  10.631   5.113
56984SOL     OW70977  10.902  10.939   5.349
56984SOL    HW170978  10.929  10.973   5.259
56984SOL    HW270979  10.981  10.901   5.395
56985SOL     OW70980  10.421  10.505   4.824
56985SOL    HW170981  10.381  10.549   4.905
56985SOL    HW270982  10.380  10.542   4.741
56986SOL     OW70983  10.948  10.409   4.803
56986SOL    HW170984  10.953  10.490   4.862
56986SOL    HW270985  10.862  10.411   4.752
56987SOL     OW70986  10.225   9.399   5.126
56987SOL    HW170987  10.250   9.379   5.031
56987SOL    HW270988  10.297   9.455   5.168
56988SOL     OW70989  10.290  10.426   5.443
56988SOL    HW170990  10.191  10.432   5.453
56988SOL    HW270991  10.313  10.346   5.387
56989SOL     OW70992  10.015  10.360   4.092
56989SOL    HW170993  10.001  10.367   4.191
56989SOL    HW270994  10.099  10.309   4.074
56990SOL     OW70995   9.720  10.123   4.975
56990SOL    HW170996   9.806  10.135   5.025
56990SOL    HW270997   9.678  10.036   5.002
56991SOL     OW70998  10.584   9.696   4.986
56991SOL    HW170999  10.605   9.770   5.050
56991SOL    HW271000  10.495   9.713   4.943
56992SOL     OW71001   9.374  10.874   5.055
56992SOL    HW171002   9.328  10.956   5.021
56992SOL    HW271003   9.472  10.893   5.064
56993SOL     OW71004   9.677  10.410   4.225
56993SOL    HW171005   9.670  10.493   4.169
56993SOL    HW271006   9.681  10.330   4.165
56994SOL     OW71007   9.876   9.847   4.589
56994SOL    HW171008   9.888   9.913   4.515
56994SOL    HW271009   9.922   9.881   4.672
56995SOL     OW71010  10.562  10.658   4.112
56995SOL    HW171011  10.612  10.735   4.152
56995SOL    HW271012  10.467  10.660   4.144
56996SOL     OW71013  10.582  10.755   4.866
56996SOL    HW171014  10.629  10.768   4.953
56996SOL    HW271015  10.516  10.681   4.875
56997SOL     OW71016  10.892   9.949   4.196
56997SOL    HW171017  10.861  10.010   4.269
56997SOL    HW271018  10.942  10.001   4.127
56998SOL     OW71019   9.664  10.820   5.053
56998SOL    HW171020   9.643  10.776   4.966
56998SOL    HW271021   9.761  10.846   5.056
56999SOL     OW71022   9.712  10.061   5.322
56999SOL    HW171023   9.780  10.116   5.275
56999SOL    HW271024   9.752   9.973   5.349
57000SOL     OW71025  10.897  10.089   5.394
57000SOL    HW171026  10.805  10.127   5.389
57000SOL    HW271027  10.957  10.136   5.329
57001SOL     OW71028  10.323   9.415   5.494
57001SOL    HW171029  10.329   9.500   5.442
57001SOL    HW271030  10.355   9.339   5.437
57002SOL     OW71031   9.814   9.360   5.464
57002SOL    HW171032   9.772   9.303   5.394
57002SOL    HW271033   9.748   9.429   5.496
57003SOL     OW71034   9.883  10.180   4.753
57003SOL    HW171035   9.927  10.269   4.744
57003SOL    HW271036   9.820  10.180   4.830
57004SOL     OW71037  10.670  10.172   4.769
57004SOL    HW171038  10.595  10.172   4.703
57004SOL    HW271039  10.707  10.080   4.778
57005SOL     OW71040  10.519   9.835   3.999
57005SOL    HW171041  10.532   9.751   4.053
57005SOL    HW271042  10.490   9.909   4.059
57006SOL     OW71043   9.617   9.523   4.955
57006SOL    HW171044   9.594   9.560   5.045
57006SOL    HW271045   9.587   9.428   4.949
57007SOL     OW71046   9.347  10.620   5.006
57007SOL    HW171047   9.400  10.571   5.074
57007SOL    HW271048   9.369  10.718   5.011
57008SOL     OW71049  10.042   9.944   4.788
57008SOL    HW171050  10.101   9.918   4.712
57008SOL    HW271051  10.014  10.040   4.777
57009SOL     OW71052  11.038  10.245   5.578
57009SOL    HW171053  10.992  10.238   5.489
57009SOL    HW271054  10.976  10.289   5.644
57010SOL     OW71055   9.617   9.373   4.342
57010SOL    HW171056   9.606   9.467   4.375
57010SOL    HW271057   9.612   9.310   4.419
57011SOL     OW71058  10.932   9.677   4.098
57011SOL    HW171059  10.934   9.601   4.162
57011SOL    HW271060  10.884   9.754   4.138
57012SOL     OW71061  10.333  10.076   4.690
57012SOL    HW171062  10.348  10.097   4.786
57012SOL    HW271063  10.303   9.981   4.681
57013SOL     OW71064  10.290  10.883   5.424
57013SOL    HW171065  10.270  10.927   5.336
57013SOL    HW271066  10.329  10.792   5.408
57014SOL     OW71067  11.169  10.828   5.329
57014SOL    HW171068  11.183  10.855   5.234
57014SOL    HW271069  11.252  10.850   5.382
57015SOL     OW71070   9.660  10.208   5.528
57015SOL    HW171071   9.736  10.252   5.576
57015SOL    HW271072   9.695  10.161   5.446
57016SOL     OW71073  10.850   9.584   3.849
57016SOL    HW171074  10.789   9.509   3.872
57016SOL    HW271075  10.872   9.636   3.932
57017SOL     OW71076  10.613  10.148   3.766
57017SOL    HW171077  10.647  10.055   3.781
57017SOL    HW271078  10.631  10.175   3.671
57018SOL     OW71079  10.378  10.643   4.573
57018SOL    HW171080  10.385  10.559   4.518
57018SOL    HW271081  10.440  10.712   4.537
57019SOL     OW71082   9.629  10.120   4.673
57019SOL    HW171083   9.722  10.156   4.678
57019SOL    HW271084   9.623  10.035   4.725
57020SOL     OW71085   9.649   9.819   4.730
57020SOL    HW171086   9.597   9.736   4.713
57020SOL    HW271087   9.726   9.824   4.666
57021SOL     OW71088  10.448   9.690   5.402
57021SOL    HW171089  10.403   9.753   5.466
57021SOL    HW271090  10.541   9.721   5.385
57022SOL     OW71091  10.470   9.517   5.201
57022SOL    HW171092  10.470   9.581   5.278
57022SOL    HW271093  10.498   9.565   5.118
57023SOL     OW71094   9.318  10.636   3.924
57023SOL    HW171095   9.225  10.657   3.893
57023SOL    HW271096   9.328  10.537   3.937
57024SOL     OW71097   9.398  11.111   4.651
57024SOL    HW171098   9.356  11.025   4.624
57024SOL    HW271099   9.492  11.114   4.617
57025SOL     OW71100   9.814  10.878   4.634
57025SOL    HW171101   9.880  10.952   4.643
57025SOL    HW271102   9.858  10.799   4.592
57026SOL     OW71103  10.312  10.106   4.962
57026SOL    HW171104  10.353  10.074   5.048
57026SOL    HW271105  10.216  10.079   4.959
57027SOL     OW71106   9.350   9.854   4.838
57027SOL    HW171107   9.435   9.821   4.797
57027SOL    HW271108   9.363   9.869   4.936
57028SOL     OW71109   9.499   9.830   5.446
57028SOL    HW171110   9.558   9.790   5.376
57028SOL    HW271111   9.441   9.901   5.405
57029SOL     OW71112  10.679  10.260   5.384
57029SOL    HW171113  10.718  10.349   5.404
57029SOL    HW271114  10.689  10.240   5.287
57030SOL     OW71115  10.125   9.882   4.049
57030SOL    HW171116  10.132   9.793   4.003
57030SOL    HW271117  10.031   9.916   4.041
57031SOL     OW71118  10.967   9.914   4.930
57031SOL    HW171119  10.929   9.845   4.992
57031SOL    HW271120  11.049   9.878   4.886
57032SOL     OW71121   9.562  10.874   5.468
57032SOL    HW171122   9.532  10.931   5.544
57032SOL    HW271123   9.555  10.777   5.494
57033SOL     OW71124   9.981   9.774   4.993
57033SOL    HW171125   9.947   9.685   4.963
57033SOL    HW271126  10.007   9.828   4.913
57034SOL     OW71127  10.240  10.988   5.189
57034SOL    HW171128  10.216  10.970   5.094
57034SOL    HW271129  10.270  11.082   5.199
57035SOL     OW71130   9.783   9.810   3.915
57035SOL    HW171131   9.844   9.890   3.919
57035SOL    HW271132   9.688   9.841   3.922
57036SOL     OW71133   9.469  10.447   5.190
57036SOL    HW171134   9.491  10.386   5.266
57036SOL    HW271135   9.479  10.398   5.104
57037SOL     OW71136  10.657  10.369   4.958
57037SOL    HW171137  10.681  10.306   4.884
57037SOL    HW271138  10.567  10.409   4.940
57038SOL     OW71139  10.612  10.165   4.033
57038SOL    HW171140  10.526  10.134   4.075
57038SOL    HW271141  10.608  10.151   3.934
57039SOL     OW71142  11.069  11.057   4.878
57039SOL    HW171143  11.130  11.087   4.805
57039SOL    HW271144  11.031  10.968   4.856
57040SOL     OW71145  10.562  11.041   4.852
57040SOL    HW171146  10.646  11.046   4.798
57040SOL    HW271147  10.539  10.945   4.870
57041SOL     OW71148   9.393  10.568   4.746
57041SOL    HW171149   9.388  10.567   4.846
57041SOL    HW271150   9.310  10.527   4.708
57042SOL     OW71151   9.998  10.972   5.440
57042SOL    HW171152   9.942  11.053   5.449
57042SOL    HW271153  10.050  10.976   5.354
57043SOL     OW71154  11.036   9.445   4.247
57043SOL    HW171155  11.109   9.428   4.180
57043SOL    HW271156  11.005   9.358   4.285
57044SOL     OW71157  10.698  10.883   4.201
57044SOL    HW171158  10.765  10.895   4.127
57044SOL    HW271159  10.658  10.972   4.224
57045SOL     OW71160   9.440  11.104   5.575
57045SOL    HW171161   9.399  11.030   5.628
57045SOL    HW271162   9.504  11.155   5.633
57046SOL     OW71163  10.590  10.237   4.396
57046SOL    HW171164  10.650  10.156   4.398
57046SOL    HW271165  10.630  10.306   4.336
57047SOL     OW71166  10.140  10.583   5.146
57047SOL    HW171167  10.135  10.616   5.241
57047SOL    HW271168  10.054  10.602   5.100
57048SOL     OW71169   9.982  10.926   3.878
57048SOL    HW171170   9.991  10.936   3.779
57048SOL    HW271171   9.942  10.837   3.899
57049SOL     OW71172  10.960  11.030   5.118
57049SOL    HW171173  11.013  11.040   5.034
57049SOL    HW271174  10.933  11.120   5.152
57050SOL     OW71175  11.151   9.485   4.687
57050SOL    HW171176  11.190   9.400   4.651
57050SOL    HW271177  11.053   9.487   4.668
57051SOL     OW71178   9.573   9.636   4.444
57051SOL    HW171179   9.494   9.687   4.410
57051SOL    HW271180   9.564   9.621   4.542
57052SOL     OW71181  10.504  10.922   3.755
57052SOL    HW171182  10.510  10.829   3.792
57052SOL    HW271183  10.445  10.922   3.675
57053SOL     OW71184  10.132  10.312   5.096
57053SOL    HW171185  10.172  10.311   5.004
57053SOL    HW271186  10.142  10.404   5.136
57054SOL     OW71187  10.226  10.220   4.015
57054SOL    HW171188  10.289  10.258   3.947
57054SOL    HW271189  10.266  10.137   4.054
57055SOL     OW71190   9.682  10.598   5.214
57055SOL    HW171191   9.669  10.691   5.180
57055SOL    HW271192   9.598  10.546   5.201
57056SOL     OW71193  10.924  10.602   5.013
57056SOL    HW171194  10.984  10.605   5.093
57056SOL    HW271195  10.849  10.666   5.026
57057SOL     OW71196  10.349  10.408   4.420
57057SOL    HW171197  10.279  10.361   4.474
57057SOL    HW271198  10.408  10.340   4.377
57058SOL     OW71199  10.324   9.546   4.695
57058SOL    HW171200  10.316   9.510   4.602
57058SOL    HW271201  10.322   9.470   4.760
57059SOL     OW71202   9.900  10.797   4.215
57059SOL    HW171203   9.942  10.739   4.145
57059SOL    HW271204   9.856  10.876   4.171
57060SOL     OW71205  11.019   9.695   5.105
57060SOL    HW171206  11.092   9.764   5.109
57060SOL    HW271207  11.047   9.620   5.046
57061SOL     OW71208   9.565  10.658   4.014
57061SOL    HW171209   9.469  10.659   3.987
57061SOL    HW271210   9.577  10.711   4.098
57062SOL     OW71211   9.415  10.323   5.450
57062SOL    HW171212   9.338  10.290   5.504
57062SOL    HW271213   9.500  10.293   5.492
57063SOL     OW71214   9.982   9.513   5.213
57063SOL    HW171215  10.072   9.497   5.173
57063SOL    HW271216   9.990   9.518   5.312
57064SOL     OW71217   9.385   9.655   3.757
57064SOL    HW171218   9.293   9.627   3.728
57064SOL    HW271219   9.416   9.732   3.701
57065SOL     OW71220  10.750  10.166   5.122
57065SOL    HW171221  10.693  10.218   5.059
57065SOL    HW271222  10.846  10.178   5.098
57066SOL     OW71223   9.382   9.476   4.042
57066SOL    HW171224   9.365   9.559   3.988
57066SOL    HW271225   9.472   9.439   4.020
57067SOL     OW71226  10.493  10.645   3.843
57067SOL    HW171227  10.394  10.634   3.845
57067SOL    HW271228  10.527  10.660   3.936
57068SOL     OW71229   9.923  10.152   5.155
57068SOL    HW171230   9.979  10.233   5.138
57068SOL    HW271231   9.982  10.072   5.158
57069SOL     OW71232  10.803  11.077   4.683
57069SOL    HW171233  10.836  11.141   4.614
57069SOL    HW271234  10.869  11.071   4.758
57070SOL     OW71235  10.026   9.875   5.432
57070SOL    HW171236  10.045   9.940   5.506
57070SOL    HW271237  10.086   9.795   5.441
57071SOL     OW71238  10.760  10.530   5.357
57071SOL    HW171239  10.751  10.520   5.456
57071SOL    HW271240  10.856  10.523   5.331
57072SOL     OW71241   9.700  11.051   5.284
57072SOL    HW171242   9.609  11.092   5.282
57072SOL    HW271243   9.693  10.957   5.316
57073SOL     OW71244  10.984  10.193   4.978
57073SOL    HW171245  10.957  10.104   4.941
57073SOL    HW271246  10.985  10.261   4.905
57074SOL     OW71247  10.535   9.635   4.173
57074SOL    HW171248  10.600   9.561   4.162
57074SOL    HW271249  10.555   9.685   4.257
57075SOL     OW71250   9.904  10.055   4.376
57075SOL    HW171251   9.954  10.140   4.357
57075SOL    HW271252   9.816  10.057   4.328
57076SOL     OW71253  11.087   9.652   5.366
57076SOL    HW171254  11.070   9.683   5.272
57076SOL    HW271255  11.003   9.615   5.404
57077SOL     OW71256  11.040  10.244   5.241
57077SOL    HW171257  11.078  10.335   5.256
57077SOL    HW271258  11.032  10.227   5.142
57078SOL     OW71259  10.169  10.684   3.740
57078SOL    HW171260  10.123  10.699   3.828
57078SOL    HW271261  10.213  10.769   3.710
57079SOL     OW71262   9.971  11.100   4.677
57079SOL    HW171263   9.925  11.188   4.664
57079SOL    HW271264  10.070  11.112   4.670
57080SOL     OW71265  10.169  10.266   4.585
57080SOL    HW171266  10.223  10.197   4.633
57080SOL    HW271267  10.137  10.335   4.651
57081SOL     OW71268  10.393  10.294   3.811
57081SOL    HW171269  10.370  10.347   3.729
57081SOL    HW271270  10.474  10.238   3.792
57082SOL     OW71271  11.171  10.879   4.575
57082SOL    HW171272  11.100  10.867   4.505
57082SOL    HW271273  11.172  10.800   4.635
57083SOL     OW71274   9.531  10.624   5.568
57083SOL    HW171275   9.466  10.551   5.547
57083SOL    HW271276   9.535  10.638   5.666
57084SOL     OW71277   9.389  10.550   4.377
57084SOL    HW171278   9.388  10.503   4.465
57084SOL    HW271279   9.471  10.522   4.326
57085SOL     OW71280   9.982  10.701   5.348
57085SOL    HW171281   9.904  10.651   5.386
57085SOL    HW271282   9.979  10.796   5.379
57086SOL     OW71283  11.134   9.502   4.951
57086SOL    HW171284  11.130   9.412   4.995
57086SOL    HW271285  11.137   9.491   4.852
57087SOL     OW71286   9.738   9.734   4.244
57087SOL    HW171287   9.768   9.662   4.182
57087SOL    HW271288   9.699   9.694   4.327
57088SOL     OW71289  11.015  10.797   4.828
57088SOL    HW171290  10.922  10.772   4.801
57088SOL    HW271291  11.041  10.747   4.910
57089SOL     OW71292   9.627   9.857   5.004
57089SOL    HW171293   9.665   9.798   5.076
57089SOL    HW271294   9.667   9.831   4.916
57090SOL     OW71295  10.122  10.896   4.411
57090SOL    HW171296  10.154  10.906   4.317
57090SOL    HW271297  10.043  10.834   4.413
57091SOL     OW71298  10.734   9.524   4.836
57091SOL    HW171299  10.786   9.459   4.891
57091SOL    HW271300  10.685   9.587   4.897
57092SOL     OW71301  10.311   9.344   4.878
57092SOL    HW171302  10.248   9.272   4.847
57092SOL    HW271303  10.404   9.308   4.878
57093SOL     OW71304  10.080  10.640   4.025
57093SOL    HW171305  10.034  10.553   4.042
57093SOL    HW271306  10.171  10.637   4.066
57094SOL     OW71307   9.928  10.877   5.008
57094SOL    HW171308   9.923  10.959   5.065
57094SOL    HW271309  10.017  10.874   4.963
57095SOL     OW71310  10.662   9.362   3.892
57095SOL    HW171311  10.697   9.321   3.808
57095SOL    HW271312  10.572   9.324   3.912
57096SOL     OW71313  10.610   9.763   4.415
57096SOL    HW171314  10.551   9.843   4.419
57096SOL    HW271315  10.625   9.728   4.508
57097SOL     OW71316  10.903   9.531   4.606
57097SOL    HW171317  10.819   9.530   4.660
57097SOL    HW271318  10.905   9.614   4.550
57098SOL     OW71319   9.349  10.387   4.024
57098SOL    HW171320   9.448  10.376   4.015
57098SOL    HW271321   9.309  10.301   4.056
57099SOL     OW71322  10.185  10.956   4.061
57099SOL    HW171323  10.108  10.921   4.007
57099SOL    HW271324  10.153  11.027   4.123
57100SOL     OW71325   9.540   9.938   5.699
57100SOL    HW171326   9.447   9.936   5.736
57100SOL    HW271327   9.541   9.899   5.607
57101SOL     OW71328   9.535   9.585   6.582
57101SOL    HW171329   9.570   9.568   6.674
57101SOL    HW271330   9.447   9.540   6.570
57102SOL     OW71331   9.329   9.678   6.233
57102SOL    HW171332   9.247   9.721   6.272
57102SOL    HW271333   9.301   9.605   6.170
57103SOL     OW71334   9.879  10.585   6.751
57103SOL    HW171335   9.786  10.578   6.714
57103SOL    HW271336   9.890  10.674   6.795
57104SOL     OW71337  10.865  10.821   6.289
57104SOL    HW171338  10.808  10.805   6.370
57104SOL    HW271339  10.806  10.831   6.209
57105SOL     OW71340  10.445  10.013   6.303
57105SOL    HW171341  10.502  10.091   6.278
57105SOL    HW271342  10.385  10.039   6.379
57106SOL     OW71343  11.065   9.917   5.817
57106SOL    HW171344  11.053   9.904   5.718
57106SOL    HW271345  11.035   9.836   5.866
57107SOL     OW71346  10.078  10.454   6.609
57107SOL    HW171347  10.000  10.471   6.669
57107SOL    HW271348  10.112  10.541   6.573
57108SOL     OW71349  10.160  10.108   7.409
57108SOL    HW171350  10.156  10.184   7.474
57108SOL    HW271351  10.182  10.144   7.318
57109SOL     OW71352   9.995  10.322   6.251
57109SOL    HW171353  10.064  10.306   6.321
57109SOL    HW271354   9.922  10.379   6.289
57110SOL     OW71355   9.996  10.471   7.389
57110SOL    HW171356  10.056  10.550   7.403
57110SOL    HW271357   9.910  10.502   7.348
57111SOL     OW71358   9.645  10.745   6.647
57111SOL    HW171359   9.567  10.714   6.594
57111SOL    HW271360   9.703  10.803   6.590
57112SOL     OW71361  10.770  10.815   6.925
57112SOL    HW171362  10.794  10.909   6.951
57112SOL    HW271363  10.754  10.761   7.007
57113SOL     OW71364   9.748   9.702   7.085
57113SOL    HW171365   9.830   9.646   7.094
57113SOL    HW271366   9.667   9.644   7.089
57114SOL     OW71367  10.913   9.757   6.323
57114SOL    HW171368  10.839   9.803   6.273
57114SOL    HW271369  10.964   9.825   6.376
57115SOL     OW71370   9.541  11.023   6.069
57115SOL    HW171371   9.575  11.100   6.123
57115SOL    HW271372   9.585  11.023   5.979
57116SOL     OW71373  10.437  10.651   7.276
57116SOL    HW171374  10.484  10.651   7.364
57116SOL    HW271375  10.389  10.564   7.265
57117SOL     OW71376   9.540  10.744   6.124
57117SOL    HW171377   9.514  10.840   6.124
57117SOL    HW271378   9.469  10.690   6.169
57118SOL     OW71379   9.550  10.401   6.472
57118SOL    HW171380   9.564  10.317   6.524
57118SOL    HW271381   9.495  10.465   6.527
57119SOL     OW71382   9.930  11.096   7.025
57119SOL    HW171383   9.838  11.079   7.060
57119SOL    HW271384   9.958  11.188   7.051
57120SOL     OW71385   9.916  10.274   5.709
57120SOL    HW171386   9.923  10.358   5.655
57120SOL    HW271387   9.962  10.287   5.797
57121SOL     OW71388  10.904   9.424   7.066
57121SOL    HW171389  10.886   9.491   6.994
57121SOL    HW271390  10.901   9.470   7.155
57122SOL     OW71391   9.432   9.953   6.149
57122SOL    HW171392   9.387   9.865   6.166
57122SOL    HW271393   9.431  10.007   6.233
57123SOL     OW71394  11.152  11.077   5.945
57123SOL    HW171395  11.206  11.048   6.025
57123SOL    HW271396  11.182  11.167   5.916
57124SOL     OW71397   9.337  10.906   5.703
57124SOL    HW171398   9.318  10.810   5.724
57124SOL    HW271399   9.304  10.964   5.778
57125SOL     OW71400  10.999  10.232   6.198
57125SOL    HW171401  11.094  10.203   6.206
57125SOL    HW271402  10.991  10.297   6.123
57126SOL     OW71403  10.951  10.418   6.018
57126SOL    HW171404  11.037  10.420   5.966
57126SOL    HW271405  10.965  10.465   6.106
57127SOL     OW71406   9.423  10.047   7.183
57127SOL    HW171407   9.511  10.034   7.228
57127SOL    HW271408   9.410  10.144   7.161
57128SOL     OW71409   9.923  10.675   6.312
57128SOL    HW171410   9.874  10.588   6.321
57128SOL    HW271411   9.900  10.718   6.225
57129SOL     OW71412  10.603  10.538   7.009
57129SOL    HW171413  10.640  10.465   6.951
57129SOL    HW271414  10.655  10.543   7.094
57130SOL     OW71415  10.119   9.314   6.088
57130SOL    HW171416  10.159   9.405   6.079
57130SOL    HW271417  10.019   9.322   6.094
57131SOL     OW71418   9.507  10.286   6.850
57131SOL    HW171419   9.596  10.241   6.836
57131SOL    HW271420   9.434  10.221   6.831
57132SOL     OW71421  10.835  10.309   5.776
57132SOL    HW171422  10.772  10.233   5.789
57132SOL    HW271423  10.883  10.327   5.862
57133SOL     OW71424  10.497  11.102   7.202
57133SOL    HW171425  10.521  11.162   7.126
57133SOL    HW271426  10.504  11.007   7.172
57134SOL     OW71427   9.627   9.561   7.387
57134SOL    HW171428   9.698   9.632   7.393
57134SOL    HW271429   9.539   9.600   7.415
57135SOL     OW71430  10.776  10.727   6.539
57135SOL    HW171431  10.717  10.733   6.619
57135SOL    HW271432  10.761  10.639   6.493
57136SOL     OW71433  10.977  11.024   6.158
57136SOL    HW171434  10.936  11.001   6.070
57136SOL    HW271435  10.959  10.950   6.223
57137SOL     OW71436   9.908  10.039   5.856
57137SOL    HW171437   9.932  10.108   5.788
57137SOL    HW271438   9.830  10.072   5.910
57138SOL     OW71439  10.591   9.655   6.530
57138SOL    HW171440  10.505   9.605   6.517
57138SOL    HW271441  10.653   9.601   6.586
57139SOL     OW71442  10.886  10.972   5.893
57139SOL    HW171443  10.975  11.018   5.896
57139SOL    HW271444  10.865  10.948   5.798
57140SOL     OW71445  10.117   9.915   7.051
57140SOL    HW171446  10.070   9.912   7.140
57140SOL    HW271447  10.066   9.860   6.985
57141SOL     OW71448  10.704   9.779   7.260
57141SOL    HW171449  10.684   9.822   7.348
57141SOL    HW271450  10.782   9.717   7.269
57142SOL     OW71451  10.283  10.200   7.158
57142SOL    HW171452  10.329  10.116   7.129
57142SOL    HW271453  10.227  10.234   7.083
57143SOL     OW71454  10.301   9.720   6.828
57143SOL    HW171455  10.224   9.754   6.882
57143SOL    HW271456  10.267   9.669   6.749
57144SOL     OW71457  10.351  10.011   6.015
57144SOL    HW171458  10.377  10.007   6.111
57144SOL    HW271459  10.266   9.960   6.001
57145SOL     OW71460   9.386  10.121   6.375
57145SOL    HW171461   9.485  10.109   6.384
57145SOL    HW271462   9.362  10.216   6.396
57146SOL     OW71463   9.440  11.131   7.157
57146SOL    HW171464   9.430  11.116   7.256
57146SOL    HW271465   9.354  11.167   7.121
57147SOL     OW71466  10.175   9.658   5.781
57147SOL    HW171467  10.234   9.721   5.732
57147SOL    HW271468  10.194   9.564   5.752
57148SOL     OW71469  11.029   9.895   7.417
57148SOL    HW171470  11.003   9.984   7.381
57148SOL    HW271471  11.027   9.827   7.344
57149SOL     OW71472  10.672  10.454   6.131
57149SOL    HW171473  10.755  10.425   6.083
57149SOL    HW271474  10.623  10.521   6.075
57150SOL     OW71475   9.860   9.506   6.471
57150SOL    HW171476   9.855   9.501   6.571
57150SOL    HW271477   9.862   9.602   6.442
57151SOL     OW71478  10.318  10.766   6.063
57151SOL    HW171479  10.272  10.838   6.011
57151SOL    HW271480  10.314  10.786   6.161
57152SOL     OW71481   9.661  11.111   6.439
57152SOL    HW171482   9.711  11.025   6.445
57152SOL    HW271483   9.726  11.188   6.436
57153SOL     OW71484  11.105  10.376   6.459
57153SOL    HW171485  11.043  10.361   6.383
57153SOL    HW271486  11.053  10.387   6.544
57154SOL     OW71487  10.537  10.860   7.092
57154SOL    HW171488  10.543  10.783   7.156
57154SOL    HW271489  10.485  10.834   7.012
57155SOL     OW71490   9.631  10.253   5.828
57155SOL    HW171491   9.713  10.292   5.786
57155SOL    HW271492   9.604  10.171   5.779
57156SOL     OW71493  10.768  10.045   6.314
57156SOL    HW171494  10.763   9.980   6.389
57156SOL    HW271495  10.848  10.104   6.327
57157SOL     OW71496   9.771  10.576   7.313
57157SOL    HW171497   9.721  10.577   7.227
57157SOL    HW271498   9.708  10.558   7.389
57158SOL     OW71499  10.421  11.086   5.823
57158SOL    HW171500  10.361  11.024   5.873
57158SOL    HW271501  10.452  11.042   5.738
57159SOL     OW71502   9.512   9.595   7.084
57159SOL    HW171503   9.432   9.655   7.071
57159SOL    HW271504   9.502   9.546   7.170
57160SOL     OW71505  10.942  10.687   5.667
57160SOL    HW171506  10.910  10.781   5.657
57160SOL    HW271507  10.866  10.624   5.655
57161SOL     OW71508   9.774  11.053   5.909
57161SOL    HW171509   9.807  11.092   5.995
57161SOL    HW271510   9.850  11.046   5.844
57162SOL     OW71511  10.710   9.417   6.012
57162SOL    HW171512  10.686   9.380   5.922
57162SOL    HW271513  10.809   9.433   6.016
57163SOL     OW71514   9.559  11.095   6.827
57163SOL    HW171515   9.616  11.030   6.877
57163SOL    HW271516   9.543  11.062   6.734
57164SOL     OW71517  10.250  11.008   6.490
57164SOL    HW171518  10.330  10.951   6.511
57164SOL    HW271519  10.201  10.968   6.413
57165SOL     OW71520   9.692  10.010   6.066
57165SOL    HW171521   9.737   9.920   6.063
57165SOL    HW271522   9.598   9.999   6.099
57166SOL     OW71523  10.857   9.532   7.315
57166SOL    HW171524  10.852   9.569   7.407
57166SOL    HW271525  10.785   9.463   7.303
57167SOL     OW71526   9.924   9.432   5.703
57167SOL    HW171527  10.022   9.410   5.710
57167SOL    HW271528   9.893   9.415   5.610
57168SOL     OW71529  10.091   9.574   7.335
57168SOL    HW171530  10.158   9.513   7.378
57168SOL    HW271531  10.018   9.593   7.400
57169SOL     OW71532  10.198  10.824   6.781
57169SOL    HW171533  10.175  10.799   6.687
57169SOL    HW271534  10.259  10.755   6.820
57170SOL     OW71535  10.661   9.900   7.019
57170SOL    HW171536  10.689   9.857   7.104
57170SOL    HW271537  10.686   9.996   7.020
57171SOL     OW71538  10.113  10.712   6.510
57171SOL    HW171539  10.203  10.726   6.468
57171SOL    HW271540  10.042  10.714   6.439
57172SOL     OW71541  10.232   9.813   6.485
57172SOL    HW171542  10.207   9.804   6.389
57172SOL    HW271543  10.280   9.731   6.516
57173SOL     OW71544   9.849   9.374   6.098
57173SOL    HW171545   9.768   9.375   6.156
57173SOL    HW271546   9.852   9.457   6.043
57174SOL     OW71547  10.744  10.498   5.627
57174SOL    HW171548  10.776  10.422   5.684
57174SOL    HW271549  10.652  10.525   5.657
57175SOL     OW71550   9.607   9.345   5.757
57175SOL    HW171551   9.656   9.429   5.736
57175SOL    HW271552   9.669   9.280   5.802
57176SOL     OW71553  10.245   9.546   6.066
57176SOL    HW171554  10.197   9.587   5.988
57176SOL    HW271555  10.344   9.544   6.047
57177SOL     OW71556  10.386   9.993   7.050
57177SOL    HW171557  10.306   9.932   7.053
57177SOL    HW271558  10.467   9.940   7.026
57178SOL     OW71559  10.537  10.880   6.379
57178SOL    HW171560  10.558  10.954   6.314
57178SOL    HW271561  10.605  10.880   6.452
57179SOL     OW71562   9.769  10.462   6.327
57179SOL    HW171563   9.698  10.435   6.392
57179SOL    HW271564   9.743  10.434   6.234
57180SOL     OW71565  10.581  11.107   6.177
57180SOL    HW171566  10.625  11.171   6.113
57180SOL    HW271567  10.531  11.159   6.247
57181SOL     OW71568  10.342   9.859   5.602
57181SOL    HW171569  10.301   9.941   5.563
57181SOL    HW271570  10.406   9.885   5.675
57182SOL     OW71571   9.388   9.866   6.972
57182SOL    HW171572   9.480   9.865   6.931
57182SOL    HW271573   9.382   9.940   7.039
57183SOL     OW71574   9.871   9.532   6.733
57183SOL    HW171575   9.909   9.448   6.770
57183SOL    HW271576   9.783   9.551   6.777
57184SOL     OW71577  10.176   9.764   6.228
57184SOL    HW171578  10.144   9.836   6.166
57184SOL    HW271579  10.200   9.683   6.175
57185SOL     OW71580  10.327   9.349   6.339
57185SOL    HW171581  10.255   9.354   6.270
57185SOL    HW271582  10.303   9.280   6.408
57186SOL     OW71583  10.739  10.483   6.453
57186SOL    HW171584  10.684  10.399   6.446
57186SOL    HW271585  10.765  10.512   6.361
57187SOL     OW71586  10.776   9.900   6.578
57187SOL    HW171587  10.746   9.805   6.585
57187SOL    HW271588  10.849   9.916   6.644
57188SOL     OW71589  11.167  10.143   5.963
57188SOL    HW171590  11.209  10.079   6.027
57188SOL    HW271591  11.129  10.092   5.885
57189SOL     OW71592   9.798  10.695   5.760
57189SOL    HW171593   9.711  10.680   5.807
57189SOL    HW271594   9.781  10.721   5.665
57190SOL     OW71595  10.974  10.590   6.243
57190SOL    HW171596  11.073  10.598   6.257
57190SOL    HW271597  10.929  10.674   6.274
57191SOL     OW71598  10.700   9.885   5.664
57191SOL    HW171599  10.646   9.864   5.745
57191SOL    HW271600  10.791   9.844   5.673
57192SOL     OW71601   9.837   9.566   5.914
57192SOL    HW171602   9.864   9.507   5.839
57192SOL    HW271603   9.837   9.661   5.883
57193SOL     OW71604  11.064  10.533   7.174
57193SOL    HW171605  11.155  10.494   7.161
57193SOL    HW271606  11.072  10.629   7.198
57194SOL     OW71607  10.374  10.657   6.926
57194SOL    HW171608  10.294  10.634   6.981
57194SOL    HW271609  10.457  10.631   6.975
57195SOL     OW71610  10.902  10.939   7.211
57195SOL    HW171611  10.929  10.973   7.121
57195SOL    HW271612  10.981  10.901   7.257
57196SOL     OW71613  10.421  10.505   6.686
57196SOL    HW171614  10.381  10.549   6.767
57196SOL    HW271615  10.380  10.542   6.603
57197SOL     OW71616  10.948  10.409   6.665
57197SOL    HW171617  10.953  10.490   6.724
57197SOL    HW271618  10.862  10.411   6.614
57198SOL     OW71619  10.225   9.399   6.988
57198SOL    HW171620  10.250   9.379   6.893
57198SOL    HW271621  10.297   9.455   7.030
57199SOL     OW71622  10.290  10.426   7.305
57199SOL    HW171623  10.191  10.432   7.315
57199SOL    HW271624  10.313  10.346   7.249
57200SOL     OW71625  10.015  10.360   5.954
57200SOL    HW171626  10.001  10.367   6.053
57200SOL    HW271627  10.099  10.309   5.936
57201SOL     OW71628   9.720  10.123   6.837
57201SOL    HW171629   9.806  10.135   6.887
57201SOL    HW271630   9.678  10.036   6.864
57202SOL     OW71631  10.584   9.696   6.848
57202SOL    HW171632  10.605   9.770   6.912
57202SOL    HW271633  10.495   9.713   6.805
57203SOL     OW71634   9.374  10.874   6.917
57203SOL    HW171635   9.328  10.956   6.883
57203SOL    HW271636   9.472  10.893   6.926
57204SOL     OW71637   9.677  10.410   6.087
57204SOL    HW171638   9.670  10.493   6.031
57204SOL    HW271639   9.681  10.330   6.027
57205SOL     OW71640   9.876   9.847   6.451
57205SOL    HW171641   9.888   9.913   6.377
57205SOL    HW271642   9.922   9.881   6.534
57206SOL     OW71643  10.562  10.658   5.974
57206SOL    HW171644  10.612  10.735   6.014
57206SOL    HW271645  10.467  10.660   6.006
57207SOL     OW71646  10.582  10.755   6.728
57207SOL    HW171647  10.629  10.768   6.815
57207SOL    HW271648  10.516  10.681   6.737
57208SOL     OW71649  10.892   9.949   6.058
57208SOL    HW171650  10.861  10.010   6.131
57208SOL    HW271651  10.942  10.001   5.989
57209SOL     OW71652   9.664  10.820   6.915
57209SOL    HW171653   9.643  10.776   6.828
57209SOL    HW271654   9.761  10.846   6.918
57210SOL     OW71655   9.712  10.061   7.184
57210SOL    HW171656   9.780  10.116   7.137
57210SOL    HW271657   9.752   9.973   7.211
57211SOL     OW71658  10.897  10.089   7.256
57211SOL    HW171659  10.805  10.127   7.251
57211SOL    HW271660  10.957  10.136   7.191
57212SOL     OW71661  10.323   9.415   7.356
57212SOL    HW171662  10.329   9.500   7.304
57212SOL    HW271663  10.355   9.339   7.299
57213SOL     OW71664   9.814   9.360   7.326
57213SOL    HW171665   9.772   9.303   7.256
57213SOL    HW271666   9.748   9.429   7.358
57214SOL     OW71667   9.883  10.180   6.615
57214SOL    HW171668   9.927  10.269   6.606
57214SOL    HW271669   9.820  10.180   6.692
57215SOL     OW71670  10.670  10.172   6.631
57215SOL    HW171671  10.595  10.172   6.565
57215SOL    HW271672  10.707  10.080   6.640
57216SOL     OW71673  10.519   9.835   5.861
57216SOL    HW171674  10.532   9.751   5.915
57216SOL    HW271675  10.490   9.909   5.921
57217SOL     OW71676   9.617   9.523   6.817
57217SOL    HW171677   9.594   9.560   6.907
57217SOL    HW271678   9.587   9.428   6.811
57218SOL     OW71679   9.347  10.620   6.868
57218SOL    HW171680   9.400  10.571   6.936
57218SOL    HW271681   9.369  10.718   6.873
57219SOL     OW71682  10.042   9.944   6.650
57219SOL    HW171683  10.101   9.918   6.574
57219SOL    HW271684  10.014  10.040   6.639
57220SOL     OW71685  11.038  10.245   7.440
57220SOL    HW171686  10.992  10.238   7.351
57220SOL    HW271687  10.976  10.289   7.506
57221SOL     OW71688   9.617   9.373   6.204
57221SOL    HW171689   9.606   9.467   6.237
57221SOL    HW271690   9.612   9.310   6.281
57222SOL     OW71691  10.932   9.677   5.960
57222SOL    HW171692  10.934   9.601   6.024
57222SOL    HW271693  10.884   9.754   6.000
57223SOL     OW71694  10.333  10.076   6.552
57223SOL    HW171695  10.348  10.097   6.648
57223SOL    HW271696  10.303   9.981   6.543
57224SOL     OW71697  10.290  10.883   7.286
57224SOL    HW171698  10.270  10.927   7.198
57224SOL    HW271699  10.329  10.792   7.270
57225SOL     OW71700  11.169  10.828   7.191
57225SOL    HW171701  11.183  10.855   7.096
57225SOL    HW271702  11.252  10.850   7.244
57226SOL     OW71703   9.660  10.208   7.390
57226SOL    HW171704   9.736  10.252   7.438
57226SOL    HW271705   9.695  10.161   7.308
57227SOL     OW71706  10.850   9.584   5.711
57227SOL    HW171707  10.789   9.509   5.734
57227SOL    HW271708  10.872   9.636   5.794
57228SOL     OW71709  10.613  10.148   5.628
57228SOL    HW171710  10.647  10.055   5.643
57228SOL    HW271711  10.631  10.175   5.533
57229SOL     OW71712  10.378  10.643   6.435
57229SOL    HW171713  10.385  10.559   6.380
57229SOL    HW271714  10.440  10.712   6.399
57230SOL     OW71715   9.629  10.120   6.535
57230SOL    HW171716   9.722  10.156   6.540
57230SOL    HW271717   9.623  10.035   6.587
57231SOL     OW71718   9.649   9.819   6.592
57231SOL    HW171719   9.597   9.736   6.575
57231SOL    HW271720   9.726   9.824   6.528
57232SOL     OW71721  10.448   9.690   7.264
57232SOL    HW171722  10.403   9.753   7.328
57232SOL    HW271723  10.541   9.721   7.247
57233SOL     OW71724  10.470   9.517   7.063
57233SOL    HW171725  10.470   9.581   7.140
57233SOL    HW271726  10.498   9.565   6.980
57234SOL     OW71727   9.318  10.636   5.786
57234SOL    HW171728   9.225  10.657   5.755
57234SOL    HW271729   9.328  10.537   5.799
57235SOL     OW71730   9.398  11.111   6.513
57235SOL    HW171731   9.356  11.025   6.486
57235SOL    HW271732   9.492  11.114   6.479
57236SOL     OW71733   9.814  10.878   6.496
57236SOL    HW171734   9.880  10.952   6.505
57236SOL    HW271735   9.858  10.799   6.454
57237SOL     OW71736  10.312  10.106   6.824
57237SOL    HW171737  10.353  10.074   6.910
57237SOL    HW271738  10.216  10.079   6.821
57238SOL     OW71739   9.350   9.854   6.700
57238SOL    HW171740   9.435   9.821   6.659
57238SOL    HW271741   9.363   9.869   6.798
57239SOL     OW71742   9.499   9.830   7.308
57239SOL    HW171743   9.558   9.790   7.238
57239SOL    HW271744   9.441   9.901   7.267
57240SOL     OW71745  10.679  10.260   7.246
57240SOL    HW171746  10.718  10.349   7.266
57240SOL    HW271747  10.689  10.240   7.149
57241SOL     OW71748  10.125   9.882   5.911
57241SOL    HW171749  10.132   9.793   5.865
57241SOL    HW271750  10.031   9.916   5.903
57242SOL     OW71751  10.967   9.914   6.792
57242SOL    HW171752  10.929   9.845   6.854
57242SOL    HW271753  11.049   9.878   6.748
57243SOL     OW71754   9.562  10.874   7.330
57243SOL    HW171755   9.532  10.931   7.406
57243SOL    HW271756   9.555  10.777   7.356
57244SOL     OW71757   9.981   9.774   6.855
57244SOL    HW171758   9.947   9.685   6.825
57244SOL    HW271759  10.007   9.828   6.775
57245SOL     OW71760  10.240  10.988   7.051
57245SOL    HW171761  10.216  10.970   6.956
57245SOL    HW271762  10.270  11.082   7.061
57246SOL     OW71763   9.783   9.810   5.777
57246SOL    HW171764   9.844   9.890   5.781
57246SOL    HW271765   9.688   9.841   5.784
57247SOL     OW71766   9.469  10.447   7.052
57247SOL    HW171767   9.491  10.386   7.128
57247SOL    HW271768   9.479  10.398   6.966
57248SOL     OW71769  10.657  10.369   6.820
57248SOL    HW171770  10.681  10.306   6.746
57248SOL    HW271771  10.567  10.409   6.802
57249SOL     OW71772  10.612  10.165   5.895
57249SOL    HW171773  10.526  10.134   5.937
57249SOL    HW271774  10.608  10.151   5.796
57250SOL     OW71775  11.069  11.057   6.740
57250SOL    HW171776  11.130  11.087   6.667
57250SOL    HW271777  11.031  10.968   6.718
57251SOL     OW71778  10.562  11.041   6.714
57251SOL    HW171779  10.646  11.046   6.660
57251SOL    HW271780  10.539  10.945   6.732
57252SOL     OW71781   9.393  10.568   6.608
57252SOL    HW171782   9.388  10.567   6.708
57252SOL    HW271783   9.310  10.527   6.570
57253SOL     OW71784   9.998  10.972   7.302
57253SOL    HW171785   9.942  11.053   7.311
57253SOL    HW271786  10.050  10.976   7.216
57254SOL     OW71787  11.036   9.445   6.109
57254SOL    HW171788  11.109   9.428   6.042
57254SOL    HW271789  11.005   9.358   6.147
57255SOL     OW71790  10.698  10.883   6.063
57255SOL    HW171791  10.765  10.895   5.989
57255SOL    HW271792  10.658  10.972   6.086
57256SOL     OW71793   9.440  11.104   7.437
57256SOL    HW171794   9.399  11.030   7.490
57256SOL    HW271795   9.504  11.155   7.495
57257SOL     OW71796  10.590  10.237   6.258
57257SOL    HW171797  10.650  10.156   6.260
57257SOL    HW271798  10.630  10.306   6.198
57258SOL     OW71799  10.140  10.583   7.008
57258SOL    HW171800  10.135  10.616   7.103
57258SOL    HW271801  10.054  10.602   6.962
57259SOL     OW71802   9.982  10.926   5.740
57259SOL    HW171803   9.991  10.936   5.641
57259SOL    HW271804   9.942  10.837   5.761
57260SOL     OW71805  10.960  11.030   6.980
57260SOL    HW171806  11.013  11.040   6.896
57260SOL    HW271807  10.933  11.120   7.014
57261SOL     OW71808  11.151   9.485   6.549
57261SOL    HW171809  11.190   9.400   6.513
57261SOL    HW271810  11.053   9.487   6.530
57262SOL     OW71811   9.573   9.636   6.306
57262SOL    HW171812   9.494   9.687   6.272
57262SOL    HW271813   9.564   9.621   6.404
57263SOL     OW71814  10.504  10.922   5.617
57263SOL    HW171815  10.510  10.829   5.654
57263SOL    HW271816  10.445  10.922   5.537
57264SOL     OW71817  10.132  10.312   6.958
57264SOL    HW171818  10.172  10.311   6.866
57264SOL    HW271819  10.142  10.404   6.998
57265SOL     OW71820  10.226  10.220   5.877
57265SOL    HW171821  10.289  10.258   5.809
57265SOL    HW271822  10.266  10.137   5.916
57266SOL     OW71823  10.814  10.917   5.630
57266SOL    HW171824  10.722  10.954   5.637
57266SOL    HW271825  10.852  10.937   5.540
57267SOL     OW71826   9.682  10.598   7.076
57267SOL    HW171827   9.669  10.691   7.042
57267SOL    HW271828   9.598  10.546   7.063
57268SOL     OW71829  10.924  10.602   6.875
57268SOL    HW171830  10.984  10.605   6.955
57268SOL    HW271831  10.849  10.666   6.888
57269SOL     OW71832  10.349  10.408   6.282
57269SOL    HW171833  10.279  10.361   6.336
57269SOL    HW271834  10.408  10.340   6.239
57270SOL     OW71835  10.324   9.546   6.557
57270SOL    HW171836  10.316   9.510   6.464
57270SOL    HW271837  10.322   9.470   6.622
57271SOL     OW71838   9.900  10.797   6.077
57271SOL    HW171839   9.942  10.739   6.007
57271SOL    HW271840   9.856  10.876   6.033
57272SOL     OW71841  11.019   9.695   6.967
57272SOL    HW171842  11.092   9.764   6.971
57272SOL    HW271843  11.047   9.620   6.908
57273SOL     OW71844   9.565  10.658   5.876
57273SOL    HW171845   9.469  10.659   5.849
57273SOL    HW271846   9.577  10.711   5.960
57274SOL     OW71847   9.415  10.323   7.312
57274SOL    HW171848   9.338  10.290   7.366
57274SOL    HW271849   9.500  10.293   7.354
57275SOL     OW71850   9.982   9.513   7.075
57275SOL    HW171851  10.072   9.497   7.035
57275SOL    HW271852   9.990   9.518   7.174
57276SOL     OW71853   9.385   9.655   5.619
57276SOL    HW171854   9.293   9.627   5.590
57276SOL    HW271855   9.416   9.732   5.563
57277SOL     OW71856  10.750  10.166   6.984
57277SOL    HW171857  10.693  10.218   6.921
57277SOL    HW271858  10.846  10.178   6.960
57278SOL     OW71859   9.382   9.476   5.904
57278SOL    HW171860   9.365   9.559   5.850
57278SOL    HW271861   9.472   9.439   5.882
57279SOL     OW71862  10.493  10.645   5.705
57279SOL    HW171863  10.394  10.634   5.707
57279SOL    HW271864  10.527  10.660   5.798
57280SOL     OW71865   9.923  10.152   7.017
57280SOL    HW171866   9.979  10.233   7.000
57280SOL    HW271867   9.982  10.072   7.020
57281SOL     OW71868  10.803  11.077   6.545
57281SOL    HW171869  10.836  11.141   6.476
57281SOL    HW271870  10.869  11.071   6.620
57282SOL     OW71871  10.026   9.875   7.294
57282SOL    HW171872  10.045   9.940   7.368
57282SOL    HW271873  10.086   9.795   7.303
57283SOL     OW71874  10.760  10.530   7.219
57283SOL    HW171875  10.751  10.520   7.318
57283SOL    HW271876  10.856  10.523   7.193
57284SOL     OW71877   9.700  11.051   7.146
57284SOL    HW171878   9.609  11.092   7.144
57284SOL    HW271879   9.693  10.957   7.178
57285SOL     OW71880  10.984  10.193   6.840
57285SOL    HW171881  10.957  10.104   6.803
57285SOL    HW271882  10.985  10.261   6.767
57286SOL     OW71883  10.535   9.635   6.035
57286SOL    HW171884  10.600   9.561   6.024
57286SOL    HW271885  10.555   9.685   6.119
57287SOL     OW71886   9.904  10.055   6.238
57287SOL    HW171887   9.954  10.140   6.219
57287SOL    HW271888   9.816  10.057   6.190
57288SOL     OW71889  11.087   9.652   7.228
57288SOL    HW171890  11.070   9.683   7.134
57288SOL    HW271891  11.003   9.615   7.266
57289SOL     OW71892  11.040  10.244   7.103
57289SOL    HW171893  11.078  10.335   7.118
57289SOL    HW271894  11.032  10.227   7.004
57290SOL     OW71895  10.169  10.684   5.602
57290SOL    HW171896  10.123  10.699   5.690
57290SOL    HW271897  10.213  10.769   5.572
57291SOL     OW71898   9.971  11.100   6.539
57291SOL    HW171899   9.925  11.188   6.526
57291SOL    HW271900  10.070  11.112   6.532
57292SOL     OW71901  10.169  10.266   6.447
57292SOL    HW171902  10.223  10.197   6.495
57292SOL    HW271903  10.137  10.335   6.513
57293SOL     OW71904  10.393  10.294   5.673
57293SOL    HW171905  10.370  10.347   5.591
57293SOL    HW271906  10.474  10.238   5.654
57294SOL     OW71907  11.171  10.879   6.437
57294SOL    HW171908  11.100  10.867   6.367
57294SOL    HW271909  11.172  10.800   6.497
57295SOL     OW71910   9.531  10.624   7.430
57295SOL    HW171911   9.466  10.551   7.409
57295SOL    HW271912   9.535  10.638   7.528
57296SOL     OW71913   9.389  10.550   6.239
57296SOL    HW171914   9.388  10.503   6.327
57296SOL    HW271915   9.471  10.522   6.188
57297SOL     OW71916   9.982  10.701   7.210
57297SOL    HW171917   9.904  10.651   7.248
57297SOL    HW271918   9.979  10.796   7.241
57298SOL     OW71919  11.134   9.502   6.813
57298SOL    HW171920  11.130   9.412   6.857
57298SOL    HW271921  11.137   9.491   6.714
57299SOL     OW71922   9.738   9.734   6.106
57299SOL    HW171923   9.768   9.662   6.044
57299SOL    HW271924   9.699   9.694   6.189
57300SOL     OW71925  11.015  10.797   6.690
57300SOL    HW171926  10.922  10.772   6.663
57300SOL    HW271927  11.041  10.747   6.772
57301SOL     OW71928   9.627   9.857   6.866
57301SOL    HW171929   9.665   9.798   6.938
57301SOL    HW271930   9.667   9.831   6.778
57302SOL     OW71931  10.122  10.896   6.273
57302SOL    HW171932  10.154  10.906   6.179
57302SOL    HW271933  10.043  10.834   6.275
57303SOL     OW71934  10.734   9.524   6.698
57303SOL    HW171935  10.786   9.459   6.753
57303SOL    HW271936  10.685   9.587   6.759
57304SOL     OW71937  10.311   9.344   6.740
57304SOL    HW171938  10.248   9.272   6.709
57304SOL    HW271939  10.404   9.308   6.740
57305SOL     OW71940  10.080  10.640   5.887
57305SOL    HW171941  10.034  10.553   5.904
57305SOL    HW271942  10.171  10.637   5.928
57306SOL     OW71943   9.928  10.877   6.870
57306SOL    HW171944   9.923  10.959   6.927
57306SOL    HW271945  10.017  10.874   6.825
57307SOL     OW71946  10.662   9.362   5.754
57307SOL    HW171947  10.697   9.321   5.670
57307SOL    HW271948  10.572   9.324   5.774
57308SOL     OW71949  10.610   9.763   6.277
57308SOL    HW171950  10.551   9.843   6.281
57308SOL    HW271951  10.625   9.728   6.370
57309SOL     OW71952  10.903   9.531   6.468
57309SOL    HW171953  10.819   9.530   6.522
57309SOL    HW271954  10.905   9.614   6.412
57310SOL     OW71955   9.349  10.387   5.886
57310SOL    HW171956   9.448  10.376   5.877
57310SOL    HW271957   9.309  10.301   5.918
57311SOL     OW71958  10.185  10.956   5.923
57311SOL    HW171959  10.108  10.921   5.869
57311SOL    HW271960  10.153  11.027   5.985
57312SOL     OW71961   9.540   9.938   7.561
57312SOL    HW171962   9.447   9.936   7.598
57312SOL    HW271963   9.541   9.899   7.469
57313SOL     OW71964   9.535   9.585   8.444
57313SOL    HW171965   9.570   9.568   8.536
57313SOL    HW271966   9.447   9.540   8.432
57314SOL     OW71967   9.329   9.678   8.095
57314SOL    HW171968   9.247   9.721   8.134
57314SOL    HW271969   9.301   9.605   8.032
57315SOL     OW71970   9.879  10.585   8.613
57315SOL    HW171971   9.786  10.578   8.576
57315SOL    HW271972   9.890  10.674   8.657
57316SOL     OW71973  10.865  10.821   8.151
57316SOL    HW171974  10.808  10.805   8.232
57316SOL    HW271975  10.806  10.831   8.071
57317SOL     OW71976  10.445  10.013   8.165
57317SOL    HW171977  10.502  10.091   8.140
57317SOL    HW271978  10.385  10.039   8.241
57318SOL     OW71979  11.065   9.917   7.679
57318SOL    HW171980  11.053   9.904   7.580
57318SOL    HW271981  11.035   9.836   7.728
57319SOL     OW71982  10.078  10.454   8.471
57319SOL    HW171983  10.000  10.471   8.531
57319SOL    HW271984  10.112  10.541   8.435
57320SOL     OW71985  10.160  10.108   9.271
57320SOL    HW171986  10.156  10.184   9.336
57320SOL    HW271987  10.182  10.144   9.180
57321SOL     OW71988   9.995  10.322   8.113
57321SOL    HW171989  10.064  10.306   8.183
57321SOL    HW271990   9.922  10.379   8.151
57322SOL     OW71991   9.996  10.471   9.251
57322SOL    HW171992  10.056  10.550   9.265
57322SOL    HW271993   9.910  10.502   9.210
57323SOL     OW71994   9.645  10.745   8.509
57323SOL    HW171995   9.567  10.714   8.456
57323SOL    HW271996   9.703  10.803   8.452
57324SOL     OW71997  10.770  10.815   8.787
57324SOL    HW171998  10.794  10.909   8.813
57324SOL    HW271999  10.754  10.761   8.869
57325SOL     OW72000   9.748   9.702   8.947
57325SOL    HW172001   9.830   9.646   8.956
57325SOL    HW272002   9.667   9.644   8.951
57326SOL     OW72003  10.913   9.757   8.185
57326SOL    HW172004  10.839   9.803   8.135
57326SOL    HW272005  10.964   9.825   8.238
57327SOL     OW72006   9.541  11.023   7.931
57327SOL    HW172007   9.575  11.100   7.985
57327SOL    HW272008   9.585  11.023   7.841
57328SOL     OW72009  10.437  10.651   9.138
57328SOL    HW172010  10.484  10.651   9.226
57328SOL    HW272011  10.389  10.564   9.127
57329SOL     OW72012   9.540  10.744   7.986
57329SOL    HW172013   9.514  10.840   7.986
57329SOL    HW272014   9.469  10.690   8.031
57330SOL     OW72015   9.550  10.401   8.334
57330SOL    HW172016   9.564  10.317   8.386
57330SOL    HW272017   9.495  10.465   8.389
57331SOL     OW72018   9.930  11.096   8.887
57331SOL    HW172019   9.838  11.079   8.922
57331SOL    HW272020   9.958  11.188   8.913
57332SOL     OW72021   9.916  10.274   7.571
57332SOL    HW172022   9.923  10.358   7.517
57332SOL    HW272023   9.962  10.287   7.659
57333SOL     OW72024  10.904   9.424   8.928
57333SOL    HW172025  10.886   9.491   8.856
57333SOL    HW272026  10.901   9.470   9.017
57334SOL     OW72027   9.432   9.953   8.011
57334SOL    HW172028   9.387   9.865   8.028
57334SOL    HW272029   9.431  10.007   8.095
57335SOL     OW72030  11.152  11.077   7.807
57335SOL    HW172031  11.206  11.048   7.887
57335SOL    HW272032  11.182  11.167   7.778
57336SOL     OW72033   9.337  10.906   7.565
57336SOL    HW172034   9.318  10.810   7.586
57336SOL    HW272035   9.304  10.964   7.640
57337SOL     OW72036  10.999  10.232   8.060
57337SOL    HW172037  11.094  10.203   8.068
57337SOL    HW272038  10.991  10.297   7.985
57338SOL     OW72039  10.951  10.418   7.880
57338SOL    HW172040  11.037  10.420   7.828
57338SOL    HW272041  10.965  10.465   7.968
57339SOL     OW72042   9.423  10.047   9.045
57339SOL    HW172043   9.511  10.034   9.090
57339SOL    HW272044   9.410  10.144   9.023
57340SOL     OW72045   9.923  10.675   8.174
57340SOL    HW172046   9.874  10.588   8.183
57340SOL    HW272047   9.900  10.718   8.087
57341SOL     OW72048  10.603  10.538   8.871
57341SOL    HW172049  10.640  10.465   8.813
57341SOL    HW272050  10.655  10.543   8.956
57342SOL     OW72051  10.119   9.314   7.950
57342SOL    HW172052  10.159   9.405   7.941
57342SOL    HW272053  10.019   9.322   7.956
57343SOL     OW72054   9.507  10.286   8.712
57343SOL    HW172055   9.596  10.241   8.698
57343SOL    HW272056   9.434  10.221   8.693
57344SOL     OW72057  10.835  10.309   7.638
57344SOL    HW172058  10.772  10.233   7.651
57344SOL    HW272059  10.883  10.327   7.724
57345SOL     OW72060  10.497  11.102   9.064
57345SOL    HW172061  10.521  11.162   8.988
57345SOL    HW272062  10.504  11.007   9.034
57346SOL     OW72063   9.627   9.561   9.249
57346SOL    HW172064   9.698   9.632   9.255
57346SOL    HW272065   9.539   9.600   9.277
57347SOL     OW72066  10.776  10.727   8.401
57347SOL    HW172067  10.717  10.733   8.481
57347SOL    HW272068  10.761  10.639   8.355
57348SOL     OW72069  10.977  11.024   8.020
57348SOL    HW172070  10.936  11.001   7.932
57348SOL    HW272071  10.959  10.950   8.085
57349SOL     OW72072   9.908  10.039   7.718
57349SOL    HW172073   9.932  10.108   7.650
57349SOL    HW272074   9.830  10.072   7.772
57350SOL     OW72075  10.591   9.655   8.392
57350SOL    HW172076  10.505   9.605   8.379
57350SOL    HW272077  10.653   9.601   8.448
57351SOL     OW72078  10.886  10.972   7.755
57351SOL    HW172079  10.975  11.018   7.758
57351SOL    HW272080  10.865  10.948   7.660
57352SOL     OW72081  10.117   9.915   8.913
57352SOL    HW172082  10.070   9.912   9.002
57352SOL    HW272083  10.066   9.860   8.847
57353SOL     OW72084  10.704   9.779   9.122
57353SOL    HW172085  10.684   9.822   9.210
57353SOL    HW272086  10.782   9.717   9.131
57354SOL     OW72087  10.283  10.200   9.020
57354SOL    HW172088  10.329  10.116   8.991
57354SOL    HW272089  10.227  10.234   8.945
57355SOL     OW72090  10.301   9.720   8.690
57355SOL    HW172091  10.224   9.754   8.744
57355SOL    HW272092  10.267   9.669   8.611
57356SOL     OW72093  10.351  10.011   7.877
57356SOL    HW172094  10.377  10.007   7.973
57356SOL    HW272095  10.266   9.960   7.863
57357SOL     OW72096   9.386  10.121   8.237
57357SOL    HW172097   9.485  10.109   8.246
57357SOL    HW272098   9.362  10.216   8.258
57358SOL     OW72099   9.440  11.131   9.019
57358SOL    HW172100   9.430  11.116   9.118
57358SOL    HW272101   9.354  11.167   8.983
57359SOL     OW72102  10.175   9.658   7.643
57359SOL    HW172103  10.234   9.721   7.594
57359SOL    HW272104  10.194   9.564   7.614
57360SOL     OW72105  11.029   9.895   9.279
57360SOL    HW172106  11.003   9.984   9.243
57360SOL    HW272107  11.027   9.827   9.206
57361SOL     OW72108  10.672  10.454   7.993
57361SOL    HW172109  10.755  10.425   7.945
57361SOL    HW272110  10.623  10.521   7.937
57362SOL     OW72111   9.860   9.506   8.333
57362SOL    HW172112   9.855   9.501   8.433
57362SOL    HW272113   9.862   9.602   8.304
57363SOL     OW72114  10.318  10.766   7.925
57363SOL    HW172115  10.272  10.838   7.873
57363SOL    HW272116  10.314  10.786   8.023
57364SOL     OW72117   9.661  11.111   8.301
57364SOL    HW172118   9.711  11.025   8.307
57364SOL    HW272119   9.726  11.188   8.298
57365SOL     OW72120  11.105  10.376   8.321
57365SOL    HW172121  11.043  10.361   8.245
57365SOL    HW272122  11.053  10.387   8.406
57366SOL     OW72123  10.537  10.860   8.954
57366SOL    HW172124  10.543  10.783   9.018
57366SOL    HW272125  10.485  10.834   8.874
57367SOL     OW72126   9.631  10.253   7.690
57367SOL    HW172127   9.713  10.292   7.648
57367SOL    HW272128   9.604  10.171   7.641
57368SOL     OW72129  10.768  10.045   8.176
57368SOL    HW172130  10.763   9.980   8.251
57368SOL    HW272131  10.848  10.104   8.189
57369SOL     OW72132   9.771  10.576   9.175
57369SOL    HW172133   9.721  10.577   9.089
57369SOL    HW272134   9.708  10.558   9.251
57370SOL     OW72135  10.421  11.086   7.685
57370SOL    HW172136  10.361  11.024   7.735
57370SOL    HW272137  10.452  11.042   7.600
57371SOL     OW72138   9.512   9.595   8.946
57371SOL    HW172139   9.432   9.655   8.933
57371SOL    HW272140   9.502   9.546   9.032
57372SOL     OW72141  10.942  10.687   7.529
57372SOL    HW172142  10.910  10.781   7.519
57372SOL    HW272143  10.866  10.624   7.517
57373SOL     OW72144   9.774  11.053   7.771
57373SOL    HW172145   9.807  11.092   7.857
57373SOL    HW272146   9.850  11.046   7.706
57374SOL     OW72147  10.710   9.417   7.874
57374SOL    HW172148  10.686   9.380   7.784
57374SOL    HW272149  10.809   9.433   7.878
57375SOL     OW72150   9.559  11.095   8.689
57375SOL    HW172151   9.616  11.030   8.739
57375SOL    HW272152   9.543  11.062   8.596
57376SOL     OW72153  10.250  11.008   8.352
57376SOL    HW172154  10.330  10.951   8.373
57376SOL    HW272155  10.201  10.968   8.275
57377SOL     OW72156   9.692  10.010   7.928
57377SOL    HW172157   9.737   9.920   7.925
57377SOL    HW272158   9.598   9.999   7.961
57378SOL     OW72159  10.857   9.532   9.177
57378SOL    HW172160  10.852   9.569   9.269
57378SOL    HW272161  10.785   9.463   9.165
57379SOL     OW72162   9.924   9.432   7.565
57379SOL    HW172163  10.022   9.410   7.572
57379SOL    HW272164   9.893   9.415   7.472
57380SOL     OW72165  10.091   9.574   9.197
57380SOL    HW172166  10.158   9.513   9.240
57380SOL    HW272167  10.018   9.593   9.262
57381SOL     OW72168  10.198  10.824   8.643
57381SOL    HW172169  10.175  10.799   8.549
57381SOL    HW272170  10.259  10.755   8.682
57382SOL     OW72171  10.661   9.900   8.881
57382SOL    HW172172  10.689   9.857   8.966
57382SOL    HW272173  10.686   9.996   8.882
57383SOL     OW72174  10.113  10.712   8.372
57383SOL    HW172175  10.203  10.726   8.330
57383SOL    HW272176  10.042  10.714   8.301
57384SOL     OW72177  10.232   9.813   8.347
57384SOL    HW172178  10.207   9.804   8.251
57384SOL    HW272179  10.280   9.731   8.378
57385SOL     OW72180   9.849   9.374   7.960
57385SOL    HW172181   9.768   9.375   8.018
57385SOL    HW272182   9.852   9.457   7.905
57386SOL     OW72183  10.744  10.498   7.489
57386SOL    HW172184  10.776  10.422   7.546
57386SOL    HW272185  10.652  10.525   7.519
57387SOL     OW72186   9.607   9.345   7.619
57387SOL    HW172187   9.656   9.429   7.598
57387SOL    HW272188   9.669   9.280   7.664
57388SOL     OW72189  10.245   9.546   7.928
57388SOL    HW172190  10.197   9.587   7.850
57388SOL    HW272191  10.344   9.544   7.909
57389SOL     OW72192  10.386   9.993   8.912
57389SOL    HW172193  10.306   9.932   8.915
57389SOL    HW272194  10.467   9.940   8.888
57390SOL     OW72195  10.537  10.880   8.241
57390SOL    HW172196  10.558  10.954   8.176
57390SOL    HW272197  10.605  10.880   8.314
57391SOL     OW72198   9.769  10.462   8.189
57391SOL    HW172199   9.698  10.435   8.254
57391SOL    HW272200   9.743  10.434   8.096
57392SOL     OW72201  10.581  11.107   8.039
57392SOL    HW172202  10.625  11.171   7.975
57392SOL    HW272203  10.531  11.159   8.109
57393SOL     OW72204  10.342   9.859   7.464
57393SOL    HW172205  10.301   9.941   7.425
57393SOL    HW272206  10.406   9.885   7.537
57394SOL     OW72207   9.388   9.866   8.834
57394SOL    HW172208   9.480   9.865   8.793
57394SOL    HW272209   9.382   9.940   8.901
57395SOL     OW72210   9.871   9.532   8.595
57395SOL    HW172211   9.909   9.448   8.632
57395SOL    HW272212   9.783   9.551   8.639
57396SOL     OW72213  10.176   9.764   8.090
57396SOL    HW172214  10.144   9.836   8.028
57396SOL    HW272215  10.200   9.683   8.037
57397SOL     OW72216  10.327   9.349   8.201
57397SOL    HW172217  10.255   9.354   8.132
57397SOL    HW272218  10.303   9.280   8.270
57398SOL     OW72219  10.739  10.483   8.315
57398SOL    HW172220  10.684  10.399   8.308
57398SOL    HW272221  10.765  10.512   8.223
57399SOL     OW72222  10.776   9.900   8.440
57399SOL    HW172223  10.746   9.805   8.447
57399SOL    HW272224  10.849   9.916   8.506
57400SOL     OW72225  11.167  10.143   7.825
57400SOL    HW172226  11.209  10.079   7.889
57400SOL    HW272227  11.129  10.092   7.747
57401SOL     OW72228   9.798  10.695   7.622
57401SOL    HW172229   9.711  10.680   7.669
57401SOL    HW272230   9.781  10.721   7.527
57402SOL     OW72231  10.974  10.590   8.105
57402SOL    HW172232  11.073  10.598   8.119
57402SOL    HW272233  10.929  10.674   8.136
57403SOL     OW72234  10.700   9.885   7.526
57403SOL    HW172235  10.646   9.864   7.607
57403SOL    HW272236  10.791   9.844   7.535
57404SOL     OW72237   9.837   9.566   7.776
57404SOL    HW172238   9.864   9.507   7.701
57404SOL    HW272239   9.837   9.661   7.745
57405SOL     OW72240  11.064  10.533   9.036
57405SOL    HW172241  11.155  10.494   9.023
57405SOL    HW272242  11.072  10.629   9.060
57406SOL     OW72243  10.374  10.657   8.788
57406SOL    HW172244  10.294  10.634   8.843
57406SOL    HW272245  10.457  10.631   8.837
57407SOL     OW72246  10.902  10.939   9.073
57407SOL    HW172247  10.929  10.973   8.983
57407SOL    HW272248  10.981  10.901   9.119
57408SOL     OW72249  10.421  10.505   8.548
57408SOL    HW172250  10.381  10.549   8.629
57408SOL    HW272251  10.380  10.542   8.465
57409SOL     OW72252  10.948  10.409   8.527
57409SOL    HW172253  10.953  10.490   8.586
57409SOL    HW272254  10.862  10.411   8.476
57410SOL     OW72255  10.225   9.399   8.850
57410SOL    HW172256  10.250   9.379   8.755
57410SOL    HW272257  10.297   9.455   8.892
57411SOL     OW72258  10.290  10.426   9.167
57411SOL    HW172259  10.191  10.432   9.177
57411SOL    HW272260  10.313  10.346   9.111
57412SOL     OW72261  10.015  10.360   7.816
57412SOL    HW172262  10.001  10.367   7.915
57412SOL    HW272263  10.099  10.309   7.798
57413SOL     OW72264   9.720  10.123   8.699
57413SOL    HW172265   9.806  10.135   8.749
57413SOL    HW272266   9.678  10.036   8.726
57414SOL     OW72267  10.584   9.696   8.710
57414SOL    HW172268  10.605   9.770   8.774
57414SOL    HW272269  10.495   9.713   8.667
57415SOL     OW72270   9.374  10.874   8.779
57415SOL    HW172271   9.328  10.956   8.745
57415SOL    HW272272   9.472  10.893   8.788
57416SOL     OW72273   9.677  10.410   7.949
57416SOL    HW172274   9.670  10.493   7.893
57416SOL    HW272275   9.681  10.330   7.889
57417SOL     OW72276   9.876   9.847   8.313
57417SOL    HW172277   9.888   9.913   8.239
57417SOL    HW272278   9.922   9.881   8.396
57418SOL     OW72279  10.562  10.658   7.836
57418SOL    HW172280  10.612  10.735   7.876
57418SOL    HW272281  10.467  10.660   7.868
57419SOL     OW72282  10.582  10.755   8.590
57419SOL    HW172283  10.629  10.768   8.677
57419SOL    HW272284  10.516  10.681   8.599
57420SOL     OW72285  10.892   9.949   7.920
57420SOL    HW172286  10.861  10.010   7.993
57420SOL    HW272287  10.942  10.001   7.851
57421SOL     OW72288   9.664  10.820   8.777
57421SOL    HW172289   9.643  10.776   8.690
57421SOL    HW272290   9.761  10.846   8.780
57422SOL     OW72291   9.712  10.061   9.046
57422SOL    HW172292   9.780  10.116   8.999
57422SOL    HW272293   9.752   9.973   9.073
57423SOL     OW72294  10.897  10.089   9.118
57423SOL    HW172295  10.805  10.127   9.113
57423SOL    HW272296  10.957  10.136   9.053
57424SOL     OW72297  10.323   9.415   9.218
57424SOL    HW172298  10.329   9.500   9.166
57424SOL    HW272299  10.355   9.339   9.161
57425SOL     OW72300   9.814   9.360   9.188
57425SOL    HW172301   9.772   9.303   9.118
57425SOL    HW272302   9.748   9.429   9.220
57426SOL     OW72303   9.883  10.180   8.477
57426SOL    HW172304   9.927  10.269   8.468
57426SOL    HW272305   9.820  10.180   8.554
57427SOL     OW72306  10.670  10.172   8.493
57427SOL    HW172307  10.595  10.172   8.427
57427SOL    HW272308  10.707  10.080   8.502
57428SOL     OW72309  10.519   9.835   7.723
57428SOL    HW172310  10.532   9.751   7.777
57428SOL    HW272311  10.490   9.909   7.783
57429SOL     OW72312   9.617   9.523   8.679
57429SOL    HW172313   9.594   9.560   8.769
57429SOL    HW272314   9.587   9.428   8.673
57430SOL     OW72315   9.347  10.620   8.730
57430SOL    HW172316   9.400  10.571   8.798
57430SOL    HW272317   9.369  10.718   8.735
57431SOL     OW72318  10.042   9.944   8.512
57431SOL    HW172319  10.101   9.918   8.436
57431SOL    HW272320  10.014  10.040   8.501
57432SOL     OW72321  11.038  10.245   9.302
57432SOL    HW172322  10.992  10.238   9.213
57432SOL    HW272323  10.976  10.289   9.368
57433SOL     OW72324   9.617   9.373   8.066
57433SOL    HW172325   9.606   9.467   8.099
57433SOL    HW272326   9.612   9.310   8.143
57434SOL     OW72327  10.932   9.677   7.822
57434SOL    HW172328  10.934   9.601   7.886
57434SOL    HW272329  10.884   9.754   7.862
57435SOL     OW72330  10.333  10.076   8.414
57435SOL    HW172331  10.348  10.097   8.510
57435SOL    HW272332  10.303   9.981   8.405
57436SOL     OW72333  10.290  10.883   9.148
57436SOL    HW172334  10.270  10.927   9.060
57436SOL    HW272335  10.329  10.792   9.132
57437SOL     OW72336  11.169  10.828   9.053
57437SOL    HW172337  11.183  10.855   8.958
57437SOL    HW272338  11.252  10.850   9.106
57438SOL     OW72339   9.660  10.208   9.252
57438SOL    HW172340   9.736  10.252   9.300
57438SOL    HW272341   9.695  10.161   9.170
57439SOL     OW72342  10.850   9.584   7.573
57439SOL    HW172343  10.789   9.509   7.596
57439SOL    HW272344  10.872   9.636   7.656
57440SOL     OW72345  10.613  10.148   7.490
57440SOL    HW172346  10.647  10.055   7.505
57440SOL    HW272347  10.631  10.175   7.395
57441SOL     OW72348  10.378  10.643   8.297
57441SOL    HW172349  10.385  10.559   8.242
57441SOL    HW272350  10.440  10.712   8.261
57442SOL     OW72351   9.629  10.120   8.397
57442SOL    HW172352   9.722  10.156   8.402
57442SOL    HW272353   9.623  10.035   8.449
57443SOL     OW72354   9.649   9.819   8.454
57443SOL    HW172355   9.597   9.736   8.437
57443SOL    HW272356   9.726   9.824   8.390
57444SOL     OW72357  10.448   9.690   9.126
57444SOL    HW172358  10.403   9.753   9.190
57444SOL    HW272359  10.541   9.721   9.109
57445SOL     OW72360  10.470   9.517   8.925
57445SOL    HW172361  10.470   9.581   9.002
57445SOL    HW272362  10.498   9.565   8.842
57446SOL     OW72363   9.318  10.636   7.648
57446SOL    HW172364   9.225  10.657   7.617
57446SOL    HW272365   9.328  10.537   7.661
57447SOL     OW72366   9.398  11.111   8.375
57447SOL    HW172367   9.356  11.025   8.348
57447SOL    HW272368   9.492  11.114   8.341
57448SOL     OW72369   9.814  10.878   8.358
57448SOL    HW172370   9.880  10.952   8.367
57448SOL    HW272371   9.858  10.799   8.316
57449SOL     OW72372  10.312  10.106   8.686
57449SOL    HW172373  10.353  10.074   8.772
57449SOL    HW272374  10.216  10.079   8.683
57450SOL     OW72375   9.350   9.854   8.562
57450SOL    HW172376   9.435   9.821   8.521
57450SOL    HW272377   9.363   9.869   8.660
57451SOL     OW72378   9.499   9.830   9.170
57451SOL    HW172379   9.558   9.790   9.100
57451SOL    HW272380   9.441   9.901   9.129
57452SOL     OW72381  10.679  10.260   9.108
57452SOL    HW172382  10.718  10.349   9.128
57452SOL    HW272383  10.689  10.240   9.011
57453SOL     OW72384  10.125   9.882   7.773
57453SOL    HW172385  10.132   9.793   7.727
57453SOL    HW272386  10.031   9.916   7.765
57454SOL     OW72387  10.967   9.914   8.654
57454SOL    HW172388  10.929   9.845   8.716
57454SOL    HW272389  11.049   9.878   8.610
57455SOL     OW72390   9.562  10.874   9.192
57455SOL    HW172391   9.532  10.931   9.268
57455SOL    HW272392   9.555  10.777   9.218
57456SOL     OW72393   9.981   9.774   8.717
57456SOL    HW172394   9.947   9.685   8.687
57456SOL    HW272395  10.007   9.828   8.637
57457SOL     OW72396  10.240  10.988   8.913
57457SOL    HW172397  10.216  10.970   8.818
57457SOL    HW272398  10.270  11.082   8.923
57458SOL     OW72399   9.783   9.810   7.639
57458SOL    HW172400   9.844   9.890   7.643
57458SOL    HW272401   9.688   9.841   7.646
57459SOL     OW72402   9.469  10.447   8.914
57459SOL    HW172403   9.491  10.386   8.990
57459SOL    HW272404   9.479  10.398   8.828
57460SOL     OW72405  10.657  10.369   8.682
57460SOL    HW172406  10.681  10.306   8.608
57460SOL    HW272407  10.567  10.409   8.664
57461SOL     OW72408  10.612  10.165   7.757
57461SOL    HW172409  10.526  10.134   7.799
57461SOL    HW272410  10.608  10.151   7.658
57462SOL     OW72411  11.069  11.057   8.602
57462SOL    HW172412  11.130  11.087   8.529
57462SOL    HW272413  11.031  10.968   8.580
57463SOL     OW72414  10.562  11.041   8.576
57463SOL    HW172415  10.646  11.046   8.522
57463SOL    HW272416  10.539  10.945   8.594
57464SOL     OW72417   9.393  10.568   8.470
57464SOL    HW172418   9.388  10.567   8.570
57464SOL    HW272419   9.310  10.527   8.432
57465SOL     OW72420   9.998  10.972   9.164
57465SOL    HW172421   9.942  11.053   9.173
57465SOL    HW272422  10.050  10.976   9.078
57466SOL     OW72423  11.036   9.445   7.971
57466SOL    HW172424  11.109   9.428   7.904
57466SOL    HW272425  11.005   9.358   8.009
57467SOL     OW72426  10.698  10.883   7.925
57467SOL    HW172427  10.765  10.895   7.851
57467SOL    HW272428  10.658  10.972   7.948
57468SOL     OW72429   9.440  11.104   9.299
57468SOL    HW172430   9.399  11.030   9.352
57468SOL    HW272431   9.504  11.155   9.357
57469SOL     OW72432  10.590  10.237   8.120
57469SOL    HW172433  10.650  10.156   8.122
57469SOL    HW272434  10.630  10.306   8.060
57470SOL     OW72435  10.140  10.583   8.870
57470SOL    HW172436  10.135  10.616   8.965
57470SOL    HW272437  10.054  10.602   8.824
57471SOL     OW72438   9.982  10.926   7.602
57471SOL    HW172439   9.991  10.936   7.503
57471SOL    HW272440   9.942  10.837   7.623
57472SOL     OW72441  10.960  11.030   8.842
57472SOL    HW172442  11.013  11.040   8.758
57472SOL    HW272443  10.933  11.120   8.876
57473SOL     OW72444  11.151   9.485   8.411
57473SOL    HW172445  11.190   9.400   8.375
57473SOL    HW272446  11.053   9.487   8.392
57474SOL     OW72447   9.573   9.636   8.168
57474SOL    HW172448   9.494   9.687   8.134
57474SOL    HW272449   9.564   9.621   8.266
57475SOL     OW72450  10.504  10.922   7.479
57475SOL    HW172451  10.510  10.829   7.516
57475SOL    HW272452  10.445  10.922   7.399
57476SOL     OW72453  10.132  10.312   8.820
57476SOL    HW172454  10.172  10.311   8.728
57476SOL    HW272455  10.142  10.404   8.860
57477SOL     OW72456  10.226  10.220   7.739
57477SOL    HW172457  10.289  10.258   7.671
57477SOL    HW272458  10.266  10.137   7.778
57478SOL     OW72459  10.814  10.917   7.492
57478SOL    HW172460  10.722  10.954   7.499
57478SOL    HW272461  10.852  10.937   7.402
57479SOL     OW72462   9.682  10.598   8.938
57479SOL    HW172463   9.669  10.691   8.904
57479SOL    HW272464   9.598  10.546   8.925
57480SOL     OW72465  10.924  10.602   8.737
57480SOL    HW172466  10.984  10.605   8.817
57480SOL    HW272467  10.849  10.666   8.750
57481SOL     OW72468  10.349  10.408   8.144
57481SOL    HW172469  10.279  10.361   8.198
57481SOL    HW272470  10.408  10.340   8.101
57482SOL     OW72471  10.324   9.546   8.419
57482SOL    HW172472  10.316   9.510   8.326
57482SOL    HW272473  10.322   9.470   8.484
57483SOL     OW72474   9.900  10.797   7.939
57483SOL    HW172475   9.942  10.739   7.869
57483SOL    HW272476   9.856  10.876   7.895
57484SOL     OW72477  11.019   9.695   8.829
57484SOL    HW172478  11.092   9.764   8.833
57484SOL    HW272479  11.047   9.620   8.770
57485SOL     OW72480   9.565  10.658   7.738
57485SOL    HW172481   9.469  10.659   7.711
57485SOL    HW272482   9.577  10.711   7.822
57486SOL     OW72483   9.415  10.323   9.174
57486SOL    HW172484   9.338  10.290   9.228
57486SOL    HW272485   9.500  10.293   9.216
57487SOL     OW72486   9.982   9.513   8.937
57487SOL    HW172487  10.072   9.497   8.897
57487SOL    HW272488   9.990   9.518   9.036
57488SOL     OW72489   9.385   9.655   7.481
57488SOL    HW172490   9.293   9.627   7.452
57488SOL    HW272491   9.416   9.732   7.425
57489SOL     OW72492  10.750  10.166   8.846
57489SOL    HW172493  10.693  10.218   8.783
57489SOL    HW272494  10.846  10.178   8.822
57490SOL     OW72495   9.382   9.476   7.766
57490SOL    HW172496   9.365   9.559   7.712
57490SOL    HW272497   9.472   9.439   7.744
57491SOL     OW72498  10.493  10.645   7.567
57491SOL    HW172499  10.394  10.634   7.569
57491SOL    HW272500  10.527  10.660   7.660
57492SOL     OW72501   9.923  10.152   8.879
57492SOL    HW172502   9.979  10.233   8.862
57492SOL    HW272503   9.982  10.072   8.882
57493SOL     OW72504  10.803  11.077   8.407
57493SOL    HW172505  10.836  11.141   8.338
57493SOL    HW272506  10.869  11.071   8.482
57494SOL     OW72507  10.026   9.875   9.156
57494SOL    HW172508  10.045   9.940   9.230
57494SOL    HW272509  10.086   9.795   9.165
57495SOL     OW72510  10.760  10.530   9.081
57495SOL    HW172511  10.751  10.520   9.180
57495SOL    HW272512  10.856  10.523   9.055
57496SOL     OW72513   9.700  11.051   9.008
57496SOL    HW172514   9.609  11.092   9.006
57496SOL    HW272515   9.693  10.957   9.040
57497SOL     OW72516  10.984  10.193   8.702
57497SOL    HW172517  10.957  10.104   8.665
57497SOL    HW272518  10.985  10.261   8.629
57498SOL     OW72519  10.535   9.635   7.897
57498SOL    HW172520  10.600   9.561   7.886
57498SOL    HW272521  10.555   9.685   7.981
57499SOL     OW72522   9.904  10.055   8.100
57499SOL    HW172523   9.954  10.140   8.081
57499SOL    HW272524   9.816  10.057   8.052
57500SOL     OW72525  11.087   9.652   9.090
57500SOL    HW172526  11.070   9.683   8.996
57500SOL    HW272527  11.003   9.615   9.128
57501SOL     OW72528  11.040  10.244   8.965
57501SOL    HW172529  11.078  10.335   8.980
57501SOL    HW272530  11.032  10.227   8.866
57502SOL     OW72531  10.169  10.684   7.464
57502SOL    HW172532  10.123  10.699   7.552
57502SOL    HW272533  10.213  10.769   7.434
57503SOL     OW72534   9.971  11.100   8.401
57503SOL    HW172535   9.925  11.188   8.388
57503SOL    HW272536  10.070  11.112   8.394
57504SOL     OW72537  10.169  10.266   8.309
57504SOL    HW172538  10.223  10.197   8.357
57504SOL    HW272539  10.137  10.335   8.375
57505SOL     OW72540  10.393  10.294   7.535
57505SOL    HW172541  10.370  10.347   7.453
57505SOL    HW272542  10.474  10.238   7.516
57506SOL     OW72543  11.171  10.879   8.299
57506SOL    HW172544  11.100  10.867   8.229
57506SOL    HW272545  11.172  10.800   8.359
57507SOL     OW72546   9.531  10.624   9.292
57507SOL    HW172547   9.466  10.551   9.271
57507SOL    HW272548   9.535  10.638   9.390
57508SOL     OW72549   9.389  10.550   8.101
57508SOL    HW172550   9.388  10.503   8.189
57508SOL    HW272551   9.471  10.522   8.050
57509SOL     OW72552   9.982  10.701   9.072
57509SOL    HW172553   9.904  10.651   9.110
57509SOL    HW272554   9.979  10.796   9.103
57510SOL     OW72555  11.134   9.502   8.675
57510SOL    HW172556  11.130   9.412   8.719
57510SOL    HW272557  11.137   9.491   8.576
57511SOL     OW72558   9.738   9.734   7.968
57511SOL    HW172559   9.768   9.662   7.906
57511SOL    HW272560   9.699   9.694   8.051
57512SOL     OW72561  11.015  10.797   8.552
57512SOL    HW172562  10.922  10.772   8.525
57512SOL    HW272563  11.041  10.747   8.634
57513SOL     OW72564   9.627   9.857   8.728
57513SOL    HW172565   9.665   9.798   8.800
57513SOL    HW272566   9.667   9.831   8.640
57514SOL     OW72567  10.122  10.896   8.135
57514SOL    HW172568  10.154  10.906   8.041
57514SOL    HW272569  10.043  10.834   8.137
57515SOL     OW72570  10.734   9.524   8.560
57515SOL    HW172571  10.786   9.459   8.615
57515SOL    HW272572  10.685   9.587   8.621
57516SOL     OW72573  10.311   9.344   8.602
57516SOL    HW172574  10.248   9.272   8.571
57516SOL    HW272575  10.404   9.308   8.602
57517SOL     OW72576  10.080  10.640   7.749
57517SOL    HW172577  10.034  10.553   7.766
57517SOL    HW272578  10.171  10.637   7.790
57518SOL     OW72579   9.928  10.877   8.732
57518SOL    HW172580   9.923  10.959   8.789
57518SOL    HW272581  10.017  10.874   8.687
57519SOL     OW72582  10.662   9.362   7.616
57519SOL    HW172583  10.697   9.321   7.532
57519SOL    HW272584  10.572   9.324   7.636
57520SOL     OW72585  10.610   9.763   8.139
57520SOL    HW172586  10.551   9.843   8.143
57520SOL    HW272587  10.625   9.728   8.232
57521SOL     OW72588  10.903   9.531   8.330
57521SOL    HW172589  10.819   9.530   8.384
57521SOL    HW272590  10.905   9.614   8.274
57522SOL     OW72591   9.349  10.387   7.748
57522SOL    HW172592   9.448  10.376   7.739
57522SOL    HW272593   9.309  10.301   7.780
57523SOL     OW72594  10.185  10.956   7.785
57523SOL    HW172595  10.108  10.921   7.731
57523SOL    HW272596  10.153  11.027   7.847
57524SOL     OW72597   9.540   9.938   9.423
57524SOL    HW172598   9.447   9.936   9.460
57524SOL    HW272599   9.541   9.899   9.331
57525SOL     OW72600   9.535   9.585  10.306
57525SOL    HW172601   9.570   9.568  10.398
57525SOL    HW272602   9.447   9.540  10.294
57526SOL     OW72603   9.329   9.678   9.957
57526SOL    HW172604   9.247   9.721   9.996
57526SOL    HW272605   9.301   9.605   9.894
57527SOL     OW72606   9.879  10.585  10.475
57527SOL    HW172607   9.786  10.578  10.438
57527SOL    HW272608   9.890  10.674  10.519
57528SOL     OW72609  10.865  10.821  10.013
57528SOL    HW172610  10.808  10.805  10.094
57528SOL    HW272611  10.806  10.831   9.933
57529SOL     OW72612  10.445  10.013  10.027
57529SOL    HW172613  10.502  10.091  10.002
57529SOL    HW272614  10.385  10.039  10.103
57530SOL     OW72615  11.065   9.917   9.541
57530SOL    HW172616  11.053   9.904   9.442
57530SOL    HW272617  11.035   9.836   9.590
57531SOL     OW72618  10.078  10.454  10.333
57531SOL    HW172619  10.000  10.471  10.393
57531SOL    HW272620  10.112  10.541  10.297
57532SOL     OW72621  10.160  10.108  11.133
57532SOL    HW172622  10.156  10.184  11.198
57532SOL    HW272623  10.182  10.144  11.042
57533SOL     OW72624   9.995  10.322   9.975
57533SOL    HW172625  10.064  10.306  10.045
57533SOL    HW272626   9.922  10.379  10.013
57534SOL     OW72627   9.996  10.471  11.113
57534SOL    HW172628  10.056  10.550  11.127
57534SOL    HW272629   9.910  10.502  11.072
57535SOL     OW72630   9.645  10.745  10.371
57535SOL    HW172631   9.567  10.714  10.318
57535SOL    HW272632   9.703  10.803  10.314
57536SOL     OW72633  10.770  10.815  10.649
57536SOL    HW172634  10.794  10.909  10.675
57536SOL    HW272635  10.754  10.761  10.731
57537SOL     OW72636   9.748   9.702  10.809
57537SOL    HW172637   9.830   9.646  10.818
57537SOL    HW272638   9.667   9.644  10.813
57538SOL     OW72639  10.913   9.757  10.047
57538SOL    HW172640  10.839   9.803   9.997
57538SOL    HW272641  10.964   9.825  10.100
57539SOL     OW72642   9.541  11.023   9.793
57539SOL    HW172643   9.575  11.100   9.847
57539SOL    HW272644   9.585  11.023   9.703
57540SOL     OW72645  10.437  10.651  11.000
57540SOL    HW172646  10.484  10.651  11.088
57540SOL    HW272647  10.389  10.564  10.989
57541SOL     OW72648   9.540  10.744   9.848
57541SOL    HW172649   9.514  10.840   9.848
57541SOL    HW272650   9.469  10.690   9.893
57542SOL     OW72651   9.550  10.401  10.196
57542SOL    HW172652   9.564  10.317  10.248
57542SOL    HW272653   9.495  10.465  10.251
57543SOL     OW72654   9.930  11.096  10.749
57543SOL    HW172655   9.838  11.079  10.784
57543SOL    HW272656   9.958  11.188  10.775
57544SOL     OW72657   9.916  10.274   9.433
57544SOL    HW172658   9.923  10.358   9.379
57544SOL    HW272659   9.962  10.287   9.521
57545SOL     OW72660  10.904   9.424  10.790
57545SOL    HW172661  10.886   9.491  10.718
57545SOL    HW272662  10.901   9.470  10.879
57546SOL     OW72663   9.432   9.953   9.873
57546SOL    HW172664   9.387   9.865   9.890
57546SOL    HW272665   9.431  10.007   9.957
57547SOL     OW72666  11.152  11.077   9.669
57547SOL    HW172667  11.206  11.048   9.749
57547SOL    HW272668  11.182  11.167   9.640
57548SOL     OW72669   9.337  10.906   9.427
57548SOL    HW172670   9.318  10.810   9.448
57548SOL    HW272671   9.304  10.964   9.502
57549SOL     OW72672  10.999  10.232   9.922
57549SOL    HW172673  11.094  10.203   9.930
57549SOL    HW272674  10.991  10.297   9.847
57550SOL     OW72675  10.951  10.418   9.742
57550SOL    HW172676  11.037  10.420   9.690
57550SOL    HW272677  10.965  10.465   9.830
57551SOL     OW72678   9.423  10.047  10.907
57551SOL    HW172679   9.511  10.034  10.952
57551SOL    HW272680   9.410  10.144  10.885
57552SOL     OW72681   9.923  10.675  10.036
57552SOL    HW172682   9.874  10.588  10.045
57552SOL    HW272683   9.900  10.718   9.949
57553SOL     OW72684  10.603  10.538  10.733
57553SOL    HW172685  10.640  10.465  10.675
57553SOL    HW272686  10.655  10.543  10.818
57554SOL     OW72687  10.119   9.314   9.812
57554SOL    HW172688  10.159   9.405   9.803
57554SOL    HW272689  10.019   9.322   9.818
57555SOL     OW72690   9.507  10.286  10.574
57555SOL    HW172691   9.596  10.241  10.560
57555SOL    HW272692   9.434  10.221  10.555
57556SOL     OW72693  10.835  10.309   9.500
57556SOL    HW172694  10.772  10.233   9.513
57556SOL    HW272695  10.883  10.327   9.586
57557SOL     OW72696  10.497  11.102  10.926
57557SOL    HW172697  10.521  11.162  10.850
57557SOL    HW272698  10.504  11.007  10.896
57558SOL     OW72699   9.627   9.561  11.111
57558SOL    HW172700   9.698   9.632  11.117
57558SOL    HW272701   9.539   9.600  11.139
57559SOL     OW72702  10.776  10.727  10.263
57559SOL    HW172703  10.717  10.733  10.343
57559SOL    HW272704  10.761  10.639  10.217
57560SOL     OW72705  10.977  11.024   9.882
57560SOL    HW172706  10.936  11.001   9.794
57560SOL    HW272707  10.959  10.950   9.947
57561SOL     OW72708   9.908  10.039   9.580
57561SOL    HW172709   9.932  10.108   9.512
57561SOL    HW272710   9.830  10.072   9.634
57562SOL     OW72711  10.591   9.655  10.254
57562SOL    HW172712  10.505   9.605  10.241
57562SOL    HW272713  10.653   9.601  10.310
57563SOL     OW72714  10.886  10.972   9.617
57563SOL    HW172715  10.975  11.018   9.620
57563SOL    HW272716  10.865  10.948   9.522
57564SOL     OW72717  10.117   9.915  10.775
57564SOL    HW172718  10.070   9.912  10.864
57564SOL    HW272719  10.066   9.860  10.709
57565SOL     OW72720  10.704   9.779  10.984
57565SOL    HW172721  10.684   9.822  11.072
57565SOL    HW272722  10.782   9.717  10.993
57566SOL     OW72723  10.283  10.200  10.882
57566SOL    HW172724  10.329  10.116  10.853
57566SOL    HW272725  10.227  10.234  10.807
57567SOL     OW72726  10.301   9.720  10.552
57567SOL    HW172727  10.224   9.754  10.606
57567SOL    HW272728  10.267   9.669  10.473
57568SOL     OW72729  10.351  10.011   9.739
57568SOL    HW172730  10.377  10.007   9.835
57568SOL    HW272731  10.266   9.960   9.725
57569SOL     OW72732   9.386  10.121  10.099
57569SOL    HW172733   9.485  10.109  10.108
57569SOL    HW272734   9.362  10.216  10.120
57570SOL     OW72735   9.440  11.131  10.881
57570SOL    HW172736   9.430  11.116  10.980
57570SOL    HW272737   9.354  11.167  10.845
57571SOL     OW72738  10.175   9.658   9.505
57571SOL    HW172739  10.234   9.721   9.456
57571SOL    HW272740  10.194   9.564   9.476
57572SOL     OW72741  11.029   9.895  11.141
57572SOL    HW172742  11.003   9.984  11.105
57572SOL    HW272743  11.027   9.827  11.068
57573SOL     OW72744  10.672  10.454   9.855
57573SOL    HW172745  10.755  10.425   9.807
57573SOL    HW272746  10.623  10.521   9.799
57574SOL     OW72747   9.860   9.506  10.195
57574SOL    HW172748   9.855   9.501  10.295
57574SOL    HW272749   9.862   9.602  10.166
57575SOL     OW72750  10.318  10.766   9.787
57575SOL    HW172751  10.272  10.838   9.735
57575SOL    HW272752  10.314  10.786   9.885
57576SOL     OW72753   9.661  11.111  10.163
57576SOL    HW172754   9.711  11.025  10.169
57576SOL    HW272755   9.726  11.188  10.160
57577SOL     OW72756  11.105  10.376  10.183
57577SOL    HW172757  11.043  10.361  10.107
57577SOL    HW272758  11.053  10.387  10.268
57578SOL     OW72759  10.537  10.860  10.816
57578SOL    HW172760  10.543  10.783  10.880
57578SOL    HW272761  10.485  10.834  10.736
57579SOL     OW72762   9.631  10.253   9.552
57579SOL    HW172763   9.713  10.292   9.510
57579SOL    HW272764   9.604  10.171   9.503
57580SOL     OW72765  10.768  10.045  10.038
57580SOL    HW172766  10.763   9.980  10.113
57580SOL    HW272767  10.848  10.104  10.051
57581SOL     OW72768   9.771  10.576  11.037
57581SOL    HW172769   9.721  10.577  10.951
57581SOL    HW272770   9.708  10.558  11.113
57582SOL     OW72771  10.421  11.086   9.547
57582SOL    HW172772  10.361  11.024   9.597
57582SOL    HW272773  10.452  11.042   9.462
57583SOL     OW72774   9.512   9.595  10.808
57583SOL    HW172775   9.432   9.655  10.795
57583SOL    HW272776   9.502   9.546  10.894
57584SOL     OW72777  10.942  10.687   9.391
57584SOL    HW172778  10.910  10.781   9.381
57584SOL    HW272779  10.866  10.624   9.379
57585SOL     OW72780   9.774  11.053   9.633
57585SOL    HW172781   9.807  11.092   9.719
57585SOL    HW272782   9.850  11.046   9.568
57586SOL     OW72783  10.710   9.417   9.736
57586SOL    HW172784  10.686   9.380   9.646
57586SOL    HW272785  10.809   9.433   9.740
57587SOL     OW72786   9.559  11.095  10.551
57587SOL    HW172787   9.616  11.030  10.601
57587SOL    HW272788   9.543  11.062  10.458
57588SOL     OW72789  10.250  11.008  10.214
57588SOL    HW172790  10.330  10.951  10.235
57588SOL    HW272791  10.201  10.968  10.137
57589SOL     OW72792   9.692  10.010   9.790
57589SOL    HW172793   9.737   9.920   9.787
57589SOL    HW272794   9.598   9.999   9.823
57590SOL     OW72795  10.857   9.532  11.039
57590SOL    HW172796  10.852   9.569  11.131
57590SOL    HW272797  10.785   9.463  11.027
57591SOL     OW72798   9.924   9.432   9.427
57591SOL    HW172799  10.022   9.410   9.434
57591SOL    HW272800   9.893   9.415   9.334
57592SOL     OW72801  10.091   9.574  11.059
57592SOL    HW172802  10.158   9.513  11.102
57592SOL    HW272803  10.018   9.593  11.124
57593SOL     OW72804  10.661   9.900  10.743
57593SOL    HW172805  10.689   9.857  10.828
57593SOL    HW272806  10.686   9.996  10.744
57594SOL     OW72807  10.113  10.712  10.234
57594SOL    HW172808  10.203  10.726  10.192
57594SOL    HW272809  10.042  10.714  10.163
57595SOL     OW72810  10.232   9.813  10.209
57595SOL    HW172811  10.207   9.804  10.113
57595SOL    HW272812  10.280   9.731  10.240
57596SOL     OW72813   9.849   9.374   9.822
57596SOL    HW172814   9.768   9.375   9.880
57596SOL    HW272815   9.852   9.457   9.767
57597SOL     OW72816  10.744  10.498   9.351
57597SOL    HW172817  10.776  10.422   9.408
57597SOL    HW272818  10.652  10.525   9.381
57598SOL     OW72819   9.607   9.345   9.481
57598SOL    HW172820   9.656   9.429   9.460
57598SOL    HW272821   9.669   9.280   9.526
57599SOL     OW72822  10.245   9.546   9.790
57599SOL    HW172823  10.197   9.587   9.712
57599SOL    HW272824  10.344   9.544   9.771
57600SOL     OW72825  10.386   9.993  10.774
57600SOL    HW172826  10.306   9.932  10.777
57600SOL    HW272827  10.467   9.940  10.750
57601SOL     OW72828  10.537  10.880  10.103
57601SOL    HW172829  10.558  10.954  10.038
57601SOL    HW272830  10.605  10.880  10.176
57602SOL     OW72831   9.769  10.462  10.051
57602SOL    HW172832   9.698  10.435  10.116
57602SOL    HW272833   9.743  10.434   9.958
57603SOL     OW72834  10.581  11.107   9.901
57603SOL    HW172835  10.625  11.171   9.837
57603SOL    HW272836  10.531  11.159   9.971
57604SOL     OW72837  10.342   9.859   9.326
57604SOL    HW172838  10.301   9.941   9.287
57604SOL    HW272839  10.406   9.885   9.399
57605SOL     OW72840   9.388   9.866  10.696
57605SOL    HW172841   9.480   9.865  10.655
57605SOL    HW272842   9.382   9.940  10.763
57606SOL     OW72843   9.871   9.532  10.457
57606SOL    HW172844   9.909   9.448  10.494
57606SOL    HW272845   9.783   9.551  10.501
57607SOL     OW72846  10.176   9.764   9.952
57607SOL    HW172847  10.144   9.836   9.890
57607SOL    HW272848  10.200   9.683   9.899
57608SOL     OW72849  10.327   9.349  10.063
57608SOL    HW172850  10.255   9.354   9.994
57608SOL    HW272851  10.303   9.280  10.132
57609SOL     OW72852  10.739  10.483  10.177
57609SOL    HW172853  10.684  10.399  10.170
57609SOL    HW272854  10.765  10.512  10.085
57610SOL     OW72855  10.776   9.900  10.302
57610SOL    HW172856  10.746   9.805  10.309
57610SOL    HW272857  10.849   9.916  10.368
57611SOL     OW72858  11.167  10.143   9.687
57611SOL    HW172859  11.209  10.079   9.751
57611SOL    HW272860  11.129  10.092   9.609
57612SOL     OW72861   9.798  10.695   9.484
57612SOL    HW172862   9.711  10.680   9.531
57612SOL    HW272863   9.781  10.721   9.389
57613SOL     OW72864  10.974  10.590   9.967
57613SOL    HW172865  11.073  10.598   9.981
57613SOL    HW272866  10.929  10.674   9.998
57614SOL     OW72867  10.700   9.885   9.388
57614SOL    HW172868  10.646   9.864   9.469
57614SOL    HW272869  10.791   9.844   9.397
57615SOL     OW72870   9.837   9.566   9.638
57615SOL    HW172871   9.864   9.507   9.563
57615SOL    HW272872   9.837   9.661   9.607
57616SOL     OW72873  11.064  10.533  10.898
57616SOL    HW172874  11.155  10.494  10.885
57616SOL    HW272875  11.072  10.629  10.922
57617SOL     OW72876  10.374  10.657  10.650
57617SOL    HW172877  10.294  10.634  10.705
57617SOL    HW272878  10.457  10.631  10.699
57618SOL     OW72879  10.902  10.939  10.935
57618SOL    HW172880  10.929  10.973  10.845
57618SOL    HW272881  10.981  10.901  10.981
57619SOL     OW72882  10.421  10.505  10.410
57619SOL    HW172883  10.381  10.549  10.491
57619SOL    HW272884  10.380  10.542  10.327
57620SOL     OW72885  10.948  10.409  10.389
57620SOL    HW172886  10.953  10.490  10.448
57620SOL    HW272887  10.862  10.411  10.338
57621SOL     OW72888  10.225   9.399  10.712
57621SOL    HW172889  10.250   9.379  10.617
57621SOL    HW272890  10.297   9.455  10.754
57622SOL     OW72891  10.290  10.426  11.029
57622SOL    HW172892  10.191  10.432  11.039
57622SOL    HW272893  10.313  10.346  10.973
57623SOL     OW72894  10.015  10.360   9.678
57623SOL    HW172895  10.001  10.367   9.777
57623SOL    HW272896  10.099  10.309   9.660
57624SOL     OW72897   9.720  10.123  10.561
57624SOL    HW172898   9.806  10.135  10.611
57624SOL    HW272899   9.678  10.036  10.588
57625SOL     OW72900  10.584   9.696  10.572
57625SOL    HW172901  10.605   9.770  10.636
57625SOL    HW272902  10.495   9.713  10.529
57626SOL     OW72903   9.374  10.874  10.641
57626SOL    HW172904   9.328  10.956  10.607
57626SOL    HW272905   9.472  10.893  10.650
57627SOL     OW72906   9.677  10.410   9.811
57627SOL    HW172907   9.670  10.493   9.755
57627SOL    HW272908   9.681  10.330   9.751
57628SOL     OW72909   9.876   9.847  10.175
57628SOL    HW172910   9.888   9.913  10.101
57628SOL    HW272911   9.922   9.881  10.258
57629SOL     OW72912  10.562  10.658   9.698
57629SOL    HW172913  10.612  10.735   9.738
57629SOL    HW272914  10.467  10.660   9.730
57630SOL     OW72915  10.582  10.755  10.452
57630SOL    HW172916  10.629  10.768  10.539
57630SOL    HW272917  10.516  10.681  10.461
57631SOL     OW72918  10.892   9.949   9.782
57631SOL    HW172919  10.861  10.010   9.855
57631SOL    HW272920  10.942  10.001   9.713
57632SOL     OW72921   9.664  10.820  10.639
57632SOL    HW172922   9.643  10.776  10.552
57632SOL    HW272923   9.761  10.846  10.642
57633SOL     OW72924   9.712  10.061  10.908
57633SOL    HW172925   9.780  10.116  10.861
57633SOL    HW272926   9.752   9.973  10.935
57634SOL     OW72927  10.897  10.089  10.980
57634SOL    HW172928  10.805  10.127  10.975
57634SOL    HW272929  10.957  10.136  10.915
57635SOL     OW72930  10.323   9.415  11.080
57635SOL    HW172931  10.329   9.500  11.028
57635SOL    HW272932  10.355   9.339  11.023
57636SOL     OW72933   9.814   9.360  11.050
57636SOL    HW172934   9.772   9.303  10.980
57636SOL    HW272935   9.748   9.429  11.082
57637SOL     OW72936   9.883  10.180  10.339
57637SOL    HW172937   9.927  10.269  10.330
57637SOL    HW272938   9.820  10.180  10.416
57638SOL     OW72939  10.670  10.172  10.355
57638SOL    HW172940  10.595  10.172  10.289
57638SOL    HW272941  10.707  10.080  10.364
57639SOL     OW72942  10.519   9.835   9.585
57639SOL    HW172943  10.532   9.751   9.639
57639SOL    HW272944  10.490   9.909   9.645
57640SOL     OW72945   9.617   9.523  10.541
57640SOL    HW172946   9.594   9.560  10.631
57640SOL    HW272947   9.587   9.428  10.535
57641SOL     OW72948   9.347  10.620  10.592
57641SOL    HW172949   9.400  10.571  10.660
57641SOL    HW272950   9.369  10.718  10.597
57642SOL     OW72951  10.042   9.944  10.374
57642SOL    HW172952  10.101   9.918  10.298
57642SOL    HW272953  10.014  10.040  10.363
57643SOL     OW72954  11.038  10.245  11.164
57643SOL    HW172955  10.992  10.238  11.075
57643SOL    HW272956  10.976  10.289  11.230
57644SOL     OW72957   9.617   9.373   9.928
57644SOL    HW172958   9.606   9.467   9.961
57644SOL    HW272959   9.612   9.310  10.005
57645SOL     OW72960  10.932   9.677   9.684
57645SOL    HW172961  10.934   9.601   9.748
57645SOL    HW272962  10.884   9.754   9.724
57646SOL     OW72963  10.333  10.076  10.276
57646SOL    HW172964  10.348  10.097  10.372
57646SOL    HW272965  10.303   9.981  10.267
57647SOL     OW72966  10.290  10.883  11.010
57647SOL    HW172967  10.270  10.927  10.922
57647SOL    HW272968  10.329  10.792  10.994
57648SOL     OW72969  11.169  10.828  10.915
57648SOL    HW172970  11.183  10.855  10.820
57648SOL    HW272971  11.252  10.850  10.968
57649SOL     OW72972   9.660  10.208  11.114
57649SOL    HW172973   9.736  10.252  11.162
57649SOL    HW272974   9.695  10.161  11.032
57650SOL     OW72975  10.850   9.584   9.435
57650SOL    HW172976  10.789   9.509   9.458
57650SOL    HW272977  10.872   9.636   9.518
57651SOL     OW72978  10.613  10.148   9.352
57651SOL    HW172979  10.647  10.055   9.367
57651SOL    HW272980  10.631  10.175   9.257
57652SOL     OW72981  10.378  10.643  10.159
57652SOL    HW172982  10.385  10.559  10.104
57652SOL    HW272983  10.440  10.712  10.123
57653SOL     OW72984   9.629  10.120  10.259
57653SOL    HW172985   9.722  10.156  10.264
57653SOL    HW272986   9.623  10.035  10.311
57654SOL     OW72987   9.649   9.819  10.316
57654SOL    HW172988   9.597   9.736  10.299
57654SOL    HW272989   9.726   9.824  10.252
57655SOL     OW72990  10.448   9.690  10.988
57655SOL    HW172991  10.403   9.753  11.052
57655SOL    HW272992  10.541   9.721  10.971
57656SOL     OW72993  10.470   9.517  10.787
57656SOL    HW172994  10.470   9.581  10.864
57656SOL    HW272995  10.498   9.565  10.704
57657SOL     OW72996   9.318  10.636   9.510
57657SOL    HW172997   9.225  10.657   9.479
57657SOL    HW272998   9.328  10.537   9.523
57658SOL     OW72999   9.398  11.111  10.237
57658SOL    HW173000   9.356  11.025  10.210
57658SOL    HW273001   9.492  11.114  10.203
57659SOL     OW73002   9.814  10.878  10.220
57659SOL    HW173003   9.880  10.952  10.229
57659SOL    HW273004   9.858  10.799  10.178
57660SOL     OW73005  10.312  10.106  10.548
57660SOL    HW173006  10.353  10.074  10.634
57660SOL    HW273007  10.216  10.079  10.545
57661SOL     OW73008   9.350   9.854  10.424
57661SOL    HW173009   9.435   9.821  10.383
57661SOL    HW273010   9.363   9.869  10.522
57662SOL     OW73011   9.499   9.830  11.032
57662SOL    HW173012   9.558   9.790  10.962
57662SOL    HW273013   9.441   9.901  10.991
57663SOL     OW73014  10.679  10.260  10.970
57663SOL    HW173015  10.718  10.349  10.990
57663SOL    HW273016  10.689  10.240  10.873
57664SOL     OW73017  10.125   9.882   9.635
57664SOL    HW173018  10.132   9.793   9.589
57664SOL    HW273019  10.031   9.916   9.627
57665SOL     OW73020  10.967   9.914  10.516
57665SOL    HW173021  10.929   9.845  10.578
57665SOL    HW273022  11.049   9.878  10.472
57666SOL     OW73023   9.562  10.874  11.054
57666SOL    HW173024   9.532  10.931  11.130
57666SOL    HW273025   9.555  10.777  11.080
57667SOL     OW73026   9.981   9.774  10.579
57667SOL    HW173027   9.947   9.685  10.549
57667SOL    HW273028  10.007   9.828  10.499
57668SOL     OW73029  10.240  10.988  10.775
57668SOL    HW173030  10.216  10.970  10.680
57668SOL    HW273031  10.270  11.082  10.785
57669SOL     OW73032   9.783   9.810   9.501
57669SOL    HW173033   9.844   9.890   9.505
57669SOL    HW273034   9.688   9.841   9.508
57670SOL     OW73035   9.469  10.447  10.776
57670SOL    HW173036   9.491  10.386  10.852
57670SOL    HW273037   9.479  10.398  10.690
57671SOL     OW73038  10.657  10.369  10.544
57671SOL    HW173039  10.681  10.306  10.470
57671SOL    HW273040  10.567  10.409  10.526
57672SOL     OW73041  10.612  10.165   9.619
57672SOL    HW173042  10.526  10.134   9.661
57672SOL    HW273043  10.608  10.151   9.520
57673SOL     OW73044  11.069  11.057  10.464
57673SOL    HW173045  11.130  11.087  10.391
57673SOL    HW273046  11.031  10.968  10.442
57674SOL     OW73047  10.562  11.041  10.438
57674SOL    HW173048  10.646  11.046  10.384
57674SOL    HW273049  10.539  10.945  10.456
57675SOL     OW73050   9.393  10.568  10.332
57675SOL    HW173051   9.388  10.567  10.432
57675SOL    HW273052   9.310  10.527  10.294
57676SOL     OW73053   9.998  10.972  11.026
57676SOL    HW173054   9.942  11.053  11.035
57676SOL    HW273055  10.050  10.976  10.940
57677SOL     OW73056  11.036   9.445   9.833
57677SOL    HW173057  11.109   9.428   9.766
57677SOL    HW273058  11.005   9.358   9.871
57678SOL     OW73059  10.698  10.883   9.787
57678SOL    HW173060  10.765  10.895   9.713
57678SOL    HW273061  10.658  10.972   9.810
57679SOL     OW73062   9.440  11.104  11.161
57679SOL    HW173063   9.399  11.030  11.214
57679SOL    HW273064   9.504  11.155  11.219
57680SOL     OW73065  10.590  10.237   9.982
57680SOL    HW173066  10.650  10.156   9.984
57680SOL    HW273067  10.630  10.306   9.922
57681SOL     OW73068  10.140  10.583  10.732
57681SOL    HW173069  10.135  10.616  10.827
57681SOL    HW273070  10.054  10.602  10.686
57682SOL     OW73071   9.982  10.926   9.464
57682SOL    HW173072   9.991  10.936   9.365
57682SOL    HW273073   9.942  10.837   9.485
57683SOL     OW73074  10.960  11.030  10.704
57683SOL    HW173075  11.013  11.040  10.620
57683SOL    HW273076  10.933  11.120  10.738
57684SOL     OW73077  11.151   9.485  10.273
57684SOL    HW173078  11.190   9.400  10.237
57684SOL    HW273079  11.053   9.487  10.254
57685SOL     OW73080   9.573   9.636  10.030
57685SOL    HW173081   9.494   9.687   9.996
57685SOL    HW273082   9.564   9.621  10.128
57686SOL     OW73083  10.504  10.922   9.341
57686SOL    HW173084  10.510  10.829   9.378
57686SOL    HW273085  10.445  10.922   9.261
57687SOL     OW73086  10.132  10.312  10.682
57687SOL    HW173087  10.172  10.311  10.590
57687SOL    HW273088  10.142  10.404  10.722
57688SOL     OW73089  10.226  10.220   9.601
57688SOL    HW173090  10.289  10.258   9.533
57688SOL    HW273091  10.266  10.137   9.640
57689SOL     OW73092  10.814  10.917   9.354
57689SOL    HW173093  10.722  10.954   9.361
57689SOL    HW273094  10.852  10.937   9.264
57690SOL     OW73095   9.682  10.598  10.800
57690SOL    HW173096   9.669  10.691  10.766
57690SOL    HW273097   9.598  10.546  10.787
57691SOL     OW73098  10.924  10.602  10.599
57691SOL    HW173099  10.984  10.605  10.679
57691SOL    HW273100  10.849  10.666  10.612
57692SOL     OW73101  10.349  10.408  10.006
57692SOL    HW173102  10.279  10.361  10.060
57692SOL    HW273103  10.408  10.340   9.963
57693SOL     OW73104  10.324   9.546  10.281
57693SOL    HW173105  10.316   9.510  10.188
57693SOL    HW273106  10.322   9.470  10.346
57694SOL     OW73107   9.900  10.797   9.801
57694SOL    HW173108   9.942  10.739   9.731
57694SOL    HW273109   9.856  10.876   9.757
57695SOL     OW73110  11.019   9.695  10.691
57695SOL    HW173111  11.092   9.764  10.695
57695SOL    HW273112  11.047   9.620  10.632
57696SOL     OW73113   9.565  10.658   9.600
57696SOL    HW173114   9.469  10.659   9.573
57696SOL    HW273115   9.577  10.711   9.684
57697SOL     OW73116   9.982   9.513  10.799
57697SOL    HW173117  10.072   9.497  10.759
57697SOL    HW273118   9.990   9.518  10.898
57698SOL     OW73119   9.385   9.655   9.343
57698SOL    HW173120   9.293   9.627   9.314
57698SOL    HW273121   9.416   9.732   9.287
57699SOL     OW73122  10.750  10.166  10.708
57699SOL    HW173123  10.693  10.218  10.645
57699SOL    HW273124  10.846  10.178  10.684
57700SOL     OW73125   9.382   9.476   9.628
57700SOL    HW173126   9.365   9.559   9.574
57700SOL    HW273127   9.472   9.439   9.606
57701SOL     OW73128  10.493  10.645   9.429
57701SOL    HW173129  10.394  10.634   9.431
57701SOL    HW273130  10.527  10.660   9.522
57702SOL     OW73131   9.923  10.152  10.741
57702SOL    HW173132   9.979  10.233  10.724
57702SOL    HW273133   9.982  10.072  10.744
57703SOL     OW73134  10.803  11.077  10.269
57703SOL    HW173135  10.836  11.141  10.200
57703SOL    HW273136  10.869  11.071  10.344
57704SOL     OW73137  10.026   9.875  11.018
57704SOL    HW173138  10.045   9.940  11.092
57704SOL    HW273139  10.086   9.795  11.027
57705SOL     OW73140  10.760  10.530  10.943
57705SOL    HW173141  10.751  10.520  11.042
57705SOL    HW273142  10.856  10.523  10.917
57706SOL     OW73143   9.700  11.051  10.870
57706SOL    HW173144   9.609  11.092  10.868
57706SOL    HW273145   9.693  10.957  10.902
57707SOL     OW73146  10.984  10.193  10.564
57707SOL    HW173147  10.957  10.104  10.527
57707SOL    HW273148  10.985  10.261  10.491
57708SOL     OW73149  10.535   9.635   9.759
57708SOL    HW173150  10.600   9.561   9.748
57708SOL    HW273151  10.555   9.685   9.843
57709SOL     OW73152   9.904  10.055   9.962
57709SOL    HW173153   9.954  10.140   9.943
57709SOL    HW273154   9.816  10.057   9.914
57710SOL     OW73155  11.087   9.652  10.952
57710SOL    HW173156  11.070   9.683  10.858
57710SOL    HW273157  11.003   9.615  10.990
57711SOL     OW73158  11.040  10.244  10.827
57711SOL    HW173159  11.078  10.335  10.842
57711SOL    HW273160  11.032  10.227  10.728
57712SOL     OW73161  10.169  10.684   9.326
57712SOL    HW173162  10.123  10.699   9.414
57712SOL    HW273163  10.213  10.769   9.296
57713SOL     OW73164   9.971  11.100  10.263
57713SOL    HW173165   9.925  11.188  10.250
57713SOL    HW273166  10.070  11.112  10.256
57714SOL     OW73167  10.169  10.266  10.171
57714SOL    HW173168  10.223  10.197  10.219
57714SOL    HW273169  10.137  10.335  10.237
57715SOL     OW73170  10.393  10.294   9.397
57715SOL    HW173171  10.370  10.347   9.315
57715SOL    HW273172  10.474  10.238   9.378
57716SOL     OW73173  11.171  10.879  10.161
57716SOL    HW173174  11.100  10.867  10.091
57716SOL    HW273175  11.172  10.800  10.221
57717SOL     OW73176   9.531  10.624  11.154
57717SOL    HW173177   9.466  10.551  11.133
57717SOL    HW273178   9.535  10.638  11.252
57718SOL     OW73179   9.389  10.550   9.963
57718SOL    HW173180   9.388  10.503  10.051
57718SOL    HW273181   9.471  10.522   9.912
57719SOL     OW73182   9.982  10.701  10.934
57719SOL    HW173183   9.904  10.651  10.972
57719SOL    HW273184   9.979  10.796  10.965
57720SOL     OW73185  11.134   9.502  10.537
57720SOL    HW173186  11.130   9.412  10.581
57720SOL    HW273187  11.137   9.491  10.438
57721SOL     OW73188   9.738   9.734   9.830
57721SOL    HW173189   9.768   9.662   9.768
57721SOL    HW273190   9.699   9.694   9.913
57722SOL     OW73191  11.015  10.797  10.414
57722SOL    HW173192  10.922  10.772  10.387
57722SOL    HW273193  11.041  10.747  10.496
57723SOL     OW73194   9.627   9.857  10.590
57723SOL    HW173195   9.665   9.798  10.662
57723SOL    HW273196   9.667   9.831  10.502
57724SOL     OW73197  10.122  10.896   9.997
57724SOL    HW173198  10.154  10.906   9.903
57724SOL    HW273199  10.043  10.834   9.999
57725SOL     OW73200  10.734   9.524  10.422
57725SOL    HW173201  10.786   9.459  10.477
57725SOL    HW273202  10.685   9.587  10.483
57726SOL     OW73203  10.311   9.344  10.464
57726SOL    HW173204  10.248   9.272  10.433
57726SOL    HW273205  10.404   9.308  10.464
57727SOL     OW73206  10.080  10.640   9.611
57727SOL    HW173207  10.034  10.553   9.628
57727SOL    HW273208  10.171  10.637   9.652
57728SOL     OW73209   9.928  10.877  10.594
57728SOL    HW173210   9.923  10.959  10.651
57728SOL    HW273211  10.017  10.874  10.549
57729SOL     OW73212  10.662   9.362   9.478
57729SOL    HW173213  10.697   9.321   9.394
57729SOL    HW273214  10.572   9.324   9.498
57730SOL     OW73215  10.610   9.763  10.001
57730SOL    HW173216  10.551   9.843  10.005
57730SOL    HW273217  10.625   9.728  10.094
57731SOL     OW73218  10.903   9.531  10.192
57731SOL    HW173219  10.819   9.530  10.246
57731SOL    HW273220  10.905   9.614  10.136
57732SOL     OW73221   9.349  10.387   9.610
57732SOL    HW173222   9.448  10.376   9.601
57732SOL    HW273223   9.309  10.301   9.642
57733SOL     OW73224  10.185  10.956   9.647
57733SOL    HW173225  10.108  10.921   9.593
57733SOL    HW273226  10.153  11.027   9.709
57734SOL     OW73227   9.540   9.938  11.285
57734SOL    HW173228   9.447   9.936  11.322
57734SOL    HW273229   9.541   9.899  11.193
57735SOL     OW73230   9.535   9.585  12.168
57735SOL    HW173231   9.570   9.568  12.260
57735SOL    HW273232   9.447   9.540  12.156
57736SOL     OW73233   9.329   9.678  11.819
57736SOL    HW173234   9.247   9.721  11.858
57736SOL    HW273235   9.301   9.605  11.756
57737SOL     OW73236   9.879  10.585  12.337
57737SOL    HW173237   9.786  10.578  12.300
57737SOL    HW273238   9.890  10.674  12.381
57738SOL     OW73239  10.865  10.821  11.875
57738SOL    HW173240  10.808  10.805  11.956
57738SOL    HW273241  10.806  10.831  11.795
57739SOL     OW73242  10.445  10.013  11.889
57739SOL    HW173243  10.502  10.091  11.864
57739SOL    HW273244  10.385  10.039  11.965
57740SOL     OW73245  11.065   9.917  11.403
57740SOL    HW173246  11.053   9.904  11.304
57740SOL    HW273247  11.035   9.836  11.452
57741SOL     OW73248  10.078  10.454  12.195
57741SOL    HW173249  10.000  10.471  12.255
57741SOL    HW273250  10.112  10.541  12.159
57742SOL     OW73251   9.995  10.322  11.837
57742SOL    HW173252  10.064  10.306  11.907
57742SOL    HW273253   9.922  10.379  11.875
57743SOL     OW73254   9.645  10.745  12.233
57743SOL    HW173255   9.567  10.714  12.180
57743SOL    HW273256   9.703  10.803  12.176
57744SOL     OW73257  10.770  10.815  12.511
57744SOL    HW173258  10.794  10.909  12.537
57744SOL    HW273259  10.754  10.761  12.593
57745SOL     OW73260   9.748   9.702  12.671
57745SOL    HW173261   9.830   9.646  12.680
57745SOL    HW273262   9.667   9.644  12.675
57746SOL     OW73263  10.913   9.757  11.909
57746SOL    HW173264  10.839   9.803  11.859
57746SOL    HW273265  10.964   9.825  11.962
57747SOL     OW73266   9.541  11.023  11.655
57747SOL    HW173267   9.575  11.100  11.709
57747SOL    HW273268   9.585  11.023  11.565
57748SOL     OW73269   9.540  10.744  11.710
57748SOL    HW173270   9.514  10.840  11.710
57748SOL    HW273271   9.469  10.690  11.755
57749SOL     OW73272   9.550  10.401  12.058
57749SOL    HW173273   9.564  10.317  12.110
57749SOL    HW273274   9.495  10.465  12.113
57750SOL     OW73275   9.930  11.096  12.611
57750SOL    HW173276   9.838  11.079  12.646
57750SOL    HW273277   9.958  11.188  12.637
57751SOL     OW73278   9.916  10.274  11.295
57751SOL    HW173279   9.923  10.358  11.241
57751SOL    HW273280   9.962  10.287  11.383
57752SOL     OW73281  10.904   9.424  12.652
57752SOL    HW173282  10.886   9.491  12.580
57752SOL    HW273283  10.901   9.470  12.741
57753SOL     OW73284   9.432   9.953  11.735
57753SOL    HW173285   9.387   9.865  11.752
57753SOL    HW273286   9.431  10.007  11.819
57754SOL     OW73287  11.152  11.077  11.531
57754SOL    HW173288  11.206  11.048  11.611
57754SOL    HW273289  11.182  11.167  11.502
57755SOL     OW73290   9.337  10.906  11.289
57755SOL    HW173291   9.318  10.810  11.310
57755SOL    HW273292   9.304  10.964  11.364
57756SOL     OW73293  10.999  10.232  11.784
57756SOL    HW173294  11.094  10.203  11.792
57756SOL    HW273295  10.991  10.297  11.709
57757SOL     OW73296  10.951  10.418  11.604
57757SOL    HW173297  11.037  10.420  11.552
57757SOL    HW273298  10.965  10.465  11.692
57758SOL     OW73299   9.923  10.675  11.898
57758SOL    HW173300   9.874  10.588  11.907
57758SOL    HW273301   9.900  10.718  11.811
57759SOL     OW73302  10.119   9.314  11.674
57759SOL    HW173303  10.159   9.405  11.665
57759SOL    HW273304  10.019   9.322  11.680
57760SOL     OW73305   9.507  10.286  12.436
57760SOL    HW173306   9.596  10.241  12.422
57760SOL    HW273307   9.434  10.221  12.417
57761SOL     OW73308  10.835  10.309  11.362
57761SOL    HW173309  10.772  10.233  11.375
57761SOL    HW273310  10.883  10.327  11.448
57762SOL     OW73311   9.627   9.561  12.973
57762SOL    HW173312   9.698   9.632  12.979
57762SOL    HW273313   9.539   9.600  13.001
57763SOL     OW73314  10.776  10.727  12.125
57763SOL    HW173315  10.717  10.733  12.205
57763SOL    HW273316  10.761  10.639  12.079
57764SOL     OW73317  10.977  11.024  11.744
57764SOL    HW173318  10.936  11.001  11.656
57764SOL    HW273319  10.959  10.950  11.809
57765SOL     OW73320   9.908  10.039  11.442
57765SOL    HW173321   9.932  10.108  11.374
57765SOL    HW273322   9.830  10.072  11.496
57766SOL     OW73323  10.591   9.655  12.116
57766SOL    HW173324  10.505   9.605  12.103
57766SOL    HW273325  10.653   9.601  12.172
57767SOL     OW73326  10.886  10.972  11.479
57767SOL    HW173327  10.975  11.018  11.482
57767SOL    HW273328  10.865  10.948  11.384
57768SOL     OW73329  10.117   9.915  12.637
57768SOL    HW173330  10.070   9.912  12.726
57768SOL    HW273331  10.066   9.860  12.571
57769SOL     OW73332  10.301   9.720  12.414
57769SOL    HW173333  10.224   9.754  12.468
57769SOL    HW273334  10.267   9.669  12.335
57770SOL     OW73335  10.351  10.011  11.601
57770SOL    HW173336  10.377  10.007  11.697
57770SOL    HW273337  10.266   9.960  11.587
57771SOL     OW73338   9.386  10.121  11.961
57771SOL    HW173339   9.485  10.109  11.970
57771SOL    HW273340   9.362  10.216  11.982
57772SOL     OW73341   9.440  11.131  12.743
57772SOL    HW173342   9.430  11.116  12.842
57772SOL    HW273343   9.354  11.167  12.707
57773SOL     OW73344  10.175   9.658  11.367
57773SOL    HW173345  10.234   9.721  11.318
57773SOL    HW273346  10.194   9.564  11.338
57774SOL     OW73347  10.672  10.454  11.717
57774SOL    HW173348  10.755  10.425  11.669
57774SOL    HW273349  10.623  10.521  11.661
57775SOL     OW73350   9.860   9.506  12.057
57775SOL    HW173351   9.855   9.501  12.157
57775SOL    HW273352   9.862   9.602  12.028
57776SOL     OW73353  10.318  10.766  11.649
57776SOL    HW173354  10.272  10.838  11.597
57776SOL    HW273355  10.314  10.786  11.747
57777SOL     OW73356   9.661  11.111  12.025
57777SOL    HW173357   9.711  11.025  12.031
57777SOL    HW273358   9.726  11.188  12.022
57778SOL     OW73359  11.105  10.376  12.045
57778SOL    HW173360  11.043  10.361  11.969
57778SOL    HW273361  11.053  10.387  12.130
57779SOL     OW73362   9.631  10.253  11.414
57779SOL    HW173363   9.713  10.292  11.372
57779SOL    HW273364   9.604  10.171  11.365
57780SOL     OW73365  10.768  10.045  11.900
57780SOL    HW173366  10.763   9.980  11.975
57780SOL    HW273367  10.848  10.104  11.913
57781SOL     OW73368  10.421  11.086  11.409
57781SOL    HW173369  10.361  11.024  11.459
57781SOL    HW273370  10.452  11.042  11.324
57782SOL     OW73371   9.512   9.595  12.670
57782SOL    HW173372   9.432   9.655  12.657
57782SOL    HW273373   9.502   9.546  12.756
57783SOL     OW73374  10.942  10.687  11.253
57783SOL    HW173375  10.910  10.781  11.243
57783SOL    HW273376  10.866  10.624  11.241
57784SOL     OW73377   9.774  11.053  11.495
57784SOL    HW173378   9.807  11.092  11.581
57784SOL    HW273379   9.850  11.046  11.430
57785SOL     OW73380  10.710   9.417  11.598
57785SOL    HW173381  10.686   9.380  11.508
57785SOL    HW273382  10.809   9.433  11.602
57786SOL     OW73383   9.559  11.095  12.413
57786SOL    HW173384   9.616  11.030  12.463
57786SOL    HW273385   9.543  11.062  12.320
57787SOL     OW73386  10.250  11.008  12.076
57787SOL    HW173387  10.330  10.951  12.097
57787SOL    HW273388  10.201  10.968  11.999
57788SOL     OW73389   9.692  10.010  11.652
57788SOL    HW173390   9.737   9.920  11.649
57788SOL    HW273391   9.598   9.999  11.685
57789SOL     OW73392   9.924   9.432  11.289
57789SOL    HW173393  10.022   9.410  11.296
57789SOL    HW273394   9.893   9.415  11.196
57790SOL     OW73395  10.198  10.824  12.367
57790SOL    HW173396  10.175  10.799  12.273
57790SOL    HW273397  10.259  10.755  12.406
57791SOL     OW73398  10.113  10.712  12.096
57791SOL    HW173399  10.203  10.726  12.054
57791SOL    HW273400  10.042  10.714  12.025
57792SOL     OW73401  10.232   9.813  12.071
57792SOL    HW173402  10.207   9.804  11.975
57792SOL    HW273403  10.280   9.731  12.102
57793SOL     OW73404   9.849   9.374  11.684
57793SOL    HW173405   9.768   9.375  11.742
57793SOL    HW273406   9.852   9.457  11.629
57794SOL     OW73407  10.744  10.498  11.213
57794SOL    HW173408  10.776  10.422  11.270
57794SOL    HW273409  10.652  10.525  11.243
57795SOL     OW73410   9.607   9.345  11.343
57795SOL    HW173411   9.656   9.429  11.322
57795SOL    HW273412   9.669   9.280  11.388
57796SOL     OW73413  10.245   9.546  11.652
57796SOL    HW173414  10.197   9.587  11.574
57796SOL    HW273415  10.344   9.544  11.633
57797SOL     OW73416  10.537  10.880  11.965
57797SOL    HW173417  10.558  10.954  11.900
57797SOL    HW273418  10.605  10.880  12.038
57798SOL     OW73419   9.769  10.462  11.913
57798SOL    HW173420   9.698  10.435  11.978
57798SOL    HW273421   9.743  10.434  11.820
57799SOL     OW73422  10.581  11.107  11.763
57799SOL    HW173423  10.625  11.171  11.699
57799SOL    HW273424  10.531  11.159  11.833
57800SOL     OW73425  10.342   9.859  11.188
57800SOL    HW173426  10.301   9.941  11.149
57800SOL    HW273427  10.406   9.885  11.261
57801SOL     OW73428   9.388   9.866  12.558
57801SOL    HW173429   9.480   9.865  12.517
57801SOL    HW273430   9.382   9.940  12.625
57802SOL     OW73431   9.871   9.532  12.319
57802SOL    HW173432   9.909   9.448  12.356
57802SOL    HW273433   9.783   9.551  12.363
57803SOL     OW73434  10.176   9.764  11.814
57803SOL    HW173435  10.144   9.836  11.752
57803SOL    HW273436  10.200   9.683  11.761
57804SOL     OW73437  10.327   9.349  11.925
57804SOL    HW173438  10.255   9.354  11.856
57804SOL    HW273439  10.303   9.280  11.994
57805SOL     OW73440  10.739  10.483  12.039
57805SOL    HW173441  10.684  10.399  12.032
57805SOL    HW273442  10.765  10.512  11.947
57806SOL     OW73443  10.776   9.900  12.164
57806SOL    HW173444  10.746   9.805  12.171
57806SOL    HW273445  10.849   9.916  12.230
57807SOL     OW73446  11.167  10.143  11.549
57807SOL    HW173447  11.209  10.079  11.613
57807SOL    HW273448  11.129  10.092  11.471
57808SOL     OW73449   9.798  10.695  11.346
57808SOL    HW173450   9.711  10.680  11.393
57808SOL    HW273451   9.781  10.721  11.251
57809SOL     OW73452  10.974  10.590  11.829
57809SOL    HW173453  11.073  10.598  11.843
57809SOL    HW273454  10.929  10.674  11.860
57810SOL     OW73455  10.700   9.885  11.250
57810SOL    HW173456  10.646   9.864  11.331
57810SOL    HW273457  10.791   9.844  11.259
57811SOL     OW73458   9.837   9.566  11.500
57811SOL    HW173459   9.864   9.507  11.425
57811SOL    HW273460   9.837   9.661  11.469
57812SOL     OW73461  10.374  10.657  12.512
57812SOL    HW173462  10.294  10.634  12.567
57812SOL    HW273463  10.457  10.631  12.561
57813SOL     OW73464  10.421  10.505  12.272
57813SOL    HW173465  10.381  10.549  12.353
57813SOL    HW273466  10.380  10.542  12.189
57814SOL     OW73467  10.948  10.409  12.251
57814SOL    HW173468  10.953  10.490  12.310
57814SOL    HW273469  10.862  10.411  12.200
57815SOL     OW73470  10.225   9.399  12.574
57815SOL    HW173471  10.250   9.379  12.479
57815SOL    HW273472  10.297   9.455  12.616
57816SOL     OW73473  10.015  10.360  11.540
57816SOL    HW173474  10.001  10.367  11.639
57816SOL    HW273475  10.099  10.309  11.522
57817SOL     OW73476   9.720  10.123  12.423
57817SOL    HW173477   9.806  10.135  12.473
57817SOL    HW273478   9.678  10.036  12.450
57818SOL     OW73479  10.584   9.696  12.434
57818SOL    HW173480  10.605   9.770  12.498
57818SOL    HW273481  10.495   9.713  12.391
57819SOL     OW73482   9.374  10.874  12.503
57819SOL    HW173483   9.328  10.956  12.469
57819SOL    HW273484   9.472  10.893  12.512
57820SOL     OW73485   9.677  10.410  11.673
57820SOL    HW173486   9.670  10.493  11.617
57820SOL    HW273487   9.681  10.330  11.613
57821SOL     OW73488   9.876   9.847  12.037
57821SOL    HW173489   9.888   9.913  11.963
57821SOL    HW273490   9.922   9.881  12.120
57822SOL     OW73491  10.562  10.658  11.560
57822SOL    HW173492  10.612  10.735  11.600
57822SOL    HW273493  10.467  10.660  11.592
57823SOL     OW73494  10.582  10.755  12.314
57823SOL    HW173495  10.629  10.768  12.401
57823SOL    HW273496  10.516  10.681  12.323
57824SOL     OW73497  10.892   9.949  11.644
57824SOL    HW173498  10.861  10.010  11.717
57824SOL    HW273499  10.942  10.001  11.575
57825SOL     OW73500   9.664  10.820  12.501
57825SOL    HW173501   9.643  10.776  12.414
57825SOL    HW273502   9.761  10.846  12.504
57826SOL     OW73503   9.712  10.061  12.770
57826SOL    HW173504   9.780  10.116  12.723
57826SOL    HW273505   9.752   9.973  12.797
57827SOL     OW73506  10.897  10.089  12.842
57827SOL    HW173507  10.805  10.127  12.837
57827SOL    HW273508  10.957  10.136  12.777
57828SOL     OW73509   9.883  10.180  12.201
57828SOL    HW173510   9.927  10.269  12.192
57828SOL    HW273511   9.820  10.180  12.278
57829SOL     OW73512  10.670  10.172  12.217
57829SOL    HW173513  10.595  10.172  12.151
57829SOL    HW273514  10.707  10.080  12.226
57830SOL     OW73515  10.519   9.835  11.447
57830SOL    HW173516  10.532   9.751  11.501
57830SOL    HW273517  10.490   9.909  11.507
57831SOL     OW73518   9.617   9.523  12.403
57831SOL    HW173519   9.594   9.560  12.493
57831SOL    HW273520   9.587   9.428  12.397
57832SOL     OW73521   9.347  10.620  12.454
57832SOL    HW173522   9.400  10.571  12.522
57832SOL    HW273523   9.369  10.718  12.459
57833SOL     OW73524  10.042   9.944  12.236
57833SOL    HW173525  10.101   9.918  12.160
57833SOL    HW273526  10.014  10.040  12.225
57834SOL     OW73527   9.617   9.373  11.790
57834SOL    HW173528   9.606   9.467  11.823
57834SOL    HW273529   9.612   9.310  11.867
57835SOL     OW73530  10.932   9.677  11.546
57835SOL    HW173531  10.934   9.601  11.610
57835SOL    HW273532  10.884   9.754  11.586
57836SOL     OW73533  10.333  10.076  12.138
57836SOL    HW173534  10.348  10.097  12.234
57836SOL    HW273535  10.303   9.981  12.129
57837SOL     OW73536  10.290  10.883  12.872
57837SOL    HW173537  10.270  10.927  12.784
57837SOL    HW273538  10.329  10.792  12.856
57838SOL     OW73539  10.850   9.584  11.297
57838SOL    HW173540  10.789   9.509  11.320
57838SOL    HW273541  10.872   9.636  11.380
57839SOL     OW73542  10.613  10.148  11.214
57839SOL    HW173543  10.647  10.055  11.229
57839SOL    HW273544  10.631  10.175  11.119
57840SOL     OW73545  10.378  10.643  12.021
57840SOL    HW173546  10.385  10.559  11.966
57840SOL    HW273547  10.440  10.712  11.985
57841SOL     OW73548   9.629  10.120  12.121
57841SOL    HW173549   9.722  10.156  12.126
57841SOL    HW273550   9.623  10.035  12.173
57842SOL     OW73551   9.649   9.819  12.178
57842SOL    HW173552   9.597   9.736  12.161
57842SOL    HW273553   9.726   9.824  12.114
57843SOL     OW73554  10.448   9.690  12.850
57843SOL    HW173555  10.403   9.753  12.914
57843SOL    HW273556  10.541   9.721  12.833
57844SOL     OW73557  10.470   9.517  12.649
57844SOL    HW173558  10.470   9.581  12.726
57844SOL    HW273559  10.498   9.565  12.566
57845SOL     OW73560   9.318  10.636  11.372
57845SOL    HW173561   9.225  10.657  11.341
57845SOL    HW273562   9.328  10.537  11.385
57846SOL     OW73563   9.398  11.111  12.099
57846SOL    HW173564   9.356  11.025  12.072
57846SOL    HW273565   9.492  11.114  12.065
57847SOL     OW73566   9.814  10.878  12.082
57847SOL    HW173567   9.880  10.952  12.091
57847SOL    HW273568   9.858  10.799  12.040
57848SOL     OW73569  10.312  10.106  12.410
57848SOL    HW173570  10.353  10.074  12.496
57848SOL    HW273571  10.216  10.079  12.407
57849SOL     OW73572   9.350   9.854  12.286
57849SOL    HW173573   9.435   9.821  12.245
57849SOL    HW273574   9.363   9.869  12.384
57850SOL     OW73575  10.125   9.882  11.497
57850SOL    HW173576  10.132   9.793  11.451
57850SOL    HW273577  10.031   9.916  11.489
57851SOL     OW73578  10.967   9.914  12.378
57851SOL    HW173579  10.929   9.845  12.440
57851SOL    HW273580  11.049   9.878  12.334
57852SOL     OW73581   9.981   9.774  12.441
57852SOL    HW173582   9.947   9.685  12.411
57852SOL    HW273583  10.007   9.828  12.361
57853SOL     OW73584  10.240  10.988  12.637
57853SOL    HW173585  10.216  10.970  12.542
57853SOL    HW273586  10.270  11.082  12.647
57854SOL     OW73587   9.783   9.810  11.363
57854SOL    HW173588   9.844   9.890  11.367
57854SOL    HW273589   9.688   9.841  11.370
57855SOL     OW73590   9.469  10.447  12.638
57855SOL    HW173591   9.491  10.386  12.714
57855SOL    HW273592   9.479  10.398  12.552
57856SOL     OW73593  10.657  10.369  12.406
57856SOL    HW173594  10.681  10.306  12.332
57856SOL    HW273595  10.567  10.409  12.388
57857SOL     OW73596  10.612  10.165  11.481
57857SOL    HW173597  10.526  10.134  11.523
57857SOL    HW273598  10.608  10.151  11.382
57858SOL     OW73599  11.069  11.057  12.326
57858SOL    HW173600  11.130  11.087  12.253
57858SOL    HW273601  11.031  10.968  12.304
57859SOL     OW73602  10.562  11.041  12.300
57859SOL    HW173603  10.646  11.046  12.246
57859SOL    HW273604  10.539  10.945  12.318
57860SOL     OW73605   9.393  10.568  12.194
57860SOL    HW173606   9.388  10.567  12.294
57860SOL    HW273607   9.310  10.527  12.156
57861SOL     OW73608  11.036   9.445  11.695
57861SOL    HW173609  11.109   9.428  11.628
57861SOL    HW273610  11.005   9.358  11.733
57862SOL     OW73611  10.698  10.883  11.649
57862SOL    HW173612  10.765  10.895  11.575
57862SOL    HW273613  10.658  10.972  11.672
57863SOL     OW73614  10.590  10.237  11.844
57863SOL    HW173615  10.650  10.156  11.846
57863SOL    HW273616  10.630  10.306  11.784
57864SOL     OW73617   9.982  10.926  11.326
57864SOL    HW173618   9.991  10.936  11.227
57864SOL    HW273619   9.942  10.837  11.347
57865SOL     OW73620  10.960  11.030  12.566
57865SOL    HW173621  11.013  11.040  12.482
57865SOL    HW273622  10.933  11.120  12.600
57866SOL     OW73623  11.151   9.485  12.135
57866SOL    HW173624  11.190   9.400  12.099
57866SOL    HW273625  11.053   9.487  12.116
57867SOL     OW73626   9.573   9.636  11.892
57867SOL    HW173627   9.494   9.687  11.858
57867SOL    HW273628   9.564   9.621  11.990
57868SOL     OW73629  10.504  10.922  11.203
57868SOL    HW173630  10.510  10.829  11.240
57868SOL    HW273631  10.445  10.922  11.123
57869SOL     OW73632  10.132  10.312  12.544
57869SOL    HW173633  10.172  10.311  12.452
57869SOL    HW273634  10.142  10.404  12.584
57870SOL     OW73635  10.226  10.220  11.463
57870SOL    HW173636  10.289  10.258  11.395
57870SOL    HW273637  10.266  10.137  11.502
57871SOL     OW73638  10.814  10.917  11.216
57871SOL    HW173639  10.722  10.954  11.223
57871SOL    HW273640  10.852  10.937  11.126
57872SOL     OW73641   9.682  10.598  12.662
57872SOL    HW173642   9.669  10.691  12.628
57872SOL    HW273643   9.598  10.546  12.649
57873SOL     OW73644  10.924  10.602  12.461
57873SOL    HW173645  10.984  10.605  12.541
57873SOL    HW273646  10.849  10.666  12.474
57874SOL     OW73647  10.349  10.408  11.868
57874SOL    HW173648  10.279  10.361  11.922
57874SOL    HW273649  10.408  10.340  11.825
57875SOL     OW73650  10.324   9.546  12.143
57875SOL    HW173651  10.316   9.510  12.050
57875SOL    HW273652  10.322   9.470  12.208
57876SOL     OW73653   9.900  10.797  11.663
57876SOL    HW173654   9.942  10.739  11.593
57876SOL    HW273655   9.856  10.876  11.619
57877SOL     OW73656  11.019   9.695  12.553
57877SOL    HW173657  11.092   9.764  12.557
57877SOL    HW273658  11.047   9.620  12.494
57878SOL     OW73659   9.565  10.658  11.462
57878SOL    HW173660   9.469  10.659  11.435
57878SOL    HW273661   9.577  10.711  11.546
57879SOL     OW73662   9.385   9.655  11.205
57879SOL    HW173663   9.293   9.627  11.176
57879SOL    HW273664   9.416   9.732  11.149
57880SOL     OW73665  10.750  10.166  12.570
57880SOL    HW173666  10.693  10.218  12.507
57880SOL    HW273667  10.846  10.178  12.546
57881SOL     OW73668   9.382   9.476  11.490
57881SOL    HW173669   9.365   9.559  11.436
57881SOL    HW273670   9.472   9.439  11.468
57882SOL     OW73671  10.493  10.645  11.291
57882SOL    HW173672  10.394  10.634  11.293
57882SOL    HW273673  10.527  10.660  11.384
57883SOL     OW73674   9.923  10.152  12.603
57883SOL    HW173675   9.979  10.233  12.586
57883SOL    HW273676   9.982  10.072  12.606
57884SOL     OW73677  10.803  11.077  12.131
57884SOL    HW173678  10.836  11.141  12.062
57884SOL    HW273679  10.869  11.071  12.206
57885SOL     OW73680   9.700  11.051  12.732
57885SOL    HW173681   9.609  11.092  12.730
57885SOL    HW273682   9.693  10.957  12.764
57886SOL     OW73683  10.984  10.193  12.426
57886SOL    HW173684  10.957  10.104  12.389
57886SOL    HW273685  10.985  10.261  12.353
57887SOL     OW73686  10.535   9.635  11.621
57887SOL    HW173687  10.600   9.561  11.610
57887SOL    HW273688  10.555   9.685  11.705
57888SOL     OW73689   9.904  10.055  11.824
57888SOL    HW173690   9.954  10.140  11.805
57888SOL    HW273691   9.816  10.057  11.776
57889SOL     OW73692  11.087   9.652  12.814
57889SOL    HW173693  11.070   9.683  12.720
57889SOL    HW273694  11.003   9.615  12.852
57890SOL     OW73695  11.040  10.244  12.689
57890SOL    HW173696  11.078  10.335  12.704
57890SOL    HW273697  11.032  10.227  12.590
57891SOL     OW73698  10.169  10.684  11.188
57891SOL    HW173699  10.123  10.699  11.276
57891SOL    HW273700  10.213  10.769  11.158
57892SOL     OW73701   9.971  11.100  12.125
57892SOL    HW173702   9.925  11.188  12.112
57892SOL    HW273703  10.070  11.112  12.118
57893SOL     OW73704  10.393  10.294  11.259
57893SOL    HW173705  10.370  10.347  11.177
57893SOL    HW273706  10.474  10.238  11.240
57894SOL     OW73707  11.171  10.879  12.023
57894SOL    HW173708  11.100  10.867  11.953
57894SOL    HW273709  11.172  10.800  12.083
57895SOL     OW73710   9.389  10.550  11.825
57895SOL    HW173711   9.388  10.503  11.913
57895SOL    HW273712   9.471  10.522  11.774
57896SOL     OW73713  11.134   9.502  12.399
57896SOL    HW173714  11.130   9.412  12.443
57896SOL    HW273715  11.137   9.491  12.300
57897SOL     OW73716   9.738   9.734  11.692
57897SOL    HW173717   9.768   9.662  11.630
57897SOL    HW273718   9.699   9.694  11.775
57898SOL     OW73719  11.015  10.797  12.276
57898SOL    HW173720  10.922  10.772  12.249
57898SOL    HW273721  11.041  10.747  12.358
57899SOL     OW73722   9.627   9.857  12.452
57899SOL    HW173723   9.665   9.798  12.524
57899SOL    HW273724   9.667   9.831  12.364
57900SOL     OW73725  10.122  10.896  11.859
57900SOL    HW173726  10.154  10.906  11.765
57900SOL    HW273727  10.043  10.834  11.861
57901SOL     OW73728  10.734   9.524  12.284
57901SOL    HW173729  10.786   9.459  12.339
57901SOL    HW273730  10.685   9.587  12.345
57902SOL     OW73731  10.311   9.344  12.326
57902SOL    HW173732  10.248   9.272  12.295
57902SOL    HW273733  10.404   9.308  12.326
57903SOL     OW73734  10.080  10.640  11.473
57903SOL    HW173735  10.034  10.553  11.490
57903SOL    HW273736  10.171  10.637  11.514
57904SOL     OW73737   9.928  10.877  12.456
57904SOL    HW173738   9.923  10.959  12.513
57904SOL    HW273739  10.017  10.874  12.411
57905SOL     OW73740  10.662   9.362  11.340
57905SOL    HW173741  10.697   9.321  11.256
57905SOL    HW273742  10.572   9.324  11.360
57906SOL     OW73743  10.610   9.763  11.863
57906SOL    HW173744  10.551   9.843  11.867
57906SOL    HW273745  10.625   9.728  11.956
57907SOL     OW73746  10.903   9.531  12.054
57907SOL    HW173747  10.819   9.530  12.108
57907SOL    HW273748  10.905   9.614  11.998
57908SOL     OW73749   9.349  10.387  11.472
57908SOL    HW173750   9.448  10.376  11.463
57908SOL    HW273751   9.309  10.301  11.504
57909SOL     OW73752  10.185  10.956  11.509
57909SOL    HW173753  10.108  10.921  11.455
57909SOL    HW273754  10.153  11.027  11.571
57910SOL     OW73755   9.540  11.800   0.113
57910SOL    HW173756   9.447  11.798   0.150
57910SOL    HW273757   9.541  11.761   0.021
57911SOL     OW73758   9.535  11.447   0.996
57911SOL    HW173759   9.570  11.430   1.088
57911SOL    HW273760   9.447  11.402   0.984
57912SOL     OW73761   9.329  11.540   0.647
57912SOL    HW173762   9.247  11.583   0.686
57912SOL    HW273763   9.301  11.467   0.584
57913SOL     OW73764   9.879  12.447   1.165
57913SOL    HW173765   9.786  12.440   1.128
57913SOL    HW273766   9.890  12.536   1.209
57914SOL     OW73767  10.865  12.683   0.703
57914SOL    HW173768  10.808  12.667   0.784
57914SOL    HW273769  10.806  12.693   0.623
57915SOL     OW73770  10.445  11.875   0.717
57915SOL    HW173771  10.502  11.953   0.692
57915SOL    HW273772  10.385  11.901   0.793
57916SOL     OW73773  11.065  11.779   0.231
57916SOL    HW173774  11.053  11.766   0.132
57916SOL    HW273775  11.035  11.698   0.280
57917SOL     OW73776  10.078  12.316   1.023
57917SOL    HW173777  10.000  12.333   1.083
57917SOL    HW273778  10.112  12.403   0.987
57918SOL     OW73779  10.160  11.970   1.823
57918SOL    HW173780  10.156  12.046   1.888
57918SOL    HW273781  10.182  12.006   1.732
57919SOL     OW73782   9.995  12.184   0.665
57919SOL    HW173783  10.064  12.168   0.735
57919SOL    HW273784   9.922  12.241   0.703
57920SOL     OW73785   9.996  12.333   1.803
57920SOL    HW173786  10.056  12.412   1.817
57920SOL    HW273787   9.910  12.364   1.762
57921SOL     OW73788   9.645  12.607   1.061
57921SOL    HW173789   9.567  12.576   1.008
57921SOL    HW273790   9.703  12.665   1.004
57922SOL     OW73791  10.770  12.677   1.339
57922SOL    HW173792  10.794  12.771   1.365
57922SOL    HW273793  10.754  12.623   1.421
57923SOL     OW73794   9.748  11.564   1.499
57923SOL    HW173795   9.830  11.508   1.508
57923SOL    HW273796   9.667  11.506   1.503
57924SOL     OW73797  10.913  11.619   0.737
57924SOL    HW173798  10.839  11.665   0.687
57924SOL    HW273799  10.964  11.687   0.790
57925SOL     OW73800   9.541  12.885   0.483
57925SOL    HW173801   9.575  12.962   0.537
57925SOL    HW273802   9.585  12.885   0.393
57926SOL     OW73803  10.437  12.513   1.690
57926SOL    HW173804  10.484  12.513   1.778
57926SOL    HW273805  10.389  12.426   1.679
57927SOL     OW73806   9.540  12.606   0.538
57927SOL    HW173807   9.514  12.702   0.538
57927SOL    HW273808   9.469  12.552   0.583
57928SOL     OW73809   9.550  12.263   0.886
57928SOL    HW173810   9.564  12.179   0.938
57928SOL    HW273811   9.495  12.327   0.941
57929SOL     OW73812   9.916  12.136   0.123
57929SOL    HW173813   9.923  12.220   0.069
57929SOL    HW273814   9.962  12.149   0.211
57930SOL     OW73815  10.904  11.286   1.480
57930SOL    HW173816  10.886  11.353   1.408
57930SOL    HW273817  10.901  11.332   1.569
57931SOL     OW73818   9.432  11.815   0.563
57931SOL    HW173819   9.387  11.727   0.580
57931SOL    HW273820   9.431  11.869   0.647
57932SOL     OW73821   9.337  12.768   0.117
57932SOL    HW173822   9.318  12.672   0.138
57932SOL    HW273823   9.304  12.826   0.192
57933SOL     OW73824  10.999  12.094   0.612
57933SOL    HW173825  11.094  12.065   0.620
57933SOL    HW273826  10.991  12.159   0.537
57934SOL     OW73827  10.951  12.280   0.432
57934SOL    HW173828  11.037  12.282   0.380
57934SOL    HW273829  10.965  12.327   0.520
57935SOL     OW73830   9.423  11.909   1.597
57935SOL    HW173831   9.511  11.896   1.642
57935SOL    HW273832   9.410  12.006   1.575
57936SOL     OW73833   9.923  12.537   0.726
57936SOL    HW173834   9.874  12.450   0.735
57936SOL    HW273835   9.900  12.580   0.639
57937SOL     OW73836  10.603  12.400   1.423
57937SOL    HW173837  10.640  12.327   1.365
57937SOL    HW273838  10.655  12.405   1.508
57938SOL     OW73839  10.119  11.176   0.502
57938SOL    HW173840  10.159  11.267   0.493
57938SOL    HW273841  10.019  11.184   0.508
57939SOL     OW73842   9.507  12.148   1.264
57939SOL    HW173843   9.596  12.103   1.250
57939SOL    HW273844   9.434  12.083   1.245
57940SOL     OW73845  10.835  12.171   0.190
57940SOL    HW173846  10.772  12.095   0.203
57940SOL    HW273847  10.883  12.189   0.276
57941SOL     OW73848   9.627  11.423   1.801
57941SOL    HW173849   9.698  11.494   1.807
57941SOL    HW273850   9.539  11.462   1.829
57942SOL     OW73851  10.776  12.589   0.953
57942SOL    HW173852  10.717  12.595   1.033
57942SOL    HW273853  10.761  12.501   0.907
57943SOL     OW73854   9.908  11.901   0.270
57943SOL    HW173855   9.932  11.970   0.202
57943SOL    HW273856   9.830  11.934   0.324
57944SOL     OW73857  10.591  11.517   0.944
57944SOL    HW173858  10.505  11.467   0.931
57944SOL    HW273859  10.653  11.463   1.000
57945SOL     OW73860  10.117  11.777   1.465
57945SOL    HW173861  10.070  11.774   1.554
57945SOL    HW273862  10.066  11.722   1.399
57946SOL     OW73863  10.704  11.641   1.674
57946SOL    HW173864  10.684  11.684   1.762
57946SOL    HW273865  10.782  11.579   1.683
57947SOL     OW73866  10.283  12.062   1.572
57947SOL    HW173867  10.329  11.978   1.543
57947SOL    HW273868  10.227  12.096   1.497
57948SOL     OW73869  10.301  11.582   1.242
57948SOL    HW173870  10.224  11.616   1.296
57948SOL    HW273871  10.267  11.531   1.163
57949SOL     OW73872  10.351  11.873   0.429
57949SOL    HW173873  10.377  11.869   0.525
57949SOL    HW273874  10.266  11.822   0.415
57950SOL     OW73875   9.386  11.983   0.789
57950SOL    HW173876   9.485  11.971   0.798
57950SOL    HW273877   9.362  12.078   0.810
57951SOL     OW73878  10.175  11.520   0.195
57951SOL    HW173879  10.234  11.583   0.146
57951SOL    HW273880  10.194  11.426   0.166
57952SOL     OW73881  11.029  11.757   1.831
57952SOL    HW173882  11.003  11.846   1.795
57952SOL    HW273883  11.027  11.689   1.758
57953SOL     OW73884  10.672  12.316   0.545
57953SOL    HW173885  10.755  12.287   0.497
57953SOL    HW273886  10.623  12.383   0.489
57954SOL     OW73887   9.860  11.368   0.885
57954SOL    HW173888   9.855  11.363   0.985
57954SOL    HW273889   9.862  11.464   0.856
57955SOL     OW73890  10.318  12.628   0.477
57955SOL    HW173891  10.272  12.700   0.425
57955SOL    HW273892  10.314  12.648   0.575
57956SOL     OW73893  11.105  12.238   0.873
57956SOL    HW173894  11.043  12.223   0.797
57956SOL    HW273895  11.053  12.249   0.958
57957SOL     OW73896  10.537  12.722   1.506
57957SOL    HW173897  10.543  12.645   1.570
57957SOL    HW273898  10.485  12.696   1.426
57958SOL     OW73899   9.631  12.115   0.242
57958SOL    HW173900   9.713  12.154   0.200
57958SOL    HW273901   9.604  12.033   0.193
57959SOL     OW73902  10.768  11.907   0.728
57959SOL    HW173903  10.763  11.842   0.803
57959SOL    HW273904  10.848  11.966   0.741
57960SOL     OW73905   9.771  12.438   1.727
57960SOL    HW173906   9.721  12.439   1.641
57960SOL    HW273907   9.708  12.420   1.803
57961SOL     OW73908  10.421  12.948   0.237
57961SOL    HW173909  10.361  12.886   0.287
57961SOL    HW273910  10.452  12.904   0.152
57962SOL     OW73911   9.512  11.457   1.498
57962SOL    HW173912   9.432  11.517   1.485
57962SOL    HW273913   9.502  11.408   1.584
57963SOL     OW73914  10.942  12.549   0.081
57963SOL    HW173915  10.910  12.643   0.071
57963SOL    HW273916  10.866  12.486   0.069
57964SOL     OW73917  10.710  11.279   0.426
57964SOL    HW173918  10.686  11.242   0.336
57964SOL    HW273919  10.809  11.295   0.430
57965SOL     OW73920   9.692  11.872   0.480
57965SOL    HW173921   9.737  11.782   0.477
57965SOL    HW273922   9.598  11.861   0.513
57966SOL     OW73923  10.857  11.394   1.729
57966SOL    HW173924  10.852  11.431   1.821
57966SOL    HW273925  10.785  11.325   1.717
57967SOL     OW73926   9.924  11.294   0.117
57967SOL    HW173927  10.022  11.272   0.124
57967SOL    HW273928   9.893  11.277   0.024
57968SOL     OW73929  10.091  11.436   1.749
57968SOL    HW173930  10.158  11.375   1.792
57968SOL    HW273931  10.018  11.455   1.814
57969SOL     OW73932  10.661  11.762   1.433
57969SOL    HW173933  10.689  11.719   1.518
57969SOL    HW273934  10.686  11.858   1.434
57970SOL     OW73935  10.113  12.574   0.924
57970SOL    HW173936  10.203  12.588   0.882
57970SOL    HW273937  10.042  12.576   0.853
57971SOL     OW73938  10.232  11.675   0.899
57971SOL    HW173939  10.207  11.666   0.803
57971SOL    HW273940  10.280  11.593   0.930
57972SOL     OW73941   9.849  11.236   0.512
57972SOL    HW173942   9.768  11.237   0.570
57972SOL    HW273943   9.852  11.319   0.457
57973SOL     OW73944  10.744  12.360   0.041
57973SOL    HW173945  10.776  12.284   0.098
57973SOL    HW273946  10.652  12.387   0.071
57974SOL     OW73947   9.607  11.207   0.171
57974SOL    HW173948   9.656  11.291   0.150
57974SOL    HW273949   9.669  11.142   0.216
57975SOL     OW73950  10.245  11.408   0.480
57975SOL    HW173951  10.197  11.449   0.402
57975SOL    HW273952  10.344  11.406   0.461
57976SOL     OW73953  10.386  11.855   1.464
57976SOL    HW173954  10.306  11.794   1.467
57976SOL    HW273955  10.467  11.802   1.440
57977SOL     OW73956  10.537  12.742   0.793
57977SOL    HW173957  10.558  12.816   0.728
57977SOL    HW273958  10.605  12.742   0.866
57978SOL     OW73959   9.769  12.324   0.741
57978SOL    HW173960   9.698  12.297   0.806
57978SOL    HW273961   9.743  12.296   0.648
57979SOL     OW73962  10.342  11.721   0.016
57979SOL    HW173963  10.301  11.803  -0.023
57979SOL    HW273964  10.406  11.747   0.089
57980SOL     OW73965   9.388  11.728   1.386
57980SOL    HW173966   9.480  11.727   1.345
57980SOL    HW273967   9.382  11.802   1.453
57981SOL     OW73968   9.871  11.394   1.147
57981SOL    HW173969   9.909  11.310   1.184
57981SOL    HW273970   9.783  11.413   1.191
57982SOL     OW73971  10.176  11.626   0.642
57982SOL    HW173972  10.144  11.698   0.580
57982SOL    HW273973  10.200  11.545   0.589
57983SOL     OW73974  10.327  11.211   0.753
57983SOL    HW173975  10.255  11.216   0.684
57983SOL    HW273976  10.303  11.142   0.822
57984SOL     OW73977  10.739  12.345   0.867
57984SOL    HW173978  10.684  12.261   0.860
57984SOL    HW273979  10.765  12.374   0.775
57985SOL     OW73980  10.776  11.762   0.992
57985SOL    HW173981  10.746  11.667   0.999
57985SOL    HW273982  10.849  11.778   1.058
57986SOL     OW73983   9.798  12.557   0.174
57986SOL    HW173984   9.711  12.542   0.221
57986SOL    HW273985   9.781  12.583   0.079
57987SOL     OW73986  10.974  12.452   0.657
57987SOL    HW173987  11.073  12.460   0.671
57987SOL    HW273988  10.929  12.536   0.688
57988SOL     OW73989  10.700  11.747   0.078
57988SOL    HW173990  10.646  11.726   0.159
57988SOL    HW273991  10.791  11.706   0.087
57989SOL     OW73992   9.837  11.428   0.328
57989SOL    HW173993   9.864  11.369   0.253
57989SOL    HW273994   9.837  11.523   0.297
57990SOL     OW73995  11.064  12.395   1.588
57990SOL    HW173996  11.155  12.356   1.575
57990SOL    HW273997  11.072  12.491   1.612
57991SOL     OW73998  10.374  12.519   1.340
57991SOL    HW173999  10.294  12.496   1.395
57991SOL    HW274000  10.457  12.493   1.389
57992SOL     OW74001  10.421  12.367   1.100
57992SOL    HW174002  10.381  12.411   1.181
57992SOL    HW274003  10.380  12.404   1.017
57993SOL     OW74004  10.948  12.271   1.079
57993SOL    HW174005  10.953  12.352   1.138
57993SOL    HW274006  10.862  12.273   1.028
57994SOL     OW74007  10.225  11.261   1.402
57994SOL    HW174008  10.250  11.241   1.307
57994SOL    HW274009  10.297  11.317   1.444
57995SOL     OW74010  10.290  12.288   1.719
57995SOL    HW174011  10.191  12.294   1.729
57995SOL    HW274012  10.313  12.208   1.663
57996SOL     OW74013  10.015  12.222   0.368
57996SOL    HW174014  10.001  12.229   0.467
57996SOL    HW274015  10.099  12.171   0.350
57997SOL     OW74016   9.720  11.985   1.251
57997SOL    HW174017   9.806  11.997   1.301
57997SOL    HW274018   9.678  11.898   1.278
57998SOL     OW74019  10.584  11.558   1.262
57998SOL    HW174020  10.605  11.632   1.326
57998SOL    HW274021  10.495  11.575   1.219
57999SOL     OW74022   9.677  12.272   0.501
57999SOL    HW174023   9.670  12.355   0.445
57999SOL    HW274024   9.681  12.192   0.441
58000SOL     OW74025   9.876  11.709   0.865
58000SOL    HW174026   9.888  11.775   0.791
58000SOL    HW274027   9.922  11.743   0.948
58001SOL     OW74028  10.562  12.520   0.388
58001SOL    HW174029  10.612  12.597   0.428
58001SOL    HW274030  10.467  12.522   0.420
58002SOL     OW74031  10.582  12.617   1.142
58002SOL    HW174032  10.629  12.630   1.229
58002SOL    HW274033  10.516  12.543   1.151
58003SOL     OW74034  10.892  11.811   0.472
58003SOL    HW174035  10.861  11.872   0.545
58003SOL    HW274036  10.942  11.863   0.403
58004SOL     OW74037   9.664  12.682   1.329
58004SOL    HW174038   9.643  12.638   1.242
58004SOL    HW274039   9.761  12.708   1.332
58005SOL     OW74040   9.712  11.923   1.598
58005SOL    HW174041   9.780  11.978   1.551
58005SOL    HW274042   9.752  11.835   1.625
58006SOL     OW74043  10.897  11.951   1.670
58006SOL    HW174044  10.805  11.989   1.665
58006SOL    HW274045  10.957  11.998   1.605
58007SOL     OW74046  10.323  11.277   1.770
58007SOL    HW174047  10.329  11.362   1.718
58007SOL    HW274048  10.355  11.201   1.713
58008SOL     OW74049   9.814  11.222   1.740
58008SOL    HW174050   9.772  11.165   1.670
58008SOL    HW274051   9.748  11.291   1.772
58009SOL     OW74052   9.883  12.042   1.029
58009SOL    HW174053   9.927  12.131   1.020
58009SOL    HW274054   9.820  12.042   1.106
58010SOL     OW74055  10.670  12.034   1.045
58010SOL    HW174056  10.595  12.034   0.979
58010SOL    HW274057  10.707  11.942   1.054
58011SOL     OW74058  10.519  11.697   0.275
58011SOL    HW174059  10.532  11.613   0.329
58011SOL    HW274060  10.490  11.771   0.335
58012SOL     OW74061   9.617  11.385   1.231
58012SOL    HW174062   9.594  11.422   1.321
58012SOL    HW274063   9.587  11.290   1.225
58013SOL     OW74064   9.347  12.482   1.282
58013SOL    HW174065   9.400  12.433   1.350
58013SOL    HW274066   9.369  12.580   1.287
58014SOL     OW74067  10.042  11.806   1.064
58014SOL    HW174068  10.101  11.780   0.988
58014SOL    HW274069  10.014  11.902   1.053
58015SOL     OW74070  11.038  12.107   1.854
58015SOL    HW174071  10.992  12.100   1.765
58015SOL    HW274072  10.976  12.151   1.920
58016SOL     OW74073   9.617  11.235   0.618
58016SOL    HW174074   9.606  11.329   0.651
58016SOL    HW274075   9.612  11.172   0.695
58017SOL     OW74076  10.932  11.539   0.374
58017SOL    HW174077  10.934  11.463   0.438
58017SOL    HW274078  10.884  11.616   0.414
58018SOL     OW74079  10.333  11.938   0.966
58018SOL    HW174080  10.348  11.959   1.062
58018SOL    HW274081  10.303  11.843   0.957
58019SOL     OW74082  11.169  12.690   1.605
58019SOL    HW174083  11.183  12.717   1.510
58019SOL    HW274084  11.252  12.712   1.658
58020SOL     OW74085   9.660  12.070   1.804
58020SOL    HW174086   9.736  12.114   1.852
58020SOL    HW274087   9.695  12.023   1.722
58021SOL     OW74088  10.850  11.446   0.125
58021SOL    HW174089  10.789  11.371   0.148
58021SOL    HW274090  10.872  11.498   0.208
58022SOL     OW74091  10.613  12.010   0.042
58022SOL    HW174092  10.647  11.917   0.057
58022SOL    HW274093  10.631  12.037  -0.053
58023SOL     OW74094  10.378  12.505   0.849
58023SOL    HW174095  10.385  12.421   0.794
58023SOL    HW274096  10.440  12.574   0.813
58024SOL     OW74097   9.629  11.982   0.949
58024SOL    HW174098   9.722  12.018   0.954
58024SOL    HW274099   9.623  11.897   1.001
58025SOL     OW74100   9.649  11.681   1.006
58025SOL    HW174101   9.597  11.598   0.989
58025SOL    HW274102   9.726  11.686   0.942
58026SOL     OW74103  10.448  11.552   1.678
58026SOL    HW174104  10.403  11.615   1.742
58026SOL    HW274105  10.541  11.583   1.661
58027SOL     OW74106  10.470  11.379   1.477
58027SOL    HW174107  10.470  11.443   1.554
58027SOL    HW274108  10.498  11.427   1.394
58028SOL     OW74109   9.318  12.498   0.200
58028SOL    HW174110   9.225  12.519   0.169
58028SOL    HW274111   9.328  12.399   0.213
58029SOL     OW74112  10.312  11.968   1.238
58029SOL    HW174113  10.353  11.936   1.324
58029SOL    HW274114  10.216  11.941   1.235
58030SOL     OW74115   9.350  11.716   1.114
58030SOL    HW174116   9.435  11.683   1.073
58030SOL    HW274117   9.363  11.731   1.212
58031SOL     OW74118   9.499  11.692   1.722
58031SOL    HW174119   9.558  11.652   1.652
58031SOL    HW274120   9.441  11.763   1.681
58032SOL     OW74121  10.679  12.122   1.660
58032SOL    HW174122  10.718  12.211   1.680
58032SOL    HW274123  10.689  12.102   1.563
58033SOL     OW74124  10.125  11.744   0.325
58033SOL    HW174125  10.132  11.655   0.279
58033SOL    HW274126  10.031  11.778   0.317
58034SOL     OW74127  10.967  11.776   1.206
58034SOL    HW174128  10.929  11.707   1.268
58034SOL    HW274129  11.049  11.740   1.162
58035SOL     OW74130   9.562  12.736   1.744
58035SOL    HW174131   9.532  12.793   1.820
58035SOL    HW274132   9.555  12.639   1.770
58036SOL     OW74133   9.981  11.636   1.269
58036SOL    HW174134   9.947  11.547   1.239
58036SOL    HW274135  10.007  11.690   1.189
58037SOL     OW74136   9.783  11.672   0.191
58037SOL    HW174137   9.844  11.752   0.195
58037SOL    HW274138   9.688  11.703   0.198
58038SOL     OW74139   9.469  12.309   1.466
58038SOL    HW174140   9.491  12.248   1.542
58038SOL    HW274141   9.479  12.260   1.380
58039SOL     OW74142  10.657  12.231   1.234
58039SOL    HW174143  10.681  12.168   1.160
58039SOL    HW274144  10.567  12.271   1.216
58040SOL     OW74145  10.612  12.027   0.309
58040SOL    HW174146  10.526  11.996   0.351
58040SOL    HW274147  10.608  12.013   0.210
58041SOL     OW74148   9.393  12.430   1.022
58041SOL    HW174149   9.388  12.429   1.122
58041SOL    HW274150   9.310  12.389   0.984
58042SOL     OW74151  10.213  11.258   0.133
58042SOL    HW174152  10.264  11.259   0.047
58042SOL    HW274153  10.269  11.216   0.204
58043SOL     OW74154  11.036  11.307   0.523
58043SOL    HW174155  11.109  11.290   0.456
58043SOL    HW274156  11.005  11.220   0.561
58044SOL     OW74157  10.590  12.099   0.672
58044SOL    HW174158  10.650  12.018   0.674
58044SOL    HW274159  10.630  12.168   0.612
58045SOL     OW74160  10.140  12.445   1.422
58045SOL    HW174161  10.135  12.478   1.517
58045SOL    HW274162  10.054  12.464   1.376
58046SOL     OW74163  11.151  11.347   0.963
58046SOL    HW174164  11.190  11.262   0.927
58046SOL    HW274165  11.053  11.349   0.944
58047SOL     OW74166   9.573  11.498   0.720
58047SOL    HW174167   9.494  11.549   0.686
58047SOL    HW274168   9.564  11.483   0.818
58048SOL     OW74169  10.504  12.784   0.031
58048SOL    HW174170  10.510  12.691   0.068
58048SOL    HW274171  10.445  12.784  -0.049
58049SOL     OW74172  10.132  12.174   1.372
58049SOL    HW174173  10.172  12.173   1.280
58049SOL    HW274174  10.142  12.266   1.412
58050SOL     OW74175  10.226  12.082   0.291
58050SOL    HW174176  10.289  12.120   0.223
58050SOL    HW274177  10.266  11.999   0.330
58051SOL     OW74178   9.682  12.460   1.490
58051SOL    HW174179   9.669  12.553   1.456
58051SOL    HW274180   9.598  12.408   1.477
58052SOL     OW74181  10.924  12.464   1.289
58052SOL    HW174182  10.984  12.467   1.369
58052SOL    HW274183  10.849  12.528   1.302
58053SOL     OW74184  10.349  12.270   0.696
58053SOL    HW174185  10.279  12.223   0.750
58053SOL    HW274186  10.408  12.202   0.653
58054SOL     OW74187  10.324  11.408   0.971
58054SOL    HW174188  10.316  11.372   0.878
58054SOL    HW274189  10.322  11.332   1.036
58055SOL     OW74190  11.019  11.557   1.381
58055SOL    HW174191  11.092  11.626   1.385
58055SOL    HW274192  11.047  11.482   1.322
58056SOL     OW74193   9.565  12.520   0.290
58056SOL    HW174194   9.469  12.521   0.263
58056SOL    HW274195   9.577  12.573   0.374
58057SOL     OW74196   9.415  12.185   1.726
58057SOL    HW174197   9.338  12.152   1.780
58057SOL    HW274198   9.500  12.155   1.768
58058SOL     OW74199   9.982  11.375   1.489
58058SOL    HW174200  10.072  11.359   1.449
58058SOL    HW274201   9.990  11.380   1.588
58059SOL     OW74202  10.750  12.028   1.398
58059SOL    HW174203  10.693  12.080   1.335
58059SOL    HW274204  10.846  12.040   1.374
58060SOL     OW74205   9.382  11.338   0.318
58060SOL    HW174206   9.365  11.421   0.264
58060SOL    HW274207   9.472  11.301   0.296
58061SOL     OW74208  10.493  12.507   0.119
58061SOL    HW174209  10.394  12.496   0.121
58061SOL    HW274210  10.527  12.522   0.212
58062SOL     OW74211   9.923  12.014   1.431
58062SOL    HW174212   9.979  12.095   1.414
58062SOL    HW274213   9.982  11.934   1.434
58063SOL     OW74214  10.026  11.737   1.708
58063SOL    HW174215  10.045  11.802   1.782
58063SOL    HW274216  10.086  11.657   1.717
58064SOL     OW74217  10.760  12.392   1.633
58064SOL    HW174218  10.751  12.382   1.732
58064SOL    HW274219  10.856  12.385   1.607
58065SOL     OW74220  10.984  12.055   1.254
58065SOL    HW174221  10.957  11.966   1.217
58065SOL    HW274222  10.985  12.123   1.181
58066SOL     OW74223  10.535  11.497   0.449
58066SOL    HW174224  10.600  11.423   0.438
58066SOL    HW274225  10.555  11.547   0.533
58067SOL     OW74226   9.904  11.917   0.652
58067SOL    HW174227   9.954  12.002   0.633
58067SOL    HW274228   9.816  11.919   0.604
58068SOL     OW74229  11.087  11.514   1.642
58068SOL    HW174230  11.070  11.545   1.548
58068SOL    HW274231  11.003  11.477   1.680
58069SOL     OW74232  11.040  12.106   1.517
58069SOL    HW174233  11.078  12.197   1.532
58069SOL    HW274234  11.032  12.089   1.418
58070SOL     OW74235  10.169  12.546   0.016
58070SOL    HW174236  10.123  12.561   0.104
58070SOL    HW274237  10.213  12.631  -0.014
58071SOL     OW74238  10.169  12.128   0.861
58071SOL    HW174239  10.223  12.059   0.909
58071SOL    HW274240  10.137  12.197   0.927
58072SOL     OW74241  10.393  12.156   0.087
58072SOL    HW174242  10.370  12.209   0.005
58072SOL    HW274243  10.474  12.100   0.068
58073SOL     OW74244   9.531  12.486   1.844
58073SOL    HW174245   9.466  12.413   1.823
58073SOL    HW274246   9.535  12.500   1.942
58074SOL     OW74247   9.389  12.412   0.653
58074SOL    HW174248   9.388  12.365   0.741
58074SOL    HW274249   9.471  12.384   0.602
58075SOL     OW74250   9.982  12.563   1.624
58075SOL    HW174251   9.904  12.513   1.662
58075SOL    HW274252   9.979  12.658   1.655
58076SOL     OW74253  11.134  11.364   1.227
58076SOL    HW174254  11.130  11.274   1.271
58076SOL    HW274255  11.137  11.353   1.128
58077SOL     OW74256   9.738  11.596   0.520
58077SOL    HW174257   9.768  11.524   0.458
58077SOL    HW274258   9.699  11.556   0.603
58078SOL     OW74259  11.015  12.659   1.104
58078SOL    HW174260  10.922  12.634   1.077
58078SOL    HW274261  11.041  12.609   1.186
58079SOL     OW74262   9.627  11.719   1.280
58079SOL    HW174263   9.665  11.660   1.352
58079SOL    HW274264   9.667  11.693   1.192
58080SOL     OW74265  10.734  11.386   1.112
58080SOL    HW174266  10.786  11.321   1.167
58080SOL    HW274267  10.685  11.449   1.173
58081SOL     OW74268  10.311  11.206   1.154
58081SOL    HW174269  10.248  11.134   1.123
58081SOL    HW274270  10.404  11.170   1.154
58082SOL     OW74271  10.080  12.502   0.301
58082SOL    HW174272  10.034  12.415   0.318
58082SOL    HW274273  10.171  12.499   0.342
58083SOL     OW74274   9.928  12.739   1.284
58083SOL    HW174275   9.923  12.821   1.341
58083SOL    HW274276  10.017  12.736   1.239
58084SOL     OW74277  10.662  11.224   0.168
58084SOL    HW174278  10.697  11.183   0.084
58084SOL    HW274279  10.572  11.186   0.188
58085SOL     OW74280  10.610  11.625   0.691
58085SOL    HW174281  10.551  11.705   0.695
58085SOL    HW274282  10.625  11.590   0.784
58086SOL     OW74283  10.903  11.393   0.882
58086SOL    HW174284  10.819  11.392   0.936
58086SOL    HW274285  10.905  11.476   0.826
58087SOL     OW74286   9.349  12.249   0.300
58087SOL    HW174287   9.448  12.238   0.291
58087SOL    HW274288   9.309  12.163   0.332
58088SOL     OW74289   9.540  11.800   1.975
58088SOL    HW174290   9.447  11.798   2.012
58088SOL    HW274291   9.541  11.761   1.883
58089SOL     OW74292   9.535  11.447   2.858
58089SOL    HW174293   9.570  11.430   2.950
58089SOL    HW274294   9.447  11.402   2.846
58090SOL     OW74295   9.329  11.540   2.509
58090SOL    HW174296   9.247  11.583   2.548
58090SOL    HW274297   9.301  11.467   2.446
58091SOL     OW74298   9.879  12.447   3.027
58091SOL    HW174299   9.786  12.440   2.990
58091SOL    HW274300   9.890  12.536   3.071
58092SOL     OW74301  10.865  12.683   2.565
58092SOL    HW174302  10.808  12.667   2.646
58092SOL    HW274303  10.806  12.693   2.485
58093SOL     OW74304  10.445  11.875   2.579
58093SOL    HW174305  10.502  11.953   2.554
58093SOL    HW274306  10.385  11.901   2.655
58094SOL     OW74307  11.065  11.779   2.093
58094SOL    HW174308  11.053  11.766   1.994
58094SOL    HW274309  11.035  11.698   2.142
58095SOL     OW74310  10.078  12.316   2.885
58095SOL    HW174311  10.000  12.333   2.945
58095SOL    HW274312  10.112  12.403   2.849
58096SOL     OW74313  10.160  11.970   3.685
58096SOL    HW174314  10.156  12.046   3.750
58096SOL    HW274315  10.182  12.006   3.594
58097SOL     OW74316   9.995  12.184   2.527
58097SOL    HW174317  10.064  12.168   2.597
58097SOL    HW274318   9.922  12.241   2.565
58098SOL     OW74319   9.996  12.333   3.665
58098SOL    HW174320  10.056  12.412   3.679
58098SOL    HW274321   9.910  12.364   3.624
58099SOL     OW74322   9.645  12.607   2.923
58099SOL    HW174323   9.567  12.576   2.870
58099SOL    HW274324   9.703  12.665   2.866
58100SOL     OW74325  10.770  12.677   3.201
58100SOL    HW174326  10.794  12.771   3.227
58100SOL    HW274327  10.754  12.623   3.283
58101SOL     OW74328   9.748  11.564   3.361
58101SOL    HW174329   9.830  11.508   3.370
58101SOL    HW274330   9.667  11.506   3.365
58102SOL     OW74331  10.913  11.619   2.599
58102SOL    HW174332  10.839  11.665   2.549
58102SOL    HW274333  10.964  11.687   2.652
58103SOL     OW74334   9.541  12.885   2.345
58103SOL    HW174335   9.575  12.962   2.399
58103SOL    HW274336   9.585  12.885   2.255
58104SOL     OW74337  10.437  12.513   3.552
58104SOL    HW174338  10.484  12.513   3.640
58104SOL    HW274339  10.389  12.426   3.541
58105SOL     OW74340   9.540  12.606   2.400
58105SOL    HW174341   9.514  12.702   2.400
58105SOL    HW274342   9.469  12.552   2.445
58106SOL     OW74343   9.550  12.263   2.748
58106SOL    HW174344   9.564  12.179   2.800
58106SOL    HW274345   9.495  12.327   2.803
58107SOL     OW74346   9.916  12.136   1.985
58107SOL    HW174347   9.923  12.220   1.931
58107SOL    HW274348   9.962  12.149   2.073
58108SOL     OW74349  10.904  11.286   3.342
58108SOL    HW174350  10.886  11.353   3.270
58108SOL    HW274351  10.901  11.332   3.431
58109SOL     OW74352   9.432  11.815   2.425
58109SOL    HW174353   9.387  11.727   2.442
58109SOL    HW274354   9.431  11.869   2.509
58110SOL     OW74355   9.337  12.768   1.979
58110SOL    HW174356   9.318  12.672   2.000
58110SOL    HW274357   9.304  12.826   2.054
58111SOL     OW74358  10.999  12.094   2.474
58111SOL    HW174359  11.094  12.065   2.482
58111SOL    HW274360  10.991  12.159   2.399
58112SOL     OW74361  10.951  12.280   2.294
58112SOL    HW174362  11.037  12.282   2.242
58112SOL    HW274363  10.965  12.327   2.382
58113SOL     OW74364   9.423  11.909   3.459
58113SOL    HW174365   9.511  11.896   3.504
58113SOL    HW274366   9.410  12.006   3.437
58114SOL     OW74367   9.923  12.537   2.588
58114SOL    HW174368   9.874  12.450   2.597
58114SOL    HW274369   9.900  12.580   2.501
58115SOL     OW74370  10.603  12.400   3.285
58115SOL    HW174371  10.640  12.327   3.227
58115SOL    HW274372  10.655  12.405   3.370
58116SOL     OW74373  10.119  11.176   2.364
58116SOL    HW174374  10.159  11.267   2.355
58116SOL    HW274375  10.019  11.184   2.370
58117SOL     OW74376   9.507  12.148   3.126
58117SOL    HW174377   9.596  12.103   3.112
58117SOL    HW274378   9.434  12.083   3.107
58118SOL     OW74379  10.835  12.171   2.052
58118SOL    HW174380  10.772  12.095   2.065
58118SOL    HW274381  10.883  12.189   2.138
58119SOL     OW74382   9.627  11.423   3.663
58119SOL    HW174383   9.698  11.494   3.669
58119SOL    HW274384   9.539  11.462   3.691
58120SOL     OW74385  10.776  12.589   2.815
58120SOL    HW174386  10.717  12.595   2.895
58120SOL    HW274387  10.761  12.501   2.769
58121SOL     OW74388   9.908  11.901   2.132
58121SOL    HW174389   9.932  11.970   2.064
58121SOL    HW274390   9.830  11.934   2.186
58122SOL     OW74391  10.591  11.517   2.806
58122SOL    HW174392  10.505  11.467   2.793
58122SOL    HW274393  10.653  11.463   2.862
58123SOL     OW74394  10.117  11.777   3.327
58123SOL    HW174395  10.070  11.774   3.416
58123SOL    HW274396  10.066  11.722   3.261
58124SOL     OW74397  10.704  11.641   3.536
58124SOL    HW174398  10.684  11.684   3.624
58124SOL    HW274399  10.782  11.579   3.545
58125SOL     OW74400  10.283  12.062   3.434
58125SOL    HW174401  10.329  11.978   3.405
58125SOL    HW274402  10.227  12.096   3.359
58126SOL     OW74403  10.301  11.582   3.104
58126SOL    HW174404  10.224  11.616   3.158
58126SOL    HW274405  10.267  11.531   3.025
58127SOL     OW74406  10.351  11.873   2.291
58127SOL    HW174407  10.377  11.869   2.387
58127SOL    HW274408  10.266  11.822   2.277
58128SOL     OW74409   9.386  11.983   2.651
58128SOL    HW174410   9.485  11.971   2.660
58128SOL    HW274411   9.362  12.078   2.672
58129SOL     OW74412  10.175  11.520   2.057
58129SOL    HW174413  10.234  11.583   2.008
58129SOL    HW274414  10.194  11.426   2.028
58130SOL     OW74415  11.029  11.757   3.693
58130SOL    HW174416  11.003  11.846   3.657
58130SOL    HW274417  11.027  11.689   3.620
58131SOL     OW74418  10.672  12.316   2.407
58131SOL    HW174419  10.755  12.287   2.359
58131SOL    HW274420  10.623  12.383   2.351
58132SOL     OW74421   9.860  11.368   2.747
58132SOL    HW174422   9.855  11.363   2.847
58132SOL    HW274423   9.862  11.464   2.718
58133SOL     OW74424  10.318  12.628   2.339
58133SOL    HW174425  10.272  12.700   2.287
58133SOL    HW274426  10.314  12.648   2.437
58134SOL     OW74427  11.105  12.238   2.735
58134SOL    HW174428  11.043  12.223   2.659
58134SOL    HW274429  11.053  12.249   2.820
58135SOL     OW74430  10.537  12.722   3.368
58135SOL    HW174431  10.543  12.645   3.432
58135SOL    HW274432  10.485  12.696   3.288
58136SOL     OW74433   9.631  12.115   2.104
58136SOL    HW174434   9.713  12.154   2.062
58136SOL    HW274435   9.604  12.033   2.055
58137SOL     OW74436  10.768  11.907   2.590
58137SOL    HW174437  10.763  11.842   2.665
58137SOL    HW274438  10.848  11.966   2.603
58138SOL     OW74439   9.771  12.438   3.589
58138SOL    HW174440   9.721  12.439   3.503
58138SOL    HW274441   9.708  12.420   3.665
58139SOL     OW74442  10.421  12.948   2.099
58139SOL    HW174443  10.361  12.886   2.149
58139SOL    HW274444  10.452  12.904   2.014
58140SOL     OW74445   9.512  11.457   3.360
58140SOL    HW174446   9.432  11.517   3.347
58140SOL    HW274447   9.502  11.408   3.446
58141SOL     OW74448  10.942  12.549   1.943
58141SOL    HW174449  10.910  12.643   1.933
58141SOL    HW274450  10.866  12.486   1.931
58142SOL     OW74451  10.710  11.279   2.288
58142SOL    HW174452  10.686  11.242   2.198
58142SOL    HW274453  10.809  11.295   2.292
58143SOL     OW74454   9.692  11.872   2.342
58143SOL    HW174455   9.737  11.782   2.339
58143SOL    HW274456   9.598  11.861   2.375
58144SOL     OW74457  10.857  11.394   3.591
58144SOL    HW174458  10.852  11.431   3.683
58144SOL    HW274459  10.785  11.325   3.579
58145SOL     OW74460   9.924  11.294   1.979
58145SOL    HW174461  10.022  11.272   1.986
58145SOL    HW274462   9.893  11.277   1.886
58146SOL     OW74463  10.091  11.436   3.611
58146SOL    HW174464  10.158  11.375   3.654
58146SOL    HW274465  10.018  11.455   3.676
58147SOL     OW74466  10.661  11.762   3.295
58147SOL    HW174467  10.689  11.719   3.380
58147SOL    HW274468  10.686  11.858   3.296
58148SOL     OW74469  10.113  12.574   2.786
58148SOL    HW174470  10.203  12.588   2.744
58148SOL    HW274471  10.042  12.576   2.715
58149SOL     OW74472  10.232  11.675   2.761
58149SOL    HW174473  10.207  11.666   2.665
58149SOL    HW274474  10.280  11.593   2.792
58150SOL     OW74475   9.849  11.236   2.374
58150SOL    HW174476   9.768  11.237   2.432
58150SOL    HW274477   9.852  11.319   2.319
58151SOL     OW74478  10.744  12.360   1.903
58151SOL    HW174479  10.776  12.284   1.960
58151SOL    HW274480  10.652  12.387   1.933
58152SOL     OW74481   9.607  11.207   2.033
58152SOL    HW174482   9.656  11.291   2.012
58152SOL    HW274483   9.669  11.142   2.078
58153SOL     OW74484  10.245  11.408   2.342
58153SOL    HW174485  10.197  11.449   2.264
58153SOL    HW274486  10.344  11.406   2.323
58154SOL     OW74487  10.386  11.855   3.326
58154SOL    HW174488  10.306  11.794   3.329
58154SOL    HW274489  10.467  11.802   3.302
58155SOL     OW74490  10.537  12.742   2.655
58155SOL    HW174491  10.558  12.816   2.590
58155SOL    HW274492  10.605  12.742   2.728
58156SOL     OW74493   9.769  12.324   2.603
58156SOL    HW174494   9.698  12.297   2.668
58156SOL    HW274495   9.743  12.296   2.510
58157SOL     OW74496  10.342  11.721   1.878
58157SOL    HW174497  10.301  11.803   1.839
58157SOL    HW274498  10.406  11.747   1.951
58158SOL     OW74499   9.388  11.728   3.248
58158SOL    HW174500   9.480  11.727   3.207
58158SOL    HW274501   9.382  11.802   3.315
58159SOL     OW74502   9.871  11.394   3.009
58159SOL    HW174503   9.909  11.310   3.046
58159SOL    HW274504   9.783  11.413   3.053
58160SOL     OW74505  10.176  11.626   2.504
58160SOL    HW174506  10.144  11.698   2.442
58160SOL    HW274507  10.200  11.545   2.451
58161SOL     OW74508  10.327  11.211   2.615
58161SOL    HW174509  10.255  11.216   2.546
58161SOL    HW274510  10.303  11.142   2.684
58162SOL     OW74511  10.739  12.345   2.729
58162SOL    HW174512  10.684  12.261   2.722
58162SOL    HW274513  10.765  12.374   2.637
58163SOL     OW74514  10.776  11.762   2.854
58163SOL    HW174515  10.746  11.667   2.861
58163SOL    HW274516  10.849  11.778   2.920
58164SOL     OW74517  11.167  12.005   2.239
58164SOL    HW174518  11.209  11.941   2.303
58164SOL    HW274519  11.129  11.954   2.161
58165SOL     OW74520   9.798  12.557   2.036
58165SOL    HW174521   9.711  12.542   2.083
58165SOL    HW274522   9.781  12.583   1.941
58166SOL     OW74523  10.974  12.452   2.519
58166SOL    HW174524  11.073  12.460   2.533
58166SOL    HW274525  10.929  12.536   2.550
58167SOL     OW74526  10.700  11.747   1.940
58167SOL    HW174527  10.646  11.726   2.021
58167SOL    HW274528  10.791  11.706   1.949
58168SOL     OW74529   9.837  11.428   2.190
58168SOL    HW174530   9.864  11.369   2.115
58168SOL    HW274531   9.837  11.523   2.159
58169SOL     OW74532  11.064  12.395   3.450
58169SOL    HW174533  11.155  12.356   3.437
58169SOL    HW274534  11.072  12.491   3.474
58170SOL     OW74535  10.374  12.519   3.202
58170SOL    HW174536  10.294  12.496   3.257
58170SOL    HW274537  10.457  12.493   3.251
58171SOL     OW74538  10.421  12.367   2.962
58171SOL    HW174539  10.381  12.411   3.043
58171SOL    HW274540  10.380  12.404   2.879
58172SOL     OW74541  10.948  12.271   2.941
58172SOL    HW174542  10.953  12.352   3.000
58172SOL    HW274543  10.862  12.273   2.890
58173SOL     OW74544  10.225  11.261   3.264
58173SOL    HW174545  10.250  11.241   3.169
58173SOL    HW274546  10.297  11.317   3.306
58174SOL     OW74547  10.290  12.288   3.581
58174SOL    HW174548  10.191  12.294   3.591
58174SOL    HW274549  10.313  12.208   3.525
58175SOL     OW74550  10.015  12.222   2.230
58175SOL    HW174551  10.001  12.229   2.329
58175SOL    HW274552  10.099  12.171   2.212
58176SOL     OW74553   9.720  11.985   3.113
58176SOL    HW174554   9.806  11.997   3.163
58176SOL    HW274555   9.678  11.898   3.140
58177SOL     OW74556  10.584  11.558   3.124
58177SOL    HW174557  10.605  11.632   3.188
58177SOL    HW274558  10.495  11.575   3.081
58178SOL     OW74559   9.677  12.272   2.363
58178SOL    HW174560   9.670  12.355   2.307
58178SOL    HW274561   9.681  12.192   2.303
58179SOL     OW74562  10.562  12.520   2.250
58179SOL    HW174563  10.612  12.597   2.290
58179SOL    HW274564  10.467  12.522   2.282
58180SOL     OW74565  10.582  12.617   3.004
58180SOL    HW174566  10.629  12.630   3.091
58180SOL    HW274567  10.516  12.543   3.013
58181SOL     OW74568  10.892  11.811   2.334
58181SOL    HW174569  10.861  11.872   2.407
58181SOL    HW274570  10.942  11.863   2.265
58182SOL     OW74571   9.664  12.682   3.191
58182SOL    HW174572   9.643  12.638   3.104
58182SOL    HW274573   9.761  12.708   3.194
58183SOL     OW74574   9.712  11.923   3.460
58183SOL    HW174575   9.780  11.978   3.413
58183SOL    HW274576   9.752  11.835   3.487
58184SOL     OW74577  10.897  11.951   3.532
58184SOL    HW174578  10.805  11.989   3.527
58184SOL    HW274579  10.957  11.998   3.467
58185SOL     OW74580  10.323  11.277   3.632
58185SOL    HW174581  10.329  11.362   3.580
58185SOL    HW274582  10.355  11.201   3.575
58186SOL     OW74583   9.814  11.222   3.602
58186SOL    HW174584   9.772  11.165   3.532
58186SOL    HW274585   9.748  11.291   3.634
58187SOL     OW74586   9.883  12.042   2.891
58187SOL    HW174587   9.927  12.131   2.882
58187SOL    HW274588   9.820  12.042   2.968
58188SOL     OW74589  10.670  12.034   2.907
58188SOL    HW174590  10.595  12.034   2.841
58188SOL    HW274591  10.707  11.942   2.916
58189SOL     OW74592  10.519  11.697   2.137
58189SOL    HW174593  10.532  11.613   2.191
58189SOL    HW274594  10.490  11.771   2.197
58190SOL     OW74595   9.617  11.385   3.093
58190SOL    HW174596   9.594  11.422   3.183
58190SOL    HW274597   9.587  11.290   3.087
58191SOL     OW74598   9.347  12.482   3.144
58191SOL    HW174599   9.400  12.433   3.212
58191SOL    HW274600   9.369  12.580   3.149
58192SOL     OW74601  10.042  11.806   2.926
58192SOL    HW174602  10.101  11.780   2.850
58192SOL    HW274603  10.014  11.902   2.915
58193SOL     OW74604  11.038  12.107   3.716
58193SOL    HW174605  10.992  12.100   3.627
58193SOL    HW274606  10.976  12.151   3.782
58194SOL     OW74607   9.617  11.235   2.480
58194SOL    HW174608   9.606  11.329   2.513
58194SOL    HW274609   9.612  11.172   2.557
58195SOL     OW74610  10.932  11.539   2.236
58195SOL    HW174611  10.934  11.463   2.300
58195SOL    HW274612  10.884  11.616   2.276
58196SOL     OW74613  10.333  11.938   2.828
58196SOL    HW174614  10.348  11.959   2.924
58196SOL    HW274615  10.303  11.843   2.819
58197SOL     OW74616  11.169  12.690   3.467
58197SOL    HW174617  11.183  12.717   3.372
58197SOL    HW274618  11.252  12.712   3.520
58198SOL     OW74619   9.660  12.070   3.666
58198SOL    HW174620   9.736  12.114   3.714
58198SOL    HW274621   9.695  12.023   3.584
58199SOL     OW74622  10.850  11.446   1.987
58199SOL    HW174623  10.789  11.371   2.010
58199SOL    HW274624  10.872  11.498   2.070
58200SOL     OW74625  10.613  12.010   1.904
58200SOL    HW174626  10.647  11.917   1.919
58200SOL    HW274627  10.631  12.037   1.809
58201SOL     OW74628   9.629  11.982   2.811
58201SOL    HW174629   9.722  12.018   2.816
58201SOL    HW274630   9.623  11.897   2.863
58202SOL     OW74631   9.649  11.681   2.868
58202SOL    HW174632   9.597  11.598   2.851
58202SOL    HW274633   9.726  11.686   2.804
58203SOL     OW74634  10.448  11.552   3.540
58203SOL    HW174635  10.403  11.615   3.604
58203SOL    HW274636  10.541  11.583   3.523
58204SOL     OW74637  10.470  11.379   3.339
58204SOL    HW174638  10.470  11.443   3.416
58204SOL    HW274639  10.498  11.427   3.256
58205SOL     OW74640   9.318  12.498   2.062
58205SOL    HW174641   9.225  12.519   2.031
58205SOL    HW274642   9.328  12.399   2.075
58206SOL     OW74643  10.312  11.968   3.100
58206SOL    HW174644  10.353  11.936   3.186
58206SOL    HW274645  10.216  11.941   3.097
58207SOL     OW74646   9.350  11.716   2.976
58207SOL    HW174647   9.435  11.683   2.935
58207SOL    HW274648   9.363  11.731   3.074
58208SOL     OW74649   9.499  11.692   3.584
58208SOL    HW174650   9.558  11.652   3.514
58208SOL    HW274651   9.441  11.763   3.543
58209SOL     OW74652  10.679  12.122   3.522
58209SOL    HW174653  10.718  12.211   3.542
58209SOL    HW274654  10.689  12.102   3.425
58210SOL     OW74655  10.125  11.744   2.187
58210SOL    HW174656  10.132  11.655   2.141
58210SOL    HW274657  10.031  11.778   2.179
58211SOL     OW74658  10.967  11.776   3.068
58211SOL    HW174659  10.929  11.707   3.130
58211SOL    HW274660  11.049  11.740   3.024
58212SOL     OW74661   9.562  12.736   3.606
58212SOL    HW174662   9.532  12.793   3.682
58212SOL    HW274663   9.555  12.639   3.632
58213SOL     OW74664   9.981  11.636   3.131
58213SOL    HW174665   9.947  11.547   3.101
58213SOL    HW274666  10.007  11.690   3.051
58214SOL     OW74667   9.783  11.672   2.053
58214SOL    HW174668   9.844  11.752   2.057
58214SOL    HW274669   9.688  11.703   2.060
58215SOL     OW74670   9.469  12.309   3.328
58215SOL    HW174671   9.491  12.248   3.404
58215SOL    HW274672   9.479  12.260   3.242
58216SOL     OW74673  10.657  12.231   3.096
58216SOL    HW174674  10.681  12.168   3.022
58216SOL    HW274675  10.567  12.271   3.078
58217SOL     OW74676  10.612  12.027   2.171
58217SOL    HW174677  10.526  11.996   2.213
58217SOL    HW274678  10.608  12.013   2.072
58218SOL     OW74679   9.393  12.430   2.884
58218SOL    HW174680   9.388  12.429   2.984
58218SOL    HW274681   9.310  12.389   2.846
58219SOL     OW74682  11.036  11.307   2.385
58219SOL    HW174683  11.109  11.290   2.318
58219SOL    HW274684  11.005  11.220   2.423
58220SOL     OW74685  10.590  12.099   2.534
58220SOL    HW174686  10.650  12.018   2.536
58220SOL    HW274687  10.630  12.168   2.474
58221SOL     OW74688  10.140  12.445   3.284
58221SOL    HW174689  10.135  12.478   3.379
58221SOL    HW274690  10.054  12.464   3.238
58222SOL     OW74691  11.151  11.347   2.825
58222SOL    HW174692  11.190  11.262   2.789
58222SOL    HW274693  11.053  11.349   2.806
58223SOL     OW74694   9.573  11.498   2.582
58223SOL    HW174695   9.494  11.549   2.548
58223SOL    HW274696   9.564  11.483   2.680
58224SOL     OW74697  10.132  12.174   3.234
58224SOL    HW174698  10.172  12.173   3.142
58224SOL    HW274699  10.142  12.266   3.274
58225SOL     OW74700  10.226  12.082   2.153
58225SOL    HW174701  10.289  12.120   2.085
58225SOL    HW274702  10.266  11.999   2.192
58226SOL     OW74703   9.682  12.460   3.352
58226SOL    HW174704   9.669  12.553   3.318
58226SOL    HW274705   9.598  12.408   3.339
58227SOL     OW74706  10.924  12.464   3.151
58227SOL    HW174707  10.984  12.467   3.231
58227SOL    HW274708  10.849  12.528   3.164
58228SOL     OW74709  10.349  12.270   2.558
58228SOL    HW174710  10.279  12.223   2.612
58228SOL    HW274711  10.408  12.202   2.515
58229SOL     OW74712  10.324  11.408   2.833
58229SOL    HW174713  10.316  11.372   2.740
58229SOL    HW274714  10.322  11.332   2.898
58230SOL     OW74715  11.019  11.557   3.243
58230SOL    HW174716  11.092  11.626   3.247
58230SOL    HW274717  11.047  11.482   3.184
58231SOL     OW74718   9.565  12.520   2.152
58231SOL    HW174719   9.469  12.521   2.125
58231SOL    HW274720   9.577  12.573   2.236
58232SOL     OW74721   9.415  12.185   3.588
58232SOL    HW174722   9.338  12.152   3.642
58232SOL    HW274723   9.500  12.155   3.630
58233SOL     OW74724   9.982  11.375   3.351
58233SOL    HW174725  10.072  11.359   3.311
58233SOL    HW274726   9.990  11.380   3.450
58234SOL     OW74727   9.385  11.517   1.895
58234SOL    HW174728   9.293  11.489   1.866
58234SOL    HW274729   9.416  11.594   1.839
58235SOL     OW74730  10.750  12.028   3.260
58235SOL    HW174731  10.693  12.080   3.197
58235SOL    HW274732  10.846  12.040   3.236
58236SOL     OW74733   9.382  11.338   2.180
58236SOL    HW174734   9.365  11.421   2.126
58236SOL    HW274735   9.472  11.301   2.158
58237SOL     OW74736  10.493  12.507   1.981
58237SOL    HW174737  10.394  12.496   1.983
58237SOL    HW274738  10.527  12.522   2.074
58238SOL     OW74739   9.923  12.014   3.293
58238SOL    HW174740   9.979  12.095   3.276
58238SOL    HW274741   9.982  11.934   3.296
58239SOL     OW74742  10.026  11.737   3.570
58239SOL    HW174743  10.045  11.802   3.644
58239SOL    HW274744  10.086  11.657   3.579
58240SOL     OW74745  10.984  12.055   3.116
58240SOL    HW174746  10.957  11.966   3.079
58240SOL    HW274747  10.985  12.123   3.043
58241SOL     OW74748  10.535  11.497   2.311
58241SOL    HW174749  10.600  11.423   2.300
58241SOL    HW274750  10.555  11.547   2.395
58242SOL     OW74751   9.904  11.917   2.514
58242SOL    HW174752   9.954  12.002   2.495
58242SOL    HW274753   9.816  11.919   2.466
58243SOL     OW74754  11.087  11.514   3.504
58243SOL    HW174755  11.070  11.545   3.410
58243SOL    HW274756  11.003  11.477   3.542
58244SOL     OW74757  11.040  12.106   3.379
58244SOL    HW174758  11.078  12.197   3.394
58244SOL    HW274759  11.032  12.089   3.280
58245SOL     OW74760  10.169  12.546   1.878
58245SOL    HW174761  10.123  12.561   1.966
58245SOL    HW274762  10.213  12.631   1.848
58246SOL     OW74763  10.169  12.128   2.723
58246SOL    HW174764  10.223  12.059   2.771
58246SOL    HW274765  10.137  12.197   2.789
58247SOL     OW74766  10.393  12.156   1.949
58247SOL    HW174767  10.370  12.209   1.867
58247SOL    HW274768  10.474  12.100   1.930
58248SOL     OW74769   9.531  12.486   3.706
58248SOL    HW174770   9.466  12.413   3.685
58248SOL    HW274771   9.535  12.500   3.804
58249SOL     OW74772   9.389  12.412   2.515
58249SOL    HW174773   9.388  12.365   2.603
58249SOL    HW274774   9.471  12.384   2.464
58250SOL     OW74775   9.982  12.563   3.486
58250SOL    HW174776   9.904  12.513   3.524
58250SOL    HW274777   9.979  12.658   3.517
58251SOL     OW74778  11.134  11.364   3.089
58251SOL    HW174779  11.130  11.274   3.133
58251SOL    HW274780  11.137  11.353   2.990
58252SOL     OW74781   9.738  11.596   2.382
58252SOL    HW174782   9.768  11.524   2.320
58252SOL    HW274783   9.699  11.556   2.465
58253SOL     OW74784  11.015  12.659   2.966
58253SOL    HW174785  10.922  12.634   2.939
58253SOL    HW274786  11.041  12.609   3.048
58254SOL     OW74787   9.627  11.719   3.142
58254SOL    HW174788   9.665  11.660   3.214
58254SOL    HW274789   9.667  11.693   3.054
58255SOL     OW74790  10.734  11.386   2.974
58255SOL    HW174791  10.786  11.321   3.029
58255SOL    HW274792  10.685  11.449   3.035
58256SOL     OW74793  10.311  11.206   3.016
58256SOL    HW174794  10.248  11.134   2.985
58256SOL    HW274795  10.404  11.170   3.016
58257SOL     OW74796  10.080  12.502   2.163
58257SOL    HW174797  10.034  12.415   2.180
58257SOL    HW274798  10.171  12.499   2.204
58258SOL     OW74799   9.928  12.739   3.146
58258SOL    HW174800   9.923  12.821   3.203
58258SOL    HW274801  10.017  12.736   3.101
58259SOL     OW74802  10.662  11.224   2.030
58259SOL    HW174803  10.697  11.183   1.946
58259SOL    HW274804  10.572  11.186   2.050
58260SOL     OW74805  10.610  11.625   2.553
58260SOL    HW174806  10.551  11.705   2.557
58260SOL    HW274807  10.625  11.590   2.646
58261SOL     OW74808  10.903  11.393   2.744
58261SOL    HW174809  10.819  11.392   2.798
58261SOL    HW274810  10.905  11.476   2.688
58262SOL     OW74811   9.349  12.249   2.162
58262SOL    HW174812   9.448  12.238   2.153
58262SOL    HW274813   9.309  12.163   2.194
58263SOL     OW74814   9.540  11.800   3.837
58263SOL    HW174815   9.447  11.798   3.874
58263SOL    HW274816   9.541  11.761   3.745
58264SOL     OW74817   9.535  11.447   4.720
58264SOL    HW174818   9.570  11.430   4.812
58264SOL    HW274819   9.447  11.402   4.708
58265SOL     OW74820   9.329  11.540   4.371
58265SOL    HW174821   9.247  11.583   4.410
58265SOL    HW274822   9.301  11.467   4.308
58266SOL     OW74823   9.879  12.447   4.889
58266SOL    HW174824   9.786  12.440   4.852
58266SOL    HW274825   9.890  12.536   4.933
58267SOL     OW74826  10.865  12.683   4.427
58267SOL    HW174827  10.808  12.667   4.508
58267SOL    HW274828  10.806  12.693   4.347
58268SOL     OW74829  10.445  11.875   4.441
58268SOL    HW174830  10.502  11.953   4.416
58268SOL    HW274831  10.385  11.901   4.517
58269SOL     OW74832  11.065  11.779   3.955
58269SOL    HW174833  11.053  11.766   3.856
58269SOL    HW274834  11.035  11.698   4.004
58270SOL     OW74835  10.078  12.316   4.747
58270SOL    HW174836  10.000  12.333   4.807
58270SOL    HW274837  10.112  12.403   4.711
58271SOL     OW74838  10.160  11.970   5.547
58271SOL    HW174839  10.156  12.046   5.612
58271SOL    HW274840  10.182  12.006   5.456
58272SOL     OW74841   9.995  12.184   4.389
58272SOL    HW174842  10.064  12.168   4.459
58272SOL    HW274843   9.922  12.241   4.427
58273SOL     OW74844   9.996  12.333   5.527
58273SOL    HW174845  10.056  12.412   5.541
58273SOL    HW274846   9.910  12.364   5.486
58274SOL     OW74847   9.645  12.607   4.785
58274SOL    HW174848   9.567  12.576   4.732
58274SOL    HW274849   9.703  12.665   4.728
58275SOL     OW74850  10.770  12.677   5.063
58275SOL    HW174851  10.794  12.771   5.089
58275SOL    HW274852  10.754  12.623   5.145
58276SOL     OW74853   9.748  11.564   5.223
58276SOL    HW174854   9.830  11.508   5.232
58276SOL    HW274855   9.667  11.506   5.227
58277SOL     OW74856  10.913  11.619   4.461
58277SOL    HW174857  10.839  11.665   4.411
58277SOL    HW274858  10.964  11.687   4.514
58278SOL     OW74859   9.541  12.885   4.207
58278SOL    HW174860   9.575  12.962   4.261
58278SOL    HW274861   9.585  12.885   4.117
58279SOL     OW74862  10.437  12.513   5.414
58279SOL    HW174863  10.484  12.513   5.502
58279SOL    HW274864  10.389  12.426   5.403
58280SOL     OW74865   9.540  12.606   4.262
58280SOL    HW174866   9.514  12.702   4.262
58280SOL    HW274867   9.469  12.552   4.307
58281SOL     OW74868   9.550  12.263   4.610
58281SOL    HW174869   9.564  12.179   4.662
58281SOL    HW274870   9.495  12.327   4.665
58282SOL     OW74871   9.916  12.136   3.847
58282SOL    HW174872   9.923  12.220   3.793
58282SOL    HW274873   9.962  12.149   3.935
58283SOL     OW74874  10.904  11.286   5.204
58283SOL    HW174875  10.886  11.353   5.132
58283SOL    HW274876  10.901  11.332   5.293
58284SOL     OW74877   9.432  11.815   4.287
58284SOL    HW174878   9.387  11.727   4.304
58284SOL    HW274879   9.431  11.869   4.371
58285SOL     OW74880   9.337  12.768   3.841
58285SOL    HW174881   9.318  12.672   3.862
58285SOL    HW274882   9.304  12.826   3.916
58286SOL     OW74883  10.999  12.094   4.336
58286SOL    HW174884  11.094  12.065   4.344
58286SOL    HW274885  10.991  12.159   4.261
58287SOL     OW74886  10.951  12.280   4.156
58287SOL    HW174887  11.037  12.282   4.104
58287SOL    HW274888  10.965  12.327   4.244
58288SOL     OW74889   9.423  11.909   5.321
58288SOL    HW174890   9.511  11.896   5.366
58288SOL    HW274891   9.410  12.006   5.299
58289SOL     OW74892   9.923  12.537   4.450
58289SOL    HW174893   9.874  12.450   4.459
58289SOL    HW274894   9.900  12.580   4.363
58290SOL     OW74895  10.603  12.400   5.147
58290SOL    HW174896  10.640  12.327   5.089
58290SOL    HW274897  10.655  12.405   5.232
58291SOL     OW74898  10.119  11.176   4.226
58291SOL    HW174899  10.159  11.267   4.217
58291SOL    HW274900  10.019  11.184   4.232
58292SOL     OW74901   9.507  12.148   4.988
58292SOL    HW174902   9.596  12.103   4.974
58292SOL    HW274903   9.434  12.083   4.969
58293SOL     OW74904  10.835  12.171   3.914
58293SOL    HW174905  10.772  12.095   3.927
58293SOL    HW274906  10.883  12.189   4.000
58294SOL     OW74907   9.627  11.423   5.525
58294SOL    HW174908   9.698  11.494   5.531
58294SOL    HW274909   9.539  11.462   5.553
58295SOL     OW74910  10.776  12.589   4.677
58295SOL    HW174911  10.717  12.595   4.757
58295SOL    HW274912  10.761  12.501   4.631
58296SOL     OW74913   9.908  11.901   3.994
58296SOL    HW174914   9.932  11.970   3.926
58296SOL    HW274915   9.830  11.934   4.048
58297SOL     OW74916  10.591  11.517   4.668
58297SOL    HW174917  10.505  11.467   4.655
58297SOL    HW274918  10.653  11.463   4.724
58298SOL     OW74919  10.117  11.777   5.189
58298SOL    HW174920  10.070  11.774   5.278
58298SOL    HW274921  10.066  11.722   5.123
58299SOL     OW74922  10.704  11.641   5.398
58299SOL    HW174923  10.684  11.684   5.486
58299SOL    HW274924  10.782  11.579   5.407
58300SOL     OW74925  10.283  12.062   5.296
58300SOL    HW174926  10.329  11.978   5.267
58300SOL    HW274927  10.227  12.096   5.221
58301SOL     OW74928  10.301  11.582   4.966
58301SOL    HW174929  10.224  11.616   5.020
58301SOL    HW274930  10.267  11.531   4.887
58302SOL     OW74931  10.351  11.873   4.153
58302SOL    HW174932  10.377  11.869   4.249
58302SOL    HW274933  10.266  11.822   4.139
58303SOL     OW74934   9.386  11.983   4.513
58303SOL    HW174935   9.485  11.971   4.522
58303SOL    HW274936   9.362  12.078   4.534
58304SOL     OW74937  10.175  11.520   3.919
58304SOL    HW174938  10.234  11.583   3.870
58304SOL    HW274939  10.194  11.426   3.890
58305SOL     OW74940  11.029  11.757   5.555
58305SOL    HW174941  11.003  11.846   5.519
58305SOL    HW274942  11.027  11.689   5.482
58306SOL     OW74943  10.672  12.316   4.269
58306SOL    HW174944  10.755  12.287   4.221
58306SOL    HW274945  10.623  12.383   4.213
58307SOL     OW74946   9.860  11.368   4.609
58307SOL    HW174947   9.855  11.363   4.709
58307SOL    HW274948   9.862  11.464   4.580
58308SOL     OW74949  10.318  12.628   4.201
58308SOL    HW174950  10.272  12.700   4.149
58308SOL    HW274951  10.314  12.648   4.299
58309SOL     OW74952  11.105  12.238   4.597
58309SOL    HW174953  11.043  12.223   4.521
58309SOL    HW274954  11.053  12.249   4.682
58310SOL     OW74955  10.537  12.722   5.230
58310SOL    HW174956  10.543  12.645   5.294
58310SOL    HW274957  10.485  12.696   5.150
58311SOL     OW74958   9.631  12.115   3.966
58311SOL    HW174959   9.713  12.154   3.924
58311SOL    HW274960   9.604  12.033   3.917
58312SOL     OW74961  10.768  11.907   4.452
58312SOL    HW174962  10.763  11.842   4.527
58312SOL    HW274963  10.848  11.966   4.465
58313SOL     OW74964   9.771  12.438   5.451
58313SOL    HW174965   9.721  12.439   5.365
58313SOL    HW274966   9.708  12.420   5.527
58314SOL     OW74967  10.421  12.948   3.961
58314SOL    HW174968  10.361  12.886   4.011
58314SOL    HW274969  10.452  12.904   3.876
58315SOL     OW74970   9.512  11.457   5.222
58315SOL    HW174971   9.432  11.517   5.209
58315SOL    HW274972   9.502  11.408   5.308
58316SOL     OW74973  10.942  12.549   3.805
58316SOL    HW174974  10.910  12.643   3.795
58316SOL    HW274975  10.866  12.486   3.793
58317SOL     OW74976  10.710  11.279   4.150
58317SOL    HW174977  10.686  11.242   4.060
58317SOL    HW274978  10.809  11.295   4.154
58318SOL     OW74979   9.692  11.872   4.204
58318SOL    HW174980   9.737  11.782   4.201
58318SOL    HW274981   9.598  11.861   4.237
58319SOL     OW74982  10.857  11.394   5.453
58319SOL    HW174983  10.852  11.431   5.545
58319SOL    HW274984  10.785  11.325   5.441
58320SOL     OW74985   9.924  11.294   3.841
58320SOL    HW174986  10.022  11.272   3.848
58320SOL    HW274987   9.893  11.277   3.748
58321SOL     OW74988  10.091  11.436   5.473
58321SOL    HW174989  10.158  11.375   5.516
58321SOL    HW274990  10.018  11.455   5.538
58322SOL     OW74991  10.661  11.762   5.157
58322SOL    HW174992  10.689  11.719   5.242
58322SOL    HW274993  10.686  11.858   5.158
58323SOL     OW74994  10.113  12.574   4.648
58323SOL    HW174995  10.203  12.588   4.606
58323SOL    HW274996  10.042  12.576   4.577
58324SOL     OW74997  10.232  11.675   4.623
58324SOL    HW174998  10.207  11.666   4.527
58324SOL    HW274999  10.280  11.593   4.654
58325SOL     OW75000   9.849  11.236   4.236
58325SOL    HW175001   9.768  11.237   4.294
58325SOL    HW275002   9.852  11.319   4.181
58326SOL     OW75003  10.744  12.360   3.765
58326SOL    HW175004  10.776  12.284   3.822
58326SOL    HW275005  10.652  12.387   3.795
58327SOL     OW75006   9.607  11.207   3.895
58327SOL    HW175007   9.656  11.291   3.874
58327SOL    HW275008   9.669  11.142   3.940
58328SOL     OW75009  10.245  11.408   4.204
58328SOL    HW175010  10.197  11.449   4.126
58328SOL    HW275011  10.344  11.406   4.185
58329SOL     OW75012  10.386  11.855   5.188
58329SOL    HW175013  10.306  11.794   5.191
58329SOL    HW275014  10.467  11.802   5.164
58330SOL     OW75015  10.537  12.742   4.517
58330SOL    HW175016  10.558  12.816   4.452
58330SOL    HW275017  10.605  12.742   4.590
58331SOL     OW75018   9.769  12.324   4.465
58331SOL    HW175019   9.698  12.297   4.530
58331SOL    HW275020   9.743  12.296   4.372
58332SOL     OW75021  10.342  11.721   3.740
58332SOL    HW175022  10.301  11.803   3.701
58332SOL    HW275023  10.406  11.747   3.813
58333SOL     OW75024   9.388  11.728   5.110
58333SOL    HW175025   9.480  11.727   5.069
58333SOL    HW275026   9.382  11.802   5.177
58334SOL     OW75027   9.871  11.394   4.871
58334SOL    HW175028   9.909  11.310   4.908
58334SOL    HW275029   9.783  11.413   4.915
58335SOL     OW75030  10.176  11.626   4.366
58335SOL    HW175031  10.144  11.698   4.304
58335SOL    HW275032  10.200  11.545   4.313
58336SOL     OW75033  10.327  11.211   4.477
58336SOL    HW175034  10.255  11.216   4.408
58336SOL    HW275035  10.303  11.142   4.546
58337SOL     OW75036  10.739  12.345   4.591
58337SOL    HW175037  10.684  12.261   4.584
58337SOL    HW275038  10.765  12.374   4.499
58338SOL     OW75039  10.776  11.762   4.716
58338SOL    HW175040  10.746  11.667   4.723
58338SOL    HW275041  10.849  11.778   4.782
58339SOL     OW75042  11.167  12.005   4.101
58339SOL    HW175043  11.209  11.941   4.165
58339SOL    HW275044  11.129  11.954   4.023
58340SOL     OW75045   9.798  12.557   3.898
58340SOL    HW175046   9.711  12.542   3.945
58340SOL    HW275047   9.781  12.583   3.803
58341SOL     OW75048  10.974  12.452   4.381
58341SOL    HW175049  11.073  12.460   4.395
58341SOL    HW275050  10.929  12.536   4.412
58342SOL     OW75051  10.700  11.747   3.802
58342SOL    HW175052  10.646  11.726   3.883
58342SOL    HW275053  10.791  11.706   3.811
58343SOL     OW75054   9.837  11.428   4.052
58343SOL    HW175055   9.864  11.369   3.977
58343SOL    HW275056   9.837  11.523   4.021
58344SOL     OW75057  11.064  12.395   5.312
58344SOL    HW175058  11.155  12.356   5.299
58344SOL    HW275059  11.072  12.491   5.336
58345SOL     OW75060  10.374  12.519   5.064
58345SOL    HW175061  10.294  12.496   5.119
58345SOL    HW275062  10.457  12.493   5.113
58346SOL     OW75063  10.421  12.367   4.824
58346SOL    HW175064  10.381  12.411   4.905
58346SOL    HW275065  10.380  12.404   4.741
58347SOL     OW75066  10.948  12.271   4.803
58347SOL    HW175067  10.953  12.352   4.862
58347SOL    HW275068  10.862  12.273   4.752
58348SOL     OW75069  10.225  11.261   5.126
58348SOL    HW175070  10.250  11.241   5.031
58348SOL    HW275071  10.297  11.317   5.168
58349SOL     OW75072  10.290  12.288   5.443
58349SOL    HW175073  10.191  12.294   5.453
58349SOL    HW275074  10.313  12.208   5.387
58350SOL     OW75075  10.015  12.222   4.092
58350SOL    HW175076  10.001  12.229   4.191
58350SOL    HW275077  10.099  12.171   4.074
58351SOL     OW75078   9.720  11.985   4.975
58351SOL    HW175079   9.806  11.997   5.025
58351SOL    HW275080   9.678  11.898   5.002
58352SOL     OW75081  10.584  11.558   4.986
58352SOL    HW175082  10.605  11.632   5.050
58352SOL    HW275083  10.495  11.575   4.943
58353SOL     OW75084   9.677  12.272   4.225
58353SOL    HW175085   9.670  12.355   4.169
58353SOL    HW275086   9.681  12.192   4.165
58354SOL     OW75087   9.876  11.709   4.589
58354SOL    HW175088   9.888  11.775   4.515
58354SOL    HW275089   9.922  11.743   4.672
58355SOL     OW75090  10.562  12.520   4.112
58355SOL    HW175091  10.612  12.597   4.152
58355SOL    HW275092  10.467  12.522   4.144
58356SOL     OW75093  10.582  12.617   4.866
58356SOL    HW175094  10.629  12.630   4.953
58356SOL    HW275095  10.516  12.543   4.875
58357SOL     OW75096  10.892  11.811   4.196
58357SOL    HW175097  10.861  11.872   4.269
58357SOL    HW275098  10.942  11.863   4.127
58358SOL     OW75099   9.664  12.682   5.053
58358SOL    HW175100   9.643  12.638   4.966
58358SOL    HW275101   9.761  12.708   5.056
58359SOL     OW75102   9.712  11.923   5.322
58359SOL    HW175103   9.780  11.978   5.275
58359SOL    HW275104   9.752  11.835   5.349
58360SOL     OW75105  10.897  11.951   5.394
58360SOL    HW175106  10.805  11.989   5.389
58360SOL    HW275107  10.957  11.998   5.329
58361SOL     OW75108  10.323  11.277   5.494
58361SOL    HW175109  10.329  11.362   5.442
58361SOL    HW275110  10.355  11.201   5.437
58362SOL     OW75111   9.814  11.222   5.464
58362SOL    HW175112   9.772  11.165   5.394
58362SOL    HW275113   9.748  11.291   5.496
58363SOL     OW75114   9.883  12.042   4.753
58363SOL    HW175115   9.927  12.131   4.744
58363SOL    HW275116   9.820  12.042   4.830
58364SOL     OW75117  10.670  12.034   4.769
58364SOL    HW175118  10.595  12.034   4.703
58364SOL    HW275119  10.707  11.942   4.778
58365SOL     OW75120  10.519  11.697   3.999
58365SOL    HW175121  10.532  11.613   4.053
58365SOL    HW275122  10.490  11.771   4.059
58366SOL     OW75123   9.617  11.385   4.955
58366SOL    HW175124   9.594  11.422   5.045
58366SOL    HW275125   9.587  11.290   4.949
58367SOL     OW75126   9.347  12.482   5.006
58367SOL    HW175127   9.400  12.433   5.074
58367SOL    HW275128   9.369  12.580   5.011
58368SOL     OW75129  10.042  11.806   4.788
58368SOL    HW175130  10.101  11.780   4.712
58368SOL    HW275131  10.014  11.902   4.777
58369SOL     OW75132  11.038  12.107   5.578
58369SOL    HW175133  10.992  12.100   5.489
58369SOL    HW275134  10.976  12.151   5.644
58370SOL     OW75135   9.617  11.235   4.342
58370SOL    HW175136   9.606  11.329   4.375
58370SOL    HW275137   9.612  11.172   4.419
58371SOL     OW75138  10.932  11.539   4.098
58371SOL    HW175139  10.934  11.463   4.162
58371SOL    HW275140  10.884  11.616   4.138
58372SOL     OW75141  10.333  11.938   4.690
58372SOL    HW175142  10.348  11.959   4.786
58372SOL    HW275143  10.303  11.843   4.681
58373SOL     OW75144  11.169  12.690   5.329
58373SOL    HW175145  11.183  12.717   5.234
58373SOL    HW275146  11.252  12.712   5.382
58374SOL     OW75147   9.660  12.070   5.528
58374SOL    HW175148   9.736  12.114   5.576
58374SOL    HW275149   9.695  12.023   5.446
58375SOL     OW75150  10.850  11.446   3.849
58375SOL    HW175151  10.789  11.371   3.872
58375SOL    HW275152  10.872  11.498   3.932
58376SOL     OW75153  10.613  12.010   3.766
58376SOL    HW175154  10.647  11.917   3.781
58376SOL    HW275155  10.631  12.037   3.671
58377SOL     OW75156  10.378  12.505   4.573
58377SOL    HW175157  10.385  12.421   4.518
58377SOL    HW275158  10.440  12.574   4.537
58378SOL     OW75159   9.629  11.982   4.673
58378SOL    HW175160   9.722  12.018   4.678
58378SOL    HW275161   9.623  11.897   4.725
58379SOL     OW75162   9.649  11.681   4.730
58379SOL    HW175163   9.597  11.598   4.713
58379SOL    HW275164   9.726  11.686   4.666
58380SOL     OW75165  10.448  11.552   5.402
58380SOL    HW175166  10.403  11.615   5.466
58380SOL    HW275167  10.541  11.583   5.385
58381SOL     OW75168  10.470  11.379   5.201
58381SOL    HW175169  10.470  11.443   5.278
58381SOL    HW275170  10.498  11.427   5.118
58382SOL     OW75171   9.318  12.498   3.924
58382SOL    HW175172   9.225  12.519   3.893
58382SOL    HW275173   9.328  12.399   3.937
58383SOL     OW75174  10.312  11.968   4.962
58383SOL    HW175175  10.353  11.936   5.048
58383SOL    HW275176  10.216  11.941   4.959
58384SOL     OW75177   9.350  11.716   4.838
58384SOL    HW175178   9.435  11.683   4.797
58384SOL    HW275179   9.363  11.731   4.936
58385SOL     OW75180   9.499  11.692   5.446
58385SOL    HW175181   9.558  11.652   5.376
58385SOL    HW275182   9.441  11.763   5.405
58386SOL     OW75183  10.679  12.122   5.384
58386SOL    HW175184  10.718  12.211   5.404
58386SOL    HW275185  10.689  12.102   5.287
58387SOL     OW75186  10.125  11.744   4.049
58387SOL    HW175187  10.132  11.655   4.003
58387SOL    HW275188  10.031  11.778   4.041
58388SOL     OW75189  10.967  11.776   4.930
58388SOL    HW175190  10.929  11.707   4.992
58388SOL    HW275191  11.049  11.740   4.886
58389SOL     OW75192   9.562  12.736   5.468
58389SOL    HW175193   9.532  12.793   5.544
58389SOL    HW275194   9.555  12.639   5.494
58390SOL     OW75195   9.981  11.636   4.993
58390SOL    HW175196   9.947  11.547   4.963
58390SOL    HW275197  10.007  11.690   4.913
58391SOL     OW75198   9.783  11.672   3.915
58391SOL    HW175199   9.844  11.752   3.919
58391SOL    HW275200   9.688  11.703   3.922
58392SOL     OW75201   9.469  12.309   5.190
58392SOL    HW175202   9.491  12.248   5.266
58392SOL    HW275203   9.479  12.260   5.104
58393SOL     OW75204  10.657  12.231   4.958
58393SOL    HW175205  10.681  12.168   4.884
58393SOL    HW275206  10.567  12.271   4.940
58394SOL     OW75207  10.612  12.027   4.033
58394SOL    HW175208  10.526  11.996   4.075
58394SOL    HW275209  10.608  12.013   3.934
58395SOL     OW75210   9.393  12.430   4.746
58395SOL    HW175211   9.388  12.429   4.846
58395SOL    HW275212   9.310  12.389   4.708
58396SOL     OW75213  11.036  11.307   4.247
58396SOL    HW175214  11.109  11.290   4.180
58396SOL    HW275215  11.005  11.220   4.285
58397SOL     OW75216  10.590  12.099   4.396
58397SOL    HW175217  10.650  12.018   4.398
58397SOL    HW275218  10.630  12.168   4.336
58398SOL     OW75219  10.140  12.445   5.146
58398SOL    HW175220  10.135  12.478   5.241
58398SOL    HW275221  10.054  12.464   5.100
58399SOL     OW75222  11.151  11.347   4.687
58399SOL    HW175223  11.190  11.262   4.651
58399SOL    HW275224  11.053  11.349   4.668
58400SOL     OW75225   9.573  11.498   4.444
58400SOL    HW175226   9.494  11.549   4.410
58400SOL    HW275227   9.564  11.483   4.542
58401SOL     OW75228  10.132  12.174   5.096
58401SOL    HW175229  10.172  12.173   5.004
58401SOL    HW275230  10.142  12.266   5.136
58402SOL     OW75231  10.226  12.082   4.015
58402SOL    HW175232  10.289  12.120   3.947
58402SOL    HW275233  10.266  11.999   4.054
58403SOL     OW75234   9.682  12.460   5.214
58403SOL    HW175235   9.669  12.553   5.180
58403SOL    HW275236   9.598  12.408   5.201
58404SOL     OW75237  10.924  12.464   5.013
58404SOL    HW175238  10.984  12.467   5.093
58404SOL    HW275239  10.849  12.528   5.026
58405SOL     OW75240  10.349  12.270   4.420
58405SOL    HW175241  10.279  12.223   4.474
58405SOL    HW275242  10.408  12.202   4.377
58406SOL     OW75243  10.324  11.408   4.695
58406SOL    HW175244  10.316  11.372   4.602
58406SOL    HW275245  10.322  11.332   4.760
58407SOL     OW75246  11.019  11.557   5.105
58407SOL    HW175247  11.092  11.626   5.109
58407SOL    HW275248  11.047  11.482   5.046
58408SOL     OW75249   9.565  12.520   4.014
58408SOL    HW175250   9.469  12.521   3.987
58408SOL    HW275251   9.577  12.573   4.098
58409SOL     OW75252   9.415  12.185   5.450
58409SOL    HW175253   9.338  12.152   5.504
58409SOL    HW275254   9.500  12.155   5.492
58410SOL     OW75255   9.982  11.375   5.213
58410SOL    HW175256  10.072  11.359   5.173
58410SOL    HW275257   9.990  11.380   5.312
58411SOL     OW75258   9.385  11.517   3.757
58411SOL    HW175259   9.293  11.489   3.728
58411SOL    HW275260   9.416  11.594   3.701
58412SOL     OW75261  10.750  12.028   5.122
58412SOL    HW175262  10.693  12.080   5.059
58412SOL    HW275263  10.846  12.040   5.098
58413SOL     OW75264   9.382  11.338   4.042
58413SOL    HW175265   9.365  11.421   3.988
58413SOL    HW275266   9.472  11.301   4.020
58414SOL     OW75267  10.493  12.507   3.843
58414SOL    HW175268  10.394  12.496   3.845
58414SOL    HW275269  10.527  12.522   3.936
58415SOL     OW75270   9.923  12.014   5.155
58415SOL    HW175271   9.979  12.095   5.138
58415SOL    HW275272   9.982  11.934   5.158
58416SOL     OW75273  10.026  11.737   5.432
58416SOL    HW175274  10.045  11.802   5.506
58416SOL    HW275275  10.086  11.657   5.441
58417SOL     OW75276  10.760  12.392   5.357
58417SOL    HW175277  10.751  12.382   5.456
58417SOL    HW275278  10.856  12.385   5.331
58418SOL     OW75279  10.984  12.055   4.978
58418SOL    HW175280  10.957  11.966   4.941
58418SOL    HW275281  10.985  12.123   4.905
58419SOL     OW75282  10.535  11.497   4.173
58419SOL    HW175283  10.600  11.423   4.162
58419SOL    HW275284  10.555  11.547   4.257
58420SOL     OW75285   9.904  11.917   4.376
58420SOL    HW175286   9.954  12.002   4.357
58420SOL    HW275287   9.816  11.919   4.328
58421SOL     OW75288  11.087  11.514   5.366
58421SOL    HW175289  11.070  11.545   5.272
58421SOL    HW275290  11.003  11.477   5.404
58422SOL     OW75291  11.040  12.106   5.241
58422SOL    HW175292  11.078  12.197   5.256
58422SOL    HW275293  11.032  12.089   5.142
58423SOL     OW75294  10.169  12.546   3.740
58423SOL    HW175295  10.123  12.561   3.828
58423SOL    HW275296  10.213  12.631   3.710
58424SOL     OW75297  10.169  12.128   4.585
58424SOL    HW175298  10.223  12.059   4.633
58424SOL    HW275299  10.137  12.197   4.651
58425SOL     OW75300  10.393  12.156   3.811
58425SOL    HW175301  10.370  12.209   3.729
58425SOL    HW275302  10.474  12.100   3.792
58426SOL     OW75303   9.531  12.486   5.568
58426SOL    HW175304   9.466  12.413   5.547
58426SOL    HW275305   9.535  12.500   5.666
58427SOL     OW75306   9.389  12.412   4.377
58427SOL    HW175307   9.388  12.365   4.465
58427SOL    HW275308   9.471  12.384   4.326
58428SOL     OW75309   9.982  12.563   5.348
58428SOL    HW175310   9.904  12.513   5.386
58428SOL    HW275311   9.979  12.658   5.379
58429SOL     OW75312  11.134  11.364   4.951
58429SOL    HW175313  11.130  11.274   4.995
58429SOL    HW275314  11.137  11.353   4.852
58430SOL     OW75315   9.738  11.596   4.244
58430SOL    HW175316   9.768  11.524   4.182
58430SOL    HW275317   9.699  11.556   4.327
58431SOL     OW75318  11.015  12.659   4.828
58431SOL    HW175319  10.922  12.634   4.801
58431SOL    HW275320  11.041  12.609   4.910
58432SOL     OW75321   9.627  11.719   5.004
58432SOL    HW175322   9.665  11.660   5.076
58432SOL    HW275323   9.667  11.693   4.916
58433SOL     OW75324  10.734  11.386   4.836
58433SOL    HW175325  10.786  11.321   4.891
58433SOL    HW275326  10.685  11.449   4.897
58434SOL     OW75327  10.311  11.206   4.878
58434SOL    HW175328  10.248  11.134   4.847
58434SOL    HW275329  10.404  11.170   4.878
58435SOL     OW75330  10.080  12.502   4.025
58435SOL    HW175331  10.034  12.415   4.042
58435SOL    HW275332  10.171  12.499   4.066
58436SOL     OW75333   9.928  12.739   5.008
58436SOL    HW175334   9.923  12.821   5.065
58436SOL    HW275335  10.017  12.736   4.963
58437SOL     OW75336  10.662  11.224   3.892
58437SOL    HW175337  10.697  11.183   3.808
58437SOL    HW275338  10.572  11.186   3.912
58438SOL     OW75339  10.610  11.625   4.415
58438SOL    HW175340  10.551  11.705   4.419
58438SOL    HW275341  10.625  11.590   4.508
58439SOL     OW75342  10.903  11.393   4.606
58439SOL    HW175343  10.819  11.392   4.660
58439SOL    HW275344  10.905  11.476   4.550
58440SOL     OW75345   9.349  12.249   4.024
58440SOL    HW175346   9.448  12.238   4.015
58440SOL    HW275347   9.309  12.163   4.056
58441SOL     OW75348   9.540  11.800   5.699
58441SOL    HW175349   9.447  11.798   5.736
58441SOL    HW275350   9.541  11.761   5.607
58442SOL     OW75351   9.535  11.447   6.582
58442SOL    HW175352   9.570  11.430   6.674
58442SOL    HW275353   9.447  11.402   6.570
58443SOL     OW75354   9.329  11.540   6.233
58443SOL    HW175355   9.247  11.583   6.272
58443SOL    HW275356   9.301  11.467   6.170
58444SOL     OW75357   9.879  12.447   6.751
58444SOL    HW175358   9.786  12.440   6.714
58444SOL    HW275359   9.890  12.536   6.795
58445SOL     OW75360  10.865  12.683   6.289
58445SOL    HW175361  10.808  12.667   6.370
58445SOL    HW275362  10.806  12.693   6.209
58446SOL     OW75363  10.445  11.875   6.303
58446SOL    HW175364  10.502  11.953   6.278
58446SOL    HW275365  10.385  11.901   6.379
58447SOL     OW75366  11.065  11.779   5.817
58447SOL    HW175367  11.053  11.766   5.718
58447SOL    HW275368  11.035  11.698   5.866
58448SOL     OW75369  10.078  12.316   6.609
58448SOL    HW175370  10.000  12.333   6.669
58448SOL    HW275371  10.112  12.403   6.573
58449SOL     OW75372  10.160  11.970   7.409
58449SOL    HW175373  10.156  12.046   7.474
58449SOL    HW275374  10.182  12.006   7.318
58450SOL     OW75375   9.995  12.184   6.251
58450SOL    HW175376  10.064  12.168   6.321
58450SOL    HW275377   9.922  12.241   6.289
58451SOL     OW75378   9.996  12.333   7.389
58451SOL    HW175379  10.056  12.412   7.403
58451SOL    HW275380   9.910  12.364   7.348
58452SOL     OW75381  10.770  12.677   6.925
58452SOL    HW175382  10.794  12.771   6.951
58452SOL    HW275383  10.754  12.623   7.007
58453SOL     OW75384   9.748  11.564   7.085
58453SOL    HW175385   9.830  11.508   7.094
58453SOL    HW275386   9.667  11.506   7.089
58454SOL     OW75387  10.913  11.619   6.323
58454SOL    HW175388  10.839  11.665   6.273
58454SOL    HW275389  10.964  11.687   6.376
58455SOL     OW75390   9.541  12.885   6.069
58455SOL    HW175391   9.575  12.962   6.123
58455SOL    HW275392   9.585  12.885   5.979
58456SOL     OW75393  10.437  12.513   7.276
58456SOL    HW175394  10.484  12.513   7.364
58456SOL    HW275395  10.389  12.426   7.265
58457SOL     OW75396   9.540  12.606   6.124
58457SOL    HW175397   9.514  12.702   6.124
58457SOL    HW275398   9.469  12.552   6.169
58458SOL     OW75399   9.550  12.263   6.472
58458SOL    HW175400   9.564  12.179   6.524
58458SOL    HW275401   9.495  12.327   6.527
58459SOL     OW75402   9.916  12.136   5.709
58459SOL    HW175403   9.923  12.220   5.655
58459SOL    HW275404   9.962  12.149   5.797
58460SOL     OW75405  10.904  11.286   7.066
58460SOL    HW175406  10.886  11.353   6.994
58460SOL    HW275407  10.901  11.332   7.155
58461SOL     OW75408   9.432  11.815   6.149
58461SOL    HW175409   9.387  11.727   6.166
58461SOL    HW275410   9.431  11.869   6.233
58462SOL     OW75411   9.337  12.768   5.703
58462SOL    HW175412   9.318  12.672   5.724
58462SOL    HW275413   9.304  12.826   5.778
58463SOL     OW75414  10.999  12.094   6.198
58463SOL    HW175415  11.094  12.065   6.206
58463SOL    HW275416  10.991  12.159   6.123
58464SOL     OW75417  10.951  12.280   6.018
58464SOL    HW175418  11.037  12.282   5.966
58464SOL    HW275419  10.965  12.327   6.106
58465SOL     OW75420   9.423  11.909   7.183
58465SOL    HW175421   9.511  11.896   7.228
58465SOL    HW275422   9.410  12.006   7.161
58466SOL     OW75423   9.923  12.537   6.312
58466SOL    HW175424   9.874  12.450   6.321
58466SOL    HW275425   9.900  12.580   6.225
58467SOL     OW75426  10.603  12.400   7.009
58467SOL    HW175427  10.640  12.327   6.951
58467SOL    HW275428  10.655  12.405   7.094
58468SOL     OW75429  10.119  11.176   6.088
58468SOL    HW175430  10.159  11.267   6.079
58468SOL    HW275431  10.019  11.184   6.094
58469SOL     OW75432   9.507  12.148   6.850
58469SOL    HW175433   9.596  12.103   6.836
58469SOL    HW275434   9.434  12.083   6.831
58470SOL     OW75435  10.835  12.171   5.776
58470SOL    HW175436  10.772  12.095   5.789
58470SOL    HW275437  10.883  12.189   5.862
58471SOL     OW75438   9.627  11.423   7.387
58471SOL    HW175439   9.698  11.494   7.393
58471SOL    HW275440   9.539  11.462   7.415
58472SOL     OW75441  10.776  12.589   6.539
58472SOL    HW175442  10.717  12.595   6.619
58472SOL    HW275443  10.761  12.501   6.493
58473SOL     OW75444   9.908  11.901   5.856
58473SOL    HW175445   9.932  11.970   5.788
58473SOL    HW275446   9.830  11.934   5.910
58474SOL     OW75447  10.591  11.517   6.530
58474SOL    HW175448  10.505  11.467   6.517
58474SOL    HW275449  10.653  11.463   6.586
58475SOL     OW75450  10.117  11.777   7.051
58475SOL    HW175451  10.070  11.774   7.140
58475SOL    HW275452  10.066  11.722   6.985
58476SOL     OW75453  10.704  11.641   7.260
58476SOL    HW175454  10.684  11.684   7.348
58476SOL    HW275455  10.782  11.579   7.269
58477SOL     OW75456  10.283  12.062   7.158
58477SOL    HW175457  10.329  11.978   7.129
58477SOL    HW275458  10.227  12.096   7.083
58478SOL     OW75459  10.301  11.582   6.828
58478SOL    HW175460  10.224  11.616   6.882
58478SOL    HW275461  10.267  11.531   6.749
58479SOL     OW75462  10.351  11.873   6.015
58479SOL    HW175463  10.377  11.869   6.111
58479SOL    HW275464  10.266  11.822   6.001
58480SOL     OW75465   9.386  11.983   6.375
58480SOL    HW175466   9.485  11.971   6.384
58480SOL    HW275467   9.362  12.078   6.396
58481SOL     OW75468  10.175  11.520   5.781
58481SOL    HW175469  10.234  11.583   5.732
58481SOL    HW275470  10.194  11.426   5.752
58482SOL     OW75471  11.029  11.757   7.417
58482SOL    HW175472  11.003  11.846   7.381
58482SOL    HW275473  11.027  11.689   7.344
58483SOL     OW75474  10.672  12.316   6.131
58483SOL    HW175475  10.755  12.287   6.083
58483SOL    HW275476  10.623  12.383   6.075
58484SOL     OW75477   9.860  11.368   6.471
58484SOL    HW175478   9.855  11.363   6.571
58484SOL    HW275479   9.862  11.464   6.442
58485SOL     OW75480  10.318  12.628   6.063
58485SOL    HW175481  10.272  12.700   6.011
58485SOL    HW275482  10.314  12.648   6.161
58486SOL     OW75483  11.105  12.238   6.459
58486SOL    HW175484  11.043  12.223   6.383
58486SOL    HW275485  11.053  12.249   6.544
58487SOL     OW75486  10.537  12.722   7.092
58487SOL    HW175487  10.543  12.645   7.156
58487SOL    HW275488  10.485  12.696   7.012
58488SOL     OW75489   9.631  12.115   5.828
58488SOL    HW175490   9.713  12.154   5.786
58488SOL    HW275491   9.604  12.033   5.779
58489SOL     OW75492  10.768  11.907   6.314
58489SOL    HW175493  10.763  11.842   6.389
58489SOL    HW275494  10.848  11.966   6.327
58490SOL     OW75495   9.771  12.438   7.313
58490SOL    HW175496   9.721  12.439   7.227
58490SOL    HW275497   9.708  12.420   7.389
58491SOL     OW75498  10.421  12.948   5.823
58491SOL    HW175499  10.361  12.886   5.873
58491SOL    HW275500  10.452  12.904   5.738
58492SOL     OW75501   9.512  11.457   7.084
58492SOL    HW175502   9.432  11.517   7.071
58492SOL    HW275503   9.502  11.408   7.170
58493SOL     OW75504  10.942  12.549   5.667
58493SOL    HW175505  10.910  12.643   5.657
58493SOL    HW275506  10.866  12.486   5.655
58494SOL     OW75507  10.710  11.279   6.012
58494SOL    HW175508  10.686  11.242   5.922
58494SOL    HW275509  10.809  11.295   6.016
58495SOL     OW75510   9.692  11.872   6.066
58495SOL    HW175511   9.737  11.782   6.063
58495SOL    HW275512   9.598  11.861   6.099
58496SOL     OW75513  10.857  11.394   7.315
58496SOL    HW175514  10.852  11.431   7.407
58496SOL    HW275515  10.785  11.325   7.303
58497SOL     OW75516   9.924  11.294   5.703
58497SOL    HW175517  10.022  11.272   5.710
58497SOL    HW275518   9.893  11.277   5.610
58498SOL     OW75519  10.091  11.436   7.335
58498SOL    HW175520  10.158  11.375   7.378
58498SOL    HW275521  10.018  11.455   7.400
58499SOL     OW75522  10.661  11.762   7.019
58499SOL    HW175523  10.689  11.719   7.104
58499SOL    HW275524  10.686  11.858   7.020
58500SOL     OW75525  10.113  12.574   6.510
58500SOL    HW175526  10.203  12.588   6.468
58500SOL    HW275527  10.042  12.576   6.439
58501SOL     OW75528  10.232  11.675   6.485
58501SOL    HW175529  10.207  11.666   6.389
58501SOL    HW275530  10.280  11.593   6.516
58502SOL     OW75531   9.849  11.236   6.098
58502SOL    HW175532   9.768  11.237   6.156
58502SOL    HW275533   9.852  11.319   6.043
58503SOL     OW75534  10.744  12.360   5.627
58503SOL    HW175535  10.776  12.284   5.684
58503SOL    HW275536  10.652  12.387   5.657
58504SOL     OW75537   9.607  11.207   5.757
58504SOL    HW175538   9.656  11.291   5.736
58504SOL    HW275539   9.669  11.142   5.802
58505SOL     OW75540  10.245  11.408   6.066
58505SOL    HW175541  10.197  11.449   5.988
58505SOL    HW275542  10.344  11.406   6.047
58506SOL     OW75543  10.386  11.855   7.050
58506SOL    HW175544  10.306  11.794   7.053
58506SOL    HW275545  10.467  11.802   7.026
58507SOL     OW75546  10.537  12.742   6.379
58507SOL    HW175547  10.558  12.816   6.314
58507SOL    HW275548  10.605  12.742   6.452
58508SOL     OW75549   9.769  12.324   6.327
58508SOL    HW175550   9.698  12.297   6.392
58508SOL    HW275551   9.743  12.296   6.234
58509SOL     OW75552  10.342  11.721   5.602
58509SOL    HW175553  10.301  11.803   5.563
58509SOL    HW275554  10.406  11.747   5.675
58510SOL     OW75555   9.388  11.728   6.972
58510SOL    HW175556   9.480  11.727   6.931
58510SOL    HW275557   9.382  11.802   7.039
58511SOL     OW75558   9.871  11.394   6.733
58511SOL    HW175559   9.909  11.310   6.770
58511SOL    HW275560   9.783  11.413   6.777
58512SOL     OW75561  10.176  11.626   6.228
58512SOL    HW175562  10.144  11.698   6.166
58512SOL    HW275563  10.200  11.545   6.175
58513SOL     OW75564  10.327  11.211   6.339
58513SOL    HW175565  10.255  11.216   6.270
58513SOL    HW275566  10.303  11.142   6.408
58514SOL     OW75567  10.739  12.345   6.453
58514SOL    HW175568  10.684  12.261   6.446
58514SOL    HW275569  10.765  12.374   6.361
58515SOL     OW75570  10.776  11.762   6.578
58515SOL    HW175571  10.746  11.667   6.585
58515SOL    HW275572  10.849  11.778   6.644
58516SOL     OW75573  11.167  12.005   5.963
58516SOL    HW175574  11.209  11.941   6.027
58516SOL    HW275575  11.129  11.954   5.885
58517SOL     OW75576   9.798  12.557   5.760
58517SOL    HW175577   9.711  12.542   5.807
58517SOL    HW275578   9.781  12.583   5.665
58518SOL     OW75579  10.974  12.452   6.243
58518SOL    HW175580  11.073  12.460   6.257
58518SOL    HW275581  10.929  12.536   6.274
58519SOL     OW75582  10.700  11.747   5.664
58519SOL    HW175583  10.646  11.726   5.745
58519SOL    HW275584  10.791  11.706   5.673
58520SOL     OW75585   9.837  11.428   5.914
58520SOL    HW175586   9.864  11.369   5.839
58520SOL    HW275587   9.837  11.523   5.883
58521SOL     OW75588  11.064  12.395   7.174
58521SOL    HW175589  11.155  12.356   7.161
58521SOL    HW275590  11.072  12.491   7.198
58522SOL     OW75591  10.374  12.519   6.926
58522SOL    HW175592  10.294  12.496   6.981
58522SOL    HW275593  10.457  12.493   6.975
58523SOL     OW75594  10.421  12.367   6.686
58523SOL    HW175595  10.381  12.411   6.767
58523SOL    HW275596  10.380  12.404   6.603
58524SOL     OW75597  10.948  12.271   6.665
58524SOL    HW175598  10.953  12.352   6.724
58524SOL    HW275599  10.862  12.273   6.614
58525SOL     OW75600  10.225  11.261   6.988
58525SOL    HW175601  10.250  11.241   6.893
58525SOL    HW275602  10.297  11.317   7.030
58526SOL     OW75603  10.290  12.288   7.305
58526SOL    HW175604  10.191  12.294   7.315
58526SOL    HW275605  10.313  12.208   7.249
58527SOL     OW75606  10.015  12.222   5.954
58527SOL    HW175607  10.001  12.229   6.053
58527SOL    HW275608  10.099  12.171   5.936
58528SOL     OW75609   9.720  11.985   6.837
58528SOL    HW175610   9.806  11.997   6.887
58528SOL    HW275611   9.678  11.898   6.864
58529SOL     OW75612  10.584  11.558   6.848
58529SOL    HW175613  10.605  11.632   6.912
58529SOL    HW275614  10.495  11.575   6.805
58530SOL     OW75615   9.677  12.272   6.087
58530SOL    HW175616   9.670  12.355   6.031
58530SOL    HW275617   9.681  12.192   6.027
58531SOL     OW75618   9.876  11.709   6.451
58531SOL    HW175619   9.888  11.775   6.377
58531SOL    HW275620   9.922  11.743   6.534
58532SOL     OW75621  10.562  12.520   5.974
58532SOL    HW175622  10.612  12.597   6.014
58532SOL    HW275623  10.467  12.522   6.006
58533SOL     OW75624  10.582  12.617   6.728
58533SOL    HW175625  10.629  12.630   6.815
58533SOL    HW275626  10.516  12.543   6.737
58534SOL     OW75627  10.892  11.811   6.058
58534SOL    HW175628  10.861  11.872   6.131
58534SOL    HW275629  10.942  11.863   5.989
58535SOL     OW75630   9.664  12.682   6.915
58535SOL    HW175631   9.643  12.638   6.828
58535SOL    HW275632   9.761  12.708   6.918
58536SOL     OW75633   9.712  11.923   7.184
58536SOL    HW175634   9.780  11.978   7.137
58536SOL    HW275635   9.752  11.835   7.211
58537SOL     OW75636  10.897  11.951   7.256
58537SOL    HW175637  10.805  11.989   7.251
58537SOL    HW275638  10.957  11.998   7.191
58538SOL     OW75639  10.323  11.277   7.356
58538SOL    HW175640  10.329  11.362   7.304
58538SOL    HW275641  10.355  11.201   7.299
58539SOL     OW75642   9.814  11.222   7.326
58539SOL    HW175643   9.772  11.165   7.256
58539SOL    HW275644   9.748  11.291   7.358
58540SOL     OW75645   9.883  12.042   6.615
58540SOL    HW175646   9.927  12.131   6.606
58540SOL    HW275647   9.820  12.042   6.692
58541SOL     OW75648  10.670  12.034   6.631
58541SOL    HW175649  10.595  12.034   6.565
58541SOL    HW275650  10.707  11.942   6.640
58542SOL     OW75651  10.519  11.697   5.861
58542SOL    HW175652  10.532  11.613   5.915
58542SOL    HW275653  10.490  11.771   5.921
58543SOL     OW75654   9.617  11.385   6.817
58543SOL    HW175655   9.594  11.422   6.907
58543SOL    HW275656   9.587  11.290   6.811
58544SOL     OW75657   9.347  12.482   6.868
58544SOL    HW175658   9.400  12.433   6.936
58544SOL    HW275659   9.369  12.580   6.873
58545SOL     OW75660  10.042  11.806   6.650
58545SOL    HW175661  10.101  11.780   6.574
58545SOL    HW275662  10.014  11.902   6.639
58546SOL     OW75663  11.038  12.107   7.440
58546SOL    HW175664  10.992  12.100   7.351
58546SOL    HW275665  10.976  12.151   7.506
58547SOL     OW75666   9.617  11.235   6.204
58547SOL    HW175667   9.606  11.329   6.237
58547SOL    HW275668   9.612  11.172   6.281
58548SOL     OW75669  10.932  11.539   5.960
58548SOL    HW175670  10.934  11.463   6.024
58548SOL    HW275671  10.884  11.616   6.000
58549SOL     OW75672  10.333  11.938   6.552
58549SOL    HW175673  10.348  11.959   6.648
58549SOL    HW275674  10.303  11.843   6.543
58550SOL     OW75675  11.169  12.690   7.191
58550SOL    HW175676  11.183  12.717   7.096
58550SOL    HW275677  11.252  12.712   7.244
58551SOL     OW75678   9.660  12.070   7.390
58551SOL    HW175679   9.736  12.114   7.438
58551SOL    HW275680   9.695  12.023   7.308
58552SOL     OW75681  10.850  11.446   5.711
58552SOL    HW175682  10.789  11.371   5.734
58552SOL    HW275683  10.872  11.498   5.794
58553SOL     OW75684  10.613  12.010   5.628
58553SOL    HW175685  10.647  11.917   5.643
58553SOL    HW275686  10.631  12.037   5.533
58554SOL     OW75687  10.378  12.505   6.435
58554SOL    HW175688  10.385  12.421   6.380
58554SOL    HW275689  10.440  12.574   6.399
58555SOL     OW75690   9.629  11.982   6.535
58555SOL    HW175691   9.722  12.018   6.540
58555SOL    HW275692   9.623  11.897   6.587
58556SOL     OW75693   9.649  11.681   6.592
58556SOL    HW175694   9.597  11.598   6.575
58556SOL    HW275695   9.726  11.686   6.528
58557SOL     OW75696  10.448  11.552   7.264
58557SOL    HW175697  10.403  11.615   7.328
58557SOL    HW275698  10.541  11.583   7.247
58558SOL     OW75699  10.470  11.379   7.063
58558SOL    HW175700  10.470  11.443   7.140
58558SOL    HW275701  10.498  11.427   6.980
58559SOL     OW75702   9.318  12.498   5.786
58559SOL    HW175703   9.225  12.519   5.755
58559SOL    HW275704   9.328  12.399   5.799
58560SOL     OW75705  10.312  11.968   6.824
58560SOL    HW175706  10.353  11.936   6.910
58560SOL    HW275707  10.216  11.941   6.821
58561SOL     OW75708   9.350  11.716   6.700
58561SOL    HW175709   9.435  11.683   6.659
58561SOL    HW275710   9.363  11.731   6.798
58562SOL     OW75711   9.499  11.692   7.308
58562SOL    HW175712   9.558  11.652   7.238
58562SOL    HW275713   9.441  11.763   7.267
58563SOL     OW75714  10.679  12.122   7.246
58563SOL    HW175715  10.718  12.211   7.266
58563SOL    HW275716  10.689  12.102   7.149
58564SOL     OW75717  10.125  11.744   5.911
58564SOL    HW175718  10.132  11.655   5.865
58564SOL    HW275719  10.031  11.778   5.903
58565SOL     OW75720  10.967  11.776   6.792
58565SOL    HW175721  10.929  11.707   6.854
58565SOL    HW275722  11.049  11.740   6.748
58566SOL     OW75723   9.562  12.736   7.330
58566SOL    HW175724   9.532  12.793   7.406
58566SOL    HW275725   9.555  12.639   7.356
58567SOL     OW75726   9.783  11.672   5.777
58567SOL    HW175727   9.844  11.752   5.781
58567SOL    HW275728   9.688  11.703   5.784
58568SOL     OW75729   9.469  12.309   7.052
58568SOL    HW175730   9.491  12.248   7.128
58568SOL    HW275731   9.479  12.260   6.966
58569SOL     OW75732  10.657  12.231   6.820
58569SOL    HW175733  10.681  12.168   6.746
58569SOL    HW275734  10.567  12.271   6.802
58570SOL     OW75735  10.612  12.027   5.895
58570SOL    HW175736  10.526  11.996   5.937
58570SOL    HW275737  10.608  12.013   5.796
58571SOL     OW75738   9.393  12.430   6.608
58571SOL    HW175739   9.388  12.429   6.708
58571SOL    HW275740   9.310  12.389   6.570
58572SOL     OW75741  11.036  11.307   6.109
58572SOL    HW175742  11.109  11.290   6.042
58572SOL    HW275743  11.005  11.220   6.147
58573SOL     OW75744  10.590  12.099   6.258
58573SOL    HW175745  10.650  12.018   6.260
58573SOL    HW275746  10.630  12.168   6.198
58574SOL     OW75747  10.140  12.445   7.008
58574SOL    HW175748  10.135  12.478   7.103
58574SOL    HW275749  10.054  12.464   6.962
58575SOL     OW75750  11.151  11.347   6.549
58575SOL    HW175751  11.190  11.262   6.513
58575SOL    HW275752  11.053  11.349   6.530
58576SOL     OW75753   9.573  11.498   6.306
58576SOL    HW175754   9.494  11.549   6.272
58576SOL    HW275755   9.564  11.483   6.404
58577SOL     OW75756  10.132  12.174   6.958
58577SOL    HW175757  10.172  12.173   6.866
58577SOL    HW275758  10.142  12.266   6.998
58578SOL     OW75759  10.226  12.082   5.877
58578SOL    HW175760  10.289  12.120   5.809
58578SOL    HW275761  10.266  11.999   5.916
58579SOL     OW75762   9.682  12.460   7.076
58579SOL    HW175763   9.669  12.553   7.042
58579SOL    HW275764   9.598  12.408   7.063
58580SOL     OW75765  10.924  12.464   6.875
58580SOL    HW175766  10.984  12.467   6.955
58580SOL    HW275767  10.849  12.528   6.888
58581SOL     OW75768  10.349  12.270   6.282
58581SOL    HW175769  10.279  12.223   6.336
58581SOL    HW275770  10.408  12.202   6.239
58582SOL     OW75771  10.324  11.408   6.557
58582SOL    HW175772  10.316  11.372   6.464
58582SOL    HW275773  10.322  11.332   6.622
58583SOL     OW75774  11.019  11.557   6.967
58583SOL    HW175775  11.092  11.626   6.971
58583SOL    HW275776  11.047  11.482   6.908
58584SOL     OW75777   9.565  12.520   5.876
58584SOL    HW175778   9.469  12.521   5.849
58584SOL    HW275779   9.577  12.573   5.960
58585SOL     OW75780   9.415  12.185   7.312
58585SOL    HW175781   9.338  12.152   7.366
58585SOL    HW275782   9.500  12.155   7.354
58586SOL     OW75783   9.982  11.375   7.075
58586SOL    HW175784  10.072  11.359   7.035
58586SOL    HW275785   9.990  11.380   7.174
58587SOL     OW75786   9.385  11.517   5.619
58587SOL    HW175787   9.293  11.489   5.590
58587SOL    HW275788   9.416  11.594   5.563
58588SOL     OW75789  10.750  12.028   6.984
58588SOL    HW175790  10.693  12.080   6.921
58588SOL    HW275791  10.846  12.040   6.960
58589SOL     OW75792   9.382  11.338   5.904
58589SOL    HW175793   9.365  11.421   5.850
58589SOL    HW275794   9.472  11.301   5.882
58590SOL     OW75795  10.493  12.507   5.705
58590SOL    HW175796  10.394  12.496   5.707
58590SOL    HW275797  10.527  12.522   5.798
58591SOL     OW75798   9.923  12.014   7.017
58591SOL    HW175799   9.979  12.095   7.000
58591SOL    HW275800   9.982  11.934   7.020
58592SOL     OW75801  10.026  11.737   7.294
58592SOL    HW175802  10.045  11.802   7.368
58592SOL    HW275803  10.086  11.657   7.303
58593SOL     OW75804  10.760  12.392   7.219
58593SOL    HW175805  10.751  12.382   7.318
58593SOL    HW275806  10.856  12.385   7.193
58594SOL     OW75807  10.984  12.055   6.840
58594SOL    HW175808  10.957  11.966   6.803
58594SOL    HW275809  10.985  12.123   6.767
58595SOL     OW75810  10.535  11.497   6.035
58595SOL    HW175811  10.600  11.423   6.024
58595SOL    HW275812  10.555  11.547   6.119
58596SOL     OW75813   9.904  11.917   6.238
58596SOL    HW175814   9.954  12.002   6.219
58596SOL    HW275815   9.816  11.919   6.190
58597SOL     OW75816  11.087  11.514   7.228
58597SOL    HW175817  11.070  11.545   7.134
58597SOL    HW275818  11.003  11.477   7.266
58598SOL     OW75819  11.040  12.106   7.103
58598SOL    HW175820  11.078  12.197   7.118
58598SOL    HW275821  11.032  12.089   7.004
58599SOL     OW75822  10.169  12.546   5.602
58599SOL    HW175823  10.123  12.561   5.690
58599SOL    HW275824  10.213  12.631   5.572
58600SOL     OW75825  10.169  12.128   6.447
58600SOL    HW175826  10.223  12.059   6.495
58600SOL    HW275827  10.137  12.197   6.513
58601SOL     OW75828  10.393  12.156   5.673
58601SOL    HW175829  10.370  12.209   5.591
58601SOL    HW275830  10.474  12.100   5.654
58602SOL     OW75831   9.531  12.486   7.430
58602SOL    HW175832   9.466  12.413   7.409
58602SOL    HW275833   9.535  12.500   7.528
58603SOL     OW75834   9.389  12.412   6.239
58603SOL    HW175835   9.388  12.365   6.327
58603SOL    HW275836   9.471  12.384   6.188
58604SOL     OW75837   9.982  12.563   7.210
58604SOL    HW175838   9.904  12.513   7.248
58604SOL    HW275839   9.979  12.658   7.241
58605SOL     OW75840  11.134  11.364   6.813
58605SOL    HW175841  11.130  11.274   6.857
58605SOL    HW275842  11.137  11.353   6.714
58606SOL     OW75843   9.738  11.596   6.106
58606SOL    HW175844   9.768  11.524   6.044
58606SOL    HW275845   9.699  11.556   6.189
58607SOL     OW75846  11.015  12.659   6.690
58607SOL    HW175847  10.922  12.634   6.663
58607SOL    HW275848  11.041  12.609   6.772
58608SOL     OW75849   9.627  11.719   6.866
58608SOL    HW175850   9.665  11.660   6.938
58608SOL    HW275851   9.667  11.693   6.778
58609SOL     OW75852  10.734  11.386   6.698
58609SOL    HW175853  10.786  11.321   6.753
58609SOL    HW275854  10.685  11.449   6.759
58610SOL     OW75855  10.311  11.206   6.740
58610SOL    HW175856  10.248  11.134   6.709
58610SOL    HW275857  10.404  11.170   6.740
58611SOL     OW75858  10.080  12.502   5.887
58611SOL    HW175859  10.034  12.415   5.904
58611SOL    HW275860  10.171  12.499   5.928
58612SOL     OW75861   9.928  12.739   6.870
58612SOL    HW175862   9.923  12.821   6.927
58612SOL    HW275863  10.017  12.736   6.825
58613SOL     OW75864  10.662  11.224   5.754
58613SOL    HW175865  10.697  11.183   5.670
58613SOL    HW275866  10.572  11.186   5.774
58614SOL     OW75867  10.610  11.625   6.277
58614SOL    HW175868  10.551  11.705   6.281
58614SOL    HW275869  10.625  11.590   6.370
58615SOL     OW75870  10.903  11.393   6.468
58615SOL    HW175871  10.819  11.392   6.522
58615SOL    HW275872  10.905  11.476   6.412
58616SOL     OW75873   9.349  12.249   5.886
58616SOL    HW175874   9.448  12.238   5.877
58616SOL    HW275875   9.309  12.163   5.918
58617SOL     OW75876   9.540  11.800   7.561
58617SOL    HW175877   9.447  11.798   7.598
58617SOL    HW275878   9.541  11.761   7.469
58618SOL     OW75879   9.535  11.447   8.444
58618SOL    HW175880   9.570  11.430   8.536
58618SOL    HW275881   9.447  11.402   8.432
58619SOL     OW75882   9.329  11.540   8.095
58619SOL    HW175883   9.247  11.583   8.134
58619SOL    HW275884   9.301  11.467   8.032
58620SOL     OW75885   9.879  12.447   8.613
58620SOL    HW175886   9.786  12.440   8.576
58620SOL    HW275887   9.890  12.536   8.657
58621SOL     OW75888  10.865  12.683   8.151
58621SOL    HW175889  10.808  12.667   8.232
58621SOL    HW275890  10.806  12.693   8.071
58622SOL     OW75891  10.445  11.875   8.165
58622SOL    HW175892  10.502  11.953   8.140
58622SOL    HW275893  10.385  11.901   8.241
58623SOL     OW75894  11.065  11.779   7.679
58623SOL    HW175895  11.053  11.766   7.580
58623SOL    HW275896  11.035  11.698   7.728
58624SOL     OW75897  10.078  12.316   8.471
58624SOL    HW175898  10.000  12.333   8.531
58624SOL    HW275899  10.112  12.403   8.435
58625SOL     OW75900  10.160  11.970   9.271
58625SOL    HW175901  10.156  12.046   9.336
58625SOL    HW275902  10.182  12.006   9.180
58626SOL     OW75903   9.995  12.184   8.113
58626SOL    HW175904  10.064  12.168   8.183
58626SOL    HW275905   9.922  12.241   8.151
58627SOL     OW75906   9.996  12.333   9.251
58627SOL    HW175907  10.056  12.412   9.265
58627SOL    HW275908   9.910  12.364   9.210
58628SOL     OW75909   9.645  12.607   8.509
58628SOL    HW175910   9.567  12.576   8.456
58628SOL    HW275911   9.703  12.665   8.452
58629SOL     OW75912  10.770  12.677   8.787
58629SOL    HW175913  10.794  12.771   8.813
58629SOL    HW275914  10.754  12.623   8.869
58630SOL     OW75915   9.748  11.564   8.947
58630SOL    HW175916   9.830  11.508   8.956
58630SOL    HW275917   9.667  11.506   8.951
58631SOL     OW75918  10.913  11.619   8.185
58631SOL    HW175919  10.839  11.665   8.135
58631SOL    HW275920  10.964  11.687   8.238
58632SOL     OW75921   9.541  12.885   7.931
58632SOL    HW175922   9.575  12.962   7.985
58632SOL    HW275923   9.585  12.885   7.841
58633SOL     OW75924  10.437  12.513   9.138
58633SOL    HW175925  10.484  12.513   9.226
58633SOL    HW275926  10.389  12.426   9.127
58634SOL     OW75927   9.540  12.606   7.986
58634SOL    HW175928   9.514  12.702   7.986
58634SOL    HW275929   9.469  12.552   8.031
58635SOL     OW75930   9.550  12.263   8.334
58635SOL    HW175931   9.564  12.179   8.386
58635SOL    HW275932   9.495  12.327   8.389
58636SOL     OW75933   9.916  12.136   7.571
58636SOL    HW175934   9.923  12.220   7.517
58636SOL    HW275935   9.962  12.149   7.659
58637SOL     OW75936  10.904  11.286   8.928
58637SOL    HW175937  10.886  11.353   8.856
58637SOL    HW275938  10.901  11.332   9.017
58638SOL     OW75939   9.432  11.815   8.011
58638SOL    HW175940   9.387  11.727   8.028
58638SOL    HW275941   9.431  11.869   8.095
58639SOL     OW75942   9.337  12.768   7.565
58639SOL    HW175943   9.318  12.672   7.586
58639SOL    HW275944   9.304  12.826   7.640
58640SOL     OW75945  10.999  12.094   8.060
58640SOL    HW175946  11.094  12.065   8.068
58640SOL    HW275947  10.991  12.159   7.985
58641SOL     OW75948  10.951  12.280   7.880
58641SOL    HW175949  11.037  12.282   7.828
58641SOL    HW275950  10.965  12.327   7.968
58642SOL     OW75951   9.423  11.909   9.045
58642SOL    HW175952   9.511  11.896   9.090
58642SOL    HW275953   9.410  12.006   9.023
58643SOL     OW75954   9.923  12.537   8.174
58643SOL    HW175955   9.874  12.450   8.183
58643SOL    HW275956   9.900  12.580   8.087
58644SOL     OW75957  10.603  12.400   8.871
58644SOL    HW175958  10.640  12.327   8.813
58644SOL    HW275959  10.655  12.405   8.956
58645SOL     OW75960  10.119  11.176   7.950
58645SOL    HW175961  10.159  11.267   7.941
58645SOL    HW275962  10.019  11.184   7.956
58646SOL     OW75963   9.507  12.148   8.712
58646SOL    HW175964   9.596  12.103   8.698
58646SOL    HW275965   9.434  12.083   8.693
58647SOL     OW75966  10.835  12.171   7.638
58647SOL    HW175967  10.772  12.095   7.651
58647SOL    HW275968  10.883  12.189   7.724
58648SOL     OW75969   9.627  11.423   9.249
58648SOL    HW175970   9.698  11.494   9.255
58648SOL    HW275971   9.539  11.462   9.277
58649SOL     OW75972  10.776  12.589   8.401
58649SOL    HW175973  10.717  12.595   8.481
58649SOL    HW275974  10.761  12.501   8.355
58650SOL     OW75975   9.908  11.901   7.718
58650SOL    HW175976   9.932  11.970   7.650
58650SOL    HW275977   9.830  11.934   7.772
58651SOL     OW75978  10.591  11.517   8.392
58651SOL    HW175979  10.505  11.467   8.379
58651SOL    HW275980  10.653  11.463   8.448
58652SOL     OW75981  10.117  11.777   8.913
58652SOL    HW175982  10.070  11.774   9.002
58652SOL    HW275983  10.066  11.722   8.847
58653SOL     OW75984  10.704  11.641   9.122
58653SOL    HW175985  10.684  11.684   9.210
58653SOL    HW275986  10.782  11.579   9.131
58654SOL     OW75987  10.283  12.062   9.020
58654SOL    HW175988  10.329  11.978   8.991
58654SOL    HW275989  10.227  12.096   8.945
58655SOL     OW75990  10.301  11.582   8.690
58655SOL    HW175991  10.224  11.616   8.744
58655SOL    HW275992  10.267  11.531   8.611
58656SOL     OW75993  10.351  11.873   7.877
58656SOL    HW175994  10.377  11.869   7.973
58656SOL    HW275995  10.266  11.822   7.863
58657SOL     OW75996   9.386  11.983   8.237
58657SOL    HW175997   9.485  11.971   8.246
58657SOL    HW275998   9.362  12.078   8.258
58658SOL     OW75999  10.175  11.520   7.643
58658SOL    HW176000  10.234  11.583   7.594
58658SOL    HW276001  10.194  11.426   7.614
58659SOL     OW76002  11.029  11.757   9.279
58659SOL    HW176003  11.003  11.846   9.243
58659SOL    HW276004  11.027  11.689   9.206
58660SOL     OW76005  10.672  12.316   7.993
58660SOL    HW176006  10.755  12.287   7.945
58660SOL    HW276007  10.623  12.383   7.937
58661SOL     OW76008   9.860  11.368   8.333
58661SOL    HW176009   9.855  11.363   8.433
58661SOL    HW276010   9.862  11.464   8.304
58662SOL     OW76011  10.318  12.628   7.925
58662SOL    HW176012  10.272  12.700   7.873
58662SOL    HW276013  10.314  12.648   8.023
58663SOL     OW76014  11.105  12.238   8.321
58663SOL    HW176015  11.043  12.223   8.245
58663SOL    HW276016  11.053  12.249   8.406
58664SOL     OW76017  10.537  12.722   8.954
58664SOL    HW176018  10.543  12.645   9.018
58664SOL    HW276019  10.485  12.696   8.874
58665SOL     OW76020   9.631  12.115   7.690
58665SOL    HW176021   9.713  12.154   7.648
58665SOL    HW276022   9.604  12.033   7.641
58666SOL     OW76023  10.768  11.907   8.176
58666SOL    HW176024  10.763  11.842   8.251
58666SOL    HW276025  10.848  11.966   8.189
58667SOL     OW76026   9.771  12.438   9.175
58667SOL    HW176027   9.721  12.439   9.089
58667SOL    HW276028   9.708  12.420   9.251
58668SOL     OW76029  10.421  12.948   7.685
58668SOL    HW176030  10.361  12.886   7.735
58668SOL    HW276031  10.452  12.904   7.600
58669SOL     OW76032   9.512  11.457   8.946
58669SOL    HW176033   9.432  11.517   8.933
58669SOL    HW276034   9.502  11.408   9.032
58670SOL     OW76035  10.942  12.549   7.529
58670SOL    HW176036  10.910  12.643   7.519
58670SOL    HW276037  10.866  12.486   7.517
58671SOL     OW76038  10.710  11.279   7.874
58671SOL    HW176039  10.686  11.242   7.784
58671SOL    HW276040  10.809  11.295   7.878
58672SOL     OW76041   9.692  11.872   7.928
58672SOL    HW176042   9.737  11.782   7.925
58672SOL    HW276043   9.598  11.861   7.961
58673SOL     OW76044  10.857  11.394   9.177
58673SOL    HW176045  10.852  11.431   9.269
58673SOL    HW276046  10.785  11.325   9.165
58674SOL     OW76047   9.924  11.294   7.565
58674SOL    HW176048  10.022  11.272   7.572
58674SOL    HW276049   9.893  11.277   7.472
58675SOL     OW76050  10.091  11.436   9.197
58675SOL    HW176051  10.158  11.375   9.240
58675SOL    HW276052  10.018  11.455   9.262
58676SOL     OW76053  10.661  11.762   8.881
58676SOL    HW176054  10.689  11.719   8.966
58676SOL    HW276055  10.686  11.858   8.882
58677SOL     OW76056  10.113  12.574   8.372
58677SOL    HW176057  10.203  12.588   8.330
58677SOL    HW276058  10.042  12.576   8.301
58678SOL     OW76059  10.232  11.675   8.347
58678SOL    HW176060  10.207  11.666   8.251
58678SOL    HW276061  10.280  11.593   8.378
58679SOL     OW76062   9.849  11.236   7.960
58679SOL    HW176063   9.768  11.237   8.018
58679SOL    HW276064   9.852  11.319   7.905
58680SOL     OW76065  10.744  12.360   7.489
58680SOL    HW176066  10.776  12.284   7.546
58680SOL    HW276067  10.652  12.387   7.519
58681SOL     OW76068   9.607  11.207   7.619
58681SOL    HW176069   9.656  11.291   7.598
58681SOL    HW276070   9.669  11.142   7.664
58682SOL     OW76071  10.245  11.408   7.928
58682SOL    HW176072  10.197  11.449   7.850
58682SOL    HW276073  10.344  11.406   7.909
58683SOL     OW76074  10.386  11.855   8.912
58683SOL    HW176075  10.306  11.794   8.915
58683SOL    HW276076  10.467  11.802   8.888
58684SOL     OW76077  10.537  12.742   8.241
58684SOL    HW176078  10.558  12.816   8.176
58684SOL    HW276079  10.605  12.742   8.314
58685SOL     OW76080   9.769  12.324   8.189
58685SOL    HW176081   9.698  12.297   8.254
58685SOL    HW276082   9.743  12.296   8.096
58686SOL     OW76083  10.342  11.721   7.464
58686SOL    HW176084  10.301  11.803   7.425
58686SOL    HW276085  10.406  11.747   7.537
58687SOL     OW76086   9.388  11.728   8.834
58687SOL    HW176087   9.480  11.727   8.793
58687SOL    HW276088   9.382  11.802   8.901
58688SOL     OW76089   9.871  11.394   8.595
58688SOL    HW176090   9.909  11.310   8.632
58688SOL    HW276091   9.783  11.413   8.639
58689SOL     OW76092  10.176  11.626   8.090
58689SOL    HW176093  10.144  11.698   8.028
58689SOL    HW276094  10.200  11.545   8.037
58690SOL     OW76095  10.327  11.211   8.201
58690SOL    HW176096  10.255  11.216   8.132
58690SOL    HW276097  10.303  11.142   8.270
58691SOL     OW76098  10.739  12.345   8.315
58691SOL    HW176099  10.684  12.261   8.308
58691SOL    HW276100  10.765  12.374   8.223
58692SOL     OW76101  10.776  11.762   8.440
58692SOL    HW176102  10.746  11.667   8.447
58692SOL    HW276103  10.849  11.778   8.506
58693SOL     OW76104  11.167  12.005   7.825
58693SOL    HW176105  11.209  11.941   7.889
58693SOL    HW276106  11.129  11.954   7.747
58694SOL     OW76107   9.798  12.557   7.622
58694SOL    HW176108   9.711  12.542   7.669
58694SOL    HW276109   9.781  12.583   7.527
58695SOL     OW76110  10.974  12.452   8.105
58695SOL    HW176111  11.073  12.460   8.119
58695SOL    HW276112  10.929  12.536   8.136
58696SOL     OW76113  10.700  11.747   7.526
58696SOL    HW176114  10.646  11.726   7.607
58696SOL    HW276115  10.791  11.706   7.535
58697SOL     OW76116   9.837  11.428   7.776
58697SOL    HW176117   9.864  11.369   7.701
58697SOL    HW276118   9.837  11.523   7.745
58698SOL     OW76119  11.064  12.395   9.036
58698SOL    HW176120  11.155  12.356   9.023
58698SOL    HW276121  11.072  12.491   9.060
58699SOL     OW76122  10.374  12.519   8.788
58699SOL    HW176123  10.294  12.496   8.843
58699SOL    HW276124  10.457  12.493   8.837
58700SOL     OW76125  10.421  12.367   8.548
58700SOL    HW176126  10.381  12.411   8.629
58700SOL    HW276127  10.380  12.404   8.465
58701SOL     OW76128  10.948  12.271   8.527
58701SOL    HW176129  10.953  12.352   8.586
58701SOL    HW276130  10.862  12.273   8.476
58702SOL     OW76131  10.225  11.261   8.850
58702SOL    HW176132  10.250  11.241   8.755
58702SOL    HW276133  10.297  11.317   8.892
58703SOL     OW76134  10.290  12.288   9.167
58703SOL    HW176135  10.191  12.294   9.177
58703SOL    HW276136  10.313  12.208   9.111
58704SOL     OW76137  10.015  12.222   7.816
58704SOL    HW176138  10.001  12.229   7.915
58704SOL    HW276139  10.099  12.171   7.798
58705SOL     OW76140   9.720  11.985   8.699
58705SOL    HW176141   9.806  11.997   8.749
58705SOL    HW276142   9.678  11.898   8.726
58706SOL     OW76143  10.584  11.558   8.710
58706SOL    HW176144  10.605  11.632   8.774
58706SOL    HW276145  10.495  11.575   8.667
58707SOL     OW76146   9.677  12.272   7.949
58707SOL    HW176147   9.670  12.355   7.893
58707SOL    HW276148   9.681  12.192   7.889
58708SOL     OW76149   9.876  11.709   8.313
58708SOL    HW176150   9.888  11.775   8.239
58708SOL    HW276151   9.922  11.743   8.396
58709SOL     OW76152  10.562  12.520   7.836
58709SOL    HW176153  10.612  12.597   7.876
58709SOL    HW276154  10.467  12.522   7.868
58710SOL     OW76155  10.582  12.617   8.590
58710SOL    HW176156  10.629  12.630   8.677
58710SOL    HW276157  10.516  12.543   8.599
58711SOL     OW76158  10.892  11.811   7.920
58711SOL    HW176159  10.861  11.872   7.993
58711SOL    HW276160  10.942  11.863   7.851
58712SOL     OW76161   9.664  12.682   8.777
58712SOL    HW176162   9.643  12.638   8.690
58712SOL    HW276163   9.761  12.708   8.780
58713SOL     OW76164   9.712  11.923   9.046
58713SOL    HW176165   9.780  11.978   8.999
58713SOL    HW276166   9.752  11.835   9.073
58714SOL     OW76167  10.897  11.951   9.118
58714SOL    HW176168  10.805  11.989   9.113
58714SOL    HW276169  10.957  11.998   9.053
58715SOL     OW76170  10.323  11.277   9.218
58715SOL    HW176171  10.329  11.362   9.166
58715SOL    HW276172  10.355  11.201   9.161
58716SOL     OW76173   9.814  11.222   9.188
58716SOL    HW176174   9.772  11.165   9.118
58716SOL    HW276175   9.748  11.291   9.220
58717SOL     OW76176   9.883  12.042   8.477
58717SOL    HW176177   9.927  12.131   8.468
58717SOL    HW276178   9.820  12.042   8.554
58718SOL     OW76179  10.670  12.034   8.493
58718SOL    HW176180  10.595  12.034   8.427
58718SOL    HW276181  10.707  11.942   8.502
58719SOL     OW76182  10.519  11.697   7.723
58719SOL    HW176183  10.532  11.613   7.777
58719SOL    HW276184  10.490  11.771   7.783
58720SOL     OW76185   9.617  11.385   8.679
58720SOL    HW176186   9.594  11.422   8.769
58720SOL    HW276187   9.587  11.290   8.673
58721SOL     OW76188   9.347  12.482   8.730
58721SOL    HW176189   9.400  12.433   8.798
58721SOL    HW276190   9.369  12.580   8.735
58722SOL     OW76191  10.042  11.806   8.512
58722SOL    HW176192  10.101  11.780   8.436
58722SOL    HW276193  10.014  11.902   8.501
58723SOL     OW76194  11.038  12.107   9.302
58723SOL    HW176195  10.992  12.100   9.213
58723SOL    HW276196  10.976  12.151   9.368
58724SOL     OW76197   9.617  11.235   8.066
58724SOL    HW176198   9.606  11.329   8.099
58724SOL    HW276199   9.612  11.172   8.143
58725SOL     OW76200  10.932  11.539   7.822
58725SOL    HW176201  10.934  11.463   7.886
58725SOL    HW276202  10.884  11.616   7.862
58726SOL     OW76203  10.333  11.938   8.414
58726SOL    HW176204  10.348  11.959   8.510
58726SOL    HW276205  10.303  11.843   8.405
58727SOL     OW76206  11.169  12.690   9.053
58727SOL    HW176207  11.183  12.717   8.958
58727SOL    HW276208  11.252  12.712   9.106
58728SOL     OW76209   9.660  12.070   9.252
58728SOL    HW176210   9.736  12.114   9.300
58728SOL    HW276211   9.695  12.023   9.170
58729SOL     OW76212  10.850  11.446   7.573
58729SOL    HW176213  10.789  11.371   7.596
58729SOL    HW276214  10.872  11.498   7.656
58730SOL     OW76215  10.613  12.010   7.490
58730SOL    HW176216  10.647  11.917   7.505
58730SOL    HW276217  10.631  12.037   7.395
58731SOL     OW76218  10.378  12.505   8.297
58731SOL    HW176219  10.385  12.421   8.242
58731SOL    HW276220  10.440  12.574   8.261
58732SOL     OW76221   9.629  11.982   8.397
58732SOL    HW176222   9.722  12.018   8.402
58732SOL    HW276223   9.623  11.897   8.449
58733SOL     OW76224   9.649  11.681   8.454
58733SOL    HW176225   9.597  11.598   8.437
58733SOL    HW276226   9.726  11.686   8.390
58734SOL     OW76227  10.448  11.552   9.126
58734SOL    HW176228  10.403  11.615   9.190
58734SOL    HW276229  10.541  11.583   9.109
58735SOL     OW76230  10.470  11.379   8.925
58735SOL    HW176231  10.470  11.443   9.002
58735SOL    HW276232  10.498  11.427   8.842
58736SOL     OW76233   9.318  12.498   7.648
58736SOL    HW176234   9.225  12.519   7.617
58736SOL    HW276235   9.328  12.399   7.661
58737SOL     OW76236  10.312  11.968   8.686
58737SOL    HW176237  10.353  11.936   8.772
58737SOL    HW276238  10.216  11.941   8.683
58738SOL     OW76239   9.350  11.716   8.562
58738SOL    HW176240   9.435  11.683   8.521
58738SOL    HW276241   9.363  11.731   8.660
58739SOL     OW76242   9.499  11.692   9.170
58739SOL    HW176243   9.558  11.652   9.100
58739SOL    HW276244   9.441  11.763   9.129
58740SOL     OW76245  10.679  12.122   9.108
58740SOL    HW176246  10.718  12.211   9.128
58740SOL    HW276247  10.689  12.102   9.011
58741SOL     OW76248  10.125  11.744   7.773
58741SOL    HW176249  10.132  11.655   7.727
58741SOL    HW276250  10.031  11.778   7.765
58742SOL     OW76251  10.967  11.776   8.654
58742SOL    HW176252  10.929  11.707   8.716
58742SOL    HW276253  11.049  11.740   8.610
58743SOL     OW76254   9.562  12.736   9.192
58743SOL    HW176255   9.532  12.793   9.268
58743SOL    HW276256   9.555  12.639   9.218
58744SOL     OW76257   9.981  11.636   8.717
58744SOL    HW176258   9.947  11.547   8.687
58744SOL    HW276259  10.007  11.690   8.637
58745SOL     OW76260   9.783  11.672   7.639
58745SOL    HW176261   9.844  11.752   7.643
58745SOL    HW276262   9.688  11.703   7.646
58746SOL     OW76263   9.469  12.309   8.914
58746SOL    HW176264   9.491  12.248   8.990
58746SOL    HW276265   9.479  12.260   8.828
58747SOL     OW76266  10.657  12.231   8.682
58747SOL    HW176267  10.681  12.168   8.608
58747SOL    HW276268  10.567  12.271   8.664
58748SOL     OW76269  10.612  12.027   7.757
58748SOL    HW176270  10.526  11.996   7.799
58748SOL    HW276271  10.608  12.013   7.658
58749SOL     OW76272   9.393  12.430   8.470
58749SOL    HW176273   9.388  12.429   8.570
58749SOL    HW276274   9.310  12.389   8.432
58750SOL     OW76275  11.036  11.307   7.971
58750SOL    HW176276  11.109  11.290   7.904
58750SOL    HW276277  11.005  11.220   8.009
58751SOL     OW76278  10.590  12.099   8.120
58751SOL    HW176279  10.650  12.018   8.122
58751SOL    HW276280  10.630  12.168   8.060
58752SOL     OW76281  10.140  12.445   8.870
58752SOL    HW176282  10.135  12.478   8.965
58752SOL    HW276283  10.054  12.464   8.824
58753SOL     OW76284  11.151  11.347   8.411
58753SOL    HW176285  11.190  11.262   8.375
58753SOL    HW276286  11.053  11.349   8.392
58754SOL     OW76287   9.573  11.498   8.168
58754SOL    HW176288   9.494  11.549   8.134
58754SOL    HW276289   9.564  11.483   8.266
58755SOL     OW76290  10.132  12.174   8.820
58755SOL    HW176291  10.172  12.173   8.728
58755SOL    HW276292  10.142  12.266   8.860
58756SOL     OW76293  10.226  12.082   7.739
58756SOL    HW176294  10.289  12.120   7.671
58756SOL    HW276295  10.266  11.999   7.778
58757SOL     OW76296   9.682  12.460   8.938
58757SOL    HW176297   9.669  12.553   8.904
58757SOL    HW276298   9.598  12.408   8.925
58758SOL     OW76299  10.924  12.464   8.737
58758SOL    HW176300  10.984  12.467   8.817
58758SOL    HW276301  10.849  12.528   8.750
58759SOL     OW76302  10.349  12.270   8.144
58759SOL    HW176303  10.279  12.223   8.198
58759SOL    HW276304  10.408  12.202   8.101
58760SOL     OW76305  10.324  11.408   8.419
58760SOL    HW176306  10.316  11.372   8.326
58760SOL    HW276307  10.322  11.332   8.484
58761SOL     OW76308  11.019  11.557   8.829
58761SOL    HW176309  11.092  11.626   8.833
58761SOL    HW276310  11.047  11.482   8.770
58762SOL     OW76311   9.565  12.520   7.738
58762SOL    HW176312   9.469  12.521   7.711
58762SOL    HW276313   9.577  12.573   7.822
58763SOL     OW76314   9.415  12.185   9.174
58763SOL    HW176315   9.338  12.152   9.228
58763SOL    HW276316   9.500  12.155   9.216
58764SOL     OW76317   9.982  11.375   8.937
58764SOL    HW176318  10.072  11.359   8.897
58764SOL    HW276319   9.990  11.380   9.036
58765SOL     OW76320   9.385  11.517   7.481
58765SOL    HW176321   9.293  11.489   7.452
58765SOL    HW276322   9.416  11.594   7.425
58766SOL     OW76323  10.750  12.028   8.846
58766SOL    HW176324  10.693  12.080   8.783
58766SOL    HW276325  10.846  12.040   8.822
58767SOL     OW76326   9.382  11.338   7.766
58767SOL    HW176327   9.365  11.421   7.712
58767SOL    HW276328   9.472  11.301   7.744
58768SOL     OW76329  10.493  12.507   7.567
58768SOL    HW176330  10.394  12.496   7.569
58768SOL    HW276331  10.527  12.522   7.660
58769SOL     OW76332   9.923  12.014   8.879
58769SOL    HW176333   9.979  12.095   8.862
58769SOL    HW276334   9.982  11.934   8.882
58770SOL     OW76335  10.026  11.737   9.156
58770SOL    HW176336  10.045  11.802   9.230
58770SOL    HW276337  10.086  11.657   9.165
58771SOL     OW76338  10.760  12.392   9.081
58771SOL    HW176339  10.751  12.382   9.180
58771SOL    HW276340  10.856  12.385   9.055
58772SOL     OW76341  10.984  12.055   8.702
58772SOL    HW176342  10.957  11.966   8.665
58772SOL    HW276343  10.985  12.123   8.629
58773SOL     OW76344  10.535  11.497   7.897
58773SOL    HW176345  10.600  11.423   7.886
58773SOL    HW276346  10.555  11.547   7.981
58774SOL     OW76347   9.904  11.917   8.100
58774SOL    HW176348   9.954  12.002   8.081
58774SOL    HW276349   9.816  11.919   8.052
58775SOL     OW76350  11.087  11.514   9.090
58775SOL    HW176351  11.070  11.545   8.996
58775SOL    HW276352  11.003  11.477   9.128
58776SOL     OW76353  11.040  12.106   8.965
58776SOL    HW176354  11.078  12.197   8.980
58776SOL    HW276355  11.032  12.089   8.866
58777SOL     OW76356  10.169  12.546   7.464
58777SOL    HW176357  10.123  12.561   7.552
58777SOL    HW276358  10.213  12.631   7.434
58778SOL     OW76359  10.169  12.128   8.309
58778SOL    HW176360  10.223  12.059   8.357
58778SOL    HW276361  10.137  12.197   8.375
58779SOL     OW76362  10.393  12.156   7.535
58779SOL    HW176363  10.370  12.209   7.453
58779SOL    HW276364  10.474  12.100   7.516
58780SOL     OW76365   9.531  12.486   9.292
58780SOL    HW176366   9.466  12.413   9.271
58780SOL    HW276367   9.535  12.500   9.390
58781SOL     OW76368   9.389  12.412   8.101
58781SOL    HW176369   9.388  12.365   8.189
58781SOL    HW276370   9.471  12.384   8.050
58782SOL     OW76371   9.982  12.563   9.072
58782SOL    HW176372   9.904  12.513   9.110
58782SOL    HW276373   9.979  12.658   9.103
58783SOL     OW76374  11.134  11.364   8.675
58783SOL    HW176375  11.130  11.274   8.719
58783SOL    HW276376  11.137  11.353   8.576
58784SOL     OW76377   9.738  11.596   7.968
58784SOL    HW176378   9.768  11.524   7.906
58784SOL    HW276379   9.699  11.556   8.051
58785SOL     OW76380  11.015  12.659   8.552
58785SOL    HW176381  10.922  12.634   8.525
58785SOL    HW276382  11.041  12.609   8.634
58786SOL     OW76383   9.627  11.719   8.728
58786SOL    HW176384   9.665  11.660   8.800
58786SOL    HW276385   9.667  11.693   8.640
58787SOL     OW76386  10.734  11.386   8.560
58787SOL    HW176387  10.786  11.321   8.615
58787SOL    HW276388  10.685  11.449   8.621
58788SOL     OW76389  10.311  11.206   8.602
58788SOL    HW176390  10.248  11.134   8.571
58788SOL    HW276391  10.404  11.170   8.602
58789SOL     OW76392  10.080  12.502   7.749
58789SOL    HW176393  10.034  12.415   7.766
58789SOL    HW276394  10.171  12.499   7.790
58790SOL     OW76395   9.928  12.739   8.732
58790SOL    HW176396   9.923  12.821   8.789
58790SOL    HW276397  10.017  12.736   8.687
58791SOL     OW76398  10.662  11.224   7.616
58791SOL    HW176399  10.697  11.183   7.532
58791SOL    HW276400  10.572  11.186   7.636
58792SOL     OW76401  10.610  11.625   8.139
58792SOL    HW176402  10.551  11.705   8.143
58792SOL    HW276403  10.625  11.590   8.232
58793SOL     OW76404  10.903  11.393   8.330
58793SOL    HW176405  10.819  11.392   8.384
58793SOL    HW276406  10.905  11.476   8.274
58794SOL     OW76407   9.349  12.249   7.748
58794SOL    HW176408   9.448  12.238   7.739
58794SOL    HW276409   9.309  12.163   7.780
58795SOL     OW76410   9.540  11.800   9.423
58795SOL    HW176411   9.447  11.798   9.460
58795SOL    HW276412   9.541  11.761   9.331
58796SOL     OW76413   9.329  11.540   9.957
58796SOL    HW176414   9.247  11.583   9.996
58796SOL    HW276415   9.301  11.467   9.894
58797SOL     OW76416   9.879  12.447  10.475
58797SOL    HW176417   9.786  12.440  10.438
58797SOL    HW276418   9.890  12.536  10.519
58798SOL     OW76419  10.865  12.683  10.013
58798SOL    HW176420  10.808  12.667  10.094
58798SOL    HW276421  10.806  12.693   9.933
58799SOL     OW76422  10.445  11.875  10.027
58799SOL    HW176423  10.502  11.953  10.002
58799SOL    HW276424  10.385  11.901  10.103
58800SOL     OW76425  11.065  11.779   9.541
58800SOL    HW176426  11.053  11.766   9.442
58800SOL    HW276427  11.035  11.698   9.590
58801SOL     OW76428  10.078  12.316  10.333
58801SOL    HW176429  10.000  12.333  10.393
58801SOL    HW276430  10.112  12.403  10.297
58802SOL     OW76431  10.160  11.970  11.133
58802SOL    HW176432  10.156  12.046  11.198
58802SOL    HW276433  10.182  12.006  11.042
58803SOL     OW76434   9.995  12.184   9.975
58803SOL    HW176435  10.064  12.168  10.045
58803SOL    HW276436   9.922  12.241  10.013
58804SOL     OW76437   9.996  12.333  11.113
58804SOL    HW176438  10.056  12.412  11.127
58804SOL    HW276439   9.910  12.364  11.072
58805SOL     OW76440   9.645  12.607  10.371
58805SOL    HW176441   9.567  12.576  10.318
58805SOL    HW276442   9.703  12.665  10.314
58806SOL     OW76443  10.770  12.677  10.649
58806SOL    HW176444  10.794  12.771  10.675
58806SOL    HW276445  10.754  12.623  10.731
58807SOL     OW76446   9.748  11.564  10.809
58807SOL    HW176447   9.830  11.508  10.818
58807SOL    HW276448   9.667  11.506  10.813
58808SOL     OW76449  10.913  11.619  10.047
58808SOL    HW176450  10.839  11.665   9.997
58808SOL    HW276451  10.964  11.687  10.100
58809SOL     OW76452   9.541  12.885   9.793
58809SOL    HW176453   9.575  12.962   9.847
58809SOL    HW276454   9.585  12.885   9.703
58810SOL     OW76455  10.437  12.513  11.000
58810SOL    HW176456  10.484  12.513  11.088
58810SOL    HW276457  10.389  12.426  10.989
58811SOL     OW76458   9.540  12.606   9.848
58811SOL    HW176459   9.514  12.702   9.848
58811SOL    HW276460   9.469  12.552   9.893
58812SOL     OW76461   9.550  12.263  10.196
58812SOL    HW176462   9.564  12.179  10.248
58812SOL    HW276463   9.495  12.327  10.251
58813SOL     OW76464   9.916  12.136   9.433
58813SOL    HW176465   9.923  12.220   9.379
58813SOL    HW276466   9.962  12.149   9.521
58814SOL     OW76467  10.904  11.286  10.790
58814SOL    HW176468  10.886  11.353  10.718
58814SOL    HW276469  10.901  11.332  10.879
58815SOL     OW76470   9.432  11.815   9.873
58815SOL    HW176471   9.387  11.727   9.890
58815SOL    HW276472   9.431  11.869   9.957
58816SOL     OW76473   9.337  12.768   9.427
58816SOL    HW176474   9.318  12.672   9.448
58816SOL    HW276475   9.304  12.826   9.502
58817SOL     OW76476  10.999  12.094   9.922
58817SOL    HW176477  11.094  12.065   9.930
58817SOL    HW276478  10.991  12.159   9.847
58818SOL     OW76479  10.951  12.280   9.742
58818SOL    HW176480  11.037  12.282   9.690
58818SOL    HW276481  10.965  12.327   9.830
58819SOL     OW76482   9.423  11.909  10.907
58819SOL    HW176483   9.511  11.896  10.952
58819SOL    HW276484   9.410  12.006  10.885
58820SOL     OW76485   9.923  12.537  10.036
58820SOL    HW176486   9.874  12.450  10.045
58820SOL    HW276487   9.900  12.580   9.949
58821SOL     OW76488  10.603  12.400  10.733
58821SOL    HW176489  10.640  12.327  10.675
58821SOL    HW276490  10.655  12.405  10.818
58822SOL     OW76491  10.119  11.176   9.812
58822SOL    HW176492  10.159  11.267   9.803
58822SOL    HW276493  10.019  11.184   9.818
58823SOL     OW76494   9.507  12.148  10.574
58823SOL    HW176495   9.596  12.103  10.560
58823SOL    HW276496   9.434  12.083  10.555
58824SOL     OW76497  10.835  12.171   9.500
58824SOL    HW176498  10.772  12.095   9.513
58824SOL    HW276499  10.883  12.189   9.586
58825SOL     OW76500   9.627  11.423  11.111
58825SOL    HW176501   9.698  11.494  11.117
58825SOL    HW276502   9.539  11.462  11.139
58826SOL     OW76503  10.776  12.589  10.263
58826SOL    HW176504  10.717  12.595  10.343
58826SOL    HW276505  10.761  12.501  10.217
58827SOL     OW76506   9.908  11.901   9.580
58827SOL    HW176507   9.932  11.970   9.512
58827SOL    HW276508   9.830  11.934   9.634
58828SOL     OW76509  10.591  11.517  10.254
58828SOL    HW176510  10.505  11.467  10.241
58828SOL    HW276511  10.653  11.463  10.310
58829SOL     OW76512  10.117  11.777  10.775
58829SOL    HW176513  10.070  11.774  10.864
58829SOL    HW276514  10.066  11.722  10.709
58830SOL     OW76515  10.704  11.641  10.984
58830SOL    HW176516  10.684  11.684  11.072
58830SOL    HW276517  10.782  11.579  10.993
58831SOL     OW76518  10.283  12.062  10.882
58831SOL    HW176519  10.329  11.978  10.853
58831SOL    HW276520  10.227  12.096  10.807
58832SOL     OW76521  10.301  11.582  10.552
58832SOL    HW176522  10.224  11.616  10.606
58832SOL    HW276523  10.267  11.531  10.473
58833SOL     OW76524  10.351  11.873   9.739
58833SOL    HW176525  10.377  11.869   9.835
58833SOL    HW276526  10.266  11.822   9.725
58834SOL     OW76527   9.386  11.983  10.099
58834SOL    HW176528   9.485  11.971  10.108
58834SOL    HW276529   9.362  12.078  10.120
58835SOL     OW76530  10.175  11.520   9.505
58835SOL    HW176531  10.234  11.583   9.456
58835SOL    HW276532  10.194  11.426   9.476
58836SOL     OW76533  11.029  11.757  11.141
58836SOL    HW176534  11.003  11.846  11.105
58836SOL    HW276535  11.027  11.689  11.068
58837SOL     OW76536  10.672  12.316   9.855
58837SOL    HW176537  10.755  12.287   9.807
58837SOL    HW276538  10.623  12.383   9.799
58838SOL     OW76539   9.860  11.368  10.195
58838SOL    HW176540   9.855  11.363  10.295
58838SOL    HW276541   9.862  11.464  10.166
58839SOL     OW76542  10.318  12.628   9.787
58839SOL    HW176543  10.272  12.700   9.735
58839SOL    HW276544  10.314  12.648   9.885
58840SOL     OW76545  11.105  12.238  10.183
58840SOL    HW176546  11.043  12.223  10.107
58840SOL    HW276547  11.053  12.249  10.268
58841SOL     OW76548  10.537  12.722  10.816
58841SOL    HW176549  10.543  12.645  10.880
58841SOL    HW276550  10.485  12.696  10.736
58842SOL     OW76551   9.631  12.115   9.552
58842SOL    HW176552   9.713  12.154   9.510
58842SOL    HW276553   9.604  12.033   9.503
58843SOL     OW76554  10.768  11.907  10.038
58843SOL    HW176555  10.763  11.842  10.113
58843SOL    HW276556  10.848  11.966  10.051
58844SOL     OW76557   9.771  12.438  11.037
58844SOL    HW176558   9.721  12.439  10.951
58844SOL    HW276559   9.708  12.420  11.113
58845SOL     OW76560  10.421  12.948   9.547
58845SOL    HW176561  10.361  12.886   9.597
58845SOL    HW276562  10.452  12.904   9.462
58846SOL     OW76563   9.512  11.457  10.808
58846SOL    HW176564   9.432  11.517  10.795
58846SOL    HW276565   9.502  11.408  10.894
58847SOL     OW76566  10.942  12.549   9.391
58847SOL    HW176567  10.910  12.643   9.381
58847SOL    HW276568  10.866  12.486   9.379
58848SOL     OW76569  10.710  11.279   9.736
58848SOL    HW176570  10.686  11.242   9.646
58848SOL    HW276571  10.809  11.295   9.740
58849SOL     OW76572   9.692  11.872   9.790
58849SOL    HW176573   9.737  11.782   9.787
58849SOL    HW276574   9.598  11.861   9.823
58850SOL     OW76575  10.857  11.394  11.039
58850SOL    HW176576  10.852  11.431  11.131
58850SOL    HW276577  10.785  11.325  11.027
58851SOL     OW76578   9.924  11.294   9.427
58851SOL    HW176579  10.022  11.272   9.434
58851SOL    HW276580   9.893  11.277   9.334
58852SOL     OW76581  10.091  11.436  11.059
58852SOL    HW176582  10.158  11.375  11.102
58852SOL    HW276583  10.018  11.455  11.124
58853SOL     OW76584  10.661  11.762  10.743
58853SOL    HW176585  10.689  11.719  10.828
58853SOL    HW276586  10.686  11.858  10.744
58854SOL     OW76587  10.113  12.574  10.234
58854SOL    HW176588  10.203  12.588  10.192
58854SOL    HW276589  10.042  12.576  10.163
58855SOL     OW76590  10.232  11.675  10.209
58855SOL    HW176591  10.207  11.666  10.113
58855SOL    HW276592  10.280  11.593  10.240
58856SOL     OW76593   9.849  11.236   9.822
58856SOL    HW176594   9.768  11.237   9.880
58856SOL    HW276595   9.852  11.319   9.767
58857SOL     OW76596  10.744  12.360   9.351
58857SOL    HW176597  10.776  12.284   9.408
58857SOL    HW276598  10.652  12.387   9.381
58858SOL     OW76599   9.607  11.207   9.481
58858SOL    HW176600   9.656  11.291   9.460
58858SOL    HW276601   9.669  11.142   9.526
58859SOL     OW76602  10.245  11.408   9.790
58859SOL    HW176603  10.197  11.449   9.712
58859SOL    HW276604  10.344  11.406   9.771
58860SOL     OW76605  10.386  11.855  10.774
58860SOL    HW176606  10.306  11.794  10.777
58860SOL    HW276607  10.467  11.802  10.750
58861SOL     OW76608  10.537  12.742  10.103
58861SOL    HW176609  10.558  12.816  10.038
58861SOL    HW276610  10.605  12.742  10.176
58862SOL     OW76611   9.769  12.324  10.051
58862SOL    HW176612   9.698  12.297  10.116
58862SOL    HW276613   9.743  12.296   9.958
58863SOL     OW76614  10.342  11.721   9.326
58863SOL    HW176615  10.301  11.803   9.287
58863SOL    HW276616  10.406  11.747   9.399
58864SOL     OW76617   9.388  11.728  10.696
58864SOL    HW176618   9.480  11.727  10.655
58864SOL    HW276619   9.382  11.802  10.763
58865SOL     OW76620   9.871  11.394  10.457
58865SOL    HW176621   9.909  11.310  10.494
58865SOL    HW276622   9.783  11.413  10.501
58866SOL     OW76623  10.176  11.626   9.952
58866SOL    HW176624  10.144  11.698   9.890
58866SOL    HW276625  10.200  11.545   9.899
58867SOL     OW76626  10.327  11.211  10.063
58867SOL    HW176627  10.255  11.216   9.994
58867SOL    HW276628  10.303  11.142  10.132
58868SOL     OW76629  10.739  12.345  10.177
58868SOL    HW176630  10.684  12.261  10.170
58868SOL    HW276631  10.765  12.374  10.085
58869SOL     OW76632  10.776  11.762  10.302
58869SOL    HW176633  10.746  11.667  10.309
58869SOL    HW276634  10.849  11.778  10.368
58870SOL     OW76635  11.167  12.005   9.687
58870SOL    HW176636  11.209  11.941   9.751
58870SOL    HW276637  11.129  11.954   9.609
58871SOL     OW76638   9.798  12.557   9.484
58871SOL    HW176639   9.711  12.542   9.531
58871SOL    HW276640   9.781  12.583   9.389
58872SOL     OW76641  10.974  12.452   9.967
58872SOL    HW176642  11.073  12.460   9.981
58872SOL    HW276643  10.929  12.536   9.998
58873SOL     OW76644  10.700  11.747   9.388
58873SOL    HW176645  10.646  11.726   9.469
58873SOL    HW276646  10.791  11.706   9.397
58874SOL     OW76647   9.837  11.428   9.638
58874SOL    HW176648   9.864  11.369   9.563
58874SOL    HW276649   9.837  11.523   9.607
58875SOL     OW76650  11.064  12.395  10.898
58875SOL    HW176651  11.155  12.356  10.885
58875SOL    HW276652  11.072  12.491  10.922
58876SOL     OW76653  10.374  12.519  10.650
58876SOL    HW176654  10.294  12.496  10.705
58876SOL    HW276655  10.457  12.493  10.699
58877SOL     OW76656  10.421  12.367  10.410
58877SOL    HW176657  10.381  12.411  10.491
58877SOL    HW276658  10.380  12.404  10.327
58878SOL     OW76659  10.948  12.271  10.389
58878SOL    HW176660  10.953  12.352  10.448
58878SOL    HW276661  10.862  12.273  10.338
58879SOL     OW76662  10.225  11.261  10.712
58879SOL    HW176663  10.250  11.241  10.617
58879SOL    HW276664  10.297  11.317  10.754
58880SOL     OW76665  10.290  12.288  11.029
58880SOL    HW176666  10.191  12.294  11.039
58880SOL    HW276667  10.313  12.208  10.973
58881SOL     OW76668  10.015  12.222   9.678
58881SOL    HW176669  10.001  12.229   9.777
58881SOL    HW276670  10.099  12.171   9.660
58882SOL     OW76671   9.720  11.985  10.561
58882SOL    HW176672   9.806  11.997  10.611
58882SOL    HW276673   9.678  11.898  10.588
58883SOL     OW76674  10.584  11.558  10.572
58883SOL    HW176675  10.605  11.632  10.636
58883SOL    HW276676  10.495  11.575  10.529
58884SOL     OW76677   9.677  12.272   9.811
58884SOL    HW176678   9.670  12.355   9.755
58884SOL    HW276679   9.681  12.192   9.751
58885SOL     OW76680   9.876  11.709  10.175
58885SOL    HW176681   9.888  11.775  10.101
58885SOL    HW276682   9.922  11.743  10.258
58886SOL     OW76683  10.562  12.520   9.698
58886SOL    HW176684  10.612  12.597   9.738
58886SOL    HW276685  10.467  12.522   9.730
58887SOL     OW76686  10.582  12.617  10.452
58887SOL    HW176687  10.629  12.630  10.539
58887SOL    HW276688  10.516  12.543  10.461
58888SOL     OW76689  10.892  11.811   9.782
58888SOL    HW176690  10.861  11.872   9.855
58888SOL    HW276691  10.942  11.863   9.713
58889SOL     OW76692   9.664  12.682  10.639
58889SOL    HW176693   9.643  12.638  10.552
58889SOL    HW276694   9.761  12.708  10.642
58890SOL     OW76695   9.712  11.923  10.908
58890SOL    HW176696   9.780  11.978  10.861
58890SOL    HW276697   9.752  11.835  10.935
58891SOL     OW76698  10.897  11.951  10.980
58891SOL    HW176699  10.805  11.989  10.975
58891SOL    HW276700  10.957  11.998  10.915
58892SOL     OW76701  10.323  11.277  11.080
58892SOL    HW176702  10.329  11.362  11.028
58892SOL    HW276703  10.355  11.201  11.023
58893SOL     OW76704   9.814  11.222  11.050
58893SOL    HW176705   9.772  11.165  10.980
58893SOL    HW276706   9.748  11.291  11.082
58894SOL     OW76707   9.883  12.042  10.339
58894SOL    HW176708   9.927  12.131  10.330
58894SOL    HW276709   9.820  12.042  10.416
58895SOL     OW76710  10.670  12.034  10.355
58895SOL    HW176711  10.595  12.034  10.289
58895SOL    HW276712  10.707  11.942  10.364
58896SOL     OW76713  10.519  11.697   9.585
58896SOL    HW176714  10.532  11.613   9.639
58896SOL    HW276715  10.490  11.771   9.645
58897SOL     OW76716   9.617  11.385  10.541
58897SOL    HW176717   9.594  11.422  10.631
58897SOL    HW276718   9.587  11.290  10.535
58898SOL     OW76719   9.347  12.482  10.592
58898SOL    HW176720   9.400  12.433  10.660
58898SOL    HW276721   9.369  12.580  10.597
58899SOL     OW76722  10.042  11.806  10.374
58899SOL    HW176723  10.101  11.780  10.298
58899SOL    HW276724  10.014  11.902  10.363
58900SOL     OW76725  11.038  12.107  11.164
58900SOL    HW176726  10.992  12.100  11.075
58900SOL    HW276727  10.976  12.151  11.230
58901SOL     OW76728   9.617  11.235   9.928
58901SOL    HW176729   9.606  11.329   9.961
58901SOL    HW276730   9.612  11.172  10.005
58902SOL     OW76731  10.932  11.539   9.684
58902SOL    HW176732  10.934  11.463   9.748
58902SOL    HW276733  10.884  11.616   9.724
58903SOL     OW76734  10.333  11.938  10.276
58903SOL    HW176735  10.348  11.959  10.372
58903SOL    HW276736  10.303  11.843  10.267
58904SOL     OW76737  11.169  12.690  10.915
58904SOL    HW176738  11.183  12.717  10.820
58904SOL    HW276739  11.252  12.712  10.968
58905SOL     OW76740   9.660  12.070  11.114
58905SOL    HW176741   9.736  12.114  11.162
58905SOL    HW276742   9.695  12.023  11.032
58906SOL     OW76743  10.850  11.446   9.435
58906SOL    HW176744  10.789  11.371   9.458
58906SOL    HW276745  10.872  11.498   9.518
58907SOL     OW76746  10.613  12.010   9.352
58907SOL    HW176747  10.647  11.917   9.367
58907SOL    HW276748  10.631  12.037   9.257
58908SOL     OW76749  10.378  12.505  10.159
58908SOL    HW176750  10.385  12.421  10.104
58908SOL    HW276751  10.440  12.574  10.123
58909SOL     OW76752   9.629  11.982  10.259
58909SOL    HW176753   9.722  12.018  10.264
58909SOL    HW276754   9.623  11.897  10.311
58910SOL     OW76755   9.649  11.681  10.316
58910SOL    HW176756   9.597  11.598  10.299
58910SOL    HW276757   9.726  11.686  10.252
58911SOL     OW76758  10.448  11.552  10.988
58911SOL    HW176759  10.403  11.615  11.052
58911SOL    HW276760  10.541  11.583  10.971
58912SOL     OW76761  10.470  11.379  10.787
58912SOL    HW176762  10.470  11.443  10.864
58912SOL    HW276763  10.498  11.427  10.704
58913SOL     OW76764  10.312  11.968  10.548
58913SOL    HW176765  10.353  11.936  10.634
58913SOL    HW276766  10.216  11.941  10.545
58914SOL     OW76767   9.350  11.716  10.424
58914SOL    HW176768   9.435  11.683  10.383
58914SOL    HW276769   9.363  11.731  10.522
58915SOL     OW76770   9.499  11.692  11.032
58915SOL    HW176771   9.558  11.652  10.962
58915SOL    HW276772   9.441  11.763  10.991
58916SOL     OW76773  10.679  12.122  10.970
58916SOL    HW176774  10.718  12.211  10.990
58916SOL    HW276775  10.689  12.102  10.873
58917SOL     OW76776  10.125  11.744   9.635
58917SOL    HW176777  10.132  11.655   9.589
58917SOL    HW276778  10.031  11.778   9.627
58918SOL     OW76779  10.967  11.776  10.516
58918SOL    HW176780  10.929  11.707  10.578
58918SOL    HW276781  11.049  11.740  10.472
58919SOL     OW76782   9.562  12.736  11.054
58919SOL    HW176783   9.532  12.793  11.130
58919SOL    HW276784   9.555  12.639  11.080
58920SOL     OW76785   9.981  11.636  10.579
58920SOL    HW176786   9.947  11.547  10.549
58920SOL    HW276787  10.007  11.690  10.499
58921SOL     OW76788   9.783  11.672   9.501
58921SOL    HW176789   9.844  11.752   9.505
58921SOL    HW276790   9.688  11.703   9.508
58922SOL     OW76791   9.469  12.309  10.776
58922SOL    HW176792   9.491  12.248  10.852
58922SOL    HW276793   9.479  12.260  10.690
58923SOL     OW76794  10.657  12.231  10.544
58923SOL    HW176795  10.681  12.168  10.470
58923SOL    HW276796  10.567  12.271  10.526
58924SOL     OW76797  10.612  12.027   9.619
58924SOL    HW176798  10.526  11.996   9.661
58924SOL    HW276799  10.608  12.013   9.520
58925SOL     OW76800   9.393  12.430  10.332
58925SOL    HW176801   9.388  12.429  10.432
58925SOL    HW276802   9.310  12.389  10.294
58926SOL     OW76803  11.036  11.307   9.833
58926SOL    HW176804  11.109  11.290   9.766
58926SOL    HW276805  11.005  11.220   9.871
58927SOL     OW76806  10.590  12.099   9.982
58927SOL    HW176807  10.650  12.018   9.984
58927SOL    HW276808  10.630  12.168   9.922
58928SOL     OW76809  10.140  12.445  10.732
58928SOL    HW176810  10.135  12.478  10.827
58928SOL    HW276811  10.054  12.464  10.686
58929SOL     OW76812  11.151  11.347  10.273
58929SOL    HW176813  11.190  11.262  10.237
58929SOL    HW276814  11.053  11.349  10.254
58930SOL     OW76815   9.573  11.498  10.030
58930SOL    HW176816   9.494  11.549   9.996
58930SOL    HW276817   9.564  11.483  10.128
58931SOL     OW76818  10.132  12.174  10.682
58931SOL    HW176819  10.172  12.173  10.590
58931SOL    HW276820  10.142  12.266  10.722
58932SOL     OW76821  10.226  12.082   9.601
58932SOL    HW176822  10.289  12.120   9.533
58932SOL    HW276823  10.266  11.999   9.640
58933SOL     OW76824   9.682  12.460  10.800
58933SOL    HW176825   9.669  12.553  10.766
58933SOL    HW276826   9.598  12.408  10.787
58934SOL     OW76827  10.924  12.464  10.599
58934SOL    HW176828  10.984  12.467  10.679
58934SOL    HW276829  10.849  12.528  10.612
58935SOL     OW76830  10.349  12.270  10.006
58935SOL    HW176831  10.279  12.223  10.060
58935SOL    HW276832  10.408  12.202   9.963
58936SOL     OW76833  10.324  11.408  10.281
58936SOL    HW176834  10.316  11.372  10.188
58936SOL    HW276835  10.322  11.332  10.346
58937SOL     OW76836  11.019  11.557  10.691
58937SOL    HW176837  11.092  11.626  10.695
58937SOL    HW276838  11.047  11.482  10.632
58938SOL     OW76839   9.565  12.520   9.600
58938SOL    HW176840   9.469  12.521   9.573
58938SOL    HW276841   9.577  12.573   9.684
58939SOL     OW76842   9.415  12.185  11.036
58939SOL    HW176843   9.338  12.152  11.090
58939SOL    HW276844   9.500  12.155  11.078
58940SOL     OW76845   9.982  11.375  10.799
58940SOL    HW176846  10.072  11.359  10.759
58940SOL    HW276847   9.990  11.380  10.898
58941SOL     OW76848   9.385  11.517   9.343
58941SOL    HW176849   9.293  11.489   9.314
58941SOL    HW276850   9.416  11.594   9.287
58942SOL     OW76851  10.750  12.028  10.708
58942SOL    HW176852  10.693  12.080  10.645
58942SOL    HW276853  10.846  12.040  10.684
58943SOL     OW76854   9.382  11.338   9.628
58943SOL    HW176855   9.365  11.421   9.574
58943SOL    HW276856   9.472  11.301   9.606
58944SOL     OW76857  10.493  12.507   9.429
58944SOL    HW176858  10.394  12.496   9.431
58944SOL    HW276859  10.527  12.522   9.522
58945SOL     OW76860   9.923  12.014  10.741
58945SOL    HW176861   9.979  12.095  10.724
58945SOL    HW276862   9.982  11.934  10.744
58946SOL     OW76863  10.026  11.737  11.018
58946SOL    HW176864  10.045  11.802  11.092
58946SOL    HW276865  10.086  11.657  11.027
58947SOL     OW76866  10.760  12.392  10.943
58947SOL    HW176867  10.751  12.382  11.042
58947SOL    HW276868  10.856  12.385  10.917
58948SOL     OW76869  10.984  12.055  10.564
58948SOL    HW176870  10.957  11.966  10.527
58948SOL    HW276871  10.985  12.123  10.491
58949SOL     OW76872  10.535  11.497   9.759
58949SOL    HW176873  10.600  11.423   9.748
58949SOL    HW276874  10.555  11.547   9.843
58950SOL     OW76875   9.904  11.917   9.962
58950SOL    HW176876   9.954  12.002   9.943
58950SOL    HW276877   9.816  11.919   9.914
58951SOL     OW76878  11.087  11.514  10.952
58951SOL    HW176879  11.070  11.545  10.858
58951SOL    HW276880  11.003  11.477  10.990
58952SOL     OW76881  11.040  12.106  10.827
58952SOL    HW176882  11.078  12.197  10.842
58952SOL    HW276883  11.032  12.089  10.728
58953SOL     OW76884  10.169  12.546   9.326
58953SOL    HW176885  10.123  12.561   9.414
58953SOL    HW276886  10.213  12.631   9.296
58954SOL     OW76887  10.169  12.128  10.171
58954SOL    HW176888  10.223  12.059  10.219
58954SOL    HW276889  10.137  12.197  10.237
58955SOL     OW76890  10.393  12.156   9.397
58955SOL    HW176891  10.370  12.209   9.315
58955SOL    HW276892  10.474  12.100   9.378
58956SOL     OW76893   9.531  12.486  11.154
58956SOL    HW176894   9.466  12.413  11.133
58956SOL    HW276895   9.535  12.500  11.252
58957SOL     OW76896   9.389  12.412   9.963
58957SOL    HW176897   9.388  12.365  10.051
58957SOL    HW276898   9.471  12.384   9.912
58958SOL     OW76899   9.982  12.563  10.934
58958SOL    HW176900   9.904  12.513  10.972
58958SOL    HW276901   9.979  12.658  10.965
58959SOL     OW76902  11.134  11.364  10.537
58959SOL    HW176903  11.130  11.274  10.581
58959SOL    HW276904  11.137  11.353  10.438
58960SOL     OW76905   9.738  11.596   9.830
58960SOL    HW176906   9.768  11.524   9.768
58960SOL    HW276907   9.699  11.556   9.913
58961SOL     OW76908  11.015  12.659  10.414
58961SOL    HW176909  10.922  12.634  10.387
58961SOL    HW276910  11.041  12.609  10.496
58962SOL     OW76911   9.627  11.719  10.590
58962SOL    HW176912   9.665  11.660  10.662
58962SOL    HW276913   9.667  11.693  10.502
58963SOL     OW76914  10.734  11.386  10.422
58963SOL    HW176915  10.786  11.321  10.477
58963SOL    HW276916  10.685  11.449  10.483
58964SOL     OW76917  10.311  11.206  10.464
58964SOL    HW176918  10.248  11.134  10.433
58964SOL    HW276919  10.404  11.170  10.464
58965SOL     OW76920  10.080  12.502   9.611
58965SOL    HW176921  10.034  12.415   9.628
58965SOL    HW276922  10.171  12.499   9.652
58966SOL     OW76923   9.928  12.739  10.594
58966SOL    HW176924   9.923  12.821  10.651
58966SOL    HW276925  10.017  12.736  10.549
58967SOL     OW76926  10.662  11.224   9.478
58967SOL    HW176927  10.697  11.183   9.394
58967SOL    HW276928  10.572  11.186   9.498
58968SOL     OW76929  10.610  11.625  10.001
58968SOL    HW176930  10.551  11.705  10.005
58968SOL    HW276931  10.625  11.590  10.094
58969SOL     OW76932  10.903  11.393  10.192
58969SOL    HW176933  10.819  11.392  10.246
58969SOL    HW276934  10.905  11.476  10.136
58970SOL     OW76935   9.349  12.249   9.610
58970SOL    HW176936   9.448  12.238   9.601
58970SOL    HW276937   9.309  12.163   9.642
58971SOL     OW76938   9.540  11.800  11.285
58971SOL    HW176939   9.447  11.798  11.322
58971SOL    HW276940   9.541  11.761  11.193
58972SOL     OW76941   9.535  11.447  12.168
58972SOL    HW176942   9.570  11.430  12.260
58972SOL    HW276943   9.447  11.402  12.156
58973SOL     OW76944   9.329  11.540  11.819
58973SOL    HW176945   9.247  11.583  11.858
58973SOL    HW276946   9.301  11.467  11.756
58974SOL     OW76947   9.879  12.447  12.337
58974SOL    HW176948   9.786  12.440  12.300
58974SOL    HW276949   9.890  12.536  12.381
58975SOL     OW76950  10.865  12.683  11.875
58975SOL    HW176951  10.808  12.667  11.956
58975SOL    HW276952  10.806  12.693  11.795
58976SOL     OW76953  10.445  11.875  11.889
58976SOL    HW176954  10.502  11.953  11.864
58976SOL    HW276955  10.385  11.901  11.965
58977SOL     OW76956  11.065  11.779  11.403
58977SOL    HW176957  11.053  11.766  11.304
58977SOL    HW276958  11.035  11.698  11.452
58978SOL     OW76959  10.078  12.316  12.195
58978SOL    HW176960  10.000  12.333  12.255
58978SOL    HW276961  10.112  12.403  12.159
58979SOL     OW76962   9.995  12.184  11.837
58979SOL    HW176963  10.064  12.168  11.907
58979SOL    HW276964   9.922  12.241  11.875
58980SOL     OW76965   9.645  12.607  12.233
58980SOL    HW176966   9.567  12.576  12.180
58980SOL    HW276967   9.703  12.665  12.176
58981SOL     OW76968  10.770  12.677  12.511
58981SOL    HW176969  10.794  12.771  12.537
58981SOL    HW276970  10.754  12.623  12.593
58982SOL     OW76971   9.748  11.564  12.671
58982SOL    HW176972   9.830  11.508  12.680
58982SOL    HW276973   9.667  11.506  12.675
58983SOL     OW76974  10.913  11.619  11.909
58983SOL    HW176975  10.839  11.665  11.859
58983SOL    HW276976  10.964  11.687  11.962
58984SOL     OW76977   9.541  12.885  11.655
58984SOL    HW176978   9.575  12.962  11.709
58984SOL    HW276979   9.585  12.885  11.565
58985SOL     OW76980   9.540  12.606  11.710
58985SOL    HW176981   9.514  12.702  11.710
58985SOL    HW276982   9.469  12.552  11.755
58986SOL     OW76983   9.550  12.263  12.058
58986SOL    HW176984   9.564  12.179  12.110
58986SOL    HW276985   9.495  12.327  12.113
58987SOL     OW76986   9.916  12.136  11.295
58987SOL    HW176987   9.923  12.220  11.241
58987SOL    HW276988   9.962  12.149  11.383
58988SOL     OW76989  10.904  11.286  12.652
58988SOL    HW176990  10.886  11.353  12.580
58988SOL    HW276991  10.901  11.332  12.741
58989SOL     OW76992   9.432  11.815  11.735
58989SOL    HW176993   9.387  11.727  11.752
58989SOL    HW276994   9.431  11.869  11.819
58990SOL     OW76995   9.337  12.768  11.289
58990SOL    HW176996   9.318  12.672  11.310
58990SOL    HW276997   9.304  12.826  11.364
58991SOL     OW76998  10.999  12.094  11.784
58991SOL    HW176999  11.094  12.065  11.792
58991SOL    HW277000  10.991  12.159  11.709
58992SOL     OW77001  10.951  12.280  11.604
58992SOL    HW177002  11.037  12.282  11.552
58992SOL    HW277003  10.965  12.327  11.692
58993SOL     OW77004   9.923  12.537  11.898
58993SOL    HW177005   9.874  12.450  11.907
58993SOL    HW277006   9.900  12.580  11.811
58994SOL     OW77007  10.119  11.176  11.674
58994SOL    HW177008  10.159  11.267  11.665
58994SOL    HW277009  10.019  11.184  11.680
58995SOL     OW77010   9.507  12.148  12.436
58995SOL    HW177011   9.596  12.103  12.422
58995SOL    HW277012   9.434  12.083  12.417
58996SOL     OW77013  10.835  12.171  11.362
58996SOL    HW177014  10.772  12.095  11.375
58996SOL    HW277015  10.883  12.189  11.448
58997SOL     OW77016   9.627  11.423  12.973
58997SOL    HW177017   9.698  11.494  12.979
58997SOL    HW277018   9.539  11.462  13.001
58998SOL     OW77019  10.776  12.589  12.125
58998SOL    HW177020  10.717  12.595  12.205
58998SOL    HW277021  10.761  12.501  12.079
58999SOL     OW77022   9.908  11.901  11.442
58999SOL    HW177023   9.932  11.970  11.374
58999SOL    HW277024   9.830  11.934  11.496
59000SOL     OW77025  10.591  11.517  12.116
59000SOL    HW177026  10.505  11.467  12.103
59000SOL    HW277027  10.653  11.463  12.172
59001SOL     OW77028  10.117  11.777  12.637
59001SOL    HW177029  10.070  11.774  12.726
59001SOL    HW277030  10.066  11.722  12.571
59002SOL     OW77031  10.301  11.582  12.414
59002SOL    HW177032  10.224  11.616  12.468
59002SOL    HW277033  10.267  11.531  12.335
59003SOL     OW77034  10.351  11.873  11.601
59003SOL    HW177035  10.377  11.869  11.697
59003SOL    HW277036  10.266  11.822  11.587
59004SOL     OW77037   9.386  11.983  11.961
59004SOL    HW177038   9.485  11.971  11.970
59004SOL    HW277039   9.362  12.078  11.982
59005SOL     OW77040  10.175  11.520  11.367
59005SOL    HW177041  10.234  11.583  11.318
59005SOL    HW277042  10.194  11.426  11.338
59006SOL     OW77043  10.672  12.316  11.717
59006SOL    HW177044  10.755  12.287  11.669
59006SOL    HW277045  10.623  12.383  11.661
59007SOL     OW77046   9.860  11.368  12.057
59007SOL    HW177047   9.855  11.363  12.157
59007SOL    HW277048   9.862  11.464  12.028
59008SOL     OW77049  10.318  12.628  11.649
59008SOL    HW177050  10.272  12.700  11.597
59008SOL    HW277051  10.314  12.648  11.747
59009SOL     OW77052  11.105  12.238  12.045
59009SOL    HW177053  11.043  12.223  11.969
59009SOL    HW277054  11.053  12.249  12.130
59010SOL     OW77055   9.631  12.115  11.414
59010SOL    HW177056   9.713  12.154  11.372
59010SOL    HW277057   9.604  12.033  11.365
59011SOL     OW77058  10.768  11.907  11.900
59011SOL    HW177059  10.763  11.842  11.975
59011SOL    HW277060  10.848  11.966  11.913
59012SOL     OW77061  10.421  12.948  11.409
59012SOL    HW177062  10.361  12.886  11.459
59012SOL    HW277063  10.452  12.904  11.324
59013SOL     OW77064   9.512  11.457  12.670
59013SOL    HW177065   9.432  11.517  12.657
59013SOL    HW277066   9.502  11.408  12.756
59014SOL     OW77067  10.942  12.549  11.253
59014SOL    HW177068  10.910  12.643  11.243
59014SOL    HW277069  10.866  12.486  11.241
59015SOL     OW77070  10.710  11.279  11.598
59015SOL    HW177071  10.686  11.242  11.508
59015SOL    HW277072  10.809  11.295  11.602
59016SOL     OW77073   9.692  11.872  11.652
59016SOL    HW177074   9.737  11.782  11.649
59016SOL    HW277075   9.598  11.861  11.685
59017SOL     OW77076   9.924  11.294  11.289
59017SOL    HW177077  10.022  11.272  11.296
59017SOL    HW277078   9.893  11.277  11.196
59018SOL     OW77079  10.113  12.574  12.096
59018SOL    HW177080  10.203  12.588  12.054
59018SOL    HW277081  10.042  12.576  12.025
59019SOL     OW77082  10.232  11.675  12.071
59019SOL    HW177083  10.207  11.666  11.975
59019SOL    HW277084  10.280  11.593  12.102
59020SOL     OW77085   9.849  11.236  11.684
59020SOL    HW177086   9.768  11.237  11.742
59020SOL    HW277087   9.852  11.319  11.629
59021SOL     OW77088  10.744  12.360  11.213
59021SOL    HW177089  10.776  12.284  11.270
59021SOL    HW277090  10.652  12.387  11.243
59022SOL     OW77091   9.607  11.207  11.343
59022SOL    HW177092   9.656  11.291  11.322
59022SOL    HW277093   9.669  11.142  11.388
59023SOL     OW77094  10.245  11.408  11.652
59023SOL    HW177095  10.197  11.449  11.574
59023SOL    HW277096  10.344  11.406  11.633
59024SOL     OW77097  10.537  12.742  11.965
59024SOL    HW177098  10.558  12.816  11.900
59024SOL    HW277099  10.605  12.742  12.038
59025SOL     OW77100   9.769  12.324  11.913
59025SOL    HW177101   9.698  12.297  11.978
59025SOL    HW277102   9.743  12.296  11.820
59026SOL     OW77103  10.342  11.721  11.188
59026SOL    HW177104  10.301  11.803  11.149
59026SOL    HW277105  10.406  11.747  11.261
59027SOL     OW77106   9.388  11.728  12.558
59027SOL    HW177107   9.480  11.727  12.517
59027SOL    HW277108   9.382  11.802  12.625
59028SOL     OW77109   9.871  11.394  12.319
59028SOL    HW177110   9.909  11.310  12.356
59028SOL    HW277111   9.783  11.413  12.363
59029SOL     OW77112  10.176  11.626  11.814
59029SOL    HW177113  10.144  11.698  11.752
59029SOL    HW277114  10.200  11.545  11.761
59030SOL     OW77115  10.327  11.211  11.925
59030SOL    HW177116  10.255  11.216  11.856
59030SOL    HW277117  10.303  11.142  11.994
59031SOL     OW77118  10.739  12.345  12.039
59031SOL    HW177119  10.684  12.261  12.032
59031SOL    HW277120  10.765  12.374  11.947
59032SOL     OW77121  10.776  11.762  12.164
59032SOL    HW177122  10.746  11.667  12.171
59032SOL    HW277123  10.849  11.778  12.230
59033SOL     OW77124  11.167  12.005  11.549
59033SOL    HW177125  11.209  11.941  11.613
59033SOL    HW277126  11.129  11.954  11.471
59034SOL     OW77127   9.798  12.557  11.346
59034SOL    HW177128   9.711  12.542  11.393
59034SOL    HW277129   9.781  12.583  11.251
59035SOL     OW77130  10.974  12.452  11.829
59035SOL    HW177131  11.073  12.460  11.843
59035SOL    HW277132  10.929  12.536  11.860
59036SOL     OW77133  10.700  11.747  11.250
59036SOL    HW177134  10.646  11.726  11.331
59036SOL    HW277135  10.791  11.706  11.259
59037SOL     OW77136   9.837  11.428  11.500
59037SOL    HW177137   9.864  11.369  11.425
59037SOL    HW277138   9.837  11.523  11.469
59038SOL     OW77139  10.374  12.519  12.512
59038SOL    HW177140  10.294  12.496  12.567
59038SOL    HW277141  10.457  12.493  12.561
59039SOL     OW77142  10.421  12.367  12.272
59039SOL    HW177143  10.381  12.411  12.353
59039SOL    HW277144  10.380  12.404  12.189
59040SOL     OW77145  10.948  12.271  12.251
59040SOL    HW177146  10.953  12.352  12.310
59040SOL    HW277147  10.862  12.273  12.200
59041SOL     OW77148  10.225  11.261  12.574
59041SOL    HW177149  10.250  11.241  12.479
59041SOL    HW277150  10.297  11.317  12.616
59042SOL     OW77151  10.015  12.222  11.540
59042SOL    HW177152  10.001  12.229  11.639
59042SOL    HW277153  10.099  12.171  11.522
59043SOL     OW77154   9.720  11.985  12.423
59043SOL    HW177155   9.806  11.997  12.473
59043SOL    HW277156   9.678  11.898  12.450
59044SOL     OW77157  10.584  11.558  12.434
59044SOL    HW177158  10.605  11.632  12.498
59044SOL    HW277159  10.495  11.575  12.391
59045SOL     OW77160   9.677  12.272  11.673
59045SOL    HW177161   9.670  12.355  11.617
59045SOL    HW277162   9.681  12.192  11.613
59046SOL     OW77163   9.876  11.709  12.037
59046SOL    HW177164   9.888  11.775  11.963
59046SOL    HW277165   9.922  11.743  12.120
59047SOL     OW77166  10.562  12.520  11.560
59047SOL    HW177167  10.612  12.597  11.600
59047SOL    HW277168  10.467  12.522  11.592
59048SOL     OW77169  10.582  12.617  12.314
59048SOL    HW177170  10.629  12.630  12.401
59048SOL    HW277171  10.516  12.543  12.323
59049SOL     OW77172  10.892  11.811  11.644
59049SOL    HW177173  10.861  11.872  11.717
59049SOL    HW277174  10.942  11.863  11.575
59050SOL     OW77175   9.664  12.682  12.501
59050SOL    HW177176   9.643  12.638  12.414
59050SOL    HW277177   9.761  12.708  12.504
59051SOL     OW77178   9.712  11.923  12.770
59051SOL    HW177179   9.780  11.978  12.723
59051SOL    HW277180   9.752  11.835  12.797
59052SOL     OW77181  10.897  11.951  12.842
59052SOL    HW177182  10.805  11.989  12.837
59052SOL    HW277183  10.957  11.998  12.777
59053SOL     OW77184   9.883  12.042  12.201
59053SOL    HW177185   9.927  12.131  12.192
59053SOL    HW277186   9.820  12.042  12.278
59054SOL     OW77187  10.670  12.034  12.217
59054SOL    HW177188  10.595  12.034  12.151
59054SOL    HW277189  10.707  11.942  12.226
59055SOL     OW77190  10.519  11.697  11.447
59055SOL    HW177191  10.532  11.613  11.501
59055SOL    HW277192  10.490  11.771  11.507
59056SOL     OW77193   9.617  11.385  12.403
59056SOL    HW177194   9.594  11.422  12.493
59056SOL    HW277195   9.587  11.290  12.397
59057SOL     OW77196   9.347  12.482  12.454
59057SOL    HW177197   9.400  12.433  12.522
59057SOL    HW277198   9.369  12.580  12.459
59058SOL     OW77199  10.042  11.806  12.236
59058SOL    HW177200  10.101  11.780  12.160
59058SOL    HW277201  10.014  11.902  12.225
59059SOL     OW77202   9.617  11.235  11.790
59059SOL    HW177203   9.606  11.329  11.823
59059SOL    HW277204   9.612  11.172  11.867
59060SOL     OW77205  10.932  11.539  11.546
59060SOL    HW177206  10.934  11.463  11.610
59060SOL    HW277207  10.884  11.616  11.586
59061SOL     OW77208  10.333  11.938  12.138
59061SOL    HW177209  10.348  11.959  12.234
59061SOL    HW277210  10.303  11.843  12.129
59062SOL     OW77211  10.850  11.446  11.297
59062SOL    HW177212  10.789  11.371  11.320
59062SOL    HW277213  10.872  11.498  11.380
59063SOL     OW77214  10.613  12.010  11.214
59063SOL    HW177215  10.647  11.917  11.229
59063SOL    HW277216  10.631  12.037  11.119
59064SOL     OW77217  10.378  12.505  12.021
59064SOL    HW177218  10.385  12.421  11.966
59064SOL    HW277219  10.440  12.574  11.985
59065SOL     OW77220   9.629  11.982  12.121
59065SOL    HW177221   9.722  12.018  12.126
59065SOL    HW277222   9.623  11.897  12.173
59066SOL     OW77223   9.649  11.681  12.178
59066SOL    HW177224   9.597  11.598  12.161
59066SOL    HW277225   9.726  11.686  12.114
59067SOL     OW77226  10.448  11.552  12.850
59067SOL    HW177227  10.403  11.615  12.914
59067SOL    HW277228  10.541  11.583  12.833
59068SOL     OW77229  10.470  11.379  12.649
59068SOL    HW177230  10.470  11.443  12.726
59068SOL    HW277231  10.498  11.427  12.566
59069SOL     OW77232   9.318  12.498  11.372
59069SOL    HW177233   9.225  12.519  11.341
59069SOL    HW277234   9.328  12.399  11.385
59070SOL     OW77235  10.312  11.968  12.410
59070SOL    HW177236  10.353  11.936  12.496
59070SOL    HW277237  10.216  11.941  12.407
59071SOL     OW77238   9.350  11.716  12.286
59071SOL    HW177239   9.435  11.683  12.245
59071SOL    HW277240   9.363  11.731  12.384
59072SOL     OW77241  10.125  11.744  11.497
59072SOL    HW177242  10.132  11.655  11.451
59072SOL    HW277243  10.031  11.778  11.489
59073SOL     OW77244  10.967  11.776  12.378
59073SOL    HW177245  10.929  11.707  12.440
59073SOL    HW277246  11.049  11.740  12.334
59074SOL     OW77247   9.981  11.636  12.441
59074SOL    HW177248   9.947  11.547  12.411
59074SOL    HW277249  10.007  11.690  12.361
59075SOL     OW77250   9.783  11.672  11.363
59075SOL    HW177251   9.844  11.752  11.367
59075SOL    HW277252   9.688  11.703  11.370
59076SOL     OW77253   9.469  12.309  12.638
59076SOL    HW177254   9.491  12.248  12.714
59076SOL    HW277255   9.479  12.260  12.552
59077SOL     OW77256  10.657  12.231  12.406
59077SOL    HW177257  10.681  12.168  12.332
59077SOL    HW277258  10.567  12.271  12.388
59078SOL     OW77259  10.612  12.027  11.481
59078SOL    HW177260  10.526  11.996  11.523
59078SOL    HW277261  10.608  12.013  11.382
59079SOL     OW77262   9.393  12.430  12.194
59079SOL    HW177263   9.388  12.429  12.294
59079SOL    HW277264   9.310  12.389  12.156
59080SOL     OW77265  11.036  11.307  11.695
59080SOL    HW177266  11.109  11.290  11.628
59080SOL    HW277267  11.005  11.220  11.733
59081SOL     OW77268  10.590  12.099  11.844
59081SOL    HW177269  10.650  12.018  11.846
59081SOL    HW277270  10.630  12.168  11.784
59082SOL     OW77271  11.151  11.347  12.135
59082SOL    HW177272  11.190  11.262  12.099
59082SOL    HW277273  11.053  11.349  12.116
59083SOL     OW77274   9.573  11.498  11.892
59083SOL    HW177275   9.494  11.549  11.858
59083SOL    HW277276   9.564  11.483  11.990
59084SOL     OW77277  10.132  12.174  12.544
59084SOL    HW177278  10.172  12.173  12.452
59084SOL    HW277279  10.142  12.266  12.584
59085SOL     OW77280  10.226  12.082  11.463
59085SOL    HW177281  10.289  12.120  11.395
59085SOL    HW277282  10.266  11.999  11.502
59086SOL     OW77283   9.682  12.460  12.662
59086SOL    HW177284   9.669  12.553  12.628
59086SOL    HW277285   9.598  12.408  12.649
59087SOL     OW77286  10.924  12.464  12.461
59087SOL    HW177287  10.984  12.467  12.541
59087SOL    HW277288  10.849  12.528  12.474
59088SOL     OW77289  10.349  12.270  11.868
59088SOL    HW177290  10.279  12.223  11.922
59088SOL    HW277291  10.408  12.202  11.825
59089SOL     OW77292  10.324  11.408  12.143
59089SOL    HW177293  10.316  11.372  12.050
59089SOL    HW277294  10.322  11.332  12.208
59090SOL     OW77295  11.019  11.557  12.553
59090SOL    HW177296  11.092  11.626  12.557
59090SOL    HW277297  11.047  11.482  12.494
59091SOL     OW77298   9.565  12.520  11.462
59091SOL    HW177299   9.469  12.521  11.435
59091SOL    HW277300   9.577  12.573  11.546
59092SOL     OW77301   9.385  11.517  11.205
59092SOL    HW177302   9.293  11.489  11.176
59092SOL    HW277303   9.416  11.594  11.149
59093SOL     OW77304  10.750  12.028  12.570
59093SOL    HW177305  10.693  12.080  12.507
59093SOL    HW277306  10.846  12.040  12.546
59094SOL     OW77307   9.382  11.338  11.490
59094SOL    HW177308   9.365  11.421  11.436
59094SOL    HW277309   9.472  11.301  11.468
59095SOL     OW77310  10.493  12.507  11.291
59095SOL    HW177311  10.394  12.496  11.293
59095SOL    HW277312  10.527  12.522  11.384
59096SOL     OW77313   9.923  12.014  12.603
59096SOL    HW177314   9.979  12.095  12.586
59096SOL    HW277315   9.982  11.934  12.606
59097SOL     OW77316  10.984  12.055  12.426
59097SOL    HW177317  10.957  11.966  12.389
59097SOL    HW277318  10.985  12.123  12.353
59098SOL     OW77319  10.535  11.497  11.621
59098SOL    HW177320  10.600  11.423  11.610
59098SOL    HW277321  10.555  11.547  11.705
59099SOL     OW77322   9.904  11.917  11.824
59099SOL    HW177323   9.954  12.002  11.805
59099SOL    HW277324   9.816  11.919  11.776
59100SOL     OW77325  11.087  11.514  12.814
59100SOL    HW177326  11.070  11.545  12.720
59100SOL    HW277327  11.003  11.477  12.852
59101SOL     OW77328  11.040  12.106  12.689
59101SOL    HW177329  11.078  12.197  12.704
59101SOL    HW277330  11.032  12.089  12.590
59102SOL     OW77331  10.169  12.546  11.188
59102SOL    HW177332  10.123  12.561  11.276
59102SOL    HW277333  10.213  12.631  11.158
59103SOL     OW77334  10.169  12.128  12.033
59103SOL    HW177335  10.223  12.059  12.081
59103SOL    HW277336  10.137  12.197  12.099
59104SOL     OW77337  10.393  12.156  11.259
59104SOL    HW177338  10.370  12.209  11.177
59104SOL    HW277339  10.474  12.100  11.240
59105SOL     OW77340   9.389  12.412  11.825
59105SOL    HW177341   9.388  12.365  11.913
59105SOL    HW277342   9.471  12.384  11.774
59106SOL     OW77343  11.134  11.364  12.399
59106SOL    HW177344  11.130  11.274  12.443
59106SOL    HW277345  11.137  11.353  12.300
59107SOL     OW77346   9.738  11.596  11.692
59107SOL    HW177347   9.768  11.524  11.630
59107SOL    HW277348   9.699  11.556  11.775
59108SOL     OW77349  11.015  12.659  12.276
59108SOL    HW177350  10.922  12.634  12.249
59108SOL    HW277351  11.041  12.609  12.358
59109SOL     OW77352   9.627  11.719  12.452
59109SOL    HW177353   9.665  11.660  12.524
59109SOL    HW277354   9.667  11.693  12.364
59110SOL     OW77355  10.734  11.386  12.284
59110SOL    HW177356  10.786  11.321  12.339
59110SOL    HW277357  10.685  11.449  12.345
59111SOL     OW77358  10.311  11.206  12.326
59111SOL    HW177359  10.248  11.134  12.295
59111SOL    HW277360  10.404  11.170  12.326
59112SOL     OW77361  10.080  12.502  11.473
59112SOL    HW177362  10.034  12.415  11.490
59112SOL    HW277363  10.171  12.499  11.514
59113SOL     OW77364   9.928  12.739  12.456
59113SOL    HW177365   9.923  12.821  12.513
59113SOL    HW277366  10.017  12.736  12.411
59114SOL     OW77367  10.662  11.224  11.340
59114SOL    HW177368  10.697  11.183  11.256
59114SOL    HW277369  10.572  11.186  11.360
59115SOL     OW77370  10.610  11.625  11.863
59115SOL    HW177371  10.551  11.705  11.867
59115SOL    HW277372  10.625  11.590  11.956
59116SOL     OW77373  10.903  11.393  12.054
59116SOL    HW177374  10.819  11.392  12.108
59116SOL    HW277375  10.905  11.476  11.998
59117SOL     OW77376   9.349  12.249  11.472
59117SOL    HW177377   9.448  12.238  11.463
59117SOL    HW277378   9.309  12.163  11.504
59118SOL     OW77379  11.402   0.628   0.113
59118SOL    HW177380  11.309   0.626   0.150
59118SOL    HW277381  11.403   0.589   0.021
59119SOL     OW77382  11.397   0.275   0.996
59119SOL    HW177383  11.432   0.258   1.088
59119SOL    HW277384  11.309   0.230   0.984
59120SOL     OW77385  11.191   0.368   0.647
59120SOL    HW177386  11.109   0.411   0.686
59120SOL    HW277387  11.163   0.295   0.584
59121SOL     OW77388  11.741   1.275   1.165
59121SOL    HW177389  11.648   1.268   1.128
59121SOL    HW277390  11.752   1.364   1.209
59122SOL     OW77391  12.727   1.511   0.703
59122SOL    HW177392  12.670   1.495   0.784
59122SOL    HW277393  12.668   1.521   0.623
59123SOL     OW77394  12.307   0.703   0.717
59123SOL    HW177395  12.364   0.781   0.692
59123SOL    HW277396  12.247   0.729   0.793
59124SOL     OW77397  11.940   1.144   1.023
59124SOL    HW177398  11.862   1.161   1.083
59124SOL    HW277399  11.974   1.231   0.987
59125SOL     OW77400  12.022   0.798   1.823
59125SOL    HW177401  12.018   0.874   1.888
59125SOL    HW277402  12.044   0.834   1.732
59126SOL     OW77403  11.857   1.012   0.665
59126SOL    HW177404  11.926   0.996   0.735
59126SOL    HW277405  11.784   1.069   0.703
59127SOL     OW77406  11.858   1.161   1.803
59127SOL    HW177407  11.918   1.240   1.817
59127SOL    HW277408  11.772   1.192   1.762
59128SOL     OW77409  11.507   1.435   1.061
59128SOL    HW177410  11.429   1.404   1.008
59128SOL    HW277411  11.565   1.493   1.004
59129SOL     OW77412  11.610   0.392   1.499
59129SOL    HW177413  11.692   0.336   1.508
59129SOL    HW277414  11.529   0.334   1.503
59130SOL     OW77415  11.403   1.713   0.483
59130SOL    HW177416  11.437   1.790   0.537
59130SOL    HW277417  11.447   1.713   0.393
59131SOL     OW77418  12.299   1.341   1.690
59131SOL    HW177419  12.346   1.341   1.778
59131SOL    HW277420  12.251   1.254   1.679
59132SOL     OW77421  11.402   1.434   0.538
59132SOL    HW177422  11.376   1.530   0.538
59132SOL    HW277423  11.331   1.380   0.583
59133SOL     OW77424  11.412   1.091   0.886
59133SOL    HW177425  11.426   1.007   0.938
59133SOL    HW277426  11.357   1.155   0.941
59134SOL     OW77427  11.778   0.964   0.123
59134SOL    HW177428  11.785   1.048   0.069
59134SOL    HW277429  11.824   0.977   0.211
59135SOL     OW77430  12.766   0.114   1.480
59135SOL    HW177431  12.748   0.181   1.408
59135SOL    HW277432  12.763   0.160   1.569
59136SOL     OW77433  11.294   0.643   0.563
59136SOL    HW177434  11.249   0.555   0.580
59136SOL    HW277435  11.293   0.697   0.647
59137SOL     OW77436  11.199   1.596   0.117
59137SOL    HW177437  11.180   1.500   0.138
59137SOL    HW277438  11.166   1.654   0.192
59138SOL     OW77439  12.861   0.922   0.612
59138SOL    HW177440  12.956   0.893   0.620
59138SOL    HW277441  12.853   0.987   0.537
59139SOL     OW77442  11.285   0.737   1.597
59139SOL    HW177443  11.373   0.724   1.642
59139SOL    HW277444  11.272   0.834   1.575
59140SOL     OW77445  11.785   1.365   0.726
59140SOL    HW177446  11.736   1.278   0.735
59140SOL    HW277447  11.762   1.408   0.639
59141SOL     OW77448  12.465   1.228   1.423
59141SOL    HW177449  12.502   1.155   1.365
59141SOL    HW277450  12.517   1.233   1.508
59142SOL     OW77451  11.981   0.004   0.502
59142SOL    HW177452  12.021   0.095   0.493
59142SOL    HW277453  11.881   0.012   0.508
59143SOL     OW77454  11.369   0.976   1.264
59143SOL    HW177455  11.458   0.931   1.250
59143SOL    HW277456  11.296   0.911   1.245
59144SOL     OW77457  12.359   1.792   1.616
59144SOL    HW177458  12.383   1.852   1.540
59144SOL    HW277459  12.366   1.697   1.586
59145SOL     OW77460  11.489   0.251   1.801
59145SOL    HW177461  11.560   0.322   1.807
59145SOL    HW277462  11.401   0.290   1.829
59146SOL     OW77463  12.638   1.417   0.953
59146SOL    HW177464  12.579   1.423   1.033
59146SOL    HW277465  12.623   1.329   0.907
59147SOL     OW77466  11.770   0.729   0.270
59147SOL    HW177467  11.794   0.798   0.202
59147SOL    HW277468  11.692   0.762   0.324
59148SOL     OW77469  12.453   0.345   0.944
59148SOL    HW177470  12.367   0.295   0.931
59148SOL    HW277471  12.515   0.291   1.000
59149SOL     OW77472  11.979   0.605   1.465
59149SOL    HW177473  11.932   0.602   1.554
59149SOL    HW277474  11.928   0.550   1.399
59150SOL     OW77475  12.566   0.469   1.674
59150SOL    HW177476  12.546   0.512   1.762
59150SOL    HW277477  12.644   0.407   1.683
59151SOL     OW77478  12.145   0.890   1.572
59151SOL    HW177479  12.191   0.806   1.543
59151SOL    HW277480  12.089   0.924   1.497
59152SOL     OW77481  12.163   0.410   1.242
59152SOL    HW177482  12.086   0.444   1.296
59152SOL    HW277483  12.129   0.359   1.163
59153SOL     OW77484  12.213   0.701   0.429
59153SOL    HW177485  12.239   0.697   0.525
59153SOL    HW277486  12.128   0.650   0.415
59154SOL     OW77487  11.248   0.811   0.789
59154SOL    HW177488  11.347   0.799   0.798
59154SOL    HW277489  11.224   0.906   0.810
59155SOL     OW77490  11.302   1.821   1.571
59155SOL    HW177491  11.292   1.806   1.670
59155SOL    HW277492  11.216   1.857   1.535
59156SOL     OW77493  12.037   0.348   0.195
59156SOL    HW177494  12.096   0.411   0.146
59156SOL    HW277495  12.056   0.254   0.166
59157SOL     OW77496  12.534   1.144   0.545
59157SOL    HW177497  12.617   1.115   0.497
59157SOL    HW277498  12.485   1.211   0.489
59158SOL     OW77499  11.722   0.196   0.885
59158SOL    HW177500  11.717   0.191   0.985
59158SOL    HW277501  11.724   0.292   0.856
59159SOL     OW77502  12.180   1.456   0.477
59159SOL    HW177503  12.134   1.528   0.425
59159SOL    HW277504  12.176   1.476   0.575
59160SOL     OW77505  11.523   1.801   0.853
59160SOL    HW177506  11.573   1.715   0.859
59160SOL    HW277507  11.588   1.878   0.850
59161SOL     OW77508  12.399   1.550   1.506
59161SOL    HW177509  12.405   1.473   1.570
59161SOL    HW277510  12.347   1.524   1.426
59162SOL     OW77511  11.493   0.943   0.242
59162SOL    HW177512  11.575   0.982   0.200
59162SOL    HW277513  11.466   0.861   0.193
59163SOL     OW77514  11.633   1.266   1.727
59163SOL    HW177515  11.583   1.267   1.641
59163SOL    HW277516  11.570   1.248   1.803
59164SOL     OW77517  12.283   1.776   0.237
59164SOL    HW177518  12.223   1.714   0.287
59164SOL    HW277519  12.314   1.732   0.152
59165SOL     OW77520  11.374   0.285   1.498
59165SOL    HW177521  11.294   0.345   1.485
59165SOL    HW277522  11.364   0.236   1.584
59166SOL     OW77523  11.636   1.743   0.323
59166SOL    HW177524  11.669   1.782   0.409
59166SOL    HW277525  11.712   1.736   0.258
59167SOL     OW77526  12.572   0.107   0.426
59167SOL    HW177527  12.548   0.070   0.336
59167SOL    HW277528  12.671   0.123   0.430
59168SOL     OW77529  11.421   1.785   1.241
59168SOL    HW177530  11.478   1.720   1.291
59168SOL    HW277531  11.405   1.752   1.148
59169SOL     OW77532  12.112   1.698   0.904
59169SOL    HW177533  12.192   1.641   0.925
59169SOL    HW277534  12.063   1.658   0.827
59170SOL     OW77535  11.554   0.700   0.480
59170SOL    HW177536  11.599   0.610   0.477
59170SOL    HW277537  11.460   0.689   0.513
59171SOL     OW77538  11.786   0.122   0.117
59171SOL    HW177539  11.884   0.100   0.124
59171SOL    HW277540  11.755   0.105   0.024
59172SOL     OW77541  11.953   0.264   1.749
59172SOL    HW177542  12.020   0.203   1.792
59172SOL    HW277543  11.880   0.283   1.814
59173SOL     OW77544  12.060   1.514   1.195
59173SOL    HW177545  12.037   1.489   1.101
59173SOL    HW277546  12.121   1.445   1.234
59174SOL     OW77547  12.523   0.590   1.433
59174SOL    HW177548  12.551   0.547   1.518
59174SOL    HW277549  12.548   0.686   1.434
59175SOL     OW77550  11.975   1.402   0.924
59175SOL    HW177551  12.065   1.416   0.882
59175SOL    HW277552  11.904   1.404   0.853
59176SOL     OW77553  12.094   0.503   0.899
59176SOL    HW177554  12.069   0.494   0.803
59176SOL    HW277555  12.142   0.421   0.930
59177SOL     OW77556  11.711   0.064   0.512
59177SOL    HW177557  11.630   0.065   0.570
59177SOL    HW277558  11.714   0.147   0.457
59178SOL     OW77559  12.606   1.188   0.041
59178SOL    HW177560  12.638   1.112   0.098
59178SOL    HW277561  12.514   1.215   0.071
59179SOL     OW77562  11.469   0.035   0.171
59179SOL    HW177563  11.518   0.119   0.150
59179SOL    HW277564  11.531  -0.030   0.216
59180SOL     OW77565  12.107   0.236   0.480
59180SOL    HW177566  12.059   0.277   0.402
59180SOL    HW277567  12.206   0.234   0.461
59181SOL     OW77568  12.248   0.683   1.464
59181SOL    HW177569  12.168   0.622   1.467
59181SOL    HW277570  12.329   0.630   1.440
59182SOL     OW77571  12.399   1.570   0.793
59182SOL    HW177572  12.420   1.644   0.728
59182SOL    HW277573  12.467   1.570   0.866
59183SOL     OW77574  11.631   1.152   0.741
59183SOL    HW177575  11.560   1.125   0.806
59183SOL    HW277576  11.605   1.124   0.648
59184SOL     OW77577  12.443   1.797   0.591
59184SOL    HW177578  12.487   1.861   0.527
59184SOL    HW277579  12.393   1.849   0.661
59185SOL     OW77580  12.204   0.549   0.016
59185SOL    HW177581  12.163   0.631  -0.023
59185SOL    HW277582  12.268   0.575   0.089
59186SOL     OW77583  11.250   0.556   1.386
59186SOL    HW177584  11.342   0.555   1.345
59186SOL    HW277585  11.244   0.630   1.453
59187SOL     OW77586  11.733   0.222   1.147
59187SOL    HW177587  11.771   0.138   1.184
59187SOL    HW277588  11.645   0.241   1.191
59188SOL     OW77589  12.038   0.454   0.642
59188SOL    HW177590  12.006   0.526   0.580
59188SOL    HW277591  12.062   0.373   0.589
59189SOL     OW77592  12.189   0.039   0.753
59189SOL    HW177593  12.117   0.044   0.684
59189SOL    HW277594  12.165  -0.030   0.822
59190SOL     OW77595  12.601   1.173   0.867
59190SOL    HW177596  12.546   1.089   0.860
59190SOL    HW277597  12.627   1.202   0.775
59191SOL     OW77598  11.660   1.385   0.174
59191SOL    HW177599  11.573   1.370   0.221
59191SOL    HW277600  11.643   1.411   0.079
59192SOL     OW77601  12.562   0.575   0.078
59192SOL    HW177602  12.508   0.554   0.159
59192SOL    HW277603  12.653   0.534   0.087
59193SOL     OW77604  11.699   0.256   0.328
59193SOL    HW177605  11.726   0.197   0.253
59193SOL    HW277606  11.699   0.351   0.297
59194SOL     OW77607  12.236   1.347   1.340
59194SOL    HW177608  12.156   1.324   1.395
59194SOL    HW277609  12.319   1.321   1.389
59195SOL     OW77610  12.764   1.629   1.625
59195SOL    HW177611  12.791   1.663   1.535
59195SOL    HW277612  12.843   1.591   1.671
59196SOL     OW77613  12.283   1.195   1.100
59196SOL    HW177614  12.243   1.239   1.181
59196SOL    HW277615  12.242   1.232   1.017
59197SOL     OW77616  12.087   0.089   1.402
59197SOL    HW177617  12.112   0.069   1.307
59197SOL    HW277618  12.159   0.145   1.444
59198SOL     OW77619  12.152   1.116   1.719
59198SOL    HW177620  12.053   1.122   1.729
59198SOL    HW277621  12.175   1.036   1.663
59199SOL     OW77622  11.877   1.050   0.368
59199SOL    HW177623  11.863   1.057   0.467
59199SOL    HW277624  11.961   0.999   0.350
59200SOL     OW77625  11.582   0.813   1.251
59200SOL    HW177626  11.668   0.825   1.301
59200SOL    HW277627  11.540   0.726   1.278
59201SOL     OW77628  12.446   0.386   1.262
59201SOL    HW177629  12.467   0.460   1.326
59201SOL    HW277630  12.357   0.403   1.219
59202SOL     OW77631  11.236   1.564   1.331
59202SOL    HW177632  11.190   1.646   1.297
59202SOL    HW277633  11.334   1.583   1.340
59203SOL     OW77634  11.539   1.100   0.501
59203SOL    HW177635  11.532   1.183   0.445
59203SOL    HW277636  11.543   1.020   0.441
59204SOL     OW77637  11.738   0.537   0.865
59204SOL    HW177638  11.750   0.603   0.791
59204SOL    HW277639  11.784   0.571   0.948
59205SOL     OW77640  12.424   1.348   0.388
59205SOL    HW177641  12.474   1.425   0.428
59205SOL    HW277642  12.329   1.350   0.420
59206SOL     OW77643  12.444   1.445   1.142
59206SOL    HW177644  12.491   1.458   1.229
59206SOL    HW277645  12.378   1.371   1.151
59207SOL     OW77646  11.526   1.510   1.329
59207SOL    HW177647  11.505   1.466   1.242
59207SOL    HW277648  11.623   1.536   1.332
59208SOL     OW77649  11.574   0.751   1.598
59208SOL    HW177650  11.642   0.806   1.551
59208SOL    HW277651  11.614   0.663   1.625
59209SOL     OW77652  12.185   0.105   1.770
59209SOL    HW177653  12.191   0.190   1.718
59209SOL    HW277654  12.217   0.029   1.713
59210SOL     OW77655  11.676   0.050   1.740
59210SOL    HW177656  11.634  -0.007   1.670
59210SOL    HW277657  11.610   0.119   1.772
59211SOL     OW77658  11.745   0.870   1.029
59211SOL    HW177659  11.789   0.959   1.020
59211SOL    HW277660  11.682   0.870   1.106
59212SOL     OW77661  12.532   0.862   1.045
59212SOL    HW177662  12.457   0.862   0.979
59212SOL    HW277663  12.569   0.770   1.054
59213SOL     OW77664  12.381   0.525   0.275
59213SOL    HW177665  12.394   0.441   0.329
59213SOL    HW277666  12.352   0.599   0.335
59214SOL     OW77667  11.479   0.213   1.231
59214SOL    HW177668  11.456   0.250   1.321
59214SOL    HW277669  11.449   0.118   1.225
59215SOL     OW77670  11.209   1.310   1.282
59215SOL    HW177671  11.262   1.261   1.350
59215SOL    HW277672  11.231   1.408   1.287
59216SOL     OW77673  11.904   0.634   1.064
59216SOL    HW177674  11.963   0.608   0.988
59216SOL    HW277675  11.876   0.730   1.053
59217SOL     OW77676  11.479   0.063   0.618
59217SOL    HW177677  11.468   0.157   0.651
59217SOL    HW277678  11.474   0.000   0.695
59218SOL     OW77679  12.794   0.367   0.374
59218SOL    HW177680  12.796   0.291   0.438
59218SOL    HW277681  12.746   0.444   0.414
59219SOL     OW77682  12.195   0.766   0.966
59219SOL    HW177683  12.210   0.787   1.062
59219SOL    HW277684  12.165   0.671   0.957
59220SOL     OW77685  12.152   1.573   1.700
59220SOL    HW177686  12.132   1.617   1.612
59220SOL    HW277687  12.191   1.482   1.684
59221SOL     OW77688  11.522   0.898   1.804
59221SOL    HW177689  11.598   0.942   1.852
59221SOL    HW277690  11.557   0.851   1.722
59222SOL     OW77691  12.475   0.838   0.042
59222SOL    HW177692  12.509   0.745   0.057
59222SOL    HW277693  12.493   0.865  -0.053
59223SOL     OW77694  12.240   1.333   0.849
59223SOL    HW177695  12.247   1.249   0.794
59223SOL    HW277696  12.302   1.402   0.813
59224SOL     OW77697  11.491   0.810   0.949
59224SOL    HW177698  11.584   0.846   0.954
59224SOL    HW277699  11.485   0.725   1.001
59225SOL     OW77700  11.511   0.509   1.006
59225SOL    HW177701  11.459   0.426   0.989
59225SOL    HW277702  11.588   0.514   0.942
59226SOL     OW77703  12.310   0.380   1.678
59226SOL    HW177704  12.265   0.443   1.742
59226SOL    HW277705  12.403   0.411   1.661
59227SOL     OW77706  12.332   0.207   1.477
59227SOL    HW177707  12.332   0.271   1.554
59227SOL    HW277708  12.360   0.255   1.394
59228SOL     OW77709  11.180   1.326   0.200
59228SOL    HW177710  11.087   1.347   0.169
59228SOL    HW277711  11.190   1.227   0.213
59229SOL     OW77712  11.260   1.801   0.927
59229SOL    HW177713  11.218   1.715   0.900
59229SOL    HW277714  11.354   1.804   0.893
59230SOL     OW77715  11.676   1.568   0.910
59230SOL    HW177716  11.742   1.642   0.919
59230SOL    HW277717  11.720   1.489   0.868
59231SOL     OW77718  12.174   0.796   1.238
59231SOL    HW177719  12.215   0.764   1.324
59231SOL    HW277720  12.078   0.769   1.235
59232SOL     OW77721  11.212   0.544   1.114
59232SOL    HW177722  11.297   0.511   1.073
59232SOL    HW277723  11.225   0.559   1.212
59233SOL     OW77724  11.361   0.520   1.722
59233SOL    HW177725  11.420   0.480   1.652
59233SOL    HW277726  11.303   0.591   1.681
59234SOL     OW77727  12.541   0.950   1.660
59234SOL    HW177728  12.580   1.039   1.680
59234SOL    HW277729  12.551   0.930   1.563
59235SOL     OW77730  11.987   0.572   0.325
59235SOL    HW177731  11.994   0.483   0.279
59235SOL    HW277732  11.893   0.606   0.317
59236SOL     OW77733  11.424   1.564   1.744
59236SOL    HW177734  11.394   1.621   1.820
59236SOL    HW277735  11.417   1.467   1.770
59237SOL     OW77736  11.843   0.464   1.269
59237SOL    HW177737  11.809   0.375   1.239
59237SOL    HW277738  11.869   0.518   1.189
59238SOL     OW77739  12.102   1.678   1.465
59238SOL    HW177740  12.078   1.660   1.370
59238SOL    HW277741  12.132   1.772   1.475
59239SOL     OW77742  11.645   0.500   0.191
59239SOL    HW177743  11.706   0.580   0.195
59239SOL    HW277744  11.550   0.531   0.198
59240SOL     OW77745  11.331   1.137   1.466
59240SOL    HW177746  11.353   1.076   1.542
59240SOL    HW277747  11.341   1.088   1.380
59241SOL     OW77748  12.519   1.059   1.234
59241SOL    HW177749  12.543   0.996   1.160
59241SOL    HW277750  12.429   1.099   1.216
59242SOL     OW77751  12.474   0.855   0.309
59242SOL    HW177752  12.388   0.824   0.351
59242SOL    HW277753  12.470   0.841   0.210
59243SOL     OW77754  12.424   1.731   1.128
59243SOL    HW177755  12.508   1.736   1.074
59243SOL    HW277756  12.401   1.635   1.146
59244SOL     OW77757  11.255   1.258   1.022
59244SOL    HW177758  11.250   1.257   1.122
59244SOL    HW277759  11.172   1.217   0.984
59245SOL     OW77760  11.860   1.662   1.716
59245SOL    HW177761  11.804   1.743   1.725
59245SOL    HW277762  11.912   1.666   1.630
59246SOL     OW77763  12.075   0.086   0.133
59246SOL    HW177764  12.126   0.087   0.047
59246SOL    HW277765  12.131   0.044   0.204
59247SOL     OW77766  12.560   1.573   0.477
59247SOL    HW177767  12.627   1.585   0.403
59247SOL    HW277768  12.520   1.662   0.500
59248SOL     OW77769  11.302   1.794   1.851
59248SOL    HW177770  11.261   1.720   1.904
59248SOL    HW277771  11.366   1.845   1.909
59249SOL     OW77772  12.452   0.927   0.672
59249SOL    HW177773  12.512   0.846   0.674
59249SOL    HW277774  12.492   0.996   0.612
59250SOL     OW77775  12.002   1.273   1.422
59250SOL    HW177776  11.997   1.306   1.517
59250SOL    HW277777  11.916   1.292   1.376
59251SOL     OW77778  11.844   1.616   0.154
59251SOL    HW177779  11.853   1.626   0.055
59251SOL    HW277780  11.804   1.527   0.175
59252SOL     OW77781  11.435   0.326   0.720
59252SOL    HW177782  11.356   0.377   0.686
59252SOL    HW277783  11.426   0.311   0.818
59253SOL     OW77784  12.366   1.612   0.031
59253SOL    HW177785  12.372   1.519   0.068
59253SOL    HW277786  12.307   1.612  -0.049
59254SOL     OW77787  11.994   1.002   1.372
59254SOL    HW177788  12.034   1.001   1.280
59254SOL    HW277789  12.004   1.094   1.412
59255SOL     OW77790  12.088   0.910   0.291
59255SOL    HW177791  12.151   0.948   0.223
59255SOL    HW277792  12.128   0.827   0.330
59256SOL     OW77793  11.544   1.288   1.490
59256SOL    HW177794  11.531   1.381   1.456
59256SOL    HW277795  11.460   1.236   1.477
59257SOL     OW77796  12.211   1.098   0.696
59257SOL    HW177797  12.141   1.051   0.750
59257SOL    HW277798  12.270   1.030   0.653
59258SOL     OW77799  12.186   0.236   0.971
59258SOL    HW177800  12.178   0.200   0.878
59258SOL    HW277801  12.184   0.160   1.036
59259SOL     OW77802  11.762   1.487   0.491
59259SOL    HW177803  11.804   1.429   0.421
59259SOL    HW277804  11.718   1.566   0.447
59260SOL     OW77805  11.427   1.348   0.290
59260SOL    HW177806  11.331   1.349   0.263
59260SOL    HW277807  11.439   1.401   0.374
59261SOL     OW77808  11.277   1.013   1.726
59261SOL    HW177809  11.200   0.980   1.780
59261SOL    HW277810  11.362   0.983   1.768
59262SOL     OW77811  11.844   0.203   1.489
59262SOL    HW177812  11.934   0.187   1.449
59262SOL    HW277813  11.852   0.208   1.588
59263SOL     OW77814  12.612   0.856   1.398
59263SOL    HW177815  12.555   0.908   1.335
59263SOL    HW277816  12.708   0.868   1.374
59264SOL     OW77817  11.244   0.166   0.318
59264SOL    HW177818  11.227   0.249   0.264
59264SOL    HW277819  11.334   0.129   0.296
59265SOL     OW77820  12.355   1.335   0.119
59265SOL    HW177821  12.256   1.324   0.121
59265SOL    HW277822  12.389   1.350   0.212
59266SOL     OW77823  11.785   0.842   1.431
59266SOL    HW177824  11.841   0.923   1.414
59266SOL    HW277825  11.844   0.762   1.434
59267SOL     OW77826  11.888   0.565   1.708
59267SOL    HW177827  11.907   0.630   1.782
59267SOL    HW277828  11.948   0.485   1.717
59268SOL     OW77829  12.622   1.220   1.633
59268SOL    HW177830  12.613   1.210   1.732
59268SOL    HW277831  12.718   1.213   1.607
59269SOL     OW77832  11.562   1.741   1.560
59269SOL    HW177833  11.471   1.782   1.558
59269SOL    HW277834  11.555   1.647   1.592
59270SOL     OW77835  12.397   0.325   0.449
59270SOL    HW177836  12.462   0.251   0.438
59270SOL    HW277837  12.417   0.375   0.533
59271SOL     OW77838  11.766   0.745   0.652
59271SOL    HW177839  11.816   0.830   0.633
59271SOL    HW277840  11.678   0.747   0.604
59272SOL     OW77841  12.031   1.374   0.016
59272SOL    HW177842  11.985   1.389   0.104
59272SOL    HW277843  12.075   1.459  -0.014
59273SOL     OW77844  11.833   1.790   0.953
59273SOL    HW177845  11.787   1.878   0.940
59273SOL    HW277846  11.932   1.802   0.946
59274SOL     OW77847  12.031   0.956   0.861
59274SOL    HW177848  12.085   0.887   0.909
59274SOL    HW277849  11.999   1.025   0.927
59275SOL     OW77850  12.255   0.984   0.087
59275SOL    HW177851  12.232   1.037   0.005
59275SOL    HW277852  12.336   0.928   0.068
59276SOL     OW77853  11.393   1.314   1.844
59276SOL    HW177854  11.328   1.241   1.823
59276SOL    HW277855  11.397   1.328   1.942
59277SOL     OW77856  11.251   1.240   0.653
59277SOL    HW177857  11.250   1.193   0.741
59277SOL    HW277858  11.333   1.212   0.602
59278SOL     OW77859  11.844   1.391   1.624
59278SOL    HW177860  11.766   1.341   1.662
59278SOL    HW277861  11.841   1.486   1.655
59279SOL     OW77862  11.600   0.424   0.520
59279SOL    HW177863  11.630   0.352   0.458
59279SOL    HW277864  11.561   0.384   0.603
59280SOL     OW77865  12.877   1.487   1.104
59280SOL    HW177866  12.784   1.462   1.077
59280SOL    HW277867  12.903   1.437   1.186
59281SOL     OW77868  11.489   0.547   1.280
59281SOL    HW177869  11.527   0.488   1.352
59281SOL    HW277870  11.529   0.521   1.192
59282SOL     OW77871  11.984   1.586   0.687
59282SOL    HW177872  12.016   1.596   0.593
59282SOL    HW277873  11.905   1.524   0.689
59283SOL     OW77874  12.596   0.214   1.112
59283SOL    HW177875  12.648   0.149   1.167
59283SOL    HW277876  12.547   0.277   1.173
59284SOL     OW77877  12.173   0.034   1.154
59284SOL    HW177878  12.110  -0.038   1.123
59284SOL    HW277879  12.266  -0.002   1.154
59285SOL     OW77880  11.942   1.330   0.301
59285SOL    HW177881  11.896   1.243   0.318
59285SOL    HW277882  12.033   1.327   0.342
59286SOL     OW77883  11.790   1.567   1.284
59286SOL    HW177884  11.785   1.649   1.341
59286SOL    HW277885  11.879   1.564   1.239
59287SOL     OW77886  12.524   0.052   0.168
59287SOL    HW177887  12.559   0.011   0.084
59287SOL    HW277888  12.434   0.014   0.188
59288SOL     OW77889  12.472   0.453   0.691
59288SOL    HW177890  12.413   0.533   0.695
59288SOL    HW277891  12.487   0.418   0.784
59289SOL     OW77892  11.211   1.077   0.300
59289SOL    HW177893  11.310   1.066   0.291
59289SOL    HW277894  11.171   0.991   0.332
59290SOL     OW77895  12.047   1.646   0.337
59290SOL    HW177896  11.970   1.611   0.283
59290SOL    HW277897  12.015   1.717   0.399
59291SOL     OW77898  11.402   0.628   1.975
59291SOL    HW177899  11.309   0.626   2.012
59291SOL    HW277900  11.403   0.589   1.883
59292SOL     OW77901  11.397   0.275   2.858
59292SOL    HW177902  11.432   0.258   2.950
59292SOL    HW277903  11.309   0.230   2.846
59293SOL     OW77904  11.191   0.368   2.509
59293SOL    HW177905  11.109   0.411   2.548
59293SOL    HW277906  11.163   0.295   2.446
59294SOL     OW77907  11.741   1.275   3.027
59294SOL    HW177908  11.648   1.268   2.990
59294SOL    HW277909  11.752   1.364   3.071
59295SOL     OW77910  12.727   1.511   2.565
59295SOL    HW177911  12.670   1.495   2.646
59295SOL    HW277912  12.668   1.521   2.485
59296SOL     OW77913  12.307   0.703   2.579
59296SOL    HW177914  12.364   0.781   2.554
59296SOL    HW277915  12.247   0.729   2.655
59297SOL     OW77916  11.940   1.144   2.885
59297SOL    HW177917  11.862   1.161   2.945
59297SOL    HW277918  11.974   1.231   2.849
59298SOL     OW77919  12.022   0.798   3.685
59298SOL    HW177920  12.018   0.874   3.750
59298SOL    HW277921  12.044   0.834   3.594
59299SOL     OW77922  11.857   1.012   2.527
59299SOL    HW177923  11.926   0.996   2.597
59299SOL    HW277924  11.784   1.069   2.565
59300SOL     OW77925  11.858   1.161   3.665
59300SOL    HW177926  11.918   1.240   3.679
59300SOL    HW277927  11.772   1.192   3.624
59301SOL     OW77928  11.507   1.435   2.923
59301SOL    HW177929  11.429   1.404   2.870
59301SOL    HW277930  11.565   1.493   2.866
59302SOL     OW77931  11.610   0.392   3.361
59302SOL    HW177932  11.692   0.336   3.370
59302SOL    HW277933  11.529   0.334   3.365
59303SOL     OW77934  11.403   1.713   2.345
59303SOL    HW177935  11.437   1.790   2.399
59303SOL    HW277936  11.447   1.713   2.255
59304SOL     OW77937  12.299   1.341   3.552
59304SOL    HW177938  12.346   1.341   3.640
59304SOL    HW277939  12.251   1.254   3.541
59305SOL     OW77940  11.402   1.434   2.400
59305SOL    HW177941  11.376   1.530   2.400
59305SOL    HW277942  11.331   1.380   2.445
59306SOL     OW77943  11.412   1.091   2.748
59306SOL    HW177944  11.426   1.007   2.800
59306SOL    HW277945  11.357   1.155   2.803
59307SOL     OW77946  11.792   1.786   3.301
59307SOL    HW177947  11.700   1.769   3.336
59307SOL    HW277948  11.820   1.878   3.327
59308SOL     OW77949  11.778   0.964   1.985
59308SOL    HW177950  11.785   1.048   1.931
59308SOL    HW277951  11.824   0.977   2.073
59309SOL     OW77952  12.766   0.114   3.342
59309SOL    HW177953  12.748   0.181   3.270
59309SOL    HW277954  12.763   0.160   3.431
59310SOL     OW77955  11.294   0.643   2.425
59310SOL    HW177956  11.249   0.555   2.442
59310SOL    HW277957  11.293   0.697   2.509
59311SOL     OW77958  11.199   1.596   1.979
59311SOL    HW177959  11.180   1.500   2.000
59311SOL    HW277960  11.166   1.654   2.054
59312SOL     OW77961  12.861   0.922   2.474
59312SOL    HW177962  12.956   0.893   2.482
59312SOL    HW277963  12.853   0.987   2.399
59313SOL     OW77964  11.285   0.737   3.459
59313SOL    HW177965  11.373   0.724   3.504
59313SOL    HW277966  11.272   0.834   3.437
59314SOL     OW77967  11.785   1.365   2.588
59314SOL    HW177968  11.736   1.278   2.597
59314SOL    HW277969  11.762   1.408   2.501
59315SOL     OW77970  12.465   1.228   3.285
59315SOL    HW177971  12.502   1.155   3.227
59315SOL    HW277972  12.517   1.233   3.370
59316SOL     OW77973  11.981   0.004   2.364
59316SOL    HW177974  12.021   0.095   2.355
59316SOL    HW277975  11.881   0.012   2.370
59317SOL     OW77976  11.369   0.976   3.126
59317SOL    HW177977  11.458   0.931   3.112
59317SOL    HW277978  11.296   0.911   3.107
59318SOL     OW77979  12.359   1.792   3.478
59318SOL    HW177980  12.383   1.852   3.402
59318SOL    HW277981  12.366   1.697   3.448
59319SOL     OW77982  11.489   0.251   3.663
59319SOL    HW177983  11.560   0.322   3.669
59319SOL    HW277984  11.401   0.290   3.691
59320SOL     OW77985  12.638   1.417   2.815
59320SOL    HW177986  12.579   1.423   2.895
59320SOL    HW277987  12.623   1.329   2.769
59321SOL     OW77988  11.770   0.729   2.132
59321SOL    HW177989  11.794   0.798   2.064
59321SOL    HW277990  11.692   0.762   2.186
59322SOL     OW77991  12.453   0.345   2.806
59322SOL    HW177992  12.367   0.295   2.793
59322SOL    HW277993  12.515   0.291   2.862
59323SOL     OW77994  11.979   0.605   3.327
59323SOL    HW177995  11.932   0.602   3.416
59323SOL    HW277996  11.928   0.550   3.261
59324SOL     OW77997  12.566   0.469   3.536
59324SOL    HW177998  12.546   0.512   3.624
59324SOL    HW277999  12.644   0.407   3.545
59325SOL     OW78000  12.145   0.890   3.434
59325SOL    HW178001  12.191   0.806   3.405
59325SOL    HW278002  12.089   0.924   3.359
59326SOL     OW78003  12.163   0.410   3.104
59326SOL    HW178004  12.086   0.444   3.158
59326SOL    HW278005  12.129   0.359   3.025
59327SOL     OW78006  12.213   0.701   2.291
59327SOL    HW178007  12.239   0.697   2.387
59327SOL    HW278008  12.128   0.650   2.277
59328SOL     OW78009  11.248   0.811   2.651
59328SOL    HW178010  11.347   0.799   2.660
59328SOL    HW278011  11.224   0.906   2.672
59329SOL     OW78012  11.302   1.821   3.433
59329SOL    HW178013  11.292   1.806   3.532
59329SOL    HW278014  11.216   1.857   3.397
59330SOL     OW78015  12.037   0.348   2.057
59330SOL    HW178016  12.096   0.411   2.008
59330SOL    HW278017  12.056   0.254   2.028
59331SOL     OW78018  12.534   1.144   2.407
59331SOL    HW178019  12.617   1.115   2.359
59331SOL    HW278020  12.485   1.211   2.351
59332SOL     OW78021  11.722   0.196   2.747
59332SOL    HW178022  11.717   0.191   2.847
59332SOL    HW278023  11.724   0.292   2.718
59333SOL     OW78024  12.180   1.456   2.339
59333SOL    HW178025  12.134   1.528   2.287
59333SOL    HW278026  12.176   1.476   2.437
59334SOL     OW78027  11.523   1.801   2.715
59334SOL    HW178028  11.573   1.715   2.721
59334SOL    HW278029  11.588   1.878   2.712
59335SOL     OW78030  12.399   1.550   3.368
59335SOL    HW178031  12.405   1.473   3.432
59335SOL    HW278032  12.347   1.524   3.288
59336SOL     OW78033  11.493   0.943   2.104
59336SOL    HW178034  11.575   0.982   2.062
59336SOL    HW278035  11.466   0.861   2.055
59337SOL     OW78036  11.633   1.266   3.589
59337SOL    HW178037  11.583   1.267   3.503
59337SOL    HW278038  11.570   1.248   3.665
59338SOL     OW78039  12.283   1.776   2.099
59338SOL    HW178040  12.223   1.714   2.149
59338SOL    HW278041  12.314   1.732   2.014
59339SOL     OW78042  11.374   0.285   3.360
59339SOL    HW178043  11.294   0.345   3.347
59339SOL    HW278044  11.364   0.236   3.446
59340SOL     OW78045  11.636   1.743   2.185
59340SOL    HW178046  11.669   1.782   2.271
59340SOL    HW278047  11.712   1.736   2.120
59341SOL     OW78048  12.572   0.107   2.288
59341SOL    HW178049  12.548   0.070   2.198
59341SOL    HW278050  12.671   0.123   2.292
59342SOL     OW78051  11.421   1.785   3.103
59342SOL    HW178052  11.478   1.720   3.153
59342SOL    HW278053  11.405   1.752   3.010
59343SOL     OW78054  12.112   1.698   2.766
59343SOL    HW178055  12.192   1.641   2.787
59343SOL    HW278056  12.063   1.658   2.689
59344SOL     OW78057  11.554   0.700   2.342
59344SOL    HW178058  11.599   0.610   2.339
59344SOL    HW278059  11.460   0.689   2.375
59345SOL     OW78060  11.786   0.122   1.979
59345SOL    HW178061  11.884   0.100   1.986
59345SOL    HW278062  11.755   0.105   1.886
59346SOL     OW78063  11.953   0.264   3.611
59346SOL    HW178064  12.020   0.203   3.654
59346SOL    HW278065  11.880   0.283   3.676
59347SOL     OW78066  12.060   1.514   3.057
59347SOL    HW178067  12.037   1.489   2.963
59347SOL    HW278068  12.121   1.445   3.096
59348SOL     OW78069  12.523   0.590   3.295
59348SOL    HW178070  12.551   0.547   3.380
59348SOL    HW278071  12.548   0.686   3.296
59349SOL     OW78072  11.975   1.402   2.786
59349SOL    HW178073  12.065   1.416   2.744
59349SOL    HW278074  11.904   1.404   2.715
59350SOL     OW78075  12.094   0.503   2.761
59350SOL    HW178076  12.069   0.494   2.665
59350SOL    HW278077  12.142   0.421   2.792
59351SOL     OW78078  11.711   0.064   2.374
59351SOL    HW178079  11.630   0.065   2.432
59351SOL    HW278080  11.714   0.147   2.319
59352SOL     OW78081  12.606   1.188   1.903
59352SOL    HW178082  12.638   1.112   1.960
59352SOL    HW278083  12.514   1.215   1.933
59353SOL     OW78084  11.469   0.035   2.033
59353SOL    HW178085  11.518   0.119   2.012
59353SOL    HW278086  11.531  -0.030   2.078
59354SOL     OW78087  12.107   0.236   2.342
59354SOL    HW178088  12.059   0.277   2.264
59354SOL    HW278089  12.206   0.234   2.323
59355SOL     OW78090  12.248   0.683   3.326
59355SOL    HW178091  12.168   0.622   3.329
59355SOL    HW278092  12.329   0.630   3.302
59356SOL     OW78093  12.399   1.570   2.655
59356SOL    HW178094  12.420   1.644   2.590
59356SOL    HW278095  12.467   1.570   2.728
59357SOL     OW78096  11.631   1.152   2.603
59357SOL    HW178097  11.560   1.125   2.668
59357SOL    HW278098  11.605   1.124   2.510
59358SOL     OW78099  12.443   1.797   2.453
59358SOL    HW178100  12.487   1.861   2.389
59358SOL    HW278101  12.393   1.849   2.523
59359SOL     OW78102  12.204   0.549   1.878
59359SOL    HW178103  12.163   0.631   1.839
59359SOL    HW278104  12.268   0.575   1.951
59360SOL     OW78105  11.250   0.556   3.248
59360SOL    HW178106  11.342   0.555   3.207
59360SOL    HW278107  11.244   0.630   3.315
59361SOL     OW78108  11.733   0.222   3.009
59361SOL    HW178109  11.771   0.138   3.046
59361SOL    HW278110  11.645   0.241   3.053
59362SOL     OW78111  12.038   0.454   2.504
59362SOL    HW178112  12.006   0.526   2.442
59362SOL    HW278113  12.062   0.373   2.451
59363SOL     OW78114  12.189   0.039   2.615
59363SOL    HW178115  12.117   0.044   2.546
59363SOL    HW278116  12.165  -0.030   2.684
59364SOL     OW78117  12.601   1.173   2.729
59364SOL    HW178118  12.546   1.089   2.722
59364SOL    HW278119  12.627   1.202   2.637
59365SOL     OW78120  11.660   1.385   2.036
59365SOL    HW178121  11.573   1.370   2.083
59365SOL    HW278122  11.643   1.411   1.941
59366SOL     OW78123  12.562   0.575   1.940
59366SOL    HW178124  12.508   0.554   2.021
59366SOL    HW278125  12.653   0.534   1.949
59367SOL     OW78126  11.699   0.256   2.190
59367SOL    HW178127  11.726   0.197   2.115
59367SOL    HW278128  11.699   0.351   2.159
59368SOL     OW78129  12.236   1.347   3.202
59368SOL    HW178130  12.156   1.324   3.257
59368SOL    HW278131  12.319   1.321   3.251
59369SOL     OW78132  12.764   1.629   3.487
59369SOL    HW178133  12.791   1.663   3.397
59369SOL    HW278134  12.843   1.591   3.533
59370SOL     OW78135  12.283   1.195   2.962
59370SOL    HW178136  12.243   1.239   3.043
59370SOL    HW278137  12.242   1.232   2.879
59371SOL     OW78138  12.087   0.089   3.264
59371SOL    HW178139  12.112   0.069   3.169
59371SOL    HW278140  12.159   0.145   3.306
59372SOL     OW78141  12.152   1.116   3.581
59372SOL    HW178142  12.053   1.122   3.591
59372SOL    HW278143  12.175   1.036   3.525
59373SOL     OW78144  11.877   1.050   2.230
59373SOL    HW178145  11.863   1.057   2.329
59373SOL    HW278146  11.961   0.999   2.212
59374SOL     OW78147  11.582   0.813   3.113
59374SOL    HW178148  11.668   0.825   3.163
59374SOL    HW278149  11.540   0.726   3.140
59375SOL     OW78150  12.446   0.386   3.124
59375SOL    HW178151  12.467   0.460   3.188
59375SOL    HW278152  12.357   0.403   3.081
59376SOL     OW78153  11.236   1.564   3.193
59376SOL    HW178154  11.190   1.646   3.159
59376SOL    HW278155  11.334   1.583   3.202
59377SOL     OW78156  11.539   1.100   2.363
59377SOL    HW178157  11.532   1.183   2.307
59377SOL    HW278158  11.543   1.020   2.303
59378SOL     OW78159  11.738   0.537   2.727
59378SOL    HW178160  11.750   0.603   2.653
59378SOL    HW278161  11.784   0.571   2.810
59379SOL     OW78162  12.424   1.348   2.250
59379SOL    HW178163  12.474   1.425   2.290
59379SOL    HW278164  12.329   1.350   2.282
59380SOL     OW78165  12.444   1.445   3.004
59380SOL    HW178166  12.491   1.458   3.091
59380SOL    HW278167  12.378   1.371   3.013
59381SOL     OW78168  11.526   1.510   3.191
59381SOL    HW178169  11.505   1.466   3.104
59381SOL    HW278170  11.623   1.536   3.194
59382SOL     OW78171  11.574   0.751   3.460
59382SOL    HW178172  11.642   0.806   3.413
59382SOL    HW278173  11.614   0.663   3.487
59383SOL     OW78174  12.185   0.105   3.632
59383SOL    HW178175  12.191   0.190   3.580
59383SOL    HW278176  12.217   0.029   3.575
59384SOL     OW78177  11.676   0.050   3.602
59384SOL    HW178178  11.634  -0.007   3.532
59384SOL    HW278179  11.610   0.119   3.634
59385SOL     OW78180  11.745   0.870   2.891
59385SOL    HW178181  11.789   0.959   2.882
59385SOL    HW278182  11.682   0.870   2.968
59386SOL     OW78183  12.532   0.862   2.907
59386SOL    HW178184  12.457   0.862   2.841
59386SOL    HW278185  12.569   0.770   2.916
59387SOL     OW78186  12.381   0.525   2.137
59387SOL    HW178187  12.394   0.441   2.191
59387SOL    HW278188  12.352   0.599   2.197
59388SOL     OW78189  11.479   0.213   3.093
59388SOL    HW178190  11.456   0.250   3.183
59388SOL    HW278191  11.449   0.118   3.087
59389SOL     OW78192  11.209   1.310   3.144
59389SOL    HW178193  11.262   1.261   3.212
59389SOL    HW278194  11.231   1.408   3.149
59390SOL     OW78195  11.904   0.634   2.926
59390SOL    HW178196  11.963   0.608   2.850
59390SOL    HW278197  11.876   0.730   2.915
59391SOL     OW78198  11.479   0.063   2.480
59391SOL    HW178199  11.468   0.157   2.513
59391SOL    HW278200  11.474   0.000   2.557
59392SOL     OW78201  12.794   0.367   2.236
59392SOL    HW178202  12.796   0.291   2.300
59392SOL    HW278203  12.746   0.444   2.276
59393SOL     OW78204  12.195   0.766   2.828
59393SOL    HW178205  12.210   0.787   2.924
59393SOL    HW278206  12.165   0.671   2.819
59394SOL     OW78207  12.152   1.573   3.562
59394SOL    HW178208  12.132   1.617   3.474
59394SOL    HW278209  12.191   1.482   3.546
59395SOL     OW78210  11.522   0.898   3.666
59395SOL    HW178211  11.598   0.942   3.714
59395SOL    HW278212  11.557   0.851   3.584
59396SOL     OW78213  12.475   0.838   1.904
59396SOL    HW178214  12.509   0.745   1.919
59396SOL    HW278215  12.493   0.865   1.809
59397SOL     OW78216  12.240   1.333   2.711
59397SOL    HW178217  12.247   1.249   2.656
59397SOL    HW278218  12.302   1.402   2.675
59398SOL     OW78219  11.491   0.810   2.811
59398SOL    HW178220  11.584   0.846   2.816
59398SOL    HW278221  11.485   0.725   2.863
59399SOL     OW78222  11.511   0.509   2.868
59399SOL    HW178223  11.459   0.426   2.851
59399SOL    HW278224  11.588   0.514   2.804
59400SOL     OW78225  12.310   0.380   3.540
59400SOL    HW178226  12.265   0.443   3.604
59400SOL    HW278227  12.403   0.411   3.523
59401SOL     OW78228  12.332   0.207   3.339
59401SOL    HW178229  12.332   0.271   3.416
59401SOL    HW278230  12.360   0.255   3.256
59402SOL     OW78231  11.180   1.326   2.062
59402SOL    HW178232  11.087   1.347   2.031
59402SOL    HW278233  11.190   1.227   2.075
59403SOL     OW78234  11.260   1.801   2.789
59403SOL    HW178235  11.218   1.715   2.762
59403SOL    HW278236  11.354   1.804   2.755
59404SOL     OW78237  11.676   1.568   2.772
59404SOL    HW178238  11.742   1.642   2.781
59404SOL    HW278239  11.720   1.489   2.730
59405SOL     OW78240  12.174   0.796   3.100
59405SOL    HW178241  12.215   0.764   3.186
59405SOL    HW278242  12.078   0.769   3.097
59406SOL     OW78243  11.212   0.544   2.976
59406SOL    HW178244  11.297   0.511   2.935
59406SOL    HW278245  11.225   0.559   3.074
59407SOL     OW78246  11.361   0.520   3.584
59407SOL    HW178247  11.420   0.480   3.514
59407SOL    HW278248  11.303   0.591   3.543
59408SOL     OW78249  11.987   0.572   2.187
59408SOL    HW178250  11.994   0.483   2.141
59408SOL    HW278251  11.893   0.606   2.179
59409SOL     OW78252  11.424   1.564   3.606
59409SOL    HW178253  11.394   1.621   3.682
59409SOL    HW278254  11.417   1.467   3.632
59410SOL     OW78255  11.843   0.464   3.131
59410SOL    HW178256  11.809   0.375   3.101
59410SOL    HW278257  11.869   0.518   3.051
59411SOL     OW78258  12.102   1.678   3.327
59411SOL    HW178259  12.078   1.660   3.232
59411SOL    HW278260  12.132   1.772   3.337
59412SOL     OW78261  11.645   0.500   2.053
59412SOL    HW178262  11.706   0.580   2.057
59412SOL    HW278263  11.550   0.531   2.060
59413SOL     OW78264  11.331   1.137   3.328
59413SOL    HW178265  11.353   1.076   3.404
59413SOL    HW278266  11.341   1.088   3.242
59414SOL     OW78267  12.519   1.059   3.096
59414SOL    HW178268  12.543   0.996   3.022
59414SOL    HW278269  12.429   1.099   3.078
59415SOL     OW78270  12.474   0.855   2.171
59415SOL    HW178271  12.388   0.824   2.213
59415SOL    HW278272  12.470   0.841   2.072
59416SOL     OW78273  12.424   1.731   2.990
59416SOL    HW178274  12.508   1.736   2.936
59416SOL    HW278275  12.401   1.635   3.008
59417SOL     OW78276  11.255   1.258   2.884
59417SOL    HW178277  11.250   1.257   2.984
59417SOL    HW278278  11.172   1.217   2.846
59418SOL     OW78279  11.860   1.662   3.578
59418SOL    HW178280  11.804   1.743   3.587
59418SOL    HW278281  11.912   1.666   3.492
59419SOL     OW78282  12.560   1.573   2.339
59419SOL    HW178283  12.627   1.585   2.265
59419SOL    HW278284  12.520   1.662   2.362
59420SOL     OW78285  12.452   0.927   2.534
59420SOL    HW178286  12.512   0.846   2.536
59420SOL    HW278287  12.492   0.996   2.474
59421SOL     OW78288  12.002   1.273   3.284
59421SOL    HW178289  11.997   1.306   3.379
59421SOL    HW278290  11.916   1.292   3.238
59422SOL     OW78291  11.844   1.616   2.016
59422SOL    HW178292  11.853   1.626   1.917
59422SOL    HW278293  11.804   1.527   2.037
59423SOL     OW78294  11.435   0.326   2.582
59423SOL    HW178295  11.356   0.377   2.548
59423SOL    HW278296  11.426   0.311   2.680
59424SOL     OW78297  12.366   1.612   1.893
59424SOL    HW178298  12.372   1.519   1.930
59424SOL    HW278299  12.307   1.612   1.813
59425SOL     OW78300  11.994   1.002   3.234
59425SOL    HW178301  12.034   1.001   3.142
59425SOL    HW278302  12.004   1.094   3.274
59426SOL     OW78303  12.088   0.910   2.153
59426SOL    HW178304  12.151   0.948   2.085
59426SOL    HW278305  12.128   0.827   2.192
59427SOL     OW78306  11.544   1.288   3.352
59427SOL    HW178307  11.531   1.381   3.318
59427SOL    HW278308  11.460   1.236   3.339
59428SOL     OW78309  12.211   1.098   2.558
59428SOL    HW178310  12.141   1.051   2.612
59428SOL    HW278311  12.270   1.030   2.515
59429SOL     OW78312  12.186   0.236   2.833
59429SOL    HW178313  12.178   0.200   2.740
59429SOL    HW278314  12.184   0.160   2.898
59430SOL     OW78315  11.762   1.487   2.353
59430SOL    HW178316  11.804   1.429   2.283
59430SOL    HW278317  11.718   1.566   2.309
59431SOL     OW78318  11.427   1.348   2.152
59431SOL    HW178319  11.331   1.349   2.125
59431SOL    HW278320  11.439   1.401   2.236
59432SOL     OW78321  11.277   1.013   3.588
59432SOL    HW178322  11.200   0.980   3.642
59432SOL    HW278323  11.362   0.983   3.630
59433SOL     OW78324  11.844   0.203   3.351
59433SOL    HW178325  11.934   0.187   3.311
59433SOL    HW278326  11.852   0.208   3.450
59434SOL     OW78327  11.247   0.345   1.895
59434SOL    HW178328  11.155   0.317   1.866
59434SOL    HW278329  11.278   0.422   1.839
59435SOL     OW78330  12.612   0.856   3.260
59435SOL    HW178331  12.555   0.908   3.197
59435SOL    HW278332  12.708   0.868   3.236
59436SOL     OW78333  11.244   0.166   2.180
59436SOL    HW178334  11.227   0.249   2.126
59436SOL    HW278335  11.334   0.129   2.158
59437SOL     OW78336  12.355   1.335   1.981
59437SOL    HW178337  12.256   1.324   1.983
59437SOL    HW278338  12.389   1.350   2.074
59438SOL     OW78339  11.785   0.842   3.293
59438SOL    HW178340  11.841   0.923   3.276
59438SOL    HW278341  11.844   0.762   3.296
59439SOL     OW78342  11.888   0.565   3.570
59439SOL    HW178343  11.907   0.630   3.644
59439SOL    HW278344  11.948   0.485   3.579
59440SOL     OW78345  12.622   1.220   3.495
59440SOL    HW178346  12.613   1.210   3.594
59440SOL    HW278347  12.718   1.213   3.469
59441SOL     OW78348  11.562   1.741   3.422
59441SOL    HW178349  11.471   1.782   3.420
59441SOL    HW278350  11.555   1.647   3.454
59442SOL     OW78351  12.397   0.325   2.311
59442SOL    HW178352  12.462   0.251   2.300
59442SOL    HW278353  12.417   0.375   2.395
59443SOL     OW78354  11.766   0.745   2.514
59443SOL    HW178355  11.816   0.830   2.495
59443SOL    HW278356  11.678   0.747   2.466
59444SOL     OW78357  12.031   1.374   1.878
59444SOL    HW178358  11.985   1.389   1.966
59444SOL    HW278359  12.075   1.459   1.848
59445SOL     OW78360  11.833   1.790   2.815
59445SOL    HW178361  11.787   1.878   2.802
59445SOL    HW278362  11.932   1.802   2.808
59446SOL     OW78363  12.031   0.956   2.723
59446SOL    HW178364  12.085   0.887   2.771
59446SOL    HW278365  11.999   1.025   2.789
59447SOL     OW78366  12.255   0.984   1.949
59447SOL    HW178367  12.232   1.037   1.867
59447SOL    HW278368  12.336   0.928   1.930
59448SOL     OW78369  11.393   1.314   3.706
59448SOL    HW178370  11.328   1.241   3.685
59448SOL    HW278371  11.397   1.328   3.804
59449SOL     OW78372  11.251   1.240   2.515
59449SOL    HW178373  11.250   1.193   2.603
59449SOL    HW278374  11.333   1.212   2.464
59450SOL     OW78375  11.844   1.391   3.486
59450SOL    HW178376  11.766   1.341   3.524
59450SOL    HW278377  11.841   1.486   3.517
59451SOL     OW78378  11.600   0.424   2.382
59451SOL    HW178379  11.630   0.352   2.320
59451SOL    HW278380  11.561   0.384   2.465
59452SOL     OW78381  12.877   1.487   2.966
59452SOL    HW178382  12.784   1.462   2.939
59452SOL    HW278383  12.903   1.437   3.048
59453SOL     OW78384  11.489   0.547   3.142
59453SOL    HW178385  11.527   0.488   3.214
59453SOL    HW278386  11.529   0.521   3.054
59454SOL     OW78387  11.984   1.586   2.549
59454SOL    HW178388  12.016   1.596   2.455
59454SOL    HW278389  11.905   1.524   2.551
59455SOL     OW78390  12.596   0.214   2.974
59455SOL    HW178391  12.648   0.149   3.029
59455SOL    HW278392  12.547   0.277   3.035
59456SOL     OW78393  12.173   0.034   3.016
59456SOL    HW178394  12.110  -0.038   2.985
59456SOL    HW278395  12.266  -0.002   3.016
59457SOL     OW78396  11.942   1.330   2.163
59457SOL    HW178397  11.896   1.243   2.180
59457SOL    HW278398  12.033   1.327   2.204
59458SOL     OW78399  11.790   1.567   3.146
59458SOL    HW178400  11.785   1.649   3.203
59458SOL    HW278401  11.879   1.564   3.101
59459SOL     OW78402  12.524   0.052   2.030
59459SOL    HW178403  12.559   0.011   1.946
59459SOL    HW278404  12.434   0.014   2.050
59460SOL     OW78405  12.472   0.453   2.553
59460SOL    HW178406  12.413   0.533   2.557
59460SOL    HW278407  12.487   0.418   2.646
59461SOL     OW78408  11.211   1.077   2.162
59461SOL    HW178409  11.310   1.066   2.153
59461SOL    HW278410  11.171   0.991   2.194
59462SOL     OW78411  12.047   1.646   2.199
59462SOL    HW178412  11.970   1.611   2.145
59462SOL    HW278413  12.015   1.717   2.261
59463SOL     OW78414  11.402   0.628   3.837
59463SOL    HW178415  11.309   0.626   3.874
59463SOL    HW278416  11.403   0.589   3.745
59464SOL     OW78417  11.397   0.275   4.720
59464SOL    HW178418  11.432   0.258   4.812
59464SOL    HW278419  11.309   0.230   4.708
59465SOL     OW78420  11.191   0.368   4.371
59465SOL    HW178421  11.109   0.411   4.410
59465SOL    HW278422  11.163   0.295   4.308
59466SOL     OW78423  11.741   1.275   4.889
59466SOL    HW178424  11.648   1.268   4.852
59466SOL    HW278425  11.752   1.364   4.933
59467SOL     OW78426  12.727   1.511   4.427
59467SOL    HW178427  12.670   1.495   4.508
59467SOL    HW278428  12.668   1.521   4.347
59468SOL     OW78429  12.307   0.703   4.441
59468SOL    HW178430  12.364   0.781   4.416
59468SOL    HW278431  12.247   0.729   4.517
59469SOL     OW78432  11.940   1.144   4.747
59469SOL    HW178433  11.862   1.161   4.807
59469SOL    HW278434  11.974   1.231   4.711
59470SOL     OW78435  12.022   0.798   5.547
59470SOL    HW178436  12.018   0.874   5.612
59470SOL    HW278437  12.044   0.834   5.456
59471SOL     OW78438  11.857   1.012   4.389
59471SOL    HW178439  11.926   0.996   4.459
59471SOL    HW278440  11.784   1.069   4.427
59472SOL     OW78441  11.858   1.161   5.527
59472SOL    HW178442  11.918   1.240   5.541
59472SOL    HW278443  11.772   1.192   5.486
59473SOL     OW78444  11.507   1.435   4.785
59473SOL    HW178445  11.429   1.404   4.732
59473SOL    HW278446  11.565   1.493   4.728
59474SOL     OW78447  11.610   0.392   5.223
59474SOL    HW178448  11.692   0.336   5.232
59474SOL    HW278449  11.529   0.334   5.227
59475SOL     OW78450  11.403   1.713   4.207
59475SOL    HW178451  11.437   1.790   4.261
59475SOL    HW278452  11.447   1.713   4.117
59476SOL     OW78453  12.299   1.341   5.414
59476SOL    HW178454  12.346   1.341   5.502
59476SOL    HW278455  12.251   1.254   5.403
59477SOL     OW78456  11.402   1.434   4.262
59477SOL    HW178457  11.376   1.530   4.262
59477SOL    HW278458  11.331   1.380   4.307
59478SOL     OW78459  11.412   1.091   4.610
59478SOL    HW178460  11.426   1.007   4.662
59478SOL    HW278461  11.357   1.155   4.665
59479SOL     OW78462  11.792   1.786   5.163
59479SOL    HW178463  11.700   1.769   5.198
59479SOL    HW278464  11.820   1.878   5.189
59480SOL     OW78465  11.778   0.964   3.847
59480SOL    HW178466  11.785   1.048   3.793
59480SOL    HW278467  11.824   0.977   3.935
59481SOL     OW78468  12.766   0.114   5.204
59481SOL    HW178469  12.748   0.181   5.132
59481SOL    HW278470  12.763   0.160   5.293
59482SOL     OW78471  11.294   0.643   4.287
59482SOL    HW178472  11.249   0.555   4.304
59482SOL    HW278473  11.293   0.697   4.371
59483SOL     OW78474  11.199   1.596   3.841
59483SOL    HW178475  11.180   1.500   3.862
59483SOL    HW278476  11.166   1.654   3.916
59484SOL     OW78477  12.861   0.922   4.336
59484SOL    HW178478  12.956   0.893   4.344
59484SOL    HW278479  12.853   0.987   4.261
59485SOL     OW78480  11.285   0.737   5.321
59485SOL    HW178481  11.373   0.724   5.366
59485SOL    HW278482  11.272   0.834   5.299
59486SOL     OW78483  11.785   1.365   4.450
59486SOL    HW178484  11.736   1.278   4.459
59486SOL    HW278485  11.762   1.408   4.363
59487SOL     OW78486  12.465   1.228   5.147
59487SOL    HW178487  12.502   1.155   5.089
59487SOL    HW278488  12.517   1.233   5.232
59488SOL     OW78489  11.981   0.004   4.226
59488SOL    HW178490  12.021   0.095   4.217
59488SOL    HW278491  11.881   0.012   4.232
59489SOL     OW78492  11.369   0.976   4.988
59489SOL    HW178493  11.458   0.931   4.974
59489SOL    HW278494  11.296   0.911   4.969
59490SOL     OW78495  12.359   1.792   5.340
59490SOL    HW178496  12.383   1.852   5.264
59490SOL    HW278497  12.366   1.697   5.310
59491SOL     OW78498  11.489   0.251   5.525
59491SOL    HW178499  11.560   0.322   5.531
59491SOL    HW278500  11.401   0.290   5.553
59492SOL     OW78501  12.638   1.417   4.677
59492SOL    HW178502  12.579   1.423   4.757
59492SOL    HW278503  12.623   1.329   4.631
59493SOL     OW78504  11.770   0.729   3.994
59493SOL    HW178505  11.794   0.798   3.926
59493SOL    HW278506  11.692   0.762   4.048
59494SOL     OW78507  11.979   0.605   5.189
59494SOL    HW178508  11.932   0.602   5.278
59494SOL    HW278509  11.928   0.550   5.123
59495SOL     OW78510  12.566   0.469   5.398
59495SOL    HW178511  12.546   0.512   5.486
59495SOL    HW278512  12.644   0.407   5.407
59496SOL     OW78513  12.145   0.890   5.296
59496SOL    HW178514  12.191   0.806   5.267
59496SOL    HW278515  12.089   0.924   5.221
59497SOL     OW78516  12.163   0.410   4.966
59497SOL    HW178517  12.086   0.444   5.020
59497SOL    HW278518  12.129   0.359   4.887
59498SOL     OW78519  12.213   0.701   4.153
59498SOL    HW178520  12.239   0.697   4.249
59498SOL    HW278521  12.128   0.650   4.139
59499SOL     OW78522  11.248   0.811   4.513
59499SOL    HW178523  11.347   0.799   4.522
59499SOL    HW278524  11.224   0.906   4.534
59500SOL     OW78525  11.302   1.821   5.295
59500SOL    HW178526  11.292   1.806   5.394
59500SOL    HW278527  11.216   1.857   5.259
59501SOL     OW78528  12.037   0.348   3.919
59501SOL    HW178529  12.096   0.411   3.870
59501SOL    HW278530  12.056   0.254   3.890
59502SOL     OW78531  12.534   1.144   4.269
59502SOL    HW178532  12.617   1.115   4.221
59502SOL    HW278533  12.485   1.211   4.213
59503SOL     OW78534  11.722   0.196   4.609
59503SOL    HW178535  11.717   0.191   4.709
59503SOL    HW278536  11.724   0.292   4.580
59504SOL     OW78537  12.180   1.456   4.201
59504SOL    HW178538  12.134   1.528   4.149
59504SOL    HW278539  12.176   1.476   4.299
59505SOL     OW78540  11.523   1.801   4.577
59505SOL    HW178541  11.573   1.715   4.583
59505SOL    HW278542  11.588   1.878   4.574
59506SOL     OW78543  12.399   1.550   5.230
59506SOL    HW178544  12.405   1.473   5.294
59506SOL    HW278545  12.347   1.524   5.150
59507SOL     OW78546  11.493   0.943   3.966
59507SOL    HW178547  11.575   0.982   3.924
59507SOL    HW278548  11.466   0.861   3.917
59508SOL     OW78549  11.633   1.266   5.451
59508SOL    HW178550  11.583   1.267   5.365
59508SOL    HW278551  11.570   1.248   5.527
59509SOL     OW78552  12.283   1.776   3.961
59509SOL    HW178553  12.223   1.714   4.011
59509SOL    HW278554  12.314   1.732   3.876
59510SOL     OW78555  11.374   0.285   5.222
59510SOL    HW178556  11.294   0.345   5.209
59510SOL    HW278557  11.364   0.236   5.308
59511SOL     OW78558  11.636   1.743   4.047
59511SOL    HW178559  11.669   1.782   4.133
59511SOL    HW278560  11.712   1.736   3.982
59512SOL     OW78561  12.572   0.107   4.150
59512SOL    HW178562  12.548   0.070   4.060
59512SOL    HW278563  12.671   0.123   4.154
59513SOL     OW78564  11.421   1.785   4.965
59513SOL    HW178565  11.478   1.720   5.015
59513SOL    HW278566  11.405   1.752   4.872
59514SOL     OW78567  12.112   1.698   4.628
59514SOL    HW178568  12.192   1.641   4.649
59514SOL    HW278569  12.063   1.658   4.551
59515SOL     OW78570  11.554   0.700   4.204
59515SOL    HW178571  11.599   0.610   4.201
59515SOL    HW278572  11.460   0.689   4.237
59516SOL     OW78573  11.786   0.122   3.841
59516SOL    HW178574  11.884   0.100   3.848
59516SOL    HW278575  11.755   0.105   3.748
59517SOL     OW78576  11.953   0.264   5.473
59517SOL    HW178577  12.020   0.203   5.516
59517SOL    HW278578  11.880   0.283   5.538
59518SOL     OW78579  12.060   1.514   4.919
59518SOL    HW178580  12.037   1.489   4.825
59518SOL    HW278581  12.121   1.445   4.958
59519SOL     OW78582  12.523   0.590   5.157
59519SOL    HW178583  12.551   0.547   5.242
59519SOL    HW278584  12.548   0.686   5.158
59520SOL     OW78585  11.975   1.402   4.648
59520SOL    HW178586  12.065   1.416   4.606
59520SOL    HW278587  11.904   1.404   4.577
59521SOL     OW78588  12.094   0.503   4.623
59521SOL    HW178589  12.069   0.494   4.527
59521SOL    HW278590  12.142   0.421   4.654
59522SOL     OW78591  11.711   0.064   4.236
59522SOL    HW178592  11.630   0.065   4.294
59522SOL    HW278593  11.714   0.147   4.181
59523SOL     OW78594  12.606   1.188   3.765
59523SOL    HW178595  12.638   1.112   3.822
59523SOL    HW278596  12.514   1.215   3.795
59524SOL     OW78597  11.469   0.035   3.895
59524SOL    HW178598  11.518   0.119   3.874
59524SOL    HW278599  11.531  -0.030   3.940
59525SOL     OW78600  12.107   0.236   4.204
59525SOL    HW178601  12.059   0.277   4.126
59525SOL    HW278602  12.206   0.234   4.185
59526SOL     OW78603  12.248   0.683   5.188
59526SOL    HW178604  12.168   0.622   5.191
59526SOL    HW278605  12.329   0.630   5.164
59527SOL     OW78606  12.399   1.570   4.517
59527SOL    HW178607  12.420   1.644   4.452
59527SOL    HW278608  12.467   1.570   4.590
59528SOL     OW78609  11.631   1.152   4.465
59528SOL    HW178610  11.560   1.125   4.530
59528SOL    HW278611  11.605   1.124   4.372
59529SOL     OW78612  12.443   1.797   4.315
59529SOL    HW178613  12.487   1.861   4.251
59529SOL    HW278614  12.393   1.849   4.385
59530SOL     OW78615  12.204   0.549   3.740
59530SOL    HW178616  12.163   0.631   3.701
59530SOL    HW278617  12.268   0.575   3.813
59531SOL     OW78618  11.250   0.556   5.110
59531SOL    HW178619  11.342   0.555   5.069
59531SOL    HW278620  11.244   0.630   5.177
59532SOL     OW78621  11.733   0.222   4.871
59532SOL    HW178622  11.771   0.138   4.908
59532SOL    HW278623  11.645   0.241   4.915
59533SOL     OW78624  12.038   0.454   4.366
59533SOL    HW178625  12.006   0.526   4.304
59533SOL    HW278626  12.062   0.373   4.313
59534SOL     OW78627  12.189   0.039   4.477
59534SOL    HW178628  12.117   0.044   4.408
59534SOL    HW278629  12.165  -0.030   4.546
59535SOL     OW78630  12.601   1.173   4.591
59535SOL    HW178631  12.546   1.089   4.584
59535SOL    HW278632  12.627   1.202   4.499
59536SOL     OW78633  11.660   1.385   3.898
59536SOL    HW178634  11.573   1.370   3.945
59536SOL    HW278635  11.643   1.411   3.803
59537SOL     OW78636  12.562   0.575   3.802
59537SOL    HW178637  12.508   0.554   3.883
59537SOL    HW278638  12.653   0.534   3.811
59538SOL     OW78639  11.699   0.256   4.052
59538SOL    HW178640  11.726   0.197   3.977
59538SOL    HW278641  11.699   0.351   4.021
59539SOL     OW78642  12.236   1.347   5.064
59539SOL    HW178643  12.156   1.324   5.119
59539SOL    HW278644  12.319   1.321   5.113
59540SOL     OW78645  12.764   1.629   5.349
59540SOL    HW178646  12.791   1.663   5.259
59540SOL    HW278647  12.843   1.591   5.395
59541SOL     OW78648  12.283   1.195   4.824
59541SOL    HW178649  12.243   1.239   4.905
59541SOL    HW278650  12.242   1.232   4.741
59542SOL     OW78651  12.087   0.089   5.126
59542SOL    HW178652  12.112   0.069   5.031
59542SOL    HW278653  12.159   0.145   5.168
59543SOL     OW78654  12.152   1.116   5.443
59543SOL    HW178655  12.053   1.122   5.453
59543SOL    HW278656  12.175   1.036   5.387
59544SOL     OW78657  11.877   1.050   4.092
59544SOL    HW178658  11.863   1.057   4.191
59544SOL    HW278659  11.961   0.999   4.074
59545SOL     OW78660  11.582   0.813   4.975
59545SOL    HW178661  11.668   0.825   5.025
59545SOL    HW278662  11.540   0.726   5.002
59546SOL     OW78663  12.446   0.386   4.986
59546SOL    HW178664  12.467   0.460   5.050
59546SOL    HW278665  12.357   0.403   4.943
59547SOL     OW78666  11.236   1.564   5.055
59547SOL    HW178667  11.190   1.646   5.021
59547SOL    HW278668  11.334   1.583   5.064
59548SOL     OW78669  11.539   1.100   4.225
59548SOL    HW178670  11.532   1.183   4.169
59548SOL    HW278671  11.543   1.020   4.165
59549SOL     OW78672  11.738   0.537   4.589
59549SOL    HW178673  11.750   0.603   4.515
59549SOL    HW278674  11.784   0.571   4.672
59550SOL     OW78675  12.424   1.348   4.112
59550SOL    HW178676  12.474   1.425   4.152
59550SOL    HW278677  12.329   1.350   4.144
59551SOL     OW78678  12.444   1.445   4.866
59551SOL    HW178679  12.491   1.458   4.953
59551SOL    HW278680  12.378   1.371   4.875
59552SOL     OW78681  11.526   1.510   5.053
59552SOL    HW178682  11.505   1.466   4.966
59552SOL    HW278683  11.623   1.536   5.056
59553SOL     OW78684  11.574   0.751   5.322
59553SOL    HW178685  11.642   0.806   5.275
59553SOL    HW278686  11.614   0.663   5.349
59554SOL     OW78687  12.185   0.105   5.494
59554SOL    HW178688  12.191   0.190   5.442
59554SOL    HW278689  12.217   0.029   5.437
59555SOL     OW78690  11.676   0.050   5.464
59555SOL    HW178691  11.634  -0.007   5.394
59555SOL    HW278692  11.610   0.119   5.496
59556SOL     OW78693  11.745   0.870   4.753
59556SOL    HW178694  11.789   0.959   4.744
59556SOL    HW278695  11.682   0.870   4.830
59557SOL     OW78696  12.532   0.862   4.769
59557SOL    HW178697  12.457   0.862   4.703
59557SOL    HW278698  12.569   0.770   4.778
59558SOL     OW78699  12.381   0.525   3.999
59558SOL    HW178700  12.394   0.441   4.053
59558SOL    HW278701  12.352   0.599   4.059
59559SOL     OW78702  11.479   0.213   4.955
59559SOL    HW178703  11.456   0.250   5.045
59559SOL    HW278704  11.449   0.118   4.949
59560SOL     OW78705  11.209   1.310   5.006
59560SOL    HW178706  11.262   1.261   5.074
59560SOL    HW278707  11.231   1.408   5.011
59561SOL     OW78708  11.904   0.634   4.788
59561SOL    HW178709  11.963   0.608   4.712
59561SOL    HW278710  11.876   0.730   4.777
59562SOL     OW78711  11.479   0.063   4.342
59562SOL    HW178712  11.468   0.157   4.375
59562SOL    HW278713  11.474   0.000   4.419
59563SOL     OW78714  12.794   0.367   4.098
59563SOL    HW178715  12.796   0.291   4.162
59563SOL    HW278716  12.746   0.444   4.138
59564SOL     OW78717  12.195   0.766   4.690
59564SOL    HW178718  12.210   0.787   4.786
59564SOL    HW278719  12.165   0.671   4.681
59565SOL     OW78720  12.152   1.573   5.424
59565SOL    HW178721  12.132   1.617   5.336
59565SOL    HW278722  12.191   1.482   5.408
59566SOL     OW78723  11.522   0.898   5.528
59566SOL    HW178724  11.598   0.942   5.576
59566SOL    HW278725  11.557   0.851   5.446
59567SOL     OW78726  12.475   0.838   3.766
59567SOL    HW178727  12.509   0.745   3.781
59567SOL    HW278728  12.493   0.865   3.671
59568SOL     OW78729  12.240   1.333   4.573
59568SOL    HW178730  12.247   1.249   4.518
59568SOL    HW278731  12.302   1.402   4.537
59569SOL     OW78732  11.491   0.810   4.673
59569SOL    HW178733  11.584   0.846   4.678
59569SOL    HW278734  11.485   0.725   4.725
59570SOL     OW78735  11.511   0.509   4.730
59570SOL    HW178736  11.459   0.426   4.713
59570SOL    HW278737  11.588   0.514   4.666
59571SOL     OW78738  12.310   0.380   5.402
59571SOL    HW178739  12.265   0.443   5.466
59571SOL    HW278740  12.403   0.411   5.385
59572SOL     OW78741  12.332   0.207   5.201
59572SOL    HW178742  12.332   0.271   5.278
59572SOL    HW278743  12.360   0.255   5.118
59573SOL     OW78744  11.180   1.326   3.924
59573SOL    HW178745  11.087   1.347   3.893
59573SOL    HW278746  11.190   1.227   3.937
59574SOL     OW78747  11.260   1.801   4.651
59574SOL    HW178748  11.218   1.715   4.624
59574SOL    HW278749  11.354   1.804   4.617
59575SOL     OW78750  11.676   1.568   4.634
59575SOL    HW178751  11.742   1.642   4.643
59575SOL    HW278752  11.720   1.489   4.592
59576SOL     OW78753  12.174   0.796   4.962
59576SOL    HW178754  12.215   0.764   5.048
59576SOL    HW278755  12.078   0.769   4.959
59577SOL     OW78756  11.212   0.544   4.838
59577SOL    HW178757  11.297   0.511   4.797
59577SOL    HW278758  11.225   0.559   4.936
59578SOL     OW78759  11.361   0.520   5.446
59578SOL    HW178760  11.420   0.480   5.376
59578SOL    HW278761  11.303   0.591   5.405
59579SOL     OW78762  12.541   0.950   5.384
59579SOL    HW178763  12.580   1.039   5.404
59579SOL    HW278764  12.551   0.930   5.287
59580SOL     OW78765  11.987   0.572   4.049
59580SOL    HW178766  11.994   0.483   4.003
59580SOL    HW278767  11.893   0.606   4.041
59581SOL     OW78768  11.424   1.564   5.468
59581SOL    HW178769  11.394   1.621   5.544
59581SOL    HW278770  11.417   1.467   5.494
59582SOL     OW78771  11.843   0.464   4.993
59582SOL    HW178772  11.809   0.375   4.963
59582SOL    HW278773  11.869   0.518   4.913
59583SOL     OW78774  12.102   1.678   5.189
59583SOL    HW178775  12.078   1.660   5.094
59583SOL    HW278776  12.132   1.772   5.199
59584SOL     OW78777  11.645   0.500   3.915
59584SOL    HW178778  11.706   0.580   3.919
59584SOL    HW278779  11.550   0.531   3.922
59585SOL     OW78780  11.331   1.137   5.190
59585SOL    HW178781  11.353   1.076   5.266
59585SOL    HW278782  11.341   1.088   5.104
59586SOL     OW78783  12.519   1.059   4.958
59586SOL    HW178784  12.543   0.996   4.884
59586SOL    HW278785  12.429   1.099   4.940
59587SOL     OW78786  12.474   0.855   4.033
59587SOL    HW178787  12.388   0.824   4.075
59587SOL    HW278788  12.470   0.841   3.934
59588SOL     OW78789  12.424   1.731   4.852
59588SOL    HW178790  12.508   1.736   4.798
59588SOL    HW278791  12.401   1.635   4.870
59589SOL     OW78792  11.255   1.258   4.746
59589SOL    HW178793  11.250   1.257   4.846
59589SOL    HW278794  11.172   1.217   4.708
59590SOL     OW78795  11.860   1.662   5.440
59590SOL    HW178796  11.804   1.743   5.449
59590SOL    HW278797  11.912   1.666   5.354
59591SOL     OW78798  12.560   1.573   4.201
59591SOL    HW178799  12.627   1.585   4.127
59591SOL    HW278800  12.520   1.662   4.224
59592SOL     OW78801  11.302   1.794   5.575
59592SOL    HW178802  11.261   1.720   5.628
59592SOL    HW278803  11.366   1.845   5.633
59593SOL     OW78804  12.452   0.927   4.396
59593SOL    HW178805  12.512   0.846   4.398
59593SOL    HW278806  12.492   0.996   4.336
59594SOL     OW78807  12.002   1.273   5.146
59594SOL    HW178808  11.997   1.306   5.241
59594SOL    HW278809  11.916   1.292   5.100
59595SOL     OW78810  11.844   1.616   3.878
59595SOL    HW178811  11.853   1.626   3.779
59595SOL    HW278812  11.804   1.527   3.899
59596SOL     OW78813  11.435   0.326   4.444
59596SOL    HW178814  11.356   0.377   4.410
59596SOL    HW278815  11.426   0.311   4.542
59597SOL     OW78816  12.366   1.612   3.755
59597SOL    HW178817  12.372   1.519   3.792
59597SOL    HW278818  12.307   1.612   3.675
59598SOL     OW78819  11.994   1.002   5.096
59598SOL    HW178820  12.034   1.001   5.004
59598SOL    HW278821  12.004   1.094   5.136
59599SOL     OW78822  12.088   0.910   4.015
59599SOL    HW178823  12.151   0.948   3.947
59599SOL    HW278824  12.128   0.827   4.054
59600SOL     OW78825  11.544   1.288   5.214
59600SOL    HW178826  11.531   1.381   5.180
59600SOL    HW278827  11.460   1.236   5.201
59601SOL     OW78828  12.211   1.098   4.420
59601SOL    HW178829  12.141   1.051   4.474
59601SOL    HW278830  12.270   1.030   4.377
59602SOL     OW78831  12.186   0.236   4.695
59602SOL    HW178832  12.178   0.200   4.602
59602SOL    HW278833  12.184   0.160   4.760
59603SOL     OW78834  11.762   1.487   4.215
59603SOL    HW178835  11.804   1.429   4.145
59603SOL    HW278836  11.718   1.566   4.171
59604SOL     OW78837  11.427   1.348   4.014
59604SOL    HW178838  11.331   1.349   3.987
59604SOL    HW278839  11.439   1.401   4.098
59605SOL     OW78840  11.277   1.013   5.450
59605SOL    HW178841  11.200   0.980   5.504
59605SOL    HW278842  11.362   0.983   5.492
59606SOL     OW78843  11.844   0.203   5.213
59606SOL    HW178844  11.934   0.187   5.173
59606SOL    HW278845  11.852   0.208   5.312
59607SOL     OW78846  11.247   0.345   3.757
59607SOL    HW178847  11.155   0.317   3.728
59607SOL    HW278848  11.278   0.422   3.701
59608SOL     OW78849  12.612   0.856   5.122
59608SOL    HW178850  12.555   0.908   5.059
59608SOL    HW278851  12.708   0.868   5.098
59609SOL     OW78852  11.244   0.166   4.042
59609SOL    HW178853  11.227   0.249   3.988
59609SOL    HW278854  11.334   0.129   4.020
59610SOL     OW78855  12.355   1.335   3.843
59610SOL    HW178856  12.256   1.324   3.845
59610SOL    HW278857  12.389   1.350   3.936
59611SOL     OW78858  11.785   0.842   5.155
59611SOL    HW178859  11.841   0.923   5.138
59611SOL    HW278860  11.844   0.762   5.158
59612SOL     OW78861  11.888   0.565   5.432
59612SOL    HW178862  11.907   0.630   5.506
59612SOL    HW278863  11.948   0.485   5.441
59613SOL     OW78864  12.622   1.220   5.357
59613SOL    HW178865  12.613   1.210   5.456
59613SOL    HW278866  12.718   1.213   5.331
59614SOL     OW78867  11.562   1.741   5.284
59614SOL    HW178868  11.471   1.782   5.282
59614SOL    HW278869  11.555   1.647   5.316
59615SOL     OW78870  12.397   0.325   4.173
59615SOL    HW178871  12.462   0.251   4.162
59615SOL    HW278872  12.417   0.375   4.257
59616SOL     OW78873  11.766   0.745   4.376
59616SOL    HW178874  11.816   0.830   4.357
59616SOL    HW278875  11.678   0.747   4.328
59617SOL     OW78876  12.031   1.374   3.740
59617SOL    HW178877  11.985   1.389   3.828
59617SOL    HW278878  12.075   1.459   3.710
59618SOL     OW78879  11.833   1.790   4.677
59618SOL    HW178880  11.787   1.878   4.664
59618SOL    HW278881  11.932   1.802   4.670
59619SOL     OW78882  12.031   0.956   4.585
59619SOL    HW178883  12.085   0.887   4.633
59619SOL    HW278884  11.999   1.025   4.651
59620SOL     OW78885  12.255   0.984   3.811
59620SOL    HW178886  12.232   1.037   3.729
59620SOL    HW278887  12.336   0.928   3.792
59621SOL     OW78888  11.393   1.314   5.568
59621SOL    HW178889  11.328   1.241   5.547
59621SOL    HW278890  11.397   1.328   5.666
59622SOL     OW78891  11.251   1.240   4.377
59622SOL    HW178892  11.250   1.193   4.465
59622SOL    HW278893  11.333   1.212   4.326
59623SOL     OW78894  11.844   1.391   5.348
59623SOL    HW178895  11.766   1.341   5.386
59623SOL    HW278896  11.841   1.486   5.379
59624SOL     OW78897  11.600   0.424   4.244
59624SOL    HW178898  11.630   0.352   4.182
59624SOL    HW278899  11.561   0.384   4.327
59625SOL     OW78900  12.877   1.487   4.828
59625SOL    HW178901  12.784   1.462   4.801
59625SOL    HW278902  12.903   1.437   4.910
59626SOL     OW78903  11.489   0.547   5.004
59626SOL    HW178904  11.527   0.488   5.076
59626SOL    HW278905  11.529   0.521   4.916
59627SOL     OW78906  11.984   1.586   4.411
59627SOL    HW178907  12.016   1.596   4.317
59627SOL    HW278908  11.905   1.524   4.413
59628SOL     OW78909  12.596   0.214   4.836
59628SOL    HW178910  12.648   0.149   4.891
59628SOL    HW278911  12.547   0.277   4.897
59629SOL     OW78912  12.173   0.034   4.878
59629SOL    HW178913  12.110  -0.038   4.847
59629SOL    HW278914  12.266  -0.002   4.878
59630SOL     OW78915  11.942   1.330   4.025
59630SOL    HW178916  11.896   1.243   4.042
59630SOL    HW278917  12.033   1.327   4.066
59631SOL     OW78918  11.790   1.567   5.008
59631SOL    HW178919  11.785   1.649   5.065
59631SOL    HW278920  11.879   1.564   4.963
59632SOL     OW78921  12.524   0.052   3.892
59632SOL    HW178922  12.559   0.011   3.808
59632SOL    HW278923  12.434   0.014   3.912
59633SOL     OW78924  12.472   0.453   4.415
59633SOL    HW178925  12.413   0.533   4.419
59633SOL    HW278926  12.487   0.418   4.508
59634SOL     OW78927  11.211   1.077   4.024
59634SOL    HW178928  11.310   1.066   4.015
59634SOL    HW278929  11.171   0.991   4.056
59635SOL     OW78930  12.047   1.646   4.061
59635SOL    HW178931  11.970   1.611   4.007
59635SOL    HW278932  12.015   1.717   4.123
59636SOL     OW78933  11.402   0.628   5.699
59636SOL    HW178934  11.309   0.626   5.736
59636SOL    HW278935  11.403   0.589   5.607
59637SOL     OW78936  11.397   0.275   6.582
59637SOL    HW178937  11.432   0.258   6.674
59637SOL    HW278938  11.309   0.230   6.570
59638SOL     OW78939  11.191   0.368   6.233
59638SOL    HW178940  11.109   0.411   6.272
59638SOL    HW278941  11.163   0.295   6.170
59639SOL     OW78942  11.741   1.275   6.751
59639SOL    HW178943  11.648   1.268   6.714
59639SOL    HW278944  11.752   1.364   6.795
59640SOL     OW78945  12.727   1.511   6.289
59640SOL    HW178946  12.670   1.495   6.370
59640SOL    HW278947  12.668   1.521   6.209
59641SOL     OW78948  12.307   0.703   6.303
59641SOL    HW178949  12.364   0.781   6.278
59641SOL    HW278950  12.247   0.729   6.379
59642SOL     OW78951  11.940   1.144   6.609
59642SOL    HW178952  11.862   1.161   6.669
59642SOL    HW278953  11.974   1.231   6.573
59643SOL     OW78954  12.022   0.798   7.409
59643SOL    HW178955  12.018   0.874   7.474
59643SOL    HW278956  12.044   0.834   7.318
59644SOL     OW78957  11.857   1.012   6.251
59644SOL    HW178958  11.926   0.996   6.321
59644SOL    HW278959  11.784   1.069   6.289
59645SOL     OW78960  11.858   1.161   7.389
59645SOL    HW178961  11.918   1.240   7.403
59645SOL    HW278962  11.772   1.192   7.348
59646SOL     OW78963  11.507   1.435   6.647
59646SOL    HW178964  11.429   1.404   6.594
59646SOL    HW278965  11.565   1.493   6.590
59647SOL     OW78966  11.610   0.392   7.085
59647SOL    HW178967  11.692   0.336   7.094
59647SOL    HW278968  11.529   0.334   7.089
59648SOL     OW78969  11.403   1.713   6.069
59648SOL    HW178970  11.437   1.790   6.123
59648SOL    HW278971  11.447   1.713   5.979
59649SOL     OW78972  12.299   1.341   7.276
59649SOL    HW178973  12.346   1.341   7.364
59649SOL    HW278974  12.251   1.254   7.265
59650SOL     OW78975  11.402   1.434   6.124
59650SOL    HW178976  11.376   1.530   6.124
59650SOL    HW278977  11.331   1.380   6.169
59651SOL     OW78978  11.412   1.091   6.472
59651SOL    HW178979  11.426   1.007   6.524
59651SOL    HW278980  11.357   1.155   6.527
59652SOL     OW78981  11.792   1.786   7.025
59652SOL    HW178982  11.700   1.769   7.060
59652SOL    HW278983  11.820   1.878   7.051
59653SOL     OW78984  11.778   0.964   5.709
59653SOL    HW178985  11.785   1.048   5.655
59653SOL    HW278986  11.824   0.977   5.797
59654SOL     OW78987  12.766   0.114   7.066
59654SOL    HW178988  12.748   0.181   6.994
59654SOL    HW278989  12.763   0.160   7.155
59655SOL     OW78990  11.294   0.643   6.149
59655SOL    HW178991  11.249   0.555   6.166
59655SOL    HW278992  11.293   0.697   6.233
59656SOL     OW78993  11.199   1.596   5.703
59656SOL    HW178994  11.180   1.500   5.724
59656SOL    HW278995  11.166   1.654   5.778
59657SOL     OW78996  12.861   0.922   6.198
59657SOL    HW178997  12.956   0.893   6.206
59657SOL    HW278998  12.853   0.987   6.123
59658SOL     OW78999  11.285   0.737   7.183
59658SOL    HW179000  11.373   0.724   7.228
59658SOL    HW279001  11.272   0.834   7.161
59659SOL     OW79002  11.785   1.365   6.312
59659SOL    HW179003  11.736   1.278   6.321
59659SOL    HW279004  11.762   1.408   6.225
59660SOL     OW79005  12.465   1.228   7.009
59660SOL    HW179006  12.502   1.155   6.951
59660SOL    HW279007  12.517   1.233   7.094
59661SOL     OW79008  11.981   0.004   6.088
59661SOL    HW179009  12.021   0.095   6.079
59661SOL    HW279010  11.881   0.012   6.094
59662SOL     OW79011  11.369   0.976   6.850
59662SOL    HW179012  11.458   0.931   6.836
59662SOL    HW279013  11.296   0.911   6.831
59663SOL     OW79014  12.359   1.792   7.202
59663SOL    HW179015  12.383   1.852   7.126
59663SOL    HW279016  12.366   1.697   7.172
59664SOL     OW79017  11.489   0.251   7.387
59664SOL    HW179018  11.560   0.322   7.393
59664SOL    HW279019  11.401   0.290   7.415
59665SOL     OW79020  12.638   1.417   6.539
59665SOL    HW179021  12.579   1.423   6.619
59665SOL    HW279022  12.623   1.329   6.493
59666SOL     OW79023  11.770   0.729   5.856
59666SOL    HW179024  11.794   0.798   5.788
59666SOL    HW279025  11.692   0.762   5.910
59667SOL     OW79026  12.453   0.345   6.530
59667SOL    HW179027  12.367   0.295   6.517
59667SOL    HW279028  12.515   0.291   6.586
59668SOL     OW79029  11.979   0.605   7.051
59668SOL    HW179030  11.932   0.602   7.140
59668SOL    HW279031  11.928   0.550   6.985
59669SOL     OW79032  12.566   0.469   7.260
59669SOL    HW179033  12.546   0.512   7.348
59669SOL    HW279034  12.644   0.407   7.269
59670SOL     OW79035  12.145   0.890   7.158
59670SOL    HW179036  12.191   0.806   7.129
59670SOL    HW279037  12.089   0.924   7.083
59671SOL     OW79038  12.163   0.410   6.828
59671SOL    HW179039  12.086   0.444   6.882
59671SOL    HW279040  12.129   0.359   6.749
59672SOL     OW79041  12.213   0.701   6.015
59672SOL    HW179042  12.239   0.697   6.111
59672SOL    HW279043  12.128   0.650   6.001
59673SOL     OW79044  11.248   0.811   6.375
59673SOL    HW179045  11.347   0.799   6.384
59673SOL    HW279046  11.224   0.906   6.396
59674SOL     OW79047  11.302   1.821   7.157
59674SOL    HW179048  11.292   1.806   7.256
59674SOL    HW279049  11.216   1.857   7.121
59675SOL     OW79050  12.037   0.348   5.781
59675SOL    HW179051  12.096   0.411   5.732
59675SOL    HW279052  12.056   0.254   5.752
59676SOL     OW79053  12.534   1.144   6.131
59676SOL    HW179054  12.617   1.115   6.083
59676SOL    HW279055  12.485   1.211   6.075
59677SOL     OW79056  11.722   0.196   6.471
59677SOL    HW179057  11.717   0.191   6.571
59677SOL    HW279058  11.724   0.292   6.442
59678SOL     OW79059  12.180   1.456   6.063
59678SOL    HW179060  12.134   1.528   6.011
59678SOL    HW279061  12.176   1.476   6.161
59679SOL     OW79062  11.523   1.801   6.439
59679SOL    HW179063  11.573   1.715   6.445
59679SOL    HW279064  11.588   1.878   6.436
59680SOL     OW79065  12.399   1.550   7.092
59680SOL    HW179066  12.405   1.473   7.156
59680SOL    HW279067  12.347   1.524   7.012
59681SOL     OW79068  11.493   0.943   5.828
59681SOL    HW179069  11.575   0.982   5.786
59681SOL    HW279070  11.466   0.861   5.779
59682SOL     OW79071  11.633   1.266   7.313
59682SOL    HW179072  11.583   1.267   7.227
59682SOL    HW279073  11.570   1.248   7.389
59683SOL     OW79074  12.283   1.776   5.823
59683SOL    HW179075  12.223   1.714   5.873
59683SOL    HW279076  12.314   1.732   5.738
59684SOL     OW79077  11.374   0.285   7.084
59684SOL    HW179078  11.294   0.345   7.071
59684SOL    HW279079  11.364   0.236   7.170
59685SOL     OW79080  11.636   1.743   5.909
59685SOL    HW179081  11.669   1.782   5.995
59685SOL    HW279082  11.712   1.736   5.844
59686SOL     OW79083  12.572   0.107   6.012
59686SOL    HW179084  12.548   0.070   5.922
59686SOL    HW279085  12.671   0.123   6.016
59687SOL     OW79086  11.421   1.785   6.827
59687SOL    HW179087  11.478   1.720   6.877
59687SOL    HW279088  11.405   1.752   6.734
59688SOL     OW79089  12.112   1.698   6.490
59688SOL    HW179090  12.192   1.641   6.511
59688SOL    HW279091  12.063   1.658   6.413
59689SOL     OW79092  11.554   0.700   6.066
59689SOL    HW179093  11.599   0.610   6.063
59689SOL    HW279094  11.460   0.689   6.099
59690SOL     OW79095  11.786   0.122   5.703
59690SOL    HW179096  11.884   0.100   5.710
59690SOL    HW279097  11.755   0.105   5.610
59691SOL     OW79098  11.953   0.264   7.335
59691SOL    HW179099  12.020   0.203   7.378
59691SOL    HW279100  11.880   0.283   7.400
59692SOL     OW79101  12.060   1.514   6.781
59692SOL    HW179102  12.037   1.489   6.687
59692SOL    HW279103  12.121   1.445   6.820
59693SOL     OW79104  12.523   0.590   7.019
59693SOL    HW179105  12.551   0.547   7.104
59693SOL    HW279106  12.548   0.686   7.020
59694SOL     OW79107  11.975   1.402   6.510
59694SOL    HW179108  12.065   1.416   6.468
59694SOL    HW279109  11.904   1.404   6.439
59695SOL     OW79110  12.094   0.503   6.485
59695SOL    HW179111  12.069   0.494   6.389
59695SOL    HW279112  12.142   0.421   6.516
59696SOL     OW79113  11.711   0.064   6.098
59696SOL    HW179114  11.630   0.065   6.156
59696SOL    HW279115  11.714   0.147   6.043
59697SOL     OW79116  12.606   1.188   5.627
59697SOL    HW179117  12.638   1.112   5.684
59697SOL    HW279118  12.514   1.215   5.657
59698SOL     OW79119  11.469   0.035   5.757
59698SOL    HW179120  11.518   0.119   5.736
59698SOL    HW279121  11.531  -0.030   5.802
59699SOL     OW79122  12.107   0.236   6.066
59699SOL    HW179123  12.059   0.277   5.988
59699SOL    HW279124  12.206   0.234   6.047
59700SOL     OW79125  12.248   0.683   7.050
59700SOL    HW179126  12.168   0.622   7.053
59700SOL    HW279127  12.329   0.630   7.026
59701SOL     OW79128  12.399   1.570   6.379
59701SOL    HW179129  12.420   1.644   6.314
59701SOL    HW279130  12.467   1.570   6.452
59702SOL     OW79131  11.631   1.152   6.327
59702SOL    HW179132  11.560   1.125   6.392
59702SOL    HW279133  11.605   1.124   6.234
59703SOL     OW79134  12.443   1.797   6.177
59703SOL    HW179135  12.487   1.861   6.113
59703SOL    HW279136  12.393   1.849   6.247
59704SOL     OW79137  12.204   0.549   5.602
59704SOL    HW179138  12.163   0.631   5.563
59704SOL    HW279139  12.268   0.575   5.675
59705SOL     OW79140  11.250   0.556   6.972
59705SOL    HW179141  11.342   0.555   6.931
59705SOL    HW279142  11.244   0.630   7.039
59706SOL     OW79143  11.733   0.222   6.733
59706SOL    HW179144  11.771   0.138   6.770
59706SOL    HW279145  11.645   0.241   6.777
59707SOL     OW79146  12.038   0.454   6.228
59707SOL    HW179147  12.006   0.526   6.166
59707SOL    HW279148  12.062   0.373   6.175
59708SOL     OW79149  12.189   0.039   6.339
59708SOL    HW179150  12.117   0.044   6.270
59708SOL    HW279151  12.165  -0.030   6.408
59709SOL     OW79152  12.601   1.173   6.453
59709SOL    HW179153  12.546   1.089   6.446
59709SOL    HW279154  12.627   1.202   6.361
59710SOL     OW79155  11.660   1.385   5.760
59710SOL    HW179156  11.573   1.370   5.807
59710SOL    HW279157  11.643   1.411   5.665
59711SOL     OW79158  12.562   0.575   5.664
59711SOL    HW179159  12.508   0.554   5.745
59711SOL    HW279160  12.653   0.534   5.673
59712SOL     OW79161  11.699   0.256   5.914
59712SOL    HW179162  11.726   0.197   5.839
59712SOL    HW279163  11.699   0.351   5.883
59713SOL     OW79164  12.236   1.347   6.926
59713SOL    HW179165  12.156   1.324   6.981
59713SOL    HW279166  12.319   1.321   6.975
59714SOL     OW79167  12.764   1.629   7.211
59714SOL    HW179168  12.791   1.663   7.121
59714SOL    HW279169  12.843   1.591   7.257
59715SOL     OW79170  12.283   1.195   6.686
59715SOL    HW179171  12.243   1.239   6.767
59715SOL    HW279172  12.242   1.232   6.603
59716SOL     OW79173  12.087   0.089   6.988
59716SOL    HW179174  12.112   0.069   6.893
59716SOL    HW279175  12.159   0.145   7.030
59717SOL     OW79176  12.152   1.116   7.305
59717SOL    HW179177  12.053   1.122   7.315
59717SOL    HW279178  12.175   1.036   7.249
59718SOL     OW79179  11.877   1.050   5.954
59718SOL    HW179180  11.863   1.057   6.053
59718SOL    HW279181  11.961   0.999   5.936
59719SOL     OW79182  11.582   0.813   6.837
59719SOL    HW179183  11.668   0.825   6.887
59719SOL    HW279184  11.540   0.726   6.864
59720SOL     OW79185  12.446   0.386   6.848
59720SOL    HW179186  12.467   0.460   6.912
59720SOL    HW279187  12.357   0.403   6.805
59721SOL     OW79188  11.236   1.564   6.917
59721SOL    HW179189  11.190   1.646   6.883
59721SOL    HW279190  11.334   1.583   6.926
59722SOL     OW79191  11.539   1.100   6.087
59722SOL    HW179192  11.532   1.183   6.031
59722SOL    HW279193  11.543   1.020   6.027
59723SOL     OW79194  11.738   0.537   6.451
59723SOL    HW179195  11.750   0.603   6.377
59723SOL    HW279196  11.784   0.571   6.534
59724SOL     OW79197  12.424   1.348   5.974
59724SOL    HW179198  12.474   1.425   6.014
59724SOL    HW279199  12.329   1.350   6.006
59725SOL     OW79200  12.444   1.445   6.728
59725SOL    HW179201  12.491   1.458   6.815
59725SOL    HW279202  12.378   1.371   6.737
59726SOL     OW79203  11.526   1.510   6.915
59726SOL    HW179204  11.505   1.466   6.828
59726SOL    HW279205  11.623   1.536   6.918
59727SOL     OW79206  11.574   0.751   7.184
59727SOL    HW179207  11.642   0.806   7.137
59727SOL    HW279208  11.614   0.663   7.211
59728SOL     OW79209  12.185   0.105   7.356
59728SOL    HW179210  12.191   0.190   7.304
59728SOL    HW279211  12.217   0.029   7.299
59729SOL     OW79212  11.676   0.050   7.326
59729SOL    HW179213  11.634  -0.007   7.256
59729SOL    HW279214  11.610   0.119   7.358
59730SOL     OW79215  11.745   0.870   6.615
59730SOL    HW179216  11.789   0.959   6.606
59730SOL    HW279217  11.682   0.870   6.692
59731SOL     OW79218  12.532   0.862   6.631
59731SOL    HW179219  12.457   0.862   6.565
59731SOL    HW279220  12.569   0.770   6.640
59732SOL     OW79221  12.381   0.525   5.861
59732SOL    HW179222  12.394   0.441   5.915
59732SOL    HW279223  12.352   0.599   5.921
59733SOL     OW79224  11.479   0.213   6.817
59733SOL    HW179225  11.456   0.250   6.907
59733SOL    HW279226  11.449   0.118   6.811
59734SOL     OW79227  11.209   1.310   6.868
59734SOL    HW179228  11.262   1.261   6.936
59734SOL    HW279229  11.231   1.408   6.873
59735SOL     OW79230  11.904   0.634   6.650
59735SOL    HW179231  11.963   0.608   6.574
59735SOL    HW279232  11.876   0.730   6.639
59736SOL     OW79233  11.479   0.063   6.204
59736SOL    HW179234  11.468   0.157   6.237
59736SOL    HW279235  11.474   0.000   6.281
59737SOL     OW79236  12.794   0.367   5.960
59737SOL    HW179237  12.796   0.291   6.024
59737SOL    HW279238  12.746   0.444   6.000
59738SOL     OW79239  12.195   0.766   6.552
59738SOL    HW179240  12.210   0.787   6.648
59738SOL    HW279241  12.165   0.671   6.543
59739SOL     OW79242  12.152   1.573   7.286
59739SOL    HW179243  12.132   1.617   7.198
59739SOL    HW279244  12.191   1.482   7.270
59740SOL     OW79245  11.522   0.898   7.390
59740SOL    HW179246  11.598   0.942   7.438
59740SOL    HW279247  11.557   0.851   7.308
59741SOL     OW79248  12.475   0.838   5.628
59741SOL    HW179249  12.509   0.745   5.643
59741SOL    HW279250  12.493   0.865   5.533
59742SOL     OW79251  12.240   1.333   6.435
59742SOL    HW179252  12.247   1.249   6.380
59742SOL    HW279253  12.302   1.402   6.399
59743SOL     OW79254  11.491   0.810   6.535
59743SOL    HW179255  11.584   0.846   6.540
59743SOL    HW279256  11.485   0.725   6.587
59744SOL     OW79257  11.511   0.509   6.592
59744SOL    HW179258  11.459   0.426   6.575
59744SOL    HW279259  11.588   0.514   6.528
59745SOL     OW79260  12.310   0.380   7.264
59745SOL    HW179261  12.265   0.443   7.328
59745SOL    HW279262  12.403   0.411   7.247
59746SOL     OW79263  12.332   0.207   7.063
59746SOL    HW179264  12.332   0.271   7.140
59746SOL    HW279265  12.360   0.255   6.980
59747SOL     OW79266  11.180   1.326   5.786
59747SOL    HW179267  11.087   1.347   5.755
59747SOL    HW279268  11.190   1.227   5.799
59748SOL     OW79269  11.260   1.801   6.513
59748SOL    HW179270  11.218   1.715   6.486
59748SOL    HW279271  11.354   1.804   6.479
59749SOL     OW79272  11.676   1.568   6.496
59749SOL    HW179273  11.742   1.642   6.505
59749SOL    HW279274  11.720   1.489   6.454
59750SOL     OW79275  12.174   0.796   6.824
59750SOL    HW179276  12.215   0.764   6.910
59750SOL    HW279277  12.078   0.769   6.821
59751SOL     OW79278  11.212   0.544   6.700
59751SOL    HW179279  11.297   0.511   6.659
59751SOL    HW279280  11.225   0.559   6.798
59752SOL     OW79281  11.361   0.520   7.308
59752SOL    HW179282  11.420   0.480   7.238
59752SOL    HW279283  11.303   0.591   7.267
59753SOL     OW79284  12.541   0.950   7.246
59753SOL    HW179285  12.580   1.039   7.266
59753SOL    HW279286  12.551   0.930   7.149
59754SOL     OW79287  11.987   0.572   5.911
59754SOL    HW179288  11.994   0.483   5.865
59754SOL    HW279289  11.893   0.606   5.903
59755SOL     OW79290  11.424   1.564   7.330
59755SOL    HW179291  11.394   1.621   7.406
59755SOL    HW279292  11.417   1.467   7.356
59756SOL     OW79293  11.843   0.464   6.855
59756SOL    HW179294  11.809   0.375   6.825
59756SOL    HW279295  11.869   0.518   6.775
59757SOL     OW79296  12.102   1.678   7.051
59757SOL    HW179297  12.078   1.660   6.956
59757SOL    HW279298  12.132   1.772   7.061
59758SOL     OW79299  11.645   0.500   5.777
59758SOL    HW179300  11.706   0.580   5.781
59758SOL    HW279301  11.550   0.531   5.784
59759SOL     OW79302  11.331   1.137   7.052
59759SOL    HW179303  11.353   1.076   7.128
59759SOL    HW279304  11.341   1.088   6.966
59760SOL     OW79305  12.519   1.059   6.820
59760SOL    HW179306  12.543   0.996   6.746
59760SOL    HW279307  12.429   1.099   6.802
59761SOL     OW79308  12.474   0.855   5.895
59761SOL    HW179309  12.388   0.824   5.937
59761SOL    HW279310  12.470   0.841   5.796
59762SOL     OW79311  12.424   1.731   6.714
59762SOL    HW179312  12.508   1.736   6.660
59762SOL    HW279313  12.401   1.635   6.732
59763SOL     OW79314  11.255   1.258   6.608
59763SOL    HW179315  11.250   1.257   6.708
59763SOL    HW279316  11.172   1.217   6.570
59764SOL     OW79317  11.860   1.662   7.302
59764SOL    HW179318  11.804   1.743   7.311
59764SOL    HW279319  11.912   1.666   7.216
59765SOL     OW79320  12.560   1.573   6.063
59765SOL    HW179321  12.627   1.585   5.989
59765SOL    HW279322  12.520   1.662   6.086
59766SOL     OW79323  11.302   1.794   7.437
59766SOL    HW179324  11.261   1.720   7.490
59766SOL    HW279325  11.366   1.845   7.495
59767SOL     OW79326  12.452   0.927   6.258
59767SOL    HW179327  12.512   0.846   6.260
59767SOL    HW279328  12.492   0.996   6.198
59768SOL     OW79329  12.002   1.273   7.008
59768SOL    HW179330  11.997   1.306   7.103
59768SOL    HW279331  11.916   1.292   6.962
59769SOL     OW79332  11.844   1.616   5.740
59769SOL    HW179333  11.853   1.626   5.641
59769SOL    HW279334  11.804   1.527   5.761
59770SOL     OW79335  11.435   0.326   6.306
59770SOL    HW179336  11.356   0.377   6.272
59770SOL    HW279337  11.426   0.311   6.404
59771SOL     OW79338  12.366   1.612   5.617
59771SOL    HW179339  12.372   1.519   5.654
59771SOL    HW279340  12.307   1.612   5.537
59772SOL     OW79341  11.994   1.002   6.958
59772SOL    HW179342  12.034   1.001   6.866
59772SOL    HW279343  12.004   1.094   6.998
59773SOL     OW79344  12.088   0.910   5.877
59773SOL    HW179345  12.151   0.948   5.809
59773SOL    HW279346  12.128   0.827   5.916
59774SOL     OW79347  11.544   1.288   7.076
59774SOL    HW179348  11.531   1.381   7.042
59774SOL    HW279349  11.460   1.236   7.063
59775SOL     OW79350  12.211   1.098   6.282
59775SOL    HW179351  12.141   1.051   6.336
59775SOL    HW279352  12.270   1.030   6.239
59776SOL     OW79353  12.186   0.236   6.557
59776SOL    HW179354  12.178   0.200   6.464
59776SOL    HW279355  12.184   0.160   6.622
59777SOL     OW79356  11.762   1.487   6.077
59777SOL    HW179357  11.804   1.429   6.007
59777SOL    HW279358  11.718   1.566   6.033
59778SOL     OW79359  11.427   1.348   5.876
59778SOL    HW179360  11.331   1.349   5.849
59778SOL    HW279361  11.439   1.401   5.960
59779SOL     OW79362  11.277   1.013   7.312
59779SOL    HW179363  11.200   0.980   7.366
59779SOL    HW279364  11.362   0.983   7.354
59780SOL     OW79365  11.844   0.203   7.075
59780SOL    HW179366  11.934   0.187   7.035
59780SOL    HW279367  11.852   0.208   7.174
59781SOL     OW79368  11.247   0.345   5.619
59781SOL    HW179369  11.155   0.317   5.590
59781SOL    HW279370  11.278   0.422   5.563
59782SOL     OW79371  12.612   0.856   6.984
59782SOL    HW179372  12.555   0.908   6.921
59782SOL    HW279373  12.708   0.868   6.960
59783SOL     OW79374  11.244   0.166   5.904
59783SOL    HW179375  11.227   0.249   5.850
59783SOL    HW279376  11.334   0.129   5.882
59784SOL     OW79377  12.355   1.335   5.705
59784SOL    HW179378  12.256   1.324   5.707
59784SOL    HW279379  12.389   1.350   5.798
59785SOL     OW79380  11.785   0.842   7.017
59785SOL    HW179381  11.841   0.923   7.000
59785SOL    HW279382  11.844   0.762   7.020
59786SOL     OW79383  11.888   0.565   7.294
59786SOL    HW179384  11.907   0.630   7.368
59786SOL    HW279385  11.948   0.485   7.303
59787SOL     OW79386  12.622   1.220   7.219
59787SOL    HW179387  12.613   1.210   7.318
59787SOL    HW279388  12.718   1.213   7.193
59788SOL     OW79389  11.562   1.741   7.146
59788SOL    HW179390  11.471   1.782   7.144
59788SOL    HW279391  11.555   1.647   7.178
59789SOL     OW79392  12.397   0.325   6.035
59789SOL    HW179393  12.462   0.251   6.024
59789SOL    HW279394  12.417   0.375   6.119
59790SOL     OW79395  11.766   0.745   6.238
59790SOL    HW179396  11.816   0.830   6.219
59790SOL    HW279397  11.678   0.747   6.190
59791SOL     OW79398  12.031   1.374   5.602
59791SOL    HW179399  11.985   1.389   5.690
59791SOL    HW279400  12.075   1.459   5.572
59792SOL     OW79401  11.833   1.790   6.539
59792SOL    HW179402  11.787   1.878   6.526
59792SOL    HW279403  11.932   1.802   6.532
59793SOL     OW79404  12.031   0.956   6.447
59793SOL    HW179405  12.085   0.887   6.495
59793SOL    HW279406  11.999   1.025   6.513
59794SOL     OW79407  12.255   0.984   5.673
59794SOL    HW179408  12.232   1.037   5.591
59794SOL    HW279409  12.336   0.928   5.654
59795SOL     OW79410  11.393   1.314   7.430
59795SOL    HW179411  11.328   1.241   7.409
59795SOL    HW279412  11.397   1.328   7.528
59796SOL     OW79413  11.251   1.240   6.239
59796SOL    HW179414  11.250   1.193   6.327
59796SOL    HW279415  11.333   1.212   6.188
59797SOL     OW79416  11.844   1.391   7.210
59797SOL    HW179417  11.766   1.341   7.248
59797SOL    HW279418  11.841   1.486   7.241
59798SOL     OW79419  11.600   0.424   6.106
59798SOL    HW179420  11.630   0.352   6.044
59798SOL    HW279421  11.561   0.384   6.189
59799SOL     OW79422  12.877   1.487   6.690
59799SOL    HW179423  12.784   1.462   6.663
59799SOL    HW279424  12.903   1.437   6.772
59800SOL     OW79425  11.489   0.547   6.866
59800SOL    HW179426  11.527   0.488   6.938
59800SOL    HW279427  11.529   0.521   6.778
59801SOL     OW79428  11.984   1.586   6.273
59801SOL    HW179429  12.016   1.596   6.179
59801SOL    HW279430  11.905   1.524   6.275
59802SOL     OW79431  12.596   0.214   6.698
59802SOL    HW179432  12.648   0.149   6.753
59802SOL    HW279433  12.547   0.277   6.759
59803SOL     OW79434  12.173   0.034   6.740
59803SOL    HW179435  12.110  -0.038   6.709
59803SOL    HW279436  12.266  -0.002   6.740
59804SOL     OW79437  11.942   1.330   5.887
59804SOL    HW179438  11.896   1.243   5.904
59804SOL    HW279439  12.033   1.327   5.928
59805SOL     OW79440  11.790   1.567   6.870
59805SOL    HW179441  11.785   1.649   6.927
59805SOL    HW279442  11.879   1.564   6.825
59806SOL     OW79443  12.524   0.052   5.754
59806SOL    HW179444  12.559   0.011   5.670
59806SOL    HW279445  12.434   0.014   5.774
59807SOL     OW79446  12.472   0.453   6.277
59807SOL    HW179447  12.413   0.533   6.281
59807SOL    HW279448  12.487   0.418   6.370
59808SOL     OW79449  11.211   1.077   5.886
59808SOL    HW179450  11.310   1.066   5.877
59808SOL    HW279451  11.171   0.991   5.918
59809SOL     OW79452  12.047   1.646   5.923
59809SOL    HW179453  11.970   1.611   5.869
59809SOL    HW279454  12.015   1.717   5.985
59810SOL     OW79455  11.402   0.628   7.561
59810SOL    HW179456  11.309   0.626   7.598
59810SOL    HW279457  11.403   0.589   7.469
59811SOL     OW79458  11.397   0.275   8.444
59811SOL    HW179459  11.432   0.258   8.536
59811SOL    HW279460  11.309   0.230   8.432
59812SOL     OW79461  11.191   0.368   8.095
59812SOL    HW179462  11.109   0.411   8.134
59812SOL    HW279463  11.163   0.295   8.032
59813SOL     OW79464  11.741   1.275   8.613
59813SOL    HW179465  11.648   1.268   8.576
59813SOL    HW279466  11.752   1.364   8.657
59814SOL     OW79467  12.727   1.511   8.151
59814SOL    HW179468  12.670   1.495   8.232
59814SOL    HW279469  12.668   1.521   8.071
59815SOL     OW79470  12.307   0.703   8.165
59815SOL    HW179471  12.364   0.781   8.140
59815SOL    HW279472  12.247   0.729   8.241
59816SOL     OW79473  11.940   1.144   8.471
59816SOL    HW179474  11.862   1.161   8.531
59816SOL    HW279475  11.974   1.231   8.435
59817SOL     OW79476  12.022   0.798   9.271
59817SOL    HW179477  12.018   0.874   9.336
59817SOL    HW279478  12.044   0.834   9.180
59818SOL     OW79479  11.857   1.012   8.113
59818SOL    HW179480  11.926   0.996   8.183
59818SOL    HW279481  11.784   1.069   8.151
59819SOL     OW79482  11.858   1.161   9.251
59819SOL    HW179483  11.918   1.240   9.265
59819SOL    HW279484  11.772   1.192   9.210
59820SOL     OW79485  11.507   1.435   8.509
59820SOL    HW179486  11.429   1.404   8.456
59820SOL    HW279487  11.565   1.493   8.452
59821SOL     OW79488  11.610   0.392   8.947
59821SOL    HW179489  11.692   0.336   8.956
59821SOL    HW279490  11.529   0.334   8.951
59822SOL     OW79491  11.403   1.713   7.931
59822SOL    HW179492  11.437   1.790   7.985
59822SOL    HW279493  11.447   1.713   7.841
59823SOL     OW79494  12.299   1.341   9.138
59823SOL    HW179495  12.346   1.341   9.226
59823SOL    HW279496  12.251   1.254   9.127
59824SOL     OW79497  11.402   1.434   7.986
59824SOL    HW179498  11.376   1.530   7.986
59824SOL    HW279499  11.331   1.380   8.031
59825SOL     OW79500  11.412   1.091   8.334
59825SOL    HW179501  11.426   1.007   8.386
59825SOL    HW279502  11.357   1.155   8.389
59826SOL     OW79503  11.792   1.786   8.887
59826SOL    HW179504  11.700   1.769   8.922
59826SOL    HW279505  11.820   1.878   8.913
59827SOL     OW79506  11.778   0.964   7.571
59827SOL    HW179507  11.785   1.048   7.517
59827SOL    HW279508  11.824   0.977   7.659
59828SOL     OW79509  12.766   0.114   8.928
59828SOL    HW179510  12.748   0.181   8.856
59828SOL    HW279511  12.763   0.160   9.017
59829SOL     OW79512  11.294   0.643   8.011
59829SOL    HW179513  11.249   0.555   8.028
59829SOL    HW279514  11.293   0.697   8.095
59830SOL     OW79515  11.199   1.596   7.565
59830SOL    HW179516  11.180   1.500   7.586
59830SOL    HW279517  11.166   1.654   7.640
59831SOL     OW79518  12.861   0.922   8.060
59831SOL    HW179519  12.956   0.893   8.068
59831SOL    HW279520  12.853   0.987   7.985
59832SOL     OW79521  11.285   0.737   9.045
59832SOL    HW179522  11.373   0.724   9.090
59832SOL    HW279523  11.272   0.834   9.023
59833SOL     OW79524  11.785   1.365   8.174
59833SOL    HW179525  11.736   1.278   8.183
59833SOL    HW279526  11.762   1.408   8.087
59834SOL     OW79527  12.465   1.228   8.871
59834SOL    HW179528  12.502   1.155   8.813
59834SOL    HW279529  12.517   1.233   8.956
59835SOL     OW79530  11.981   0.004   7.950
59835SOL    HW179531  12.021   0.095   7.941
59835SOL    HW279532  11.881   0.012   7.956
59836SOL     OW79533  11.369   0.976   8.712
59836SOL    HW179534  11.458   0.931   8.698
59836SOL    HW279535  11.296   0.911   8.693
59837SOL     OW79536  12.359   1.792   9.064
59837SOL    HW179537  12.383   1.852   8.988
59837SOL    HW279538  12.366   1.697   9.034
59838SOL     OW79539  11.489   0.251   9.249
59838SOL    HW179540  11.560   0.322   9.255
59838SOL    HW279541  11.401   0.290   9.277
59839SOL     OW79542  12.638   1.417   8.401
59839SOL    HW179543  12.579   1.423   8.481
59839SOL    HW279544  12.623   1.329   8.355
59840SOL     OW79545  12.453   0.345   8.392
59840SOL    HW179546  12.367   0.295   8.379
59840SOL    HW279547  12.515   0.291   8.448
59841SOL     OW79548  11.979   0.605   8.913
59841SOL    HW179549  11.932   0.602   9.002
59841SOL    HW279550  11.928   0.550   8.847
59842SOL     OW79551  12.566   0.469   9.122
59842SOL    HW179552  12.546   0.512   9.210
59842SOL    HW279553  12.644   0.407   9.131
59843SOL     OW79554  12.145   0.890   9.020
59843SOL    HW179555  12.191   0.806   8.991
59843SOL    HW279556  12.089   0.924   8.945
59844SOL     OW79557  12.163   0.410   8.690
59844SOL    HW179558  12.086   0.444   8.744
59844SOL    HW279559  12.129   0.359   8.611
59845SOL     OW79560  12.213   0.701   7.877
59845SOL    HW179561  12.239   0.697   7.973
59845SOL    HW279562  12.128   0.650   7.863
59846SOL     OW79563  11.248   0.811   8.237
59846SOL    HW179564  11.347   0.799   8.246
59846SOL    HW279565  11.224   0.906   8.258
59847SOL     OW79566  11.302   1.821   9.019
59847SOL    HW179567  11.292   1.806   9.118
59847SOL    HW279568  11.216   1.857   8.983
59848SOL     OW79569  12.037   0.348   7.643
59848SOL    HW179570  12.096   0.411   7.594
59848SOL    HW279571  12.056   0.254   7.614
59849SOL     OW79572  12.534   1.144   7.993
59849SOL    HW179573  12.617   1.115   7.945
59849SOL    HW279574  12.485   1.211   7.937
59850SOL     OW79575  11.722   0.196   8.333
59850SOL    HW179576  11.717   0.191   8.433
59850SOL    HW279577  11.724   0.292   8.304
59851SOL     OW79578  12.180   1.456   7.925
59851SOL    HW179579  12.134   1.528   7.873
59851SOL    HW279580  12.176   1.476   8.023
59852SOL     OW79581  11.523   1.801   8.301
59852SOL    HW179582  11.573   1.715   8.307
59852SOL    HW279583  11.588   1.878   8.298
59853SOL     OW79584  12.399   1.550   8.954
59853SOL    HW179585  12.405   1.473   9.018
59853SOL    HW279586  12.347   1.524   8.874
59854SOL     OW79587  11.493   0.943   7.690
59854SOL    HW179588  11.575   0.982   7.648
59854SOL    HW279589  11.466   0.861   7.641
59855SOL     OW79590  11.633   1.266   9.175
59855SOL    HW179591  11.583   1.267   9.089
59855SOL    HW279592  11.570   1.248   9.251
59856SOL     OW79593  12.283   1.776   7.685
59856SOL    HW179594  12.223   1.714   7.735
59856SOL    HW279595  12.314   1.732   7.600
59857SOL     OW79596  11.374   0.285   8.946
59857SOL    HW179597  11.294   0.345   8.933
59857SOL    HW279598  11.364   0.236   9.032
59858SOL     OW79599  11.636   1.743   7.771
59858SOL    HW179600  11.669   1.782   7.857
59858SOL    HW279601  11.712   1.736   7.706
59859SOL     OW79602  12.572   0.107   7.874
59859SOL    HW179603  12.548   0.070   7.784
59859SOL    HW279604  12.671   0.123   7.878
59860SOL     OW79605  11.421   1.785   8.689
59860SOL    HW179606  11.478   1.720   8.739
59860SOL    HW279607  11.405   1.752   8.596
59861SOL     OW79608  11.554   0.700   7.928
59861SOL    HW179609  11.599   0.610   7.925
59861SOL    HW279610  11.460   0.689   7.961
59862SOL     OW79611  11.786   0.122   7.565
59862SOL    HW179612  11.884   0.100   7.572
59862SOL    HW279613  11.755   0.105   7.472
59863SOL     OW79614  11.953   0.264   9.197
59863SOL    HW179615  12.020   0.203   9.240
59863SOL    HW279616  11.880   0.283   9.262
59864SOL     OW79617  12.060   1.514   8.643
59864SOL    HW179618  12.037   1.489   8.549
59864SOL    HW279619  12.121   1.445   8.682
59865SOL     OW79620  12.523   0.590   8.881
59865SOL    HW179621  12.551   0.547   8.966
59865SOL    HW279622  12.548   0.686   8.882
59866SOL     OW79623  11.975   1.402   8.372
59866SOL    HW179624  12.065   1.416   8.330
59866SOL    HW279625  11.904   1.404   8.301
59867SOL     OW79626  12.094   0.503   8.347
59867SOL    HW179627  12.069   0.494   8.251
59867SOL    HW279628  12.142   0.421   8.378
59868SOL     OW79629  11.711   0.064   7.960
59868SOL    HW179630  11.630   0.065   8.018
59868SOL    HW279631  11.714   0.147   7.905
59869SOL     OW79632  12.606   1.188   7.489
59869SOL    HW179633  12.638   1.112   7.546
59869SOL    HW279634  12.514   1.215   7.519
59870SOL     OW79635  11.469   0.035   7.619
59870SOL    HW179636  11.518   0.119   7.598
59870SOL    HW279637  11.531  -0.030   7.664
59871SOL     OW79638  12.107   0.236   7.928
59871SOL    HW179639  12.059   0.277   7.850
59871SOL    HW279640  12.206   0.234   7.909
59872SOL     OW79641  12.248   0.683   8.912
59872SOL    HW179642  12.168   0.622   8.915
59872SOL    HW279643  12.329   0.630   8.888
59873SOL     OW79644  12.399   1.570   8.241
59873SOL    HW179645  12.420   1.644   8.176
59873SOL    HW279646  12.467   1.570   8.314
59874SOL     OW79647  11.631   1.152   8.189
59874SOL    HW179648  11.560   1.125   8.254
59874SOL    HW279649  11.605   1.124   8.096
59875SOL     OW79650  12.443   1.797   8.039
59875SOL    HW179651  12.487   1.861   7.975
59875SOL    HW279652  12.393   1.849   8.109
59876SOL     OW79653  12.204   0.549   7.464
59876SOL    HW179654  12.163   0.631   7.425
59876SOL    HW279655  12.268   0.575   7.537
59877SOL     OW79656  11.250   0.556   8.834
59877SOL    HW179657  11.342   0.555   8.793
59877SOL    HW279658  11.244   0.630   8.901
59878SOL     OW79659  11.733   0.222   8.595
59878SOL    HW179660  11.771   0.138   8.632
59878SOL    HW279661  11.645   0.241   8.639
59879SOL     OW79662  12.038   0.454   8.090
59879SOL    HW179663  12.006   0.526   8.028
59879SOL    HW279664  12.062   0.373   8.037
59880SOL     OW79665  12.189   0.039   8.201
59880SOL    HW179666  12.117   0.044   8.132
59880SOL    HW279667  12.165  -0.030   8.270
59881SOL     OW79668  12.601   1.173   8.315
59881SOL    HW179669  12.546   1.089   8.308
59881SOL    HW279670  12.627   1.202   8.223
59882SOL     OW79671  11.660   1.385   7.622
59882SOL    HW179672  11.573   1.370   7.669
59882SOL    HW279673  11.643   1.411   7.527
59883SOL     OW79674  12.562   0.575   7.526
59883SOL    HW179675  12.508   0.554   7.607
59883SOL    HW279676  12.653   0.534   7.535
59884SOL     OW79677  11.699   0.256   7.776
59884SOL    HW179678  11.726   0.197   7.701
59884SOL    HW279679  11.699   0.351   7.745
59885SOL     OW79680  12.236   1.347   8.788
59885SOL    HW179681  12.156   1.324   8.843
59885SOL    HW279682  12.319   1.321   8.837
59886SOL     OW79683  12.764   1.629   9.073
59886SOL    HW179684  12.791   1.663   8.983
59886SOL    HW279685  12.843   1.591   9.119
59887SOL     OW79686  12.283   1.195   8.548
59887SOL    HW179687  12.243   1.239   8.629
59887SOL    HW279688  12.242   1.232   8.465
59888SOL     OW79689  12.087   0.089   8.850
59888SOL    HW179690  12.112   0.069   8.755
59888SOL    HW279691  12.159   0.145   8.892
59889SOL     OW79692  12.152   1.116   9.167
59889SOL    HW179693  12.053   1.122   9.177
59889SOL    HW279694  12.175   1.036   9.111
59890SOL     OW79695  11.877   1.050   7.816
59890SOL    HW179696  11.863   1.057   7.915
59890SOL    HW279697  11.961   0.999   7.798
59891SOL     OW79698  11.582   0.813   8.699
59891SOL    HW179699  11.668   0.825   8.749
59891SOL    HW279700  11.540   0.726   8.726
59892SOL     OW79701  12.446   0.386   8.710
59892SOL    HW179702  12.467   0.460   8.774
59892SOL    HW279703  12.357   0.403   8.667
59893SOL     OW79704  11.236   1.564   8.779
59893SOL    HW179705  11.190   1.646   8.745
59893SOL    HW279706  11.334   1.583   8.788
59894SOL     OW79707  11.539   1.100   7.949
59894SOL    HW179708  11.532   1.183   7.893
59894SOL    HW279709  11.543   1.020   7.889
59895SOL     OW79710  11.738   0.537   8.313
59895SOL    HW179711  11.750   0.603   8.239
59895SOL    HW279712  11.784   0.571   8.396
59896SOL     OW79713  12.424   1.348   7.836
59896SOL    HW179714  12.474   1.425   7.876
59896SOL    HW279715  12.329   1.350   7.868
59897SOL     OW79716  12.444   1.445   8.590
59897SOL    HW179717  12.491   1.458   8.677
59897SOL    HW279718  12.378   1.371   8.599
59898SOL     OW79719  11.526   1.510   8.777
59898SOL    HW179720  11.505   1.466   8.690
59898SOL    HW279721  11.623   1.536   8.780
59899SOL     OW79722  11.574   0.751   9.046
59899SOL    HW179723  11.642   0.806   8.999
59899SOL    HW279724  11.614   0.663   9.073
59900SOL     OW79725  12.185   0.105   9.218
59900SOL    HW179726  12.191   0.190   9.166
59900SOL    HW279727  12.217   0.029   9.161
59901SOL     OW79728  11.676   0.050   9.188
59901SOL    HW179729  11.634  -0.007   9.118
59901SOL    HW279730  11.610   0.119   9.220
59902SOL     OW79731  11.745   0.870   8.477
59902SOL    HW179732  11.789   0.959   8.468
59902SOL    HW279733  11.682   0.870   8.554
59903SOL     OW79734  12.532   0.862   8.493
59903SOL    HW179735  12.457   0.862   8.427
59903SOL    HW279736  12.569   0.770   8.502
59904SOL     OW79737  12.381   0.525   7.723
59904SOL    HW179738  12.394   0.441   7.777
59904SOL    HW279739  12.352   0.599   7.783
59905SOL     OW79740  11.479   0.213   8.679
59905SOL    HW179741  11.456   0.250   8.769
59905SOL    HW279742  11.449   0.118   8.673
59906SOL     OW79743  11.209   1.310   8.730
59906SOL    HW179744  11.262   1.261   8.798
59906SOL    HW279745  11.231   1.408   8.735
59907SOL     OW79746  11.904   0.634   8.512
59907SOL    HW179747  11.963   0.608   8.436
59907SOL    HW279748  11.876   0.730   8.501
59908SOL     OW79749  11.479   0.063   8.066
59908SOL    HW179750  11.468   0.157   8.099
59908SOL    HW279751  11.474   0.000   8.143
59909SOL     OW79752  12.794   0.367   7.822
59909SOL    HW179753  12.796   0.291   7.886
59909SOL    HW279754  12.746   0.444   7.862
59910SOL     OW79755  12.195   0.766   8.414
59910SOL    HW179756  12.210   0.787   8.510
59910SOL    HW279757  12.165   0.671   8.405
59911SOL     OW79758  12.152   1.573   9.148
59911SOL    HW179759  12.132   1.617   9.060
59911SOL    HW279760  12.191   1.482   9.132
59912SOL     OW79761  11.522   0.898   9.252
59912SOL    HW179762  11.598   0.942   9.300
59912SOL    HW279763  11.557   0.851   9.170
59913SOL     OW79764  12.475   0.838   7.490
59913SOL    HW179765  12.509   0.745   7.505
59913SOL    HW279766  12.493   0.865   7.395
59914SOL     OW79767  12.240   1.333   8.297
59914SOL    HW179768  12.247   1.249   8.242
59914SOL    HW279769  12.302   1.402   8.261
59915SOL     OW79770  11.491   0.810   8.397
59915SOL    HW179771  11.584   0.846   8.402
59915SOL    HW279772  11.485   0.725   8.449
59916SOL     OW79773  11.511   0.509   8.454
59916SOL    HW179774  11.459   0.426   8.437
59916SOL    HW279775  11.588   0.514   8.390
59917SOL     OW79776  12.310   0.380   9.126
59917SOL    HW179777  12.265   0.443   9.190
59917SOL    HW279778  12.403   0.411   9.109
59918SOL     OW79779  12.332   0.207   8.925
59918SOL    HW179780  12.332   0.271   9.002
59918SOL    HW279781  12.360   0.255   8.842
59919SOL     OW79782  11.180   1.326   7.648
59919SOL    HW179783  11.087   1.347   7.617
59919SOL    HW279784  11.190   1.227   7.661
59920SOL     OW79785  11.260   1.801   8.375
59920SOL    HW179786  11.218   1.715   8.348
59920SOL    HW279787  11.354   1.804   8.341
59921SOL     OW79788  11.676   1.568   8.358
59921SOL    HW179789  11.742   1.642   8.367
59921SOL    HW279790  11.720   1.489   8.316
59922SOL     OW79791  12.174   0.796   8.686
59922SOL    HW179792  12.215   0.764   8.772
59922SOL    HW279793  12.078   0.769   8.683
59923SOL     OW79794  11.212   0.544   8.562
59923SOL    HW179795  11.297   0.511   8.521
59923SOL    HW279796  11.225   0.559   8.660
59924SOL     OW79797  11.361   0.520   9.170
59924SOL    HW179798  11.420   0.480   9.100
59924SOL    HW279799  11.303   0.591   9.129
59925SOL     OW79800  12.541   0.950   9.108
59925SOL    HW179801  12.580   1.039   9.128
59925SOL    HW279802  12.551   0.930   9.011
59926SOL     OW79803  11.987   0.572   7.773
59926SOL    HW179804  11.994   0.483   7.727
59926SOL    HW279805  11.893   0.606   7.765
59927SOL     OW79806  11.424   1.564   9.192
59927SOL    HW179807  11.394   1.621   9.268
59927SOL    HW279808  11.417   1.467   9.218
59928SOL     OW79809  11.843   0.464   8.717
59928SOL    HW179810  11.809   0.375   8.687
59928SOL    HW279811  11.869   0.518   8.637
59929SOL     OW79812  12.102   1.678   8.913
59929SOL    HW179813  12.078   1.660   8.818
59929SOL    HW279814  12.132   1.772   8.923
59930SOL     OW79815  11.645   0.500   7.639
59930SOL    HW179816  11.706   0.580   7.643
59930SOL    HW279817  11.550   0.531   7.646
59931SOL     OW79818  11.331   1.137   8.914
59931SOL    HW179819  11.353   1.076   8.990
59931SOL    HW279820  11.341   1.088   8.828
59932SOL     OW79821  12.519   1.059   8.682
59932SOL    HW179822  12.543   0.996   8.608
59932SOL    HW279823  12.429   1.099   8.664
59933SOL     OW79824  12.474   0.855   7.757
59933SOL    HW179825  12.388   0.824   7.799
59933SOL    HW279826  12.470   0.841   7.658
59934SOL     OW79827  12.424   1.731   8.576
59934SOL    HW179828  12.508   1.736   8.522
59934SOL    HW279829  12.401   1.635   8.594
59935SOL     OW79830  11.255   1.258   8.470
59935SOL    HW179831  11.250   1.257   8.570
59935SOL    HW279832  11.172   1.217   8.432
59936SOL     OW79833  11.860   1.662   9.164
59936SOL    HW179834  11.804   1.743   9.173
59936SOL    HW279835  11.912   1.666   9.078
59937SOL     OW79836  12.560   1.573   7.925
59937SOL    HW179837  12.627   1.585   7.851
59937SOL    HW279838  12.520   1.662   7.948
59938SOL     OW79839  11.302   1.794   9.299
59938SOL    HW179840  11.261   1.720   9.352
59938SOL    HW279841  11.366   1.845   9.357
59939SOL     OW79842  12.452   0.927   8.120
59939SOL    HW179843  12.512   0.846   8.122
59939SOL    HW279844  12.492   0.996   8.060
59940SOL     OW79845  12.002   1.273   8.870
59940SOL    HW179846  11.997   1.306   8.965
59940SOL    HW279847  11.916   1.292   8.824
59941SOL     OW79848  11.844   1.616   7.602
59941SOL    HW179849  11.853   1.626   7.503
59941SOL    HW279850  11.804   1.527   7.623
59942SOL     OW79851  11.435   0.326   8.168
59942SOL    HW179852  11.356   0.377   8.134
59942SOL    HW279853  11.426   0.311   8.266
59943SOL     OW79854  12.366   1.612   7.479
59943SOL    HW179855  12.372   1.519   7.516
59943SOL    HW279856  12.307   1.612   7.399
59944SOL     OW79857  11.994   1.002   8.820
59944SOL    HW179858  12.034   1.001   8.728
59944SOL    HW279859  12.004   1.094   8.860
59945SOL     OW79860  12.088   0.910   7.739
59945SOL    HW179861  12.151   0.948   7.671
59945SOL    HW279862  12.128   0.827   7.778
59946SOL     OW79863  11.544   1.288   8.938
59946SOL    HW179864  11.531   1.381   8.904
59946SOL    HW279865  11.460   1.236   8.925
59947SOL     OW79866  12.211   1.098   8.144
59947SOL    HW179867  12.141   1.051   8.198
59947SOL    HW279868  12.270   1.030   8.101
59948SOL     OW79869  12.186   0.236   8.419
59948SOL    HW179870  12.178   0.200   8.326
59948SOL    HW279871  12.184   0.160   8.484
59949SOL     OW79872  11.762   1.487   7.939
59949SOL    HW179873  11.804   1.429   7.869
59949SOL    HW279874  11.718   1.566   7.895
59950SOL     OW79875  11.427   1.348   7.738
59950SOL    HW179876  11.331   1.349   7.711
59950SOL    HW279877  11.439   1.401   7.822
59951SOL     OW79878  11.277   1.013   9.174
59951SOL    HW179879  11.200   0.980   9.228
59951SOL    HW279880  11.362   0.983   9.216
59952SOL     OW79881  11.844   0.203   8.937
59952SOL    HW179882  11.934   0.187   8.897
59952SOL    HW279883  11.852   0.208   9.036
59953SOL     OW79884  11.247   0.345   7.481
59953SOL    HW179885  11.155   0.317   7.452
59953SOL    HW279886  11.278   0.422   7.425
59954SOL     OW79887  12.612   0.856   8.846
59954SOL    HW179888  12.555   0.908   8.783
59954SOL    HW279889  12.708   0.868   8.822
59955SOL     OW79890  11.244   0.166   7.766
59955SOL    HW179891  11.227   0.249   7.712
59955SOL    HW279892  11.334   0.129   7.744
59956SOL     OW79893  12.355   1.335   7.567
59956SOL    HW179894  12.256   1.324   7.569
59956SOL    HW279895  12.389   1.350   7.660
59957SOL     OW79896  11.785   0.842   8.879
59957SOL    HW179897  11.841   0.923   8.862
59957SOL    HW279898  11.844   0.762   8.882
59958SOL     OW79899  11.888   0.565   9.156
59958SOL    HW179900  11.907   0.630   9.230
59958SOL    HW279901  11.948   0.485   9.165
59959SOL     OW79902  12.622   1.220   9.081
59959SOL    HW179903  12.613   1.210   9.180
59959SOL    HW279904  12.718   1.213   9.055
59960SOL     OW79905  11.562   1.741   9.008
59960SOL    HW179906  11.471   1.782   9.006
59960SOL    HW279907  11.555   1.647   9.040
59961SOL     OW79908  12.397   0.325   7.897
59961SOL    HW179909  12.462   0.251   7.886
59961SOL    HW279910  12.417   0.375   7.981
59962SOL     OW79911  11.766   0.745   8.100
59962SOL    HW179912  11.816   0.830   8.081
59962SOL    HW279913  11.678   0.747   8.052
59963SOL     OW79914  12.031   1.374   7.464
59963SOL    HW179915  11.985   1.389   7.552
59963SOL    HW279916  12.075   1.459   7.434
59964SOL     OW79917  11.833   1.790   8.401
59964SOL    HW179918  11.787   1.878   8.388
59964SOL    HW279919  11.932   1.802   8.394
59965SOL     OW79920  12.031   0.956   8.309
59965SOL    HW179921  12.085   0.887   8.357
59965SOL    HW279922  11.999   1.025   8.375
59966SOL     OW79923  12.255   0.984   7.535
59966SOL    HW179924  12.232   1.037   7.453
59966SOL    HW279925  12.336   0.928   7.516
59967SOL     OW79926  11.393   1.314   9.292
59967SOL    HW179927  11.328   1.241   9.271
59967SOL    HW279928  11.397   1.328   9.390
59968SOL     OW79929  11.251   1.240   8.101
59968SOL    HW179930  11.250   1.193   8.189
59968SOL    HW279931  11.333   1.212   8.050
59969SOL     OW79932  11.844   1.391   9.072
59969SOL    HW179933  11.766   1.341   9.110
59969SOL    HW279934  11.841   1.486   9.103
59970SOL     OW79935  11.600   0.424   7.968
59970SOL    HW179936  11.630   0.352   7.906
59970SOL    HW279937  11.561   0.384   8.051
59971SOL     OW79938  12.877   1.487   8.552
59971SOL    HW179939  12.784   1.462   8.525
59971SOL    HW279940  12.903   1.437   8.634
59972SOL     OW79941  11.489   0.547   8.728
59972SOL    HW179942  11.527   0.488   8.800
59972SOL    HW279943  11.529   0.521   8.640
59973SOL     OW79944  11.984   1.586   8.135
59973SOL    HW179945  12.016   1.596   8.041
59973SOL    HW279946  11.905   1.524   8.137
59974SOL     OW79947  12.596   0.214   8.560
59974SOL    HW179948  12.648   0.149   8.615
59974SOL    HW279949  12.547   0.277   8.621
59975SOL     OW79950  12.173   0.034   8.602
59975SOL    HW179951  12.110  -0.038   8.571
59975SOL    HW279952  12.266  -0.002   8.602
59976SOL     OW79953  11.942   1.330   7.749
59976SOL    HW179954  11.896   1.243   7.766
59976SOL    HW279955  12.033   1.327   7.790
59977SOL     OW79956  11.790   1.567   8.732
59977SOL    HW179957  11.785   1.649   8.789
59977SOL    HW279958  11.879   1.564   8.687
59978SOL     OW79959  12.524   0.052   7.616
59978SOL    HW179960  12.559   0.011   7.532
59978SOL    HW279961  12.434   0.014   7.636
59979SOL     OW79962  12.472   0.453   8.139
59979SOL    HW179963  12.413   0.533   8.143
59979SOL    HW279964  12.487   0.418   8.232
59980SOL     OW79965  11.211   1.077   7.748
59980SOL    HW179966  11.310   1.066   7.739
59980SOL    HW279967  11.171   0.991   7.780
59981SOL     OW79968  12.047   1.646   7.785
59981SOL    HW179969  11.970   1.611   7.731
59981SOL    HW279970  12.015   1.717   7.847
59982SOL     OW79971  11.402   0.628   9.423
59982SOL    HW179972  11.309   0.626   9.460
59982SOL    HW279973  11.403   0.589   9.331
59983SOL     OW79974  11.397   0.275  10.306
59983SOL    HW179975  11.432   0.258  10.398
59983SOL    HW279976  11.309   0.230  10.294
59984SOL     OW79977  11.191   0.368   9.957
59984SOL    HW179978  11.109   0.411   9.996
59984SOL    HW279979  11.163   0.295   9.894
59985SOL     OW79980  11.741   1.275  10.475
59985SOL    HW179981  11.648   1.268  10.438
59985SOL    HW279982  11.752   1.364  10.519
59986SOL     OW79983  12.727   1.511  10.013
59986SOL    HW179984  12.670   1.495  10.094
59986SOL    HW279985  12.668   1.521   9.933
59987SOL     OW79986  12.307   0.703  10.027
59987SOL    HW179987  12.364   0.781  10.002
59987SOL    HW279988  12.247   0.729  10.103
59988SOL     OW79989  11.940   1.144  10.333
59988SOL    HW179990  11.862   1.161  10.393
59988SOL    HW279991  11.974   1.231  10.297
59989SOL     OW79992  12.022   0.798  11.133
59989SOL    HW179993  12.018   0.874  11.198
59989SOL    HW279994  12.044   0.834  11.042
59990SOL     OW79995  11.857   1.012   9.975
59990SOL    HW179996  11.926   0.996  10.045
59990SOL    HW279997  11.784   1.069  10.013
59991SOL     OW79998  11.858   1.161  11.113
59991SOL    HW179999  11.918   1.240  11.127
59991SOL    HW280000  11.772   1.192  11.072
59992SOL     OW80001  11.507   1.435  10.371
59992SOL    HW180002  11.429   1.404  10.318
59992SOL    HW280003  11.565   1.493  10.314
59993SOL     OW80004  11.610   0.392  10.809
59993SOL    HW180005  11.692   0.336  10.818
59993SOL    HW280006  11.529   0.334  10.813
59994SOL     OW80007  11.403   1.713   9.793
59994SOL    HW180008  11.437   1.790   9.847
59994SOL    HW280009  11.447   1.713   9.703
59995SOL     OW80010  12.299   1.341  11.000
59995SOL    HW180011  12.346   1.341  11.088
59995SOL    HW280012  12.251   1.254  10.989
59996SOL     OW80013  11.402   1.434   9.848
59996SOL    HW180014  11.376   1.530   9.848
59996SOL    HW280015  11.331   1.380   9.893
59997SOL     OW80016  11.412   1.091  10.196
59997SOL    HW180017  11.426   1.007  10.248
59997SOL    HW280018  11.357   1.155  10.251
59998SOL     OW80019  11.792   1.786  10.749
59998SOL    HW180020  11.700   1.769  10.784
59998SOL    HW280021  11.820   1.878  10.775
59999SOL     OW80022  11.778   0.964   9.433
59999SOL    HW180023  11.785   1.048   9.379
59999SOL    HW280024  11.824   0.977   9.521
60000SOL     OW80025  12.766   0.114  10.790
60000SOL    HW180026  12.748   0.181  10.718
60000SOL    HW280027  12.763   0.160  10.879
60001SOL     OW80028  11.294   0.643   9.873
60001SOL    HW180029  11.249   0.555   9.890
60001SOL    HW280030  11.293   0.697   9.957
60002SOL     OW80031  11.199   1.596   9.427
60002SOL    HW180032  11.180   1.500   9.448
60002SOL    HW280033  11.166   1.654   9.502
60003SOL     OW80034  12.861   0.922   9.922
60003SOL    HW180035  12.956   0.893   9.930
60003SOL    HW280036  12.853   0.987   9.847
60004SOL     OW80037  11.285   0.737  10.907
60004SOL    HW180038  11.373   0.724  10.952
60004SOL    HW280039  11.272   0.834  10.885
60005SOL     OW80040  11.785   1.365  10.036
60005SOL    HW180041  11.736   1.278  10.045
60005SOL    HW280042  11.762   1.408   9.949
60006SOL     OW80043  12.465   1.228  10.733
60006SOL    HW180044  12.502   1.155  10.675
60006SOL    HW280045  12.517   1.233  10.818
60007SOL     OW80046  11.981   0.004   9.812
60007SOL    HW180047  12.021   0.095   9.803
60007SOL    HW280048  11.881   0.012   9.818
60008SOL     OW80049  11.369   0.976  10.574
60008SOL    HW180050  11.458   0.931  10.560
60008SOL    HW280051  11.296   0.911  10.555
60009SOL     OW80052  12.359   1.792  10.926
60009SOL    HW180053  12.383   1.852  10.850
60009SOL    HW280054  12.366   1.697  10.896
60010SOL     OW80055  11.489   0.251  11.111
60010SOL    HW180056  11.560   0.322  11.117
60010SOL    HW280057  11.401   0.290  11.139
60011SOL     OW80058  12.638   1.417  10.263
60011SOL    HW180059  12.579   1.423  10.343
60011SOL    HW280060  12.623   1.329  10.217
60012SOL     OW80061  11.770   0.729   9.580
60012SOL    HW180062  11.794   0.798   9.512
60012SOL    HW280063  11.692   0.762   9.634
60013SOL     OW80064  12.453   0.345  10.254
60013SOL    HW180065  12.367   0.295  10.241
60013SOL    HW280066  12.515   0.291  10.310
60014SOL     OW80067  11.979   0.605  10.775
60014SOL    HW180068  11.932   0.602  10.864
60014SOL    HW280069  11.928   0.550  10.709
60015SOL     OW80070  12.566   0.469  10.984
60015SOL    HW180071  12.546   0.512  11.072
60015SOL    HW280072  12.644   0.407  10.993
60016SOL     OW80073  12.145   0.890  10.882
60016SOL    HW180074  12.191   0.806  10.853
60016SOL    HW280075  12.089   0.924  10.807
60017SOL     OW80076  12.163   0.410  10.552
60017SOL    HW180077  12.086   0.444  10.606
60017SOL    HW280078  12.129   0.359  10.473
60018SOL     OW80079  12.213   0.701   9.739
60018SOL    HW180080  12.239   0.697   9.835
60018SOL    HW280081  12.128   0.650   9.725
60019SOL     OW80082  11.248   0.811  10.099
60019SOL    HW180083  11.347   0.799  10.108
60019SOL    HW280084  11.224   0.906  10.120
60020SOL     OW80085  11.302   1.821  10.881
60020SOL    HW180086  11.292   1.806  10.980
60020SOL    HW280087  11.216   1.857  10.845
60021SOL     OW80088  12.037   0.348   9.505
60021SOL    HW180089  12.096   0.411   9.456
60021SOL    HW280090  12.056   0.254   9.476
60022SOL     OW80091  12.534   1.144   9.855
60022SOL    HW180092  12.617   1.115   9.807
60022SOL    HW280093  12.485   1.211   9.799
60023SOL     OW80094  11.722   0.196  10.195
60023SOL    HW180095  11.717   0.191  10.295
60023SOL    HW280096  11.724   0.292  10.166
60024SOL     OW80097  12.180   1.456   9.787
60024SOL    HW180098  12.134   1.528   9.735
60024SOL    HW280099  12.176   1.476   9.885
60025SOL     OW80100  11.523   1.801  10.163
60025SOL    HW180101  11.573   1.715  10.169
60025SOL    HW280102  11.588   1.878  10.160
60026SOL     OW80103  12.399   1.550  10.816
60026SOL    HW180104  12.405   1.473  10.880
60026SOL    HW280105  12.347   1.524  10.736
60027SOL     OW80106  11.493   0.943   9.552
60027SOL    HW180107  11.575   0.982   9.510
60027SOL    HW280108  11.466   0.861   9.503
60028SOL     OW80109  11.633   1.266  11.037
60028SOL    HW180110  11.583   1.267  10.951
60028SOL    HW280111  11.570   1.248  11.113
60029SOL     OW80112  12.283   1.776   9.547
60029SOL    HW180113  12.223   1.714   9.597
60029SOL    HW280114  12.314   1.732   9.462
60030SOL     OW80115  11.374   0.285  10.808
60030SOL    HW180116  11.294   0.345  10.795
60030SOL    HW280117  11.364   0.236  10.894
60031SOL     OW80118  11.636   1.743   9.633
60031SOL    HW180119  11.669   1.782   9.719
60031SOL    HW280120  11.712   1.736   9.568
60032SOL     OW80121  12.572   0.107   9.736
60032SOL    HW180122  12.548   0.070   9.646
60032SOL    HW280123  12.671   0.123   9.740
60033SOL     OW80124  11.421   1.785  10.551
60033SOL    HW180125  11.478   1.720  10.601
60033SOL    HW280126  11.405   1.752  10.458
60034SOL     OW80127  12.112   1.698  10.214
60034SOL    HW180128  12.192   1.641  10.235
60034SOL    HW280129  12.063   1.658  10.137
60035SOL     OW80130  11.554   0.700   9.790
60035SOL    HW180131  11.599   0.610   9.787
60035SOL    HW280132  11.460   0.689   9.823
60036SOL     OW80133  11.786   0.122   9.427
60036SOL    HW180134  11.884   0.100   9.434
60036SOL    HW280135  11.755   0.105   9.334
60037SOL     OW80136  11.953   0.264  11.059
60037SOL    HW180137  12.020   0.203  11.102
60037SOL    HW280138  11.880   0.283  11.124
60038SOL     OW80139  12.060   1.514  10.505
60038SOL    HW180140  12.037   1.489  10.411
60038SOL    HW280141  12.121   1.445  10.544
60039SOL     OW80142  12.523   0.590  10.743
60039SOL    HW180143  12.551   0.547  10.828
60039SOL    HW280144  12.548   0.686  10.744
60040SOL     OW80145  11.975   1.402  10.234
60040SOL    HW180146  12.065   1.416  10.192
60040SOL    HW280147  11.904   1.404  10.163
60041SOL     OW80148  12.094   0.503  10.209
60041SOL    HW180149  12.069   0.494  10.113
60041SOL    HW280150  12.142   0.421  10.240
60042SOL     OW80151  11.711   0.064   9.822
60042SOL    HW180152  11.630   0.065   9.880
60042SOL    HW280153  11.714   0.147   9.767
60043SOL     OW80154  12.606   1.188   9.351
60043SOL    HW180155  12.638   1.112   9.408
60043SOL    HW280156  12.514   1.215   9.381
60044SOL     OW80157  11.469   0.035   9.481
60044SOL    HW180158  11.518   0.119   9.460
60044SOL    HW280159  11.531  -0.030   9.526
60045SOL     OW80160  12.107   0.236   9.790
60045SOL    HW180161  12.059   0.277   9.712
60045SOL    HW280162  12.206   0.234   9.771
60046SOL     OW80163  12.248   0.683  10.774
60046SOL    HW180164  12.168   0.622  10.777
60046SOL    HW280165  12.329   0.630  10.750
60047SOL     OW80166  12.399   1.570  10.103
60047SOL    HW180167  12.420   1.644  10.038
60047SOL    HW280168  12.467   1.570  10.176
60048SOL     OW80169  11.631   1.152  10.051
60048SOL    HW180170  11.560   1.125  10.116
60048SOL    HW280171  11.605   1.124   9.958
60049SOL     OW80172  12.443   1.797   9.901
60049SOL    HW180173  12.487   1.861   9.837
60049SOL    HW280174  12.393   1.849   9.971
60050SOL     OW80175  12.204   0.549   9.326
60050SOL    HW180176  12.163   0.631   9.287
60050SOL    HW280177  12.268   0.575   9.399
60051SOL     OW80178  11.250   0.556  10.696
60051SOL    HW180179  11.342   0.555  10.655
60051SOL    HW280180  11.244   0.630  10.763
60052SOL     OW80181  11.733   0.222  10.457
60052SOL    HW180182  11.771   0.138  10.494
60052SOL    HW280183  11.645   0.241  10.501
60053SOL     OW80184  12.038   0.454   9.952
60053SOL    HW180185  12.006   0.526   9.890
60053SOL    HW280186  12.062   0.373   9.899
60054SOL     OW80187  12.189   0.039  10.063
60054SOL    HW180188  12.117   0.044   9.994
60054SOL    HW280189  12.165  -0.030  10.132
60055SOL     OW80190  12.601   1.173  10.177
60055SOL    HW180191  12.546   1.089  10.170
60055SOL    HW280192  12.627   1.202  10.085
60056SOL     OW80193  11.660   1.385   9.484
60056SOL    HW180194  11.573   1.370   9.531
60056SOL    HW280195  11.643   1.411   9.389
60057SOL     OW80196  12.562   0.575   9.388
60057SOL    HW180197  12.508   0.554   9.469
60057SOL    HW280198  12.653   0.534   9.397
60058SOL     OW80199  11.699   0.256   9.638
60058SOL    HW180200  11.726   0.197   9.563
60058SOL    HW280201  11.699   0.351   9.607
60059SOL     OW80202  12.236   1.347  10.650
60059SOL    HW180203  12.156   1.324  10.705
60059SOL    HW280204  12.319   1.321  10.699
60060SOL     OW80205  12.764   1.629  10.935
60060SOL    HW180206  12.791   1.663  10.845
60060SOL    HW280207  12.843   1.591  10.981
60061SOL     OW80208  12.283   1.195  10.410
60061SOL    HW180209  12.243   1.239  10.491
60061SOL    HW280210  12.242   1.232  10.327
60062SOL     OW80211  12.087   0.089  10.712
60062SOL    HW180212  12.112   0.069  10.617
60062SOL    HW280213  12.159   0.145  10.754
60063SOL     OW80214  12.152   1.116  11.029
60063SOL    HW180215  12.053   1.122  11.039
60063SOL    HW280216  12.175   1.036  10.973
60064SOL     OW80217  11.877   1.050   9.678
60064SOL    HW180218  11.863   1.057   9.777
60064SOL    HW280219  11.961   0.999   9.660
60065SOL     OW80220  11.582   0.813  10.561
60065SOL    HW180221  11.668   0.825  10.611
60065SOL    HW280222  11.540   0.726  10.588
60066SOL     OW80223  12.446   0.386  10.572
60066SOL    HW180224  12.467   0.460  10.636
60066SOL    HW280225  12.357   0.403  10.529
60067SOL     OW80226  11.236   1.564  10.641
60067SOL    HW180227  11.190   1.646  10.607
60067SOL    HW280228  11.334   1.583  10.650
60068SOL     OW80229  11.539   1.100   9.811
60068SOL    HW180230  11.532   1.183   9.755
60068SOL    HW280231  11.543   1.020   9.751
60069SOL     OW80232  11.738   0.537  10.175
60069SOL    HW180233  11.750   0.603  10.101
60069SOL    HW280234  11.784   0.571  10.258
60070SOL     OW80235  12.424   1.348   9.698
60070SOL    HW180236  12.474   1.425   9.738
60070SOL    HW280237  12.329   1.350   9.730
60071SOL     OW80238  12.444   1.445  10.452
60071SOL    HW180239  12.491   1.458  10.539
60071SOL    HW280240  12.378   1.371  10.461
60072SOL     OW80241  11.526   1.510  10.639
60072SOL    HW180242  11.505   1.466  10.552
60072SOL    HW280243  11.623   1.536  10.642
60073SOL     OW80244  11.574   0.751  10.908
60073SOL    HW180245  11.642   0.806  10.861
60073SOL    HW280246  11.614   0.663  10.935
60074SOL     OW80247  12.185   0.105  11.080
60074SOL    HW180248  12.191   0.190  11.028
60074SOL    HW280249  12.217   0.029  11.023
60075SOL     OW80250  11.676   0.050  11.050
60075SOL    HW180251  11.634  -0.007  10.980
60075SOL    HW280252  11.610   0.119  11.082
60076SOL     OW80253  11.745   0.870  10.339
60076SOL    HW180254  11.789   0.959  10.330
60076SOL    HW280255  11.682   0.870  10.416
60077SOL     OW80256  12.532   0.862  10.355
60077SOL    HW180257  12.457   0.862  10.289
60077SOL    HW280258  12.569   0.770  10.364
60078SOL     OW80259  12.381   0.525   9.585
60078SOL    HW180260  12.394   0.441   9.639
60078SOL    HW280261  12.352   0.599   9.645
60079SOL     OW80262  11.479   0.213  10.541
60079SOL    HW180263  11.456   0.250  10.631
60079SOL    HW280264  11.449   0.118  10.535
60080SOL     OW80265  11.209   1.310  10.592
60080SOL    HW180266  11.262   1.261  10.660
60080SOL    HW280267  11.231   1.408  10.597
60081SOL     OW80268  11.904   0.634  10.374
60081SOL    HW180269  11.963   0.608  10.298
60081SOL    HW280270  11.876   0.730  10.363
60082SOL     OW80271  11.479   0.063   9.928
60082SOL    HW180272  11.468   0.157   9.961
60082SOL    HW280273  11.474   0.000  10.005
60083SOL     OW80274  12.794   0.367   9.684
60083SOL    HW180275  12.796   0.291   9.748
60083SOL    HW280276  12.746   0.444   9.724
60084SOL     OW80277  12.195   0.766  10.276
60084SOL    HW180278  12.210   0.787  10.372
60084SOL    HW280279  12.165   0.671  10.267
60085SOL     OW80280  12.152   1.573  11.010
60085SOL    HW180281  12.132   1.617  10.922
60085SOL    HW280282  12.191   1.482  10.994
60086SOL     OW80283  11.522   0.898  11.114
60086SOL    HW180284  11.598   0.942  11.162
60086SOL    HW280285  11.557   0.851  11.032
60087SOL     OW80286  12.475   0.838   9.352
60087SOL    HW180287  12.509   0.745   9.367
60087SOL    HW280288  12.493   0.865   9.257
60088SOL     OW80289  12.240   1.333  10.159
60088SOL    HW180290  12.247   1.249  10.104
60088SOL    HW280291  12.302   1.402  10.123
60089SOL     OW80292  11.491   0.810  10.259
60089SOL    HW180293  11.584   0.846  10.264
60089SOL    HW280294  11.485   0.725  10.311
60090SOL     OW80295  11.511   0.509  10.316
60090SOL    HW180296  11.459   0.426  10.299
60090SOL    HW280297  11.588   0.514  10.252
60091SOL     OW80298  12.310   0.380  10.988
60091SOL    HW180299  12.265   0.443  11.052
60091SOL    HW280300  12.403   0.411  10.971
60092SOL     OW80301  12.332   0.207  10.787
60092SOL    HW180302  12.332   0.271  10.864
60092SOL    HW280303  12.360   0.255  10.704
60093SOL     OW80304  11.180   1.326   9.510
60093SOL    HW180305  11.087   1.347   9.479
60093SOL    HW280306  11.190   1.227   9.523
60094SOL     OW80307  11.260   1.801  10.237
60094SOL    HW180308  11.218   1.715  10.210
60094SOL    HW280309  11.354   1.804  10.203
60095SOL     OW80310  11.676   1.568  10.220
60095SOL    HW180311  11.742   1.642  10.229
60095SOL    HW280312  11.720   1.489  10.178
60096SOL     OW80313  12.174   0.796  10.548
60096SOL    HW180314  12.215   0.764  10.634
60096SOL    HW280315  12.078   0.769  10.545
60097SOL     OW80316  11.212   0.544  10.424
60097SOL    HW180317  11.297   0.511  10.383
60097SOL    HW280318  11.225   0.559  10.522
60098SOL     OW80319  11.361   0.520  11.032
60098SOL    HW180320  11.420   0.480  10.962
60098SOL    HW280321  11.303   0.591  10.991
60099SOL     OW80322  12.541   0.950  10.970
60099SOL    HW180323  12.580   1.039  10.990
60099SOL    HW280324  12.551   0.930  10.873
60100SOL     OW80325  11.987   0.572   9.635
60100SOL    HW180326  11.994   0.483   9.589
60100SOL    HW280327  11.893   0.606   9.627
60101SOL     OW80328  11.424   1.564  11.054
60101SOL    HW180329  11.394   1.621  11.130
60101SOL    HW280330  11.417   1.467  11.080
60102SOL     OW80331  11.843   0.464  10.579
60102SOL    HW180332  11.809   0.375  10.549
60102SOL    HW280333  11.869   0.518  10.499
60103SOL     OW80334  12.102   1.678  10.775
60103SOL    HW180335  12.078   1.660  10.680
60103SOL    HW280336  12.132   1.772  10.785
60104SOL     OW80337  11.645   0.500   9.501
60104SOL    HW180338  11.706   0.580   9.505
60104SOL    HW280339  11.550   0.531   9.508
60105SOL     OW80340  11.331   1.137  10.776
60105SOL    HW180341  11.353   1.076  10.852
60105SOL    HW280342  11.341   1.088  10.690
60106SOL     OW80343  12.519   1.059  10.544
60106SOL    HW180344  12.543   0.996  10.470
60106SOL    HW280345  12.429   1.099  10.526
60107SOL     OW80346  12.474   0.855   9.619
60107SOL    HW180347  12.388   0.824   9.661
60107SOL    HW280348  12.470   0.841   9.520
60108SOL     OW80349  12.424   1.731  10.438
60108SOL    HW180350  12.508   1.736  10.384
60108SOL    HW280351  12.401   1.635  10.456
60109SOL     OW80352  11.255   1.258  10.332
60109SOL    HW180353  11.250   1.257  10.432
60109SOL    HW280354  11.172   1.217  10.294
60110SOL     OW80355  11.860   1.662  11.026
60110SOL    HW180356  11.804   1.743  11.035
60110SOL    HW280357  11.912   1.666  10.940
60111SOL     OW80358  12.560   1.573   9.787
60111SOL    HW180359  12.627   1.585   9.713
60111SOL    HW280360  12.520   1.662   9.810
60112SOL     OW80361  11.302   1.794  11.161
60112SOL    HW180362  11.261   1.720  11.214
60112SOL    HW280363  11.366   1.845  11.219
60113SOL     OW80364  12.452   0.927   9.982
60113SOL    HW180365  12.512   0.846   9.984
60113SOL    HW280366  12.492   0.996   9.922
60114SOL     OW80367  12.002   1.273  10.732
60114SOL    HW180368  11.997   1.306  10.827
60114SOL    HW280369  11.916   1.292  10.686
60115SOL     OW80370  11.844   1.616   9.464
60115SOL    HW180371  11.853   1.626   9.365
60115SOL    HW280372  11.804   1.527   9.485
60116SOL     OW80373  11.435   0.326  10.030
60116SOL    HW180374  11.356   0.377   9.996
60116SOL    HW280375  11.426   0.311  10.128
60117SOL     OW80376  12.366   1.612   9.341
60117SOL    HW180377  12.372   1.519   9.378
60117SOL    HW280378  12.307   1.612   9.261
60118SOL     OW80379  11.994   1.002  10.682
60118SOL    HW180380  12.034   1.001  10.590
60118SOL    HW280381  12.004   1.094  10.722
60119SOL     OW80382  12.088   0.910   9.601
60119SOL    HW180383  12.151   0.948   9.533
60119SOL    HW280384  12.128   0.827   9.640
60120SOL     OW80385  11.544   1.288  10.800
60120SOL    HW180386  11.531   1.381  10.766
60120SOL    HW280387  11.460   1.236  10.787
60121SOL     OW80388  12.211   1.098  10.006
60121SOL    HW180389  12.141   1.051  10.060
60121SOL    HW280390  12.270   1.030   9.963
60122SOL     OW80391  12.186   0.236  10.281
60122SOL    HW180392  12.178   0.200  10.188
60122SOL    HW280393  12.184   0.160  10.346
60123SOL     OW80394  11.762   1.487   9.801
60123SOL    HW180395  11.804   1.429   9.731
60123SOL    HW280396  11.718   1.566   9.757
60124SOL     OW80397  11.427   1.348   9.600
60124SOL    HW180398  11.331   1.349   9.573
60124SOL    HW280399  11.439   1.401   9.684
60125SOL     OW80400  11.277   1.013  11.036
60125SOL    HW180401  11.200   0.980  11.090
60125SOL    HW280402  11.362   0.983  11.078
60126SOL     OW80403  11.844   0.203  10.799
60126SOL    HW180404  11.934   0.187  10.759
60126SOL    HW280405  11.852   0.208  10.898
60127SOL     OW80406  11.247   0.345   9.343
60127SOL    HW180407  11.155   0.317   9.314
60127SOL    HW280408  11.278   0.422   9.287
60128SOL     OW80409  12.612   0.856  10.708
60128SOL    HW180410  12.555   0.908  10.645
60128SOL    HW280411  12.708   0.868  10.684
60129SOL     OW80412  11.244   0.166   9.628
60129SOL    HW180413  11.227   0.249   9.574
60129SOL    HW280414  11.334   0.129   9.606
60130SOL     OW80415  12.355   1.335   9.429
60130SOL    HW180416  12.256   1.324   9.431
60130SOL    HW280417  12.389   1.350   9.522
60131SOL     OW80418  11.785   0.842  10.741
60131SOL    HW180419  11.841   0.923  10.724
60131SOL    HW280420  11.844   0.762  10.744
60132SOL     OW80421  11.888   0.565  11.018
60132SOL    HW180422  11.907   0.630  11.092
60132SOL    HW280423  11.948   0.485  11.027
60133SOL     OW80424  12.622   1.220  10.943
60133SOL    HW180425  12.613   1.210  11.042
60133SOL    HW280426  12.718   1.213  10.917
60134SOL     OW80427  11.562   1.741  10.870
60134SOL    HW180428  11.471   1.782  10.868
60134SOL    HW280429  11.555   1.647  10.902
60135SOL     OW80430  12.397   0.325   9.759
60135SOL    HW180431  12.462   0.251   9.748
60135SOL    HW280432  12.417   0.375   9.843
60136SOL     OW80433  11.766   0.745   9.962
60136SOL    HW180434  11.816   0.830   9.943
60136SOL    HW280435  11.678   0.747   9.914
60137SOL     OW80436  12.031   1.374   9.326
60137SOL    HW180437  11.985   1.389   9.414
60137SOL    HW280438  12.075   1.459   9.296
60138SOL     OW80439  11.833   1.790  10.263
60138SOL    HW180440  11.787   1.878  10.250
60138SOL    HW280441  11.932   1.802  10.256
60139SOL     OW80442  12.031   0.956  10.171
60139SOL    HW180443  12.085   0.887  10.219
60139SOL    HW280444  11.999   1.025  10.237
60140SOL     OW80445  12.255   0.984   9.397
60140SOL    HW180446  12.232   1.037   9.315
60140SOL    HW280447  12.336   0.928   9.378
60141SOL     OW80448  11.393   1.314  11.154
60141SOL    HW180449  11.328   1.241  11.133
60141SOL    HW280450  11.397   1.328  11.252
60142SOL     OW80451  11.251   1.240   9.963
60142SOL    HW180452  11.250   1.193  10.051
60142SOL    HW280453  11.333   1.212   9.912
60143SOL     OW80454  11.844   1.391  10.934
60143SOL    HW180455  11.766   1.341  10.972
60143SOL    HW280456  11.841   1.486  10.965
60144SOL     OW80457  11.600   0.424   9.830
60144SOL    HW180458  11.630   0.352   9.768
60144SOL    HW280459  11.561   0.384   9.913
60145SOL     OW80460  12.877   1.487  10.414
60145SOL    HW180461  12.784   1.462  10.387
60145SOL    HW280462  12.903   1.437  10.496
60146SOL     OW80463  11.489   0.547  10.590
60146SOL    HW180464  11.527   0.488  10.662
60146SOL    HW280465  11.529   0.521  10.502
60147SOL     OW80466  11.984   1.586   9.997
60147SOL    HW180467  12.016   1.596   9.903
60147SOL    HW280468  11.905   1.524   9.999
60148SOL     OW80469  12.596   0.214  10.422
60148SOL    HW180470  12.648   0.149  10.477
60148SOL    HW280471  12.547   0.277  10.483
60149SOL     OW80472  12.173   0.034  10.464
60149SOL    HW180473  12.110  -0.038  10.433
60149SOL    HW280474  12.266  -0.002  10.464
60150SOL     OW80475  11.942   1.330   9.611
60150SOL    HW180476  11.896   1.243   9.628
60150SOL    HW280477  12.033   1.327   9.652
60151SOL     OW80478  11.790   1.567  10.594
60151SOL    HW180479  11.785   1.649  10.651
60151SOL    HW280480  11.879   1.564  10.549
60152SOL     OW80481  12.524   0.052   9.478
60152SOL    HW180482  12.559   0.011   9.394
60152SOL    HW280483  12.434   0.014   9.498
60153SOL     OW80484  12.472   0.453  10.001
60153SOL    HW180485  12.413   0.533  10.005
60153SOL    HW280486  12.487   0.418  10.094
60154SOL     OW80487  11.211   1.077   9.610
60154SOL    HW180488  11.310   1.066   9.601
60154SOL    HW280489  11.171   0.991   9.642
60155SOL     OW80490  12.047   1.646   9.647
60155SOL    HW180491  11.970   1.611   9.593
60155SOL    HW280492  12.015   1.717   9.709
60156SOL     OW80493  11.402   0.628  11.285
60156SOL    HW180494  11.309   0.626  11.322
60156SOL    HW280495  11.403   0.589  11.193
60157SOL     OW80496  11.397   0.275  12.168
60157SOL    HW180497  11.432   0.258  12.260
60157SOL    HW280498  11.309   0.230  12.156
60158SOL     OW80499  11.191   0.368  11.819
60158SOL    HW180500  11.109   0.411  11.858
60158SOL    HW280501  11.163   0.295  11.756
60159SOL     OW80502  11.741   1.275  12.337
60159SOL    HW180503  11.648   1.268  12.300
60159SOL    HW280504  11.752   1.364  12.381
60160SOL     OW80505  12.727   1.511  11.875
60160SOL    HW180506  12.670   1.495  11.956
60160SOL    HW280507  12.668   1.521  11.795
60161SOL     OW80508  12.307   0.703  11.889
60161SOL    HW180509  12.364   0.781  11.864
60161SOL    HW280510  12.247   0.729  11.965
60162SOL     OW80511  11.940   1.144  12.195
60162SOL    HW180512  11.862   1.161  12.255
60162SOL    HW280513  11.974   1.231  12.159
60163SOL     OW80514  11.857   1.012  11.837
60163SOL    HW180515  11.926   0.996  11.907
60163SOL    HW280516  11.784   1.069  11.875
60164SOL     OW80517  11.507   1.435  12.233
60164SOL    HW180518  11.429   1.404  12.180
60164SOL    HW280519  11.565   1.493  12.176
60165SOL     OW80520  11.610   0.392  12.671
60165SOL    HW180521  11.692   0.336  12.680
60165SOL    HW280522  11.529   0.334  12.675
60166SOL     OW80523  11.403   1.713  11.655
60166SOL    HW180524  11.437   1.790  11.709
60166SOL    HW280525  11.447   1.713  11.565
60167SOL     OW80526  11.402   1.434  11.710
60167SOL    HW180527  11.376   1.530  11.710
60167SOL    HW280528  11.331   1.380  11.755
60168SOL     OW80529  11.412   1.091  12.058
60168SOL    HW180530  11.426   1.007  12.110
60168SOL    HW280531  11.357   1.155  12.113
60169SOL     OW80532  11.792   1.786  12.611
60169SOL    HW180533  11.700   1.769  12.646
60169SOL    HW280534  11.820   1.878  12.637
60170SOL     OW80535  11.778   0.964  11.295
60170SOL    HW180536  11.785   1.048  11.241
60170SOL    HW280537  11.824   0.977  11.383
60171SOL     OW80538  12.766   0.114  12.652
60171SOL    HW180539  12.748   0.181  12.580
60171SOL    HW280540  12.763   0.160  12.741
60172SOL     OW80541  11.294   0.643  11.735
60172SOL    HW180542  11.249   0.555  11.752
60172SOL    HW280543  11.293   0.697  11.819
60173SOL     OW80544  11.199   1.596  11.289
60173SOL    HW180545  11.180   1.500  11.310
60173SOL    HW280546  11.166   1.654  11.364
60174SOL     OW80547  12.861   0.922  11.784
60174SOL    HW180548  12.956   0.893  11.792
60174SOL    HW280549  12.853   0.987  11.709
60175SOL     OW80550  11.785   1.365  11.898
60175SOL    HW180551  11.736   1.278  11.907
60175SOL    HW280552  11.762   1.408  11.811
60176SOL     OW80553  11.981   0.004  11.674
60176SOL    HW180554  12.021   0.095  11.665
60176SOL    HW280555  11.881   0.012  11.680
60177SOL     OW80556  11.369   0.976  12.436
60177SOL    HW180557  11.458   0.931  12.422
60177SOL    HW280558  11.296   0.911  12.417
60178SOL     OW80559  11.489   0.251  12.973
60178SOL    HW180560  11.560   0.322  12.979
60178SOL    HW280561  11.401   0.290  13.001
60179SOL     OW80562  12.638   1.417  12.125
60179SOL    HW180563  12.579   1.423  12.205
60179SOL    HW280564  12.623   1.329  12.079
60180SOL     OW80565  11.770   0.729  11.442
60180SOL    HW180566  11.794   0.798  11.374
60180SOL    HW280567  11.692   0.762  11.496
60181SOL     OW80568  12.453   0.345  12.116
60181SOL    HW180569  12.367   0.295  12.103
60181SOL    HW280570  12.515   0.291  12.172
60182SOL     OW80571  11.979   0.605  12.637
60182SOL    HW180572  11.932   0.602  12.726
60182SOL    HW280573  11.928   0.550  12.571
60183SOL     OW80574  12.163   0.410  12.414
60183SOL    HW180575  12.086   0.444  12.468
60183SOL    HW280576  12.129   0.359  12.335
60184SOL     OW80577  12.213   0.701  11.601
60184SOL    HW180578  12.239   0.697  11.697
60184SOL    HW280579  12.128   0.650  11.587
60185SOL     OW80580  11.248   0.811  11.961
60185SOL    HW180581  11.347   0.799  11.970
60185SOL    HW280582  11.224   0.906  11.982
60186SOL     OW80583  11.302   1.821  12.743
60186SOL    HW180584  11.292   1.806  12.842
60186SOL    HW280585  11.216   1.857  12.707
60187SOL     OW80586  12.037   0.348  11.367
60187SOL    HW180587  12.096   0.411  11.318
60187SOL    HW280588  12.056   0.254  11.338
60188SOL     OW80589  12.534   1.144  11.717
60188SOL    HW180590  12.617   1.115  11.669
60188SOL    HW280591  12.485   1.211  11.661
60189SOL     OW80592  11.722   0.196  12.057
60189SOL    HW180593  11.717   0.191  12.157
60189SOL    HW280594  11.724   0.292  12.028
60190SOL     OW80595  12.180   1.456  11.649
60190SOL    HW180596  12.134   1.528  11.597
60190SOL    HW280597  12.176   1.476  11.747
60191SOL     OW80598  11.523   1.801  12.025
60191SOL    HW180599  11.573   1.715  12.031
60191SOL    HW280600  11.588   1.878  12.022
60192SOL     OW80601  11.493   0.943  11.414
60192SOL    HW180602  11.575   0.982  11.372
60192SOL    HW280603  11.466   0.861  11.365
60193SOL     OW80604  12.283   1.776  11.409
60193SOL    HW180605  12.223   1.714  11.459
60193SOL    HW280606  12.314   1.732  11.324
60194SOL     OW80607  11.374   0.285  12.670
60194SOL    HW180608  11.294   0.345  12.657
60194SOL    HW280609  11.364   0.236  12.756
60195SOL     OW80610  11.636   1.743  11.495
60195SOL    HW180611  11.669   1.782  11.581
60195SOL    HW280612  11.712   1.736  11.430
60196SOL     OW80613  12.572   0.107  11.598
60196SOL    HW180614  12.548   0.070  11.508
60196SOL    HW280615  12.671   0.123  11.602
60197SOL     OW80616  11.421   1.785  12.413
60197SOL    HW180617  11.478   1.720  12.463
60197SOL    HW280618  11.405   1.752  12.320
60198SOL     OW80619  12.112   1.698  12.076
60198SOL    HW180620  12.192   1.641  12.097
60198SOL    HW280621  12.063   1.658  11.999
60199SOL     OW80622  11.554   0.700  11.652
60199SOL    HW180623  11.599   0.610  11.649
60199SOL    HW280624  11.460   0.689  11.685
60200SOL     OW80625  11.786   0.122  11.289
60200SOL    HW180626  11.884   0.100  11.296
60200SOL    HW280627  11.755   0.105  11.196
60201SOL     OW80628  12.060   1.514  12.367
60201SOL    HW180629  12.037   1.489  12.273
60201SOL    HW280630  12.121   1.445  12.406
60202SOL     OW80631  11.975   1.402  12.096
60202SOL    HW180632  12.065   1.416  12.054
60202SOL    HW280633  11.904   1.404  12.025
60203SOL     OW80634  12.094   0.503  12.071
60203SOL    HW180635  12.069   0.494  11.975
60203SOL    HW280636  12.142   0.421  12.102
60204SOL     OW80637  11.711   0.064  11.684
60204SOL    HW180638  11.630   0.065  11.742
60204SOL    HW280639  11.714   0.147  11.629
60205SOL     OW80640  12.606   1.188  11.213
60205SOL    HW180641  12.638   1.112  11.270
60205SOL    HW280642  12.514   1.215  11.243
60206SOL     OW80643  11.469   0.035  11.343
60206SOL    HW180644  11.518   0.119  11.322
60206SOL    HW280645  11.531  -0.030  11.388
60207SOL     OW80646  12.107   0.236  11.652
60207SOL    HW180647  12.059   0.277  11.574
60207SOL    HW280648  12.206   0.234  11.633
60208SOL     OW80649  12.399   1.570  11.965
60208SOL    HW180650  12.420   1.644  11.900
60208SOL    HW280651  12.467   1.570  12.038
60209SOL     OW80652  11.631   1.152  11.913
60209SOL    HW180653  11.560   1.125  11.978
60209SOL    HW280654  11.605   1.124  11.820
60210SOL     OW80655  12.443   1.797  11.763
60210SOL    HW180656  12.487   1.861  11.699
60210SOL    HW280657  12.393   1.849  11.833
60211SOL     OW80658  12.204   0.549  11.188
60211SOL    HW180659  12.163   0.631  11.149
60211SOL    HW280660  12.268   0.575  11.261
60212SOL     OW80661  11.250   0.556  12.558
60212SOL    HW180662  11.342   0.555  12.517
60212SOL    HW280663  11.244   0.630  12.625
60213SOL     OW80664  11.733   0.222  12.319
60213SOL    HW180665  11.771   0.138  12.356
60213SOL    HW280666  11.645   0.241  12.363
60214SOL     OW80667  12.038   0.454  11.814
60214SOL    HW180668  12.006   0.526  11.752
60214SOL    HW280669  12.062   0.373  11.761
60215SOL     OW80670  12.189   0.039  11.925
60215SOL    HW180671  12.117   0.044  11.856
60215SOL    HW280672  12.165  -0.030  11.994
60216SOL     OW80673  12.601   1.173  12.039
60216SOL    HW180674  12.546   1.089  12.032
60216SOL    HW280675  12.627   1.202  11.947
60217SOL     OW80676  11.660   1.385  11.346
60217SOL    HW180677  11.573   1.370  11.393
60217SOL    HW280678  11.643   1.411  11.251
60218SOL     OW80679  12.562   0.575  11.250
60218SOL    HW180680  12.508   0.554  11.331
60218SOL    HW280681  12.653   0.534  11.259
60219SOL     OW80682  11.699   0.256  11.500
60219SOL    HW180683  11.726   0.197  11.425
60219SOL    HW280684  11.699   0.351  11.469
60220SOL     OW80685  12.236   1.347  12.512
60220SOL    HW180686  12.156   1.324  12.567
60220SOL    HW280687  12.319   1.321  12.561
60221SOL     OW80688  12.283   1.195  12.272
60221SOL    HW180689  12.243   1.239  12.353
60221SOL    HW280690  12.242   1.232  12.189
60222SOL     OW80691  12.087   0.089  12.574
60222SOL    HW180692  12.112   0.069  12.479
60222SOL    HW280693  12.159   0.145  12.616
60223SOL     OW80694  11.877   1.050  11.540
60223SOL    HW180695  11.863   1.057  11.639
60223SOL    HW280696  11.961   0.999  11.522
60224SOL     OW80697  11.582   0.813  12.423
60224SOL    HW180698  11.668   0.825  12.473
60224SOL    HW280699  11.540   0.726  12.450
60225SOL     OW80700  12.446   0.386  12.434
60225SOL    HW180701  12.467   0.460  12.498
60225SOL    HW280702  12.357   0.403  12.391
60226SOL     OW80703  11.236   1.564  12.503
60226SOL    HW180704  11.190   1.646  12.469
60226SOL    HW280705  11.334   1.583  12.512
60227SOL     OW80706  11.539   1.100  11.673
60227SOL    HW180707  11.532   1.183  11.617
60227SOL    HW280708  11.543   1.020  11.613
60228SOL     OW80709  11.738   0.537  12.037
60228SOL    HW180710  11.750   0.603  11.963
60228SOL    HW280711  11.784   0.571  12.120
60229SOL     OW80712  12.424   1.348  11.560
60229SOL    HW180713  12.474   1.425  11.600
60229SOL    HW280714  12.329   1.350  11.592
60230SOL     OW80715  12.444   1.445  12.314
60230SOL    HW180716  12.491   1.458  12.401
60230SOL    HW280717  12.378   1.371  12.323
60231SOL     OW80718  11.526   1.510  12.501
60231SOL    HW180719  11.505   1.466  12.414
60231SOL    HW280720  11.623   1.536  12.504
60232SOL     OW80721  11.574   0.751  12.770
60232SOL    HW180722  11.642   0.806  12.723
60232SOL    HW280723  11.614   0.663  12.797
60233SOL     OW80724  12.759   0.779  12.842
60233SOL    HW180725  12.667   0.817  12.837
60233SOL    HW280726  12.819   0.826  12.777
60234SOL     OW80727  11.745   0.870  12.201
60234SOL    HW180728  11.789   0.959  12.192
60234SOL    HW280729  11.682   0.870  12.278
60235SOL     OW80730  12.532   0.862  12.217
60235SOL    HW180731  12.457   0.862  12.151
60235SOL    HW280732  12.569   0.770  12.226
60236SOL     OW80733  12.381   0.525  11.447
60236SOL    HW180734  12.394   0.441  11.501
60236SOL    HW280735  12.352   0.599  11.507
60237SOL     OW80736  11.479   0.213  12.403
60237SOL    HW180737  11.456   0.250  12.493
60237SOL    HW280738  11.449   0.118  12.397
60238SOL     OW80739  11.209   1.310  12.454
60238SOL    HW180740  11.262   1.261  12.522
60238SOL    HW280741  11.231   1.408  12.459
60239SOL     OW80742  11.904   0.634  12.236
60239SOL    HW180743  11.963   0.608  12.160
60239SOL    HW280744  11.876   0.730  12.225
60240SOL     OW80745  11.479   0.063  11.790
60240SOL    HW180746  11.468   0.157  11.823
60240SOL    HW280747  11.474   0.000  11.867
60241SOL     OW80748  12.794   0.367  11.546
60241SOL    HW180749  12.796   0.291  11.610
60241SOL    HW280750  12.746   0.444  11.586
60242SOL     OW80751  12.195   0.766  12.138
60242SOL    HW180752  12.210   0.787  12.234
60242SOL    HW280753  12.165   0.671  12.129
60243SOL     OW80754  12.152   1.573  12.872
60243SOL    HW180755  12.132   1.617  12.784
60243SOL    HW280756  12.191   1.482  12.856
60244SOL     OW80757  12.475   0.838  11.214
60244SOL    HW180758  12.509   0.745  11.229
60244SOL    HW280759  12.493   0.865  11.119
60245SOL     OW80760  12.240   1.333  12.021
60245SOL    HW180761  12.247   1.249  11.966
60245SOL    HW280762  12.302   1.402  11.985
60246SOL     OW80763  11.491   0.810  12.121
60246SOL    HW180764  11.584   0.846  12.126
60246SOL    HW280765  11.485   0.725  12.173
60247SOL     OW80766  11.511   0.509  12.178
60247SOL    HW180767  11.459   0.426  12.161
60247SOL    HW280768  11.588   0.514  12.114
60248SOL     OW80769  12.310   0.380  12.850
60248SOL    HW180770  12.265   0.443  12.914
60248SOL    HW280771  12.403   0.411  12.833
60249SOL     OW80772  12.332   0.207  12.649
60249SOL    HW180773  12.332   0.271  12.726
60249SOL    HW280774  12.360   0.255  12.566
60250SOL     OW80775  11.180   1.326  11.372
60250SOL    HW180776  11.087   1.347  11.341
60250SOL    HW280777  11.190   1.227  11.385
60251SOL     OW80778  11.260   1.801  12.099
60251SOL    HW180779  11.218   1.715  12.072
60251SOL    HW280780  11.354   1.804  12.065
60252SOL     OW80781  11.676   1.568  12.082
60252SOL    HW180782  11.742   1.642  12.091
60252SOL    HW280783  11.720   1.489  12.040
60253SOL     OW80784  12.174   0.796  12.410
60253SOL    HW180785  12.215   0.764  12.496
60253SOL    HW280786  12.078   0.769  12.407
60254SOL     OW80787  11.212   0.544  12.286
60254SOL    HW180788  11.297   0.511  12.245
60254SOL    HW280789  11.225   0.559  12.384
60255SOL     OW80790  11.987   0.572  11.497
60255SOL    HW180791  11.994   0.483  11.451
60255SOL    HW280792  11.893   0.606  11.489
60256SOL     OW80793  11.843   0.464  12.441
60256SOL    HW180794  11.809   0.375  12.411
60256SOL    HW280795  11.869   0.518  12.361
60257SOL     OW80796  12.102   1.678  12.637
60257SOL    HW180797  12.078   1.660  12.542
60257SOL    HW280798  12.132   1.772  12.647
60258SOL     OW80799  11.645   0.500  11.363
60258SOL    HW180800  11.706   0.580  11.367
60258SOL    HW280801  11.550   0.531  11.370
60259SOL     OW80802  11.331   1.137  12.638
60259SOL    HW180803  11.353   1.076  12.714
60259SOL    HW280804  11.341   1.088  12.552
60260SOL     OW80805  12.519   1.059  12.406
60260SOL    HW180806  12.543   0.996  12.332
60260SOL    HW280807  12.429   1.099  12.388
60261SOL     OW80808  12.474   0.855  11.481
60261SOL    HW180809  12.388   0.824  11.523
60261SOL    HW280810  12.470   0.841  11.382
60262SOL     OW80811  12.424   1.731  12.300
60262SOL    HW180812  12.508   1.736  12.246
60262SOL    HW280813  12.401   1.635  12.318
60263SOL     OW80814  11.255   1.258  12.194
60263SOL    HW180815  11.250   1.257  12.294
60263SOL    HW280816  11.172   1.217  12.156
60264SOL     OW80817  12.560   1.573  11.649
60264SOL    HW180818  12.627   1.585  11.575
60264SOL    HW280819  12.520   1.662  11.672
60265SOL     OW80820  12.452   0.927  11.844
60265SOL    HW180821  12.512   0.846  11.846
60265SOL    HW280822  12.492   0.996  11.784
60266SOL     OW80823  11.844   1.616  11.326
60266SOL    HW180824  11.853   1.626  11.227
60266SOL    HW280825  11.804   1.527  11.347
60267SOL     OW80826  11.435   0.326  11.892
60267SOL    HW180827  11.356   0.377  11.858
60267SOL    HW280828  11.426   0.311  11.990
60268SOL     OW80829  12.366   1.612  11.203
60268SOL    HW180830  12.372   1.519  11.240
60268SOL    HW280831  12.307   1.612  11.123
60269SOL     OW80832  11.994   1.002  12.544
60269SOL    HW180833  12.034   1.001  12.452
60269SOL    HW280834  12.004   1.094  12.584
60270SOL     OW80835  12.088   0.910  11.463
60270SOL    HW180836  12.151   0.948  11.395
60270SOL    HW280837  12.128   0.827  11.502
60271SOL     OW80838  11.544   1.288  12.662
60271SOL    HW180839  11.531   1.381  12.628
60271SOL    HW280840  11.460   1.236  12.649
60272SOL     OW80841  12.211   1.098  11.868
60272SOL    HW180842  12.141   1.051  11.922
60272SOL    HW280843  12.270   1.030  11.825
60273SOL     OW80844  12.186   0.236  12.143
60273SOL    HW180845  12.178   0.200  12.050
60273SOL    HW280846  12.184   0.160  12.208
60274SOL     OW80847  11.762   1.487  11.663
60274SOL    HW180848  11.804   1.429  11.593
60274SOL    HW280849  11.718   1.566  11.619
60275SOL     OW80850  11.427   1.348  11.462
60275SOL    HW180851  11.331   1.349  11.435
60275SOL    HW280852  11.439   1.401  11.546
60276SOL     OW80853  11.247   0.345  11.205
60276SOL    HW180854  11.155   0.317  11.176
60276SOL    HW280855  11.278   0.422  11.149
60277SOL     OW80856  12.612   0.856  12.570
60277SOL    HW180857  12.555   0.908  12.507
60277SOL    HW280858  12.708   0.868  12.546
60278SOL     OW80859  11.244   0.166  11.490
60278SOL    HW180860  11.227   0.249  11.436
60278SOL    HW280861  11.334   0.129  11.468
60279SOL     OW80862  12.355   1.335  11.291
60279SOL    HW180863  12.256   1.324  11.293
60279SOL    HW280864  12.389   1.350  11.384
60280SOL     OW80865  11.785   0.842  12.603
60280SOL    HW180866  11.841   0.923  12.586
60280SOL    HW280867  11.844   0.762  12.606
60281SOL     OW80868  11.562   1.741  12.732
60281SOL    HW180869  11.471   1.782  12.730
60281SOL    HW280870  11.555   1.647  12.764
60282SOL     OW80871  12.397   0.325  11.621
60282SOL    HW180872  12.462   0.251  11.610
60282SOL    HW280873  12.417   0.375  11.705
60283SOL     OW80874  11.766   0.745  11.824
60283SOL    HW180875  11.816   0.830  11.805
60283SOL    HW280876  11.678   0.747  11.776
60284SOL     OW80877  12.031   1.374  11.188
60284SOL    HW180878  11.985   1.389  11.276
60284SOL    HW280879  12.075   1.459  11.158
60285SOL     OW80880  11.833   1.790  12.125
60285SOL    HW180881  11.787   1.878  12.112
60285SOL    HW280882  11.932   1.802  12.118
60286SOL     OW80883  12.031   0.956  12.033
60286SOL    HW180884  12.085   0.887  12.081
60286SOL    HW280885  11.999   1.025  12.099
60287SOL     OW80886  12.255   0.984  11.259
60287SOL    HW180887  12.232   1.037  11.177
60287SOL    HW280888  12.336   0.928  11.240
60288SOL     OW80889  11.251   1.240  11.825
60288SOL    HW180890  11.250   1.193  11.913
60288SOL    HW280891  11.333   1.212  11.774
60289SOL     OW80892  11.600   0.424  11.692
60289SOL    HW180893  11.630   0.352  11.630
60289SOL    HW280894  11.561   0.384  11.775
60290SOL     OW80895  12.877   1.487  12.276
60290SOL    HW180896  12.784   1.462  12.249
60290SOL    HW280897  12.903   1.437  12.358
60291SOL     OW80898  11.489   0.547  12.452
60291SOL    HW180899  11.527   0.488  12.524
60291SOL    HW280900  11.529   0.521  12.364
60292SOL     OW80901  11.984   1.586  11.859
60292SOL    HW180902  12.016   1.596  11.765
60292SOL    HW280903  11.905   1.524  11.861
60293SOL     OW80904  12.596   0.214  12.284
60293SOL    HW180905  12.648   0.149  12.339
60293SOL    HW280906  12.547   0.277  12.345
60294SOL     OW80907  12.173   0.034  12.326
60294SOL    HW180908  12.110  -0.038  12.295
60294SOL    HW280909  12.266  -0.002  12.326
60295SOL     OW80910  11.942   1.330  11.473
60295SOL    HW180911  11.896   1.243  11.490
60295SOL    HW280912  12.033   1.327  11.514
60296SOL     OW80913  11.790   1.567  12.456
60296SOL    HW180914  11.785   1.649  12.513
60296SOL    HW280915  11.879   1.564  12.411
60297SOL     OW80916  12.524   0.052  11.340
60297SOL    HW180917  12.559   0.011  11.256
60297SOL    HW280918  12.434   0.014  11.360
60298SOL     OW80919  12.472   0.453  11.863
60298SOL    HW180920  12.413   0.533  11.867
60298SOL    HW280921  12.487   0.418  11.956
60299SOL     OW80922  11.211   1.077  11.472
60299SOL    HW180923  11.310   1.066  11.463
60299SOL    HW280924  11.171   0.991  11.504
60300SOL     OW80925  12.047   1.646  11.509
60300SOL    HW180926  11.970   1.611  11.455
60300SOL    HW280927  12.015   1.717  11.571
60301SOL     OW80928  11.402   2.490   0.113
60301SOL    HW180929  11.309   2.488   0.150
60301SOL    HW280930  11.403   2.451   0.021
60302SOL     OW80931  11.397   2.137   0.996
60302SOL    HW180932  11.432   2.120   1.088
60302SOL    HW280933  11.309   2.092   0.984
60303SOL     OW80934  11.191   2.230   0.647
60303SOL    HW180935  11.109   2.273   0.686
60303SOL    HW280936  11.163   2.157   0.584
60304SOL     OW80937  11.741   3.137   1.165
60304SOL    HW180938  11.648   3.130   1.128
60304SOL    HW280939  11.752   3.226   1.209
60305SOL     OW80940  12.727   3.373   0.703
60305SOL    HW180941  12.670   3.357   0.784
60305SOL    HW280942  12.668   3.383   0.623
60306SOL     OW80943  12.307   2.565   0.717
60306SOL    HW180944  12.364   2.643   0.692
60306SOL    HW280945  12.247   2.591   0.793
60307SOL     OW80946  11.940   3.006   1.023
60307SOL    HW180947  11.862   3.023   1.083
60307SOL    HW280948  11.974   3.093   0.987
60308SOL     OW80949  12.022   2.660   1.823
60308SOL    HW180950  12.018   2.736   1.888
60308SOL    HW280951  12.044   2.696   1.732
60309SOL     OW80952  11.857   2.874   0.665
60309SOL    HW180953  11.926   2.858   0.735
60309SOL    HW280954  11.784   2.931   0.703
60310SOL     OW80955  11.858   3.023   1.803
60310SOL    HW180956  11.918   3.102   1.817
60310SOL    HW280957  11.772   3.054   1.762
60311SOL     OW80958  11.507   3.297   1.061
60311SOL    HW180959  11.429   3.266   1.008
60311SOL    HW280960  11.565   3.355   1.004
60312SOL     OW80961  11.610   2.254   1.499
60312SOL    HW180962  11.692   2.198   1.508
60312SOL    HW280963  11.529   2.196   1.503
60313SOL     OW80964  11.403   3.575   0.483
60313SOL    HW180965  11.437   3.652   0.537
60313SOL    HW280966  11.447   3.575   0.393
60314SOL     OW80967  12.299   3.203   1.690
60314SOL    HW180968  12.346   3.203   1.778
60314SOL    HW280969  12.251   3.116   1.679
60315SOL     OW80970  11.402   3.296   0.538
60315SOL    HW180971  11.376   3.392   0.538
60315SOL    HW280972  11.331   3.242   0.583
60316SOL     OW80973  11.412   2.953   0.886
60316SOL    HW180974  11.426   2.869   0.938
60316SOL    HW280975  11.357   3.017   0.941
60317SOL     OW80976  11.792   3.648   1.439
60317SOL    HW180977  11.700   3.631   1.474
60317SOL    HW280978  11.820   3.740   1.465
60318SOL     OW80979  11.778   2.826   0.123
60318SOL    HW180980  11.785   2.910   0.069
60318SOL    HW280981  11.824   2.839   0.211
60319SOL     OW80982  11.294   2.505   0.563
60319SOL    HW180983  11.249   2.417   0.580
60319SOL    HW280984  11.293   2.559   0.647
60320SOL     OW80985  11.199   3.458   0.117
60320SOL    HW180986  11.180   3.362   0.138
60320SOL    HW280987  11.166   3.516   0.192
60321SOL     OW80988  12.861   2.784   0.612
60321SOL    HW180989  12.956   2.755   0.620
60321SOL    HW280990  12.853   2.849   0.537
60322SOL     OW80991  11.285   2.599   1.597
60322SOL    HW180992  11.373   2.586   1.642
60322SOL    HW280993  11.272   2.696   1.575
60323SOL     OW80994  11.785   3.227   0.726
60323SOL    HW180995  11.736   3.140   0.735
60323SOL    HW280996  11.762   3.270   0.639
60324SOL     OW80997  12.465   3.090   1.423
60324SOL    HW180998  12.502   3.017   1.365
60324SOL    HW280999  12.517   3.095   1.508
60325SOL     OW81000  11.981   1.866   0.502
60325SOL    HW181001  12.021   1.957   0.493
60325SOL    HW281002  11.881   1.874   0.508
60326SOL     OW81003  11.369   2.838   1.264
60326SOL    HW181004  11.458   2.793   1.250
60326SOL    HW281005  11.296   2.773   1.245
60327SOL     OW81006  12.359   3.654   1.616
60327SOL    HW181007  12.383   3.714   1.540
60327SOL    HW281008  12.366   3.559   1.586
60328SOL     OW81009  11.489   2.113   1.801
60328SOL    HW181010  11.560   2.184   1.807
60328SOL    HW281011  11.401   2.152   1.829
60329SOL     OW81012  12.638   3.279   0.953
60329SOL    HW181013  12.579   3.285   1.033
60329SOL    HW281014  12.623   3.191   0.907
60330SOL     OW81015  11.770   2.591   0.270
60330SOL    HW181016  11.794   2.660   0.202
60330SOL    HW281017  11.692   2.624   0.324
60331SOL     OW81018  12.453   2.207   0.944
60331SOL    HW181019  12.367   2.157   0.931
60331SOL    HW281020  12.515   2.153   1.000
60332SOL     OW81021  11.979   2.467   1.465
60332SOL    HW181022  11.932   2.464   1.554
60332SOL    HW281023  11.928   2.412   1.399
60333SOL     OW81024  12.566   2.331   1.674
60333SOL    HW181025  12.546   2.374   1.762
60333SOL    HW281026  12.644   2.269   1.683
60334SOL     OW81027  12.145   2.752   1.572
60334SOL    HW181028  12.191   2.668   1.543
60334SOL    HW281029  12.089   2.786   1.497
60335SOL     OW81030  12.163   2.272   1.242
60335SOL    HW181031  12.086   2.306   1.296
60335SOL    HW281032  12.129   2.221   1.163
60336SOL     OW81033  12.213   2.563   0.429
60336SOL    HW181034  12.239   2.559   0.525
60336SOL    HW281035  12.128   2.512   0.415
60337SOL     OW81036  11.248   2.673   0.789
60337SOL    HW181037  11.347   2.661   0.798
60337SOL    HW281038  11.224   2.768   0.810
60338SOL     OW81039  11.302   3.683   1.571
60338SOL    HW181040  11.292   3.668   1.670
60338SOL    HW281041  11.216   3.719   1.535
60339SOL     OW81042  12.037   2.210   0.195
60339SOL    HW181043  12.096   2.273   0.146
60339SOL    HW281044  12.056   2.116   0.166
60340SOL     OW81045  12.534   3.006   0.545
60340SOL    HW181046  12.617   2.977   0.497
60340SOL    HW281047  12.485   3.073   0.489
60341SOL     OW81048  11.722   2.058   0.885
60341SOL    HW181049  11.717   2.053   0.985
60341SOL    HW281050  11.724   2.154   0.856
60342SOL     OW81051  12.180   3.318   0.477
60342SOL    HW181052  12.134   3.390   0.425
60342SOL    HW281053  12.176   3.338   0.575
60343SOL     OW81054  11.523   3.663   0.853
60343SOL    HW181055  11.573   3.577   0.859
60343SOL    HW281056  11.588   3.740   0.850
60344SOL     OW81057  12.399   3.412   1.506
60344SOL    HW181058  12.405   3.335   1.570
60344SOL    HW281059  12.347   3.386   1.426
60345SOL     OW81060  11.493   2.805   0.242
60345SOL    HW181061  11.575   2.844   0.200
60345SOL    HW281062  11.466   2.723   0.193
60346SOL     OW81063  11.633   3.128   1.727
60346SOL    HW181064  11.583   3.129   1.641
60346SOL    HW281065  11.570   3.110   1.803
60347SOL     OW81066  12.283   3.638   0.237
60347SOL    HW181067  12.223   3.576   0.287
60347SOL    HW281068  12.314   3.594   0.152
60348SOL     OW81069  11.374   2.147   1.498
60348SOL    HW181070  11.294   2.207   1.485
60348SOL    HW281071  11.364   2.098   1.584
60349SOL     OW81072  11.636   3.605   0.323
60349SOL    HW181073  11.669   3.644   0.409
60349SOL    HW281074  11.712   3.598   0.258
60350SOL     OW81075  12.572   1.969   0.426
60350SOL    HW181076  12.548   1.932   0.336
60350SOL    HW281077  12.671   1.985   0.430
60351SOL     OW81078  11.421   3.647   1.241
60351SOL    HW181079  11.478   3.582   1.291
60351SOL    HW281080  11.405   3.614   1.148
60352SOL     OW81081  12.112   3.560   0.904
60352SOL    HW181082  12.192   3.503   0.925
60352SOL    HW281083  12.063   3.520   0.827
60353SOL     OW81084  11.554   2.562   0.480
60353SOL    HW181085  11.599   2.472   0.477
60353SOL    HW281086  11.460   2.551   0.513
60354SOL     OW81087  11.786   1.984   0.117
60354SOL    HW181088  11.884   1.962   0.124
60354SOL    HW281089  11.755   1.967   0.024
60355SOL     OW81090  11.953   2.126   1.749
60355SOL    HW181091  12.020   2.065   1.792
60355SOL    HW281092  11.880   2.145   1.814
60356SOL     OW81093  12.060   3.376   1.195
60356SOL    HW181094  12.037   3.351   1.101
60356SOL    HW281095  12.121   3.307   1.234
60357SOL     OW81096  12.523   2.452   1.433
60357SOL    HW181097  12.551   2.409   1.518
60357SOL    HW281098  12.548   2.548   1.434
60358SOL     OW81099  11.975   3.264   0.924
60358SOL    HW181100  12.065   3.278   0.882
60358SOL    HW281101  11.904   3.266   0.853
60359SOL     OW81102  12.094   2.365   0.899
60359SOL    HW181103  12.069   2.356   0.803
60359SOL    HW281104  12.142   2.283   0.930
60360SOL     OW81105  11.711   1.926   0.512
60360SOL    HW181106  11.630   1.927   0.570
60360SOL    HW281107  11.714   2.009   0.457
60361SOL     OW81108  12.606   3.050   0.041
60361SOL    HW181109  12.638   2.974   0.098
60361SOL    HW281110  12.514   3.077   0.071
60362SOL     OW81111  11.469   1.897   0.171
60362SOL    HW181112  11.518   1.981   0.150
60362SOL    HW281113  11.531   1.832   0.216
60363SOL     OW81114  12.107   2.098   0.480
60363SOL    HW181115  12.059   2.139   0.402
60363SOL    HW281116  12.206   2.096   0.461
60364SOL     OW81117  12.248   2.545   1.464
60364SOL    HW181118  12.168   2.484   1.467
60364SOL    HW281119  12.329   2.492   1.440
60365SOL     OW81120  12.399   3.432   0.793
60365SOL    HW181121  12.420   3.506   0.728
60365SOL    HW281122  12.467   3.432   0.866
60366SOL     OW81123  11.631   3.014   0.741
60366SOL    HW181124  11.560   2.987   0.806
60366SOL    HW281125  11.605   2.986   0.648
60367SOL     OW81126  12.443   3.659   0.591
60367SOL    HW181127  12.487   3.723   0.527
60367SOL    HW281128  12.393   3.711   0.661
60368SOL     OW81129  12.204   2.411   0.016
60368SOL    HW181130  12.163   2.493  -0.023
60368SOL    HW281131  12.268   2.437   0.089
60369SOL     OW81132  11.250   2.418   1.386
60369SOL    HW181133  11.342   2.417   1.345
60369SOL    HW281134  11.244   2.492   1.453
60370SOL     OW81135  11.733   2.084   1.147
60370SOL    HW181136  11.771   2.000   1.184
60370SOL    HW281137  11.645   2.103   1.191
60371SOL     OW81138  12.189   1.901   0.753
60371SOL    HW181139  12.117   1.906   0.684
60371SOL    HW281140  12.165   1.832   0.822
60372SOL     OW81141  12.601   3.035   0.867
60372SOL    HW181142  12.546   2.951   0.860
60372SOL    HW281143  12.627   3.064   0.775
60373SOL     OW81144  11.660   3.247   0.174
60373SOL    HW181145  11.573   3.232   0.221
60373SOL    HW281146  11.643   3.273   0.079
60374SOL     OW81147  12.562   2.437   0.078
60374SOL    HW181148  12.508   2.416   0.159
60374SOL    HW281149  12.653   2.396   0.087
60375SOL     OW81150  11.699   2.118   0.328
60375SOL    HW181151  11.726   2.059   0.253
60375SOL    HW281152  11.699   2.213   0.297
60376SOL     OW81153  12.236   3.209   1.340
60376SOL    HW181154  12.156   3.186   1.395
60376SOL    HW281155  12.319   3.183   1.389
60377SOL     OW81156  12.764   3.491   1.625
60377SOL    HW181157  12.791   3.525   1.535
60377SOL    HW281158  12.843   3.453   1.671
60378SOL     OW81159  12.283   3.057   1.100
60378SOL    HW181160  12.243   3.101   1.181
60378SOL    HW281161  12.242   3.094   1.017
60379SOL     OW81162  12.087   1.951   1.402
60379SOL    HW181163  12.112   1.931   1.307
60379SOL    HW281164  12.159   2.007   1.444
60380SOL     OW81165  12.152   2.978   1.719
60380SOL    HW181166  12.053   2.984   1.729
60380SOL    HW281167  12.175   2.898   1.663
60381SOL     OW81168  11.877   2.912   0.368
60381SOL    HW181169  11.863   2.919   0.467
60381SOL    HW281170  11.961   2.861   0.350
60382SOL     OW81171  11.582   2.675   1.251
60382SOL    HW181172  11.668   2.687   1.301
60382SOL    HW281173  11.540   2.588   1.278
60383SOL     OW81174  12.446   2.248   1.262
60383SOL    HW181175  12.467   2.322   1.326
60383SOL    HW281176  12.357   2.265   1.219
60384SOL     OW81177  11.236   3.426   1.331
60384SOL    HW181178  11.190   3.508   1.297
60384SOL    HW281179  11.334   3.445   1.340
60385SOL     OW81180  11.539   2.962   0.501
60385SOL    HW181181  11.532   3.045   0.445
60385SOL    HW281182  11.543   2.882   0.441
60386SOL     OW81183  11.738   2.399   0.865
60386SOL    HW181184  11.750   2.465   0.791
60386SOL    HW281185  11.784   2.433   0.948
60387SOL     OW81186  12.424   3.210   0.388
60387SOL    HW181187  12.474   3.287   0.428
60387SOL    HW281188  12.329   3.212   0.420
60388SOL     OW81189  12.444   3.307   1.142
60388SOL    HW181190  12.491   3.320   1.229
60388SOL    HW281191  12.378   3.233   1.151
60389SOL     OW81192  11.526   3.372   1.329
60389SOL    HW181193  11.505   3.328   1.242
60389SOL    HW281194  11.623   3.398   1.332
60390SOL     OW81195  11.574   2.613   1.598
60390SOL    HW181196  11.642   2.668   1.551
60390SOL    HW281197  11.614   2.525   1.625
60391SOL     OW81198  12.185   1.967   1.770
60391SOL    HW181199  12.191   2.052   1.718
60391SOL    HW281200  12.217   1.891   1.713
60392SOL     OW81201  11.676   1.912   1.740
60392SOL    HW181202  11.634   1.855   1.670
60392SOL    HW281203  11.610   1.981   1.772
60393SOL     OW81204  11.745   2.732   1.029
60393SOL    HW181205  11.789   2.821   1.020
60393SOL    HW281206  11.682   2.732   1.106
60394SOL     OW81207  12.532   2.724   1.045
60394SOL    HW181208  12.457   2.724   0.979
60394SOL    HW281209  12.569   2.632   1.054
60395SOL     OW81210  12.381   2.387   0.275
60395SOL    HW181211  12.394   2.303   0.329
60395SOL    HW281212  12.352   2.461   0.335
60396SOL     OW81213  11.479   2.075   1.231
60396SOL    HW181214  11.456   2.112   1.321
60396SOL    HW281215  11.449   1.980   1.225
60397SOL     OW81216  11.209   3.172   1.282
60397SOL    HW181217  11.262   3.123   1.350
60397SOL    HW281218  11.231   3.270   1.287
60398SOL     OW81219  11.904   2.496   1.064
60398SOL    HW181220  11.963   2.470   0.988
60398SOL    HW281221  11.876   2.592   1.053
60399SOL     OW81222  11.479   1.925   0.618
60399SOL    HW181223  11.468   2.019   0.651
60399SOL    HW281224  11.474   1.862   0.695
60400SOL     OW81225  12.794   2.229   0.374
60400SOL    HW181226  12.796   2.153   0.438
60400SOL    HW281227  12.746   2.306   0.414
60401SOL     OW81228  12.195   2.628   0.966
60401SOL    HW181229  12.210   2.649   1.062
60401SOL    HW281230  12.165   2.533   0.957
60402SOL     OW81231  12.152   3.435   1.700
60402SOL    HW181232  12.132   3.479   1.612
60402SOL    HW281233  12.191   3.344   1.684
60403SOL     OW81234  11.522   2.760   1.804
60403SOL    HW181235  11.598   2.804   1.852
60403SOL    HW281236  11.557   2.713   1.722
60404SOL     OW81237  12.475   2.700   0.042
60404SOL    HW181238  12.509   2.607   0.057
60404SOL    HW281239  12.493   2.727  -0.053
60405SOL     OW81240  12.240   3.195   0.849
60405SOL    HW181241  12.247   3.111   0.794
60405SOL    HW281242  12.302   3.264   0.813
60406SOL     OW81243  11.491   2.672   0.949
60406SOL    HW181244  11.584   2.708   0.954
60406SOL    HW281245  11.485   2.587   1.001
60407SOL     OW81246  11.511   2.371   1.006
60407SOL    HW181247  11.459   2.288   0.989
60407SOL    HW281248  11.588   2.376   0.942
60408SOL     OW81249  12.310   2.242   1.678
60408SOL    HW181250  12.265   2.305   1.742
60408SOL    HW281251  12.403   2.273   1.661
60409SOL     OW81252  12.332   2.069   1.477
60409SOL    HW181253  12.332   2.133   1.554
60409SOL    HW281254  12.360   2.117   1.394
60410SOL     OW81255  11.180   3.188   0.200
60410SOL    HW181256  11.087   3.209   0.169
60410SOL    HW281257  11.190   3.089   0.213
60411SOL     OW81258  11.260   3.663   0.927
60411SOL    HW181259  11.218   3.577   0.900
60411SOL    HW281260  11.354   3.666   0.893
60412SOL     OW81261  11.676   3.430   0.910
60412SOL    HW181262  11.742   3.504   0.919
60412SOL    HW281263  11.720   3.351   0.868
60413SOL     OW81264  12.174   2.658   1.238
60413SOL    HW181265  12.215   2.626   1.324
60413SOL    HW281266  12.078   2.631   1.235
60414SOL     OW81267  11.212   2.406   1.114
60414SOL    HW181268  11.297   2.373   1.073
60414SOL    HW281269  11.225   2.421   1.212
60415SOL     OW81270  11.361   2.382   1.722
60415SOL    HW181271  11.420   2.342   1.652
60415SOL    HW281272  11.303   2.453   1.681
60416SOL     OW81273  12.541   2.812   1.660
60416SOL    HW181274  12.580   2.901   1.680
60416SOL    HW281275  12.551   2.792   1.563
60417SOL     OW81276  11.987   2.434   0.325
60417SOL    HW181277  11.994   2.345   0.279
60417SOL    HW281278  11.893   2.468   0.317
60418SOL     OW81279  11.424   3.426   1.744
60418SOL    HW181280  11.394   3.483   1.820
60418SOL    HW281281  11.417   3.329   1.770
60419SOL     OW81282  11.843   2.326   1.269
60419SOL    HW181283  11.809   2.237   1.239
60419SOL    HW281284  11.869   2.380   1.189
60420SOL     OW81285  12.102   3.540   1.465
60420SOL    HW181286  12.078   3.522   1.370
60420SOL    HW281287  12.132   3.634   1.475
60421SOL     OW81288  11.645   2.362   0.191
60421SOL    HW181289  11.706   2.442   0.195
60421SOL    HW281290  11.550   2.393   0.198
60422SOL     OW81291  11.331   2.999   1.466
60422SOL    HW181292  11.353   2.938   1.542
60422SOL    HW281293  11.341   2.950   1.380
60423SOL     OW81294  12.519   2.921   1.234
60423SOL    HW181295  12.543   2.858   1.160
60423SOL    HW281296  12.429   2.961   1.216
60424SOL     OW81297  12.474   2.717   0.309
60424SOL    HW181298  12.388   2.686   0.351
60424SOL    HW281299  12.470   2.703   0.210
60425SOL     OW81300  12.424   3.593   1.128
60425SOL    HW181301  12.508   3.598   1.074
60425SOL    HW281302  12.401   3.497   1.146
60426SOL     OW81303  11.255   3.120   1.022
60426SOL    HW181304  11.250   3.119   1.122
60426SOL    HW281305  11.172   3.079   0.984
60427SOL     OW81306  11.860   3.524   1.716
60427SOL    HW181307  11.804   3.605   1.725
60427SOL    HW281308  11.912   3.528   1.630
60428SOL     OW81309  12.075   1.948   0.133
60428SOL    HW181310  12.126   1.949   0.047
60428SOL    HW281311  12.131   1.906   0.204
60429SOL     OW81312  12.898   1.997   0.523
60429SOL    HW181313  12.971   1.980   0.456
60429SOL    HW281314  12.867   1.910   0.561
60430SOL     OW81315  12.560   3.435   0.477
60430SOL    HW181316  12.627   3.447   0.403
60430SOL    HW281317  12.520   3.524   0.500
60431SOL     OW81318  11.302   3.656   1.851
60431SOL    HW181319  11.261   3.582   1.904
60431SOL    HW281320  11.366   3.707   1.909
60432SOL     OW81321  12.452   2.789   0.672
60432SOL    HW181322  12.512   2.708   0.674
60432SOL    HW281323  12.492   2.858   0.612
60433SOL     OW81324  12.002   3.135   1.422
60433SOL    HW181325  11.997   3.168   1.517
60433SOL    HW281326  11.916   3.154   1.376
60434SOL     OW81327  11.844   3.478   0.154
60434SOL    HW181328  11.853   3.488   0.055
60434SOL    HW281329  11.804   3.389   0.175
60435SOL     OW81330  11.435   2.188   0.720
60435SOL    HW181331  11.356   2.239   0.686
60435SOL    HW281332  11.426   2.173   0.818
60436SOL     OW81333  12.366   3.474   0.031
60436SOL    HW181334  12.372   3.381   0.068
60436SOL    HW281335  12.307   3.474  -0.049
60437SOL     OW81336  11.994   2.864   1.372
60437SOL    HW181337  12.034   2.863   1.280
60437SOL    HW281338  12.004   2.956   1.412
60438SOL     OW81339  12.088   2.772   0.291
60438SOL    HW181340  12.151   2.810   0.223
60438SOL    HW281341  12.128   2.689   0.330
60439SOL     OW81342  11.544   3.150   1.490
60439SOL    HW181343  11.531   3.243   1.456
60439SOL    HW281344  11.460   3.098   1.477
60440SOL     OW81345  12.211   2.960   0.696
60440SOL    HW181346  12.141   2.913   0.750
60440SOL    HW281347  12.270   2.892   0.653
60441SOL     OW81348  12.186   2.098   0.971
60441SOL    HW181349  12.178   2.062   0.878
60441SOL    HW281350  12.184   2.022   1.036
60442SOL     OW81351  11.762   3.349   0.491
60442SOL    HW181352  11.804   3.291   0.421
60442SOL    HW281353  11.718   3.428   0.447
60443SOL     OW81354  11.427   3.210   0.290
60443SOL    HW181355  11.331   3.211   0.263
60443SOL    HW281356  11.439   3.263   0.374
60444SOL     OW81357  11.277   2.875   1.726
60444SOL    HW181358  11.200   2.842   1.780
60444SOL    HW281359  11.362   2.845   1.768
60445SOL     OW81360  11.844   2.065   1.489
60445SOL    HW181361  11.934   2.049   1.449
60445SOL    HW281362  11.852   2.070   1.588
60446SOL     OW81363  12.612   2.718   1.398
60446SOL    HW181364  12.555   2.770   1.335
60446SOL    HW281365  12.708   2.730   1.374
60447SOL     OW81366  11.244   2.028   0.318
60447SOL    HW181367  11.227   2.111   0.264
60447SOL    HW281368  11.334   1.991   0.296
60448SOL     OW81369  12.355   3.197   0.119
60448SOL    HW181370  12.256   3.186   0.121
60448SOL    HW281371  12.389   3.212   0.212
60449SOL     OW81372  11.785   2.704   1.431
60449SOL    HW181373  11.841   2.785   1.414
60449SOL    HW281374  11.844   2.624   1.434
60450SOL     OW81375  11.888   2.427   1.708
60450SOL    HW181376  11.907   2.492   1.782
60450SOL    HW281377  11.948   2.347   1.717
60451SOL     OW81378  12.622   3.082   1.633
60451SOL    HW181379  12.613   3.072   1.732
60451SOL    HW281380  12.718   3.075   1.607
60452SOL     OW81381  11.562   3.603   1.560
60452SOL    HW181382  11.471   3.644   1.558
60452SOL    HW281383  11.555   3.509   1.592
60453SOL     OW81384  12.397   2.187   0.449
60453SOL    HW181385  12.462   2.113   0.438
60453SOL    HW281386  12.417   2.237   0.533
60454SOL     OW81387  11.766   2.607   0.652
60454SOL    HW181388  11.816   2.692   0.633
60454SOL    HW281389  11.678   2.609   0.604
60455SOL     OW81390  12.031   3.236   0.016
60455SOL    HW181391  11.985   3.251   0.104
60455SOL    HW281392  12.075   3.321  -0.014
60456SOL     OW81393  11.833   3.652   0.953
60456SOL    HW181394  11.787   3.740   0.940
60456SOL    HW281395  11.932   3.664   0.946
60457SOL     OW81396  12.031   2.818   0.861
60457SOL    HW181397  12.085   2.749   0.909
60457SOL    HW281398  11.999   2.887   0.927
60458SOL     OW81399  12.255   2.846   0.087
60458SOL    HW181400  12.232   2.899   0.005
60458SOL    HW281401  12.336   2.790   0.068
60459SOL     OW81402  11.393   3.176   1.844
60459SOL    HW181403  11.328   3.103   1.823
60459SOL    HW281404  11.397   3.190   1.942
60460SOL     OW81405  11.251   3.102   0.653
60460SOL    HW181406  11.250   3.055   0.741
60460SOL    HW281407  11.333   3.074   0.602
60461SOL     OW81408  11.844   3.253   1.624
60461SOL    HW181409  11.766   3.203   1.662
60461SOL    HW281410  11.841   3.348   1.655
60462SOL     OW81411  11.600   2.286   0.520
60462SOL    HW181412  11.630   2.214   0.458
60462SOL    HW281413  11.561   2.246   0.603
60463SOL     OW81414  12.877   3.349   1.104
60463SOL    HW181415  12.784   3.324   1.077
60463SOL    HW281416  12.903   3.299   1.186
60464SOL     OW81417  11.489   2.409   1.280
60464SOL    HW181418  11.527   2.350   1.352
60464SOL    HW281419  11.529   2.383   1.192
60465SOL     OW81420  11.984   3.448   0.687
60465SOL    HW181421  12.016   3.458   0.593
60465SOL    HW281422  11.905   3.386   0.689
60466SOL     OW81423  12.596   2.076   1.112
60466SOL    HW181424  12.648   2.011   1.167
60466SOL    HW281425  12.547   2.139   1.173
60467SOL     OW81426  12.173   1.896   1.154
60467SOL    HW181427  12.110   1.824   1.123
60467SOL    HW281428  12.266   1.860   1.154
60468SOL     OW81429  11.942   3.192   0.301
60468SOL    HW181430  11.896   3.105   0.318
60468SOL    HW281431  12.033   3.189   0.342
60469SOL     OW81432  11.790   3.429   1.284
60469SOL    HW181433  11.785   3.511   1.341
60469SOL    HW281434  11.879   3.426   1.239
60470SOL     OW81435  12.524   1.914   0.168
60470SOL    HW181436  12.559   1.873   0.084
60470SOL    HW281437  12.434   1.876   0.188
60471SOL     OW81438  12.472   2.315   0.691
60471SOL    HW181439  12.413   2.395   0.695
60471SOL    HW281440  12.487   2.280   0.784
60472SOL     OW81441  11.211   2.939   0.300
60472SOL    HW181442  11.310   2.928   0.291
60472SOL    HW281443  11.171   2.853   0.332
60473SOL     OW81444  12.047   3.508   0.337
60473SOL    HW181445  11.970   3.473   0.283
60473SOL    HW281446  12.015   3.579   0.399
60474SOL     OW81447  11.402   2.490   1.975
60474SOL    HW181448  11.309   2.488   2.012
60474SOL    HW281449  11.403   2.451   1.883
60475SOL     OW81450  11.397   2.137   2.858
60475SOL    HW181451  11.432   2.120   2.950
60475SOL    HW281452  11.309   2.092   2.846
60476SOL     OW81453  11.191   2.230   2.509
60476SOL    HW181454  11.109   2.273   2.548
60476SOL    HW281455  11.163   2.157   2.446
60477SOL     OW81456  12.727   3.373   2.565
60477SOL    HW181457  12.670   3.357   2.646
60477SOL    HW281458  12.668   3.383   2.485
60478SOL     OW81459  12.307   2.565   2.579
60478SOL    HW181460  12.364   2.643   2.554
60478SOL    HW281461  12.247   2.591   2.655
60479SOL     OW81462  11.940   3.006   2.885
60479SOL    HW181463  11.862   3.023   2.945
60479SOL    HW281464  11.974   3.093   2.849
60480SOL     OW81465  12.022   2.660   3.685
60480SOL    HW181466  12.018   2.736   3.750
60480SOL    HW281467  12.044   2.696   3.594
60481SOL     OW81468  11.857   2.874   2.527
60481SOL    HW181469  11.926   2.858   2.597
60481SOL    HW281470  11.784   2.931   2.565
60482SOL     OW81471  11.858   3.023   3.665
60482SOL    HW181472  11.918   3.102   3.679
60482SOL    HW281473  11.772   3.054   3.624
60483SOL     OW81474  11.507   3.297   2.923
60483SOL    HW181475  11.429   3.266   2.870
60483SOL    HW281476  11.565   3.355   2.866
60484SOL     OW81477  11.610   2.254   3.361
60484SOL    HW181478  11.692   2.198   3.370
60484SOL    HW281479  11.529   2.196   3.365
60485SOL     OW81480  11.403   3.575   2.345
60485SOL    HW181481  11.437   3.652   2.399
60485SOL    HW281482  11.447   3.575   2.255
60486SOL     OW81483  12.299   3.203   3.552
60486SOL    HW181484  12.346   3.203   3.640
60486SOL    HW281485  12.251   3.116   3.541
60487SOL     OW81486  11.402   3.296   2.400
60487SOL    HW181487  11.376   3.392   2.400
60487SOL    HW281488  11.331   3.242   2.445
60488SOL     OW81489  11.412   2.953   2.748
60488SOL    HW181490  11.426   2.869   2.800
60488SOL    HW281491  11.357   3.017   2.803
60489SOL     OW81492  11.792   3.648   3.301
60489SOL    HW181493  11.700   3.631   3.336
60489SOL    HW281494  11.820   3.740   3.327
60490SOL     OW81495  11.778   2.826   1.985
60490SOL    HW181496  11.785   2.910   1.931
60490SOL    HW281497  11.824   2.839   2.073
60491SOL     OW81498  11.294   2.505   2.425
60491SOL    HW181499  11.249   2.417   2.442
60491SOL    HW281500  11.293   2.559   2.509
60492SOL     OW81501  11.199   3.458   1.979
60492SOL    HW181502  11.180   3.362   2.000
60492SOL    HW281503  11.166   3.516   2.054
60493SOL     OW81504  12.861   2.784   2.474
60493SOL    HW181505  12.956   2.755   2.482
60493SOL    HW281506  12.853   2.849   2.399
60494SOL     OW81507  11.285   2.599   3.459
60494SOL    HW181508  11.373   2.586   3.504
60494SOL    HW281509  11.272   2.696   3.437
60495SOL     OW81510  11.785   3.227   2.588
60495SOL    HW181511  11.736   3.140   2.597
60495SOL    HW281512  11.762   3.270   2.501
60496SOL     OW81513  12.465   3.090   3.285
60496SOL    HW181514  12.502   3.017   3.227
60496SOL    HW281515  12.517   3.095   3.370
60497SOL     OW81516  11.981   1.866   2.364
60497SOL    HW181517  12.021   1.957   2.355
60497SOL    HW281518  11.881   1.874   2.370
60498SOL     OW81519  11.369   2.838   3.126
60498SOL    HW181520  11.458   2.793   3.112
60498SOL    HW281521  11.296   2.773   3.107
60499SOL     OW81522  12.359   3.654   3.478
60499SOL    HW181523  12.383   3.714   3.402
60499SOL    HW281524  12.366   3.559   3.448
60500SOL     OW81525  11.489   2.113   3.663
60500SOL    HW181526  11.560   2.184   3.669
60500SOL    HW281527  11.401   2.152   3.691
60501SOL     OW81528  12.638   3.279   2.815
60501SOL    HW181529  12.579   3.285   2.895
60501SOL    HW281530  12.623   3.191   2.769
60502SOL     OW81531  11.770   2.591   2.132
60502SOL    HW181532  11.794   2.660   2.064
60502SOL    HW281533  11.692   2.624   2.186
60503SOL     OW81534  12.453   2.207   2.806
60503SOL    HW181535  12.367   2.157   2.793
60503SOL    HW281536  12.515   2.153   2.862
60504SOL     OW81537  11.979   2.467   3.327
60504SOL    HW181538  11.932   2.464   3.416
60504SOL    HW281539  11.928   2.412   3.261
60505SOL     OW81540  12.566   2.331   3.536
60505SOL    HW181541  12.546   2.374   3.624
60505SOL    HW281542  12.644   2.269   3.545
60506SOL     OW81543  12.145   2.752   3.434
60506SOL    HW181544  12.191   2.668   3.405
60506SOL    HW281545  12.089   2.786   3.359
60507SOL     OW81546  12.163   2.272   3.104
60507SOL    HW181547  12.086   2.306   3.158
60507SOL    HW281548  12.129   2.221   3.025
60508SOL     OW81549  12.213   2.563   2.291
60508SOL    HW181550  12.239   2.559   2.387
60508SOL    HW281551  12.128   2.512   2.277
60509SOL     OW81552  11.248   2.673   2.651
60509SOL    HW181553  11.347   2.661   2.660
60509SOL    HW281554  11.224   2.768   2.672
60510SOL     OW81555  11.302   3.683   3.433
60510SOL    HW181556  11.292   3.668   3.532
60510SOL    HW281557  11.216   3.719   3.397
60511SOL     OW81558  12.037   2.210   2.057
60511SOL    HW181559  12.096   2.273   2.008
60511SOL    HW281560  12.056   2.116   2.028
60512SOL     OW81561  12.534   3.006   2.407
60512SOL    HW181562  12.617   2.977   2.359
60512SOL    HW281563  12.485   3.073   2.351
60513SOL     OW81564  11.722   2.058   2.747
60513SOL    HW181565  11.717   2.053   2.847
60513SOL    HW281566  11.724   2.154   2.718
60514SOL     OW81567  12.180   3.318   2.339
60514SOL    HW181568  12.134   3.390   2.287
60514SOL    HW281569  12.176   3.338   2.437
60515SOL     OW81570  11.523   3.663   2.715
60515SOL    HW181571  11.573   3.577   2.721
60515SOL    HW281572  11.588   3.740   2.712
60516SOL     OW81573  12.399   3.412   3.368
60516SOL    HW181574  12.405   3.335   3.432
60516SOL    HW281575  12.347   3.386   3.288
60517SOL     OW81576  11.493   2.805   2.104
60517SOL    HW181577  11.575   2.844   2.062
60517SOL    HW281578  11.466   2.723   2.055
60518SOL     OW81579  11.633   3.128   3.589
60518SOL    HW181580  11.583   3.129   3.503
60518SOL    HW281581  11.570   3.110   3.665
60519SOL     OW81582  12.283   3.638   2.099
60519SOL    HW181583  12.223   3.576   2.149
60519SOL    HW281584  12.314   3.594   2.014
60520SOL     OW81585  11.374   2.147   3.360
60520SOL    HW181586  11.294   2.207   3.347
60520SOL    HW281587  11.364   2.098   3.446
60521SOL     OW81588  11.636   3.605   2.185
60521SOL    HW181589  11.669   3.644   2.271
60521SOL    HW281590  11.712   3.598   2.120
60522SOL     OW81591  12.572   1.969   2.288
60522SOL    HW181592  12.548   1.932   2.198
60522SOL    HW281593  12.671   1.985   2.292
60523SOL     OW81594  11.421   3.647   3.103
60523SOL    HW181595  11.478   3.582   3.153
60523SOL    HW281596  11.405   3.614   3.010
60524SOL     OW81597  12.112   3.560   2.766
60524SOL    HW181598  12.192   3.503   2.787
60524SOL    HW281599  12.063   3.520   2.689
60525SOL     OW81600  11.554   2.562   2.342
60525SOL    HW181601  11.599   2.472   2.339
60525SOL    HW281602  11.460   2.551   2.375
60526SOL     OW81603  11.786   1.984   1.979
60526SOL    HW181604  11.884   1.962   1.986
60526SOL    HW281605  11.755   1.967   1.886
60527SOL     OW81606  11.953   2.126   3.611
60527SOL    HW181607  12.020   2.065   3.654
60527SOL    HW281608  11.880   2.145   3.676
60528SOL     OW81609  12.060   3.376   3.057
60528SOL    HW181610  12.037   3.351   2.963
60528SOL    HW281611  12.121   3.307   3.096
60529SOL     OW81612  12.523   2.452   3.295
60529SOL    HW181613  12.551   2.409   3.380
60529SOL    HW281614  12.548   2.548   3.296
60530SOL     OW81615  11.975   3.264   2.786
60530SOL    HW181616  12.065   3.278   2.744
60530SOL    HW281617  11.904   3.266   2.715
60531SOL     OW81618  12.094   2.365   2.761
60531SOL    HW181619  12.069   2.356   2.665
60531SOL    HW281620  12.142   2.283   2.792
60532SOL     OW81621  11.711   1.926   2.374
60532SOL    HW181622  11.630   1.927   2.432
60532SOL    HW281623  11.714   2.009   2.319
60533SOL     OW81624  12.606   3.050   1.903
60533SOL    HW181625  12.638   2.974   1.960
60533SOL    HW281626  12.514   3.077   1.933
60534SOL     OW81627  11.469   1.897   2.033
60534SOL    HW181628  11.518   1.981   2.012
60534SOL    HW281629  11.531   1.832   2.078
60535SOL     OW81630  12.107   2.098   2.342
60535SOL    HW181631  12.059   2.139   2.264
60535SOL    HW281632  12.206   2.096   2.323
60536SOL     OW81633  12.248   2.545   3.326
60536SOL    HW181634  12.168   2.484   3.329
60536SOL    HW281635  12.329   2.492   3.302
60537SOL     OW81636  12.399   3.432   2.655
60537SOL    HW181637  12.420   3.506   2.590
60537SOL    HW281638  12.467   3.432   2.728
60538SOL     OW81639  11.631   3.014   2.603
60538SOL    HW181640  11.560   2.987   2.668
60538SOL    HW281641  11.605   2.986   2.510
60539SOL     OW81642  12.443   3.659   2.453
60539SOL    HW181643  12.487   3.723   2.389
60539SOL    HW281644  12.393   3.711   2.523
60540SOL     OW81645  12.204   2.411   1.878
60540SOL    HW181646  12.163   2.493   1.839
60540SOL    HW281647  12.268   2.437   1.951
60541SOL     OW81648  11.250   2.418   3.248
60541SOL    HW181649  11.342   2.417   3.207
60541SOL    HW281650  11.244   2.492   3.315
60542SOL     OW81651  11.733   2.084   3.009
60542SOL    HW181652  11.771   2.000   3.046
60542SOL    HW281653  11.645   2.103   3.053
60543SOL     OW81654  12.038   2.316   2.504
60543SOL    HW181655  12.006   2.388   2.442
60543SOL    HW281656  12.062   2.235   2.451
60544SOL     OW81657  12.189   1.901   2.615
60544SOL    HW181658  12.117   1.906   2.546
60544SOL    HW281659  12.165   1.832   2.684
60545SOL     OW81660  12.601   3.035   2.729
60545SOL    HW181661  12.546   2.951   2.722
60545SOL    HW281662  12.627   3.064   2.637
60546SOL     OW81663  11.660   3.247   2.036
60546SOL    HW181664  11.573   3.232   2.083
60546SOL    HW281665  11.643   3.273   1.941
60547SOL     OW81666  12.562   2.437   1.940
60547SOL    HW181667  12.508   2.416   2.021
60547SOL    HW281668  12.653   2.396   1.949
60548SOL     OW81669  11.699   2.118   2.190
60548SOL    HW181670  11.726   2.059   2.115
60548SOL    HW281671  11.699   2.213   2.159
60549SOL     OW81672  12.236   3.209   3.202
60549SOL    HW181673  12.156   3.186   3.257
60549SOL    HW281674  12.319   3.183   3.251
60550SOL     OW81675  12.764   3.491   3.487
60550SOL    HW181676  12.791   3.525   3.397
60550SOL    HW281677  12.843   3.453   3.533
60551SOL     OW81678  12.283   3.057   2.962
60551SOL    HW181679  12.243   3.101   3.043
60551SOL    HW281680  12.242   3.094   2.879
60552SOL     OW81681  12.087   1.951   3.264
60552SOL    HW181682  12.112   1.931   3.169
60552SOL    HW281683  12.159   2.007   3.306
60553SOL     OW81684  12.152   2.978   3.581
60553SOL    HW181685  12.053   2.984   3.591
60553SOL    HW281686  12.175   2.898   3.525
60554SOL     OW81687  11.877   2.912   2.230
60554SOL    HW181688  11.863   2.919   2.329
60554SOL    HW281689  11.961   2.861   2.212
60555SOL     OW81690  11.582   2.675   3.113
60555SOL    HW181691  11.668   2.687   3.163
60555SOL    HW281692  11.540   2.588   3.140
60556SOL     OW81693  12.446   2.248   3.124
60556SOL    HW181694  12.467   2.322   3.188
60556SOL    HW281695  12.357   2.265   3.081
60557SOL     OW81696  11.236   3.426   3.193
60557SOL    HW181697  11.190   3.508   3.159
60557SOL    HW281698  11.334   3.445   3.202
60558SOL     OW81699  11.539   2.962   2.363
60558SOL    HW181700  11.532   3.045   2.307
60558SOL    HW281701  11.543   2.882   2.303
60559SOL     OW81702  11.738   2.399   2.727
60559SOL    HW181703  11.750   2.465   2.653
60559SOL    HW281704  11.784   2.433   2.810
60560SOL     OW81705  12.424   3.210   2.250
60560SOL    HW181706  12.474   3.287   2.290
60560SOL    HW281707  12.329   3.212   2.282
60561SOL     OW81708  12.444   3.307   3.004
60561SOL    HW181709  12.491   3.320   3.091
60561SOL    HW281710  12.378   3.233   3.013
60562SOL     OW81711  11.526   3.372   3.191
60562SOL    HW181712  11.505   3.328   3.104
60562SOL    HW281713  11.623   3.398   3.194
60563SOL     OW81714  11.574   2.613   3.460
60563SOL    HW181715  11.642   2.668   3.413
60563SOL    HW281716  11.614   2.525   3.487
60564SOL     OW81717  12.185   1.967   3.632
60564SOL    HW181718  12.191   2.052   3.580
60564SOL    HW281719  12.217   1.891   3.575
60565SOL     OW81720  11.676   1.912   3.602
60565SOL    HW181721  11.634   1.855   3.532
60565SOL    HW281722  11.610   1.981   3.634
60566SOL     OW81723  11.745   2.732   2.891
60566SOL    HW181724  11.789   2.821   2.882
60566SOL    HW281725  11.682   2.732   2.968
60567SOL     OW81726  12.532   2.724   2.907
60567SOL    HW181727  12.457   2.724   2.841
60567SOL    HW281728  12.569   2.632   2.916
60568SOL     OW81729  12.381   2.387   2.137
60568SOL    HW181730  12.394   2.303   2.191
60568SOL    HW281731  12.352   2.461   2.197
60569SOL     OW81732  11.479   2.075   3.093
60569SOL    HW181733  11.456   2.112   3.183
60569SOL    HW281734  11.449   1.980   3.087
60570SOL     OW81735  11.209   3.172   3.144
60570SOL    HW181736  11.262   3.123   3.212
60570SOL    HW281737  11.231   3.270   3.149
60571SOL     OW81738  11.904   2.496   2.926
60571SOL    HW181739  11.963   2.470   2.850
60571SOL    HW281740  11.876   2.592   2.915
60572SOL     OW81741  11.479   1.925   2.480
60572SOL    HW181742  11.468   2.019   2.513
60572SOL    HW281743  11.474   1.862   2.557
60573SOL     OW81744  12.794   2.229   2.236
60573SOL    HW181745  12.796   2.153   2.300
60573SOL    HW281746  12.746   2.306   2.276
60574SOL     OW81747  12.195   2.628   2.828
60574SOL    HW181748  12.210   2.649   2.924
60574SOL    HW281749  12.165   2.533   2.819
60575SOL     OW81750  12.152   3.435   3.562
60575SOL    HW181751  12.132   3.479   3.474
60575SOL    HW281752  12.191   3.344   3.546
60576SOL     OW81753  11.522   2.760   3.666
60576SOL    HW181754  11.598   2.804   3.714
60576SOL    HW281755  11.557   2.713   3.584
60577SOL     OW81756  12.475   2.700   1.904
60577SOL    HW181757  12.509   2.607   1.919
60577SOL    HW281758  12.493   2.727   1.809
60578SOL     OW81759  12.240   3.195   2.711
60578SOL    HW181760  12.247   3.111   2.656
60578SOL    HW281761  12.302   3.264   2.675
60579SOL     OW81762  11.491   2.672   2.811
60579SOL    HW181763  11.584   2.708   2.816
60579SOL    HW281764  11.485   2.587   2.863
60580SOL     OW81765  11.511   2.371   2.868
60580SOL    HW181766  11.459   2.288   2.851
60580SOL    HW281767  11.588   2.376   2.804
60581SOL     OW81768  12.310   2.242   3.540
60581SOL    HW181769  12.265   2.305   3.604
60581SOL    HW281770  12.403   2.273   3.523
60582SOL     OW81771  12.332   2.069   3.339
60582SOL    HW181772  12.332   2.133   3.416
60582SOL    HW281773  12.360   2.117   3.256
60583SOL     OW81774  11.180   3.188   2.062
60583SOL    HW181775  11.087   3.209   2.031
60583SOL    HW281776  11.190   3.089   2.075
60584SOL     OW81777  11.260   3.663   2.789
60584SOL    HW181778  11.218   3.577   2.762
60584SOL    HW281779  11.354   3.666   2.755
60585SOL     OW81780  11.676   3.430   2.772
60585SOL    HW181781  11.742   3.504   2.781
60585SOL    HW281782  11.720   3.351   2.730
60586SOL     OW81783  12.174   2.658   3.100
60586SOL    HW181784  12.215   2.626   3.186
60586SOL    HW281785  12.078   2.631   3.097
60587SOL     OW81786  11.212   2.406   2.976
60587SOL    HW181787  11.297   2.373   2.935
60587SOL    HW281788  11.225   2.421   3.074
60588SOL     OW81789  11.361   2.382   3.584
60588SOL    HW181790  11.420   2.342   3.514
60588SOL    HW281791  11.303   2.453   3.543
60589SOL     OW81792  12.541   2.812   3.522
60589SOL    HW181793  12.580   2.901   3.542
60589SOL    HW281794  12.551   2.792   3.425
60590SOL     OW81795  11.987   2.434   2.187
60590SOL    HW181796  11.994   2.345   2.141
60590SOL    HW281797  11.893   2.468   2.179
60591SOL     OW81798  11.424   3.426   3.606
60591SOL    HW181799  11.394   3.483   3.682
60591SOL    HW281800  11.417   3.329   3.632
60592SOL     OW81801  11.843   2.326   3.131
60592SOL    HW181802  11.809   2.237   3.101
60592SOL    HW281803  11.869   2.380   3.051
60593SOL     OW81804  12.102   3.540   3.327
60593SOL    HW181805  12.078   3.522   3.232
60593SOL    HW281806  12.132   3.634   3.337
60594SOL     OW81807  11.645   2.362   2.053
60594SOL    HW181808  11.706   2.442   2.057
60594SOL    HW281809  11.550   2.393   2.060
60595SOL     OW81810  11.331   2.999   3.328
60595SOL    HW181811  11.353   2.938   3.404
60595SOL    HW281812  11.341   2.950   3.242
60596SOL     OW81813  12.519   2.921   3.096
60596SOL    HW181814  12.543   2.858   3.022
60596SOL    HW281815  12.429   2.961   3.078
60597SOL     OW81816  12.474   2.717   2.171
60597SOL    HW181817  12.388   2.686   2.213
60597SOL    HW281818  12.470   2.703   2.072
60598SOL     OW81819  12.424   3.593   2.990
60598SOL    HW181820  12.508   3.598   2.936
60598SOL    HW281821  12.401   3.497   3.008
60599SOL     OW81822  11.255   3.120   2.884
60599SOL    HW181823  11.250   3.119   2.984
60599SOL    HW281824  11.172   3.079   2.846
60600SOL     OW81825  11.860   3.524   3.578
60600SOL    HW181826  11.804   3.605   3.587
60600SOL    HW281827  11.912   3.528   3.492
60601SOL     OW81828  12.898   1.997   2.385
60601SOL    HW181829  12.971   1.980   2.318
60601SOL    HW281830  12.867   1.910   2.423
60602SOL     OW81831  12.560   3.435   2.339
60602SOL    HW181832  12.627   3.447   2.265
60602SOL    HW281833  12.520   3.524   2.362
60603SOL     OW81834  11.302   3.656   3.713
60603SOL    HW181835  11.261   3.582   3.766
60603SOL    HW281836  11.366   3.707   3.771
60604SOL     OW81837  12.452   2.789   2.534
60604SOL    HW181838  12.512   2.708   2.536
60604SOL    HW281839  12.492   2.858   2.474
60605SOL     OW81840  12.002   3.135   3.284
60605SOL    HW181841  11.997   3.168   3.379
60605SOL    HW281842  11.916   3.154   3.238
60606SOL     OW81843  11.844   3.478   2.016
60606SOL    HW181844  11.853   3.488   1.917
60606SOL    HW281845  11.804   3.389   2.037
60607SOL     OW81846  11.435   2.188   2.582
60607SOL    HW181847  11.356   2.239   2.548
60607SOL    HW281848  11.426   2.173   2.680
60608SOL     OW81849  12.366   3.474   1.893
60608SOL    HW181850  12.372   3.381   1.930
60608SOL    HW281851  12.307   3.474   1.813
60609SOL     OW81852  11.994   2.864   3.234
60609SOL    HW181853  12.034   2.863   3.142
60609SOL    HW281854  12.004   2.956   3.274
60610SOL     OW81855  12.088   2.772   2.153
60610SOL    HW181856  12.151   2.810   2.085
60610SOL    HW281857  12.128   2.689   2.192
60611SOL     OW81858  11.544   3.150   3.352
60611SOL    HW181859  11.531   3.243   3.318
60611SOL    HW281860  11.460   3.098   3.339
60612SOL     OW81861  12.211   2.960   2.558
60612SOL    HW181862  12.141   2.913   2.612
60612SOL    HW281863  12.270   2.892   2.515
60613SOL     OW81864  12.186   2.098   2.833
60613SOL    HW181865  12.178   2.062   2.740
60613SOL    HW281866  12.184   2.022   2.898
60614SOL     OW81867  11.762   3.349   2.353
60614SOL    HW181868  11.804   3.291   2.283
60614SOL    HW281869  11.718   3.428   2.309
60615SOL     OW81870  11.427   3.210   2.152
60615SOL    HW181871  11.331   3.211   2.125
60615SOL    HW281872  11.439   3.263   2.236
60616SOL     OW81873  11.277   2.875   3.588
60616SOL    HW181874  11.200   2.842   3.642
60616SOL    HW281875  11.362   2.845   3.630
60617SOL     OW81876  11.844   2.065   3.351
60617SOL    HW181877  11.934   2.049   3.311
60617SOL    HW281878  11.852   2.070   3.450
60618SOL     OW81879  11.247   2.207   1.895
60618SOL    HW181880  11.155   2.179   1.866
60618SOL    HW281881  11.278   2.284   1.839
60619SOL     OW81882  12.612   2.718   3.260
60619SOL    HW181883  12.555   2.770   3.197
60619SOL    HW281884  12.708   2.730   3.236
60620SOL     OW81885  11.244   2.028   2.180
60620SOL    HW181886  11.227   2.111   2.126
60620SOL    HW281887  11.334   1.991   2.158
60621SOL     OW81888  12.355   3.197   1.981
60621SOL    HW181889  12.256   3.186   1.983
60621SOL    HW281890  12.389   3.212   2.074
60622SOL     OW81891  11.785   2.704   3.293
60622SOL    HW181892  11.841   2.785   3.276
60622SOL    HW281893  11.844   2.624   3.296
60623SOL     OW81894  11.888   2.427   3.570
60623SOL    HW181895  11.907   2.492   3.644
60623SOL    HW281896  11.948   2.347   3.579
60624SOL     OW81897  12.622   3.082   3.495
60624SOL    HW181898  12.613   3.072   3.594
60624SOL    HW281899  12.718   3.075   3.469
60625SOL     OW81900  11.562   3.603   3.422
60625SOL    HW181901  11.471   3.644   3.420
60625SOL    HW281902  11.555   3.509   3.454
60626SOL     OW81903  12.397   2.187   2.311
60626SOL    HW181904  12.462   2.113   2.300
60626SOL    HW281905  12.417   2.237   2.395
60627SOL     OW81906  11.766   2.607   2.514
60627SOL    HW181907  11.816   2.692   2.495
60627SOL    HW281908  11.678   2.609   2.466
60628SOL     OW81909  12.031   3.236   1.878
60628SOL    HW181910  11.985   3.251   1.966
60628SOL    HW281911  12.075   3.321   1.848
60629SOL     OW81912  11.833   3.652   2.815
60629SOL    HW181913  11.787   3.740   2.802
60629SOL    HW281914  11.932   3.664   2.808
60630SOL     OW81915  12.031   2.818   2.723
60630SOL    HW181916  12.085   2.749   2.771
60630SOL    HW281917  11.999   2.887   2.789
60631SOL     OW81918  12.255   2.846   1.949
60631SOL    HW181919  12.232   2.899   1.867
60631SOL    HW281920  12.336   2.790   1.930
60632SOL     OW81921  11.393   3.176   3.706
60632SOL    HW181922  11.328   3.103   3.685
60632SOL    HW281923  11.397   3.190   3.804
60633SOL     OW81924  11.251   3.102   2.515
60633SOL    HW181925  11.250   3.055   2.603
60633SOL    HW281926  11.333   3.074   2.464
60634SOL     OW81927  11.844   3.253   3.486
60634SOL    HW181928  11.766   3.203   3.524
60634SOL    HW281929  11.841   3.348   3.517
60635SOL     OW81930  11.600   2.286   2.382
60635SOL    HW181931  11.630   2.214   2.320
60635SOL    HW281932  11.561   2.246   2.465
60636SOL     OW81933  12.877   3.349   2.966
60636SOL    HW181934  12.784   3.324   2.939
60636SOL    HW281935  12.903   3.299   3.048
60637SOL     OW81936  11.489   2.409   3.142
60637SOL    HW181937  11.527   2.350   3.214
60637SOL    HW281938  11.529   2.383   3.054
60638SOL     OW81939  11.984   3.448   2.549
60638SOL    HW181940  12.016   3.458   2.455
60638SOL    HW281941  11.905   3.386   2.551
60639SOL     OW81942  12.596   2.076   2.974
60639SOL    HW181943  12.648   2.011   3.029
60639SOL    HW281944  12.547   2.139   3.035
60640SOL     OW81945  12.173   1.896   3.016
60640SOL    HW181946  12.110   1.824   2.985
60640SOL    HW281947  12.266   1.860   3.016
60641SOL     OW81948  11.942   3.192   2.163
60641SOL    HW181949  11.896   3.105   2.180
60641SOL    HW281950  12.033   3.189   2.204
60642SOL     OW81951  11.790   3.429   3.146
60642SOL    HW181952  11.785   3.511   3.203
60642SOL    HW281953  11.879   3.426   3.101
60643SOL     OW81954  12.524   1.914   2.030
60643SOL    HW181955  12.559   1.873   1.946
60643SOL    HW281956  12.434   1.876   2.050
60644SOL     OW81957  12.472   2.315   2.553
60644SOL    HW181958  12.413   2.395   2.557
60644SOL    HW281959  12.487   2.280   2.646
60645SOL     OW81960  11.211   2.939   2.162
60645SOL    HW181961  11.310   2.928   2.153
60645SOL    HW281962  11.171   2.853   2.194
60646SOL     OW81963  12.047   3.508   2.199
60646SOL    HW181964  11.970   3.473   2.145
60646SOL    HW281965  12.015   3.579   2.261
60647SOL     OW81966  11.402   2.490   3.837
60647SOL    HW181967  11.309   2.488   3.874
60647SOL    HW281968  11.403   2.451   3.745
60648SOL     OW81969  11.397   2.137   4.720
60648SOL    HW181970  11.432   2.120   4.812
60648SOL    HW281971  11.309   2.092   4.708
60649SOL     OW81972  11.191   2.230   4.371
60649SOL    HW181973  11.109   2.273   4.410
60649SOL    HW281974  11.163   2.157   4.308
60650SOL     OW81975  12.727   3.373   4.427
60650SOL    HW181976  12.670   3.357   4.508
60650SOL    HW281977  12.668   3.383   4.347
60651SOL     OW81978  12.307   2.565   4.441
60651SOL    HW181979  12.364   2.643   4.416
60651SOL    HW281980  12.247   2.591   4.517
60652SOL     OW81981  11.940   3.006   4.747
60652SOL    HW181982  11.862   3.023   4.807
60652SOL    HW281983  11.974   3.093   4.711
60653SOL     OW81984  12.022   2.660   5.547
60653SOL    HW181985  12.018   2.736   5.612
60653SOL    HW281986  12.044   2.696   5.456
60654SOL     OW81987  11.857   2.874   4.389
60654SOL    HW181988  11.926   2.858   4.459
60654SOL    HW281989  11.784   2.931   4.427
60655SOL     OW81990  11.858   3.023   5.527
60655SOL    HW181991  11.918   3.102   5.541
60655SOL    HW281992  11.772   3.054   5.486
60656SOL     OW81993  11.507   3.297   4.785
60656SOL    HW181994  11.429   3.266   4.732
60656SOL    HW281995  11.565   3.355   4.728
60657SOL     OW81996  11.610   2.254   5.223
60657SOL    HW181997  11.692   2.198   5.232
60657SOL    HW281998  11.529   2.196   5.227
60658SOL     OW81999  11.403   3.575   4.207
60658SOL    HW182000  11.437   3.652   4.261
60658SOL    HW282001  11.447   3.575   4.117
60659SOL     OW82002  12.299   3.203   5.414
60659SOL    HW182003  12.346   3.203   5.502
60659SOL    HW282004  12.251   3.116   5.403
60660SOL     OW82005  11.402   3.296   4.262
60660SOL    HW182006  11.376   3.392   4.262
60660SOL    HW282007  11.331   3.242   4.307
60661SOL     OW82008  11.412   2.953   4.610
60661SOL    HW182009  11.426   2.869   4.662
60661SOL    HW282010  11.357   3.017   4.665
60662SOL     OW82011  11.792   3.648   5.163
60662SOL    HW182012  11.700   3.631   5.198
60662SOL    HW282013  11.820   3.740   5.189
60663SOL     OW82014  11.778   2.826   3.847
60663SOL    HW182015  11.785   2.910   3.793
60663SOL    HW282016  11.824   2.839   3.935
60664SOL     OW82017  11.294   2.505   4.287
60664SOL    HW182018  11.249   2.417   4.304
60664SOL    HW282019  11.293   2.559   4.371
60665SOL     OW82020  11.199   3.458   3.841
60665SOL    HW182021  11.180   3.362   3.862
60665SOL    HW282022  11.166   3.516   3.916
60666SOL     OW82023  12.861   2.784   4.336
60666SOL    HW182024  12.956   2.755   4.344
60666SOL    HW282025  12.853   2.849   4.261
60667SOL     OW82026  11.285   2.599   5.321
60667SOL    HW182027  11.373   2.586   5.366
60667SOL    HW282028  11.272   2.696   5.299
60668SOL     OW82029  11.785   3.227   4.450
60668SOL    HW182030  11.736   3.140   4.459
60668SOL    HW282031  11.762   3.270   4.363
60669SOL     OW82032  12.465   3.090   5.147
60669SOL    HW182033  12.502   3.017   5.089
60669SOL    HW282034  12.517   3.095   5.232
60670SOL     OW82035  11.981   1.866   4.226
60670SOL    HW182036  12.021   1.957   4.217
60670SOL    HW282037  11.881   1.874   4.232
60671SOL     OW82038  11.369   2.838   4.988
60671SOL    HW182039  11.458   2.793   4.974
60671SOL    HW282040  11.296   2.773   4.969
60672SOL     OW82041  12.359   3.654   5.340
60672SOL    HW182042  12.383   3.714   5.264
60672SOL    HW282043  12.366   3.559   5.310
60673SOL     OW82044  11.489   2.113   5.525
60673SOL    HW182045  11.560   2.184   5.531
60673SOL    HW282046  11.401   2.152   5.553
60674SOL     OW82047  12.638   3.279   4.677
60674SOL    HW182048  12.579   3.285   4.757
60674SOL    HW282049  12.623   3.191   4.631
60675SOL     OW82050  11.770   2.591   3.994
60675SOL    HW182051  11.794   2.660   3.926
60675SOL    HW282052  11.692   2.624   4.048
60676SOL     OW82053  12.453   2.207   4.668
60676SOL    HW182054  12.367   2.157   4.655
60676SOL    HW282055  12.515   2.153   4.724
60677SOL     OW82056  11.979   2.467   5.189
60677SOL    HW182057  11.932   2.464   5.278
60677SOL    HW282058  11.928   2.412   5.123
60678SOL     OW82059  12.566   2.331   5.398
60678SOL    HW182060  12.546   2.374   5.486
60678SOL    HW282061  12.644   2.269   5.407
60679SOL     OW82062  12.145   2.752   5.296
60679SOL    HW182063  12.191   2.668   5.267
60679SOL    HW282064  12.089   2.786   5.221
60680SOL     OW82065  12.163   2.272   4.966
60680SOL    HW182066  12.086   2.306   5.020
60680SOL    HW282067  12.129   2.221   4.887
60681SOL     OW82068  12.213   2.563   4.153
60681SOL    HW182069  12.239   2.559   4.249
60681SOL    HW282070  12.128   2.512   4.139
60682SOL     OW82071  11.248   2.673   4.513
60682SOL    HW182072  11.347   2.661   4.522
60682SOL    HW282073  11.224   2.768   4.534
60683SOL     OW82074  11.302   3.683   5.295
60683SOL    HW182075  11.292   3.668   5.394
60683SOL    HW282076  11.216   3.719   5.259
60684SOL     OW82077  12.037   2.210   3.919
60684SOL    HW182078  12.096   2.273   3.870
60684SOL    HW282079  12.056   2.116   3.890
60685SOL     OW82080  12.534   3.006   4.269
60685SOL    HW182081  12.617   2.977   4.221
60685SOL    HW282082  12.485   3.073   4.213
60686SOL     OW82083  11.722   2.058   4.609
60686SOL    HW182084  11.717   2.053   4.709
60686SOL    HW282085  11.724   2.154   4.580
60687SOL     OW82086  12.180   3.318   4.201
60687SOL    HW182087  12.134   3.390   4.149
60687SOL    HW282088  12.176   3.338   4.299
60688SOL     OW82089  11.523   3.663   4.577
60688SOL    HW182090  11.573   3.577   4.583
60688SOL    HW282091  11.588   3.740   4.574
60689SOL     OW82092  12.399   3.412   5.230
60689SOL    HW182093  12.405   3.335   5.294
60689SOL    HW282094  12.347   3.386   5.150
60690SOL     OW82095  11.493   2.805   3.966
60690SOL    HW182096  11.575   2.844   3.924
60690SOL    HW282097  11.466   2.723   3.917
60691SOL     OW82098  11.633   3.128   5.451
60691SOL    HW182099  11.583   3.129   5.365
60691SOL    HW282100  11.570   3.110   5.527
60692SOL     OW82101  12.283   3.638   3.961
60692SOL    HW182102  12.223   3.576   4.011
60692SOL    HW282103  12.314   3.594   3.876
60693SOL     OW82104  11.374   2.147   5.222
60693SOL    HW182105  11.294   2.207   5.209
60693SOL    HW282106  11.364   2.098   5.308
60694SOL     OW82107  11.636   3.605   4.047
60694SOL    HW182108  11.669   3.644   4.133
60694SOL    HW282109  11.712   3.598   3.982
60695SOL     OW82110  12.572   1.969   4.150
60695SOL    HW182111  12.548   1.932   4.060
60695SOL    HW282112  12.671   1.985   4.154
60696SOL     OW82113  11.421   3.647   4.965
60696SOL    HW182114  11.478   3.582   5.015
60696SOL    HW282115  11.405   3.614   4.872
60697SOL     OW82116  12.112   3.560   4.628
60697SOL    HW182117  12.192   3.503   4.649
60697SOL    HW282118  12.063   3.520   4.551
60698SOL     OW82119  11.554   2.562   4.204
60698SOL    HW182120  11.599   2.472   4.201
60698SOL    HW282121  11.460   2.551   4.237
60699SOL     OW82122  11.786   1.984   3.841
60699SOL    HW182123  11.884   1.962   3.848
60699SOL    HW282124  11.755   1.967   3.748
60700SOL     OW82125  11.953   2.126   5.473
60700SOL    HW182126  12.020   2.065   5.516
60700SOL    HW282127  11.880   2.145   5.538
60701SOL     OW82128  12.060   3.376   4.919
60701SOL    HW182129  12.037   3.351   4.825
60701SOL    HW282130  12.121   3.307   4.958
60702SOL     OW82131  12.523   2.452   5.157
60702SOL    HW182132  12.551   2.409   5.242
60702SOL    HW282133  12.548   2.548   5.158
60703SOL     OW82134  11.975   3.264   4.648
60703SOL    HW182135  12.065   3.278   4.606
60703SOL    HW282136  11.904   3.266   4.577
60704SOL     OW82137  12.094   2.365   4.623
60704SOL    HW182138  12.069   2.356   4.527
60704SOL    HW282139  12.142   2.283   4.654
60705SOL     OW82140  11.711   1.926   4.236
60705SOL    HW182141  11.630   1.927   4.294
60705SOL    HW282142  11.714   2.009   4.181
60706SOL     OW82143  12.606   3.050   3.765
60706SOL    HW182144  12.638   2.974   3.822
60706SOL    HW282145  12.514   3.077   3.795
60707SOL     OW82146  11.469   1.897   3.895
60707SOL    HW182147  11.518   1.981   3.874
60707SOL    HW282148  11.531   1.832   3.940
60708SOL     OW82149  12.107   2.098   4.204
60708SOL    HW182150  12.059   2.139   4.126
60708SOL    HW282151  12.206   2.096   4.185
60709SOL     OW82152  12.248   2.545   5.188
60709SOL    HW182153  12.168   2.484   5.191
60709SOL    HW282154  12.329   2.492   5.164
60710SOL     OW82155  12.399   3.432   4.517
60710SOL    HW182156  12.420   3.506   4.452
60710SOL    HW282157  12.467   3.432   4.590
60711SOL     OW82158  11.631   3.014   4.465
60711SOL    HW182159  11.560   2.987   4.530
60711SOL    HW282160  11.605   2.986   4.372
60712SOL     OW82161  12.443   3.659   4.315
60712SOL    HW182162  12.487   3.723   4.251
60712SOL    HW282163  12.393   3.711   4.385
60713SOL     OW82164  12.204   2.411   3.740
60713SOL    HW182165  12.163   2.493   3.701
60713SOL    HW282166  12.268   2.437   3.813
60714SOL     OW82167  11.250   2.418   5.110
60714SOL    HW182168  11.342   2.417   5.069
60714SOL    HW282169  11.244   2.492   5.177
60715SOL     OW82170  11.733   2.084   4.871
60715SOL    HW182171  11.771   2.000   4.908
60715SOL    HW282172  11.645   2.103   4.915
60716SOL     OW82173  12.038   2.316   4.366
60716SOL    HW182174  12.006   2.388   4.304
60716SOL    HW282175  12.062   2.235   4.313
60717SOL     OW82176  12.189   1.901   4.477
60717SOL    HW182177  12.117   1.906   4.408
60717SOL    HW282178  12.165   1.832   4.546
60718SOL     OW82179  12.601   3.035   4.591
60718SOL    HW182180  12.546   2.951   4.584
60718SOL    HW282181  12.627   3.064   4.499
60719SOL     OW82182  11.660   3.247   3.898
60719SOL    HW182183  11.573   3.232   3.945
60719SOL    HW282184  11.643   3.273   3.803
60720SOL     OW82185  12.562   2.437   3.802
60720SOL    HW182186  12.508   2.416   3.883
60720SOL    HW282187  12.653   2.396   3.811
60721SOL     OW82188  11.699   2.118   4.052
60721SOL    HW182189  11.726   2.059   3.977
60721SOL    HW282190  11.699   2.213   4.021
60722SOL     OW82191  12.236   3.209   5.064
60722SOL    HW182192  12.156   3.186   5.119
60722SOL    HW282193  12.319   3.183   5.113
60723SOL     OW82194  12.764   3.491   5.349
60723SOL    HW182195  12.791   3.525   5.259
60723SOL    HW282196  12.843   3.453   5.395
60724SOL     OW82197  12.283   3.057   4.824
60724SOL    HW182198  12.243   3.101   4.905
60724SOL    HW282199  12.242   3.094   4.741
60725SOL     OW82200  12.087   1.951   5.126
60725SOL    HW182201  12.112   1.931   5.031
60725SOL    HW282202  12.159   2.007   5.168
60726SOL     OW82203  12.152   2.978   5.443
60726SOL    HW182204  12.053   2.984   5.453
60726SOL    HW282205  12.175   2.898   5.387
60727SOL     OW82206  11.877   2.912   4.092
60727SOL    HW182207  11.863   2.919   4.191
60727SOL    HW282208  11.961   2.861   4.074
60728SOL     OW82209  11.582   2.675   4.975
60728SOL    HW182210  11.668   2.687   5.025
60728SOL    HW282211  11.540   2.588   5.002
60729SOL     OW82212  12.446   2.248   4.986
60729SOL    HW182213  12.467   2.322   5.050
60729SOL    HW282214  12.357   2.265   4.943
60730SOL     OW82215  11.236   3.426   5.055
60730SOL    HW182216  11.190   3.508   5.021
60730SOL    HW282217  11.334   3.445   5.064
60731SOL     OW82218  11.539   2.962   4.225
60731SOL    HW182219  11.532   3.045   4.169
60731SOL    HW282220  11.543   2.882   4.165
60732SOL     OW82221  11.738   2.399   4.589
60732SOL    HW182222  11.750   2.465   4.515
60732SOL    HW282223  11.784   2.433   4.672
60733SOL     OW82224  12.424   3.210   4.112
60733SOL    HW182225  12.474   3.287   4.152
60733SOL    HW282226  12.329   3.212   4.144
60734SOL     OW82227  12.444   3.307   4.866
60734SOL    HW182228  12.491   3.320   4.953
60734SOL    HW282229  12.378   3.233   4.875
60735SOL     OW82230  11.526   3.372   5.053
60735SOL    HW182231  11.505   3.328   4.966
60735SOL    HW282232  11.623   3.398   5.056
60736SOL     OW82233  11.574   2.613   5.322
60736SOL    HW182234  11.642   2.668   5.275
60736SOL    HW282235  11.614   2.525   5.349
60737SOL     OW82236  12.185   1.967   5.494
60737SOL    HW182237  12.191   2.052   5.442
60737SOL    HW282238  12.217   1.891   5.437
60738SOL     OW82239  11.676   1.912   5.464
60738SOL    HW182240  11.634   1.855   5.394
60738SOL    HW282241  11.610   1.981   5.496
60739SOL     OW82242  11.745   2.732   4.753
60739SOL    HW182243  11.789   2.821   4.744
60739SOL    HW282244  11.682   2.732   4.830
60740SOL     OW82245  12.532   2.724   4.769
60740SOL    HW182246  12.457   2.724   4.703
60740SOL    HW282247  12.569   2.632   4.778
60741SOL     OW82248  12.381   2.387   3.999
60741SOL    HW182249  12.394   2.303   4.053
60741SOL    HW282250  12.352   2.461   4.059
60742SOL     OW82251  11.479   2.075   4.955
60742SOL    HW182252  11.456   2.112   5.045
60742SOL    HW282253  11.449   1.980   4.949
60743SOL     OW82254  11.209   3.172   5.006
60743SOL    HW182255  11.262   3.123   5.074
60743SOL    HW282256  11.231   3.270   5.011
60744SOL     OW82257  11.904   2.496   4.788
60744SOL    HW182258  11.963   2.470   4.712
60744SOL    HW282259  11.876   2.592   4.777
60745SOL     OW82260  11.479   1.925   4.342
60745SOL    HW182261  11.468   2.019   4.375
60745SOL    HW282262  11.474   1.862   4.419
60746SOL     OW82263  12.794   2.229   4.098
60746SOL    HW182264  12.796   2.153   4.162
60746SOL    HW282265  12.746   2.306   4.138
60747SOL     OW82266  12.195   2.628   4.690
60747SOL    HW182267  12.210   2.649   4.786
60747SOL    HW282268  12.165   2.533   4.681
60748SOL     OW82269  12.152   3.435   5.424
60748SOL    HW182270  12.132   3.479   5.336
60748SOL    HW282271  12.191   3.344   5.408
60749SOL     OW82272  12.475   2.700   3.766
60749SOL    HW182273  12.509   2.607   3.781
60749SOL    HW282274  12.493   2.727   3.671
60750SOL     OW82275  12.240   3.195   4.573
60750SOL    HW182276  12.247   3.111   4.518
60750SOL    HW282277  12.302   3.264   4.537
60751SOL     OW82278  11.491   2.672   4.673
60751SOL    HW182279  11.584   2.708   4.678
60751SOL    HW282280  11.485   2.587   4.725
60752SOL     OW82281  11.511   2.371   4.730
60752SOL    HW182282  11.459   2.288   4.713
60752SOL    HW282283  11.588   2.376   4.666
60753SOL     OW82284  12.310   2.242   5.402
60753SOL    HW182285  12.265   2.305   5.466
60753SOL    HW282286  12.403   2.273   5.385
60754SOL     OW82287  12.332   2.069   5.201
60754SOL    HW182288  12.332   2.133   5.278
60754SOL    HW282289  12.360   2.117   5.118
60755SOL     OW82290  11.180   3.188   3.924
60755SOL    HW182291  11.087   3.209   3.893
60755SOL    HW282292  11.190   3.089   3.937
60756SOL     OW82293  11.260   3.663   4.651
60756SOL    HW182294  11.218   3.577   4.624
60756SOL    HW282295  11.354   3.666   4.617
60757SOL     OW82296  11.676   3.430   4.634
60757SOL    HW182297  11.742   3.504   4.643
60757SOL    HW282298  11.720   3.351   4.592
60758SOL     OW82299  12.174   2.658   4.962
60758SOL    HW182300  12.215   2.626   5.048
60758SOL    HW282301  12.078   2.631   4.959
60759SOL     OW82302  11.212   2.406   4.838
60759SOL    HW182303  11.297   2.373   4.797
60759SOL    HW282304  11.225   2.421   4.936
60760SOL     OW82305  11.361   2.382   5.446
60760SOL    HW182306  11.420   2.342   5.376
60760SOL    HW282307  11.303   2.453   5.405
60761SOL     OW82308  12.541   2.812   5.384
60761SOL    HW182309  12.580   2.901   5.404
60761SOL    HW282310  12.551   2.792   5.287
60762SOL     OW82311  11.987   2.434   4.049
60762SOL    HW182312  11.994   2.345   4.003
60762SOL    HW282313  11.893   2.468   4.041
60763SOL     OW82314  11.424   3.426   5.468
60763SOL    HW182315  11.394   3.483   5.544
60763SOL    HW282316  11.417   3.329   5.494
60764SOL     OW82317  11.843   2.326   4.993
60764SOL    HW182318  11.809   2.237   4.963
60764SOL    HW282319  11.869   2.380   4.913
60765SOL     OW82320  12.102   3.540   5.189
60765SOL    HW182321  12.078   3.522   5.094
60765SOL    HW282322  12.132   3.634   5.199
60766SOL     OW82323  11.645   2.362   3.915
60766SOL    HW182324  11.706   2.442   3.919
60766SOL    HW282325  11.550   2.393   3.922
60767SOL     OW82326  11.331   2.999   5.190
60767SOL    HW182327  11.353   2.938   5.266
60767SOL    HW282328  11.341   2.950   5.104
60768SOL     OW82329  12.519   2.921   4.958
60768SOL    HW182330  12.543   2.858   4.884
60768SOL    HW282331  12.429   2.961   4.940
60769SOL     OW82332  12.474   2.717   4.033
60769SOL    HW182333  12.388   2.686   4.075
60769SOL    HW282334  12.470   2.703   3.934
60770SOL     OW82335  12.424   3.593   4.852
60770SOL    HW182336  12.508   3.598   4.798
60770SOL    HW282337  12.401   3.497   4.870
60771SOL     OW82338  11.255   3.120   4.746
60771SOL    HW182339  11.250   3.119   4.846
60771SOL    HW282340  11.172   3.079   4.708
60772SOL     OW82341  11.860   3.524   5.440
60772SOL    HW182342  11.804   3.605   5.449
60772SOL    HW282343  11.912   3.528   5.354
60773SOL     OW82344  12.898   1.997   4.247
60773SOL    HW182345  12.971   1.980   4.180
60773SOL    HW282346  12.867   1.910   4.285
60774SOL     OW82347  12.560   3.435   4.201
60774SOL    HW182348  12.627   3.447   4.127
60774SOL    HW282349  12.520   3.524   4.224
60775SOL     OW82350  11.302   3.656   5.575
60775SOL    HW182351  11.261   3.582   5.628
60775SOL    HW282352  11.366   3.707   5.633
60776SOL     OW82353  12.452   2.789   4.396
60776SOL    HW182354  12.512   2.708   4.398
60776SOL    HW282355  12.492   2.858   4.336
60777SOL     OW82356  12.002   3.135   5.146
60777SOL    HW182357  11.997   3.168   5.241
60777SOL    HW282358  11.916   3.154   5.100
60778SOL     OW82359  11.844   3.478   3.878
60778SOL    HW182360  11.853   3.488   3.779
60778SOL    HW282361  11.804   3.389   3.899
60779SOL     OW82362  11.435   2.188   4.444
60779SOL    HW182363  11.356   2.239   4.410
60779SOL    HW282364  11.426   2.173   4.542
60780SOL     OW82365  12.366   3.474   3.755
60780SOL    HW182366  12.372   3.381   3.792
60780SOL    HW282367  12.307   3.474   3.675
60781SOL     OW82368  11.994   2.864   5.096
60781SOL    HW182369  12.034   2.863   5.004
60781SOL    HW282370  12.004   2.956   5.136
60782SOL     OW82371  12.088   2.772   4.015
60782SOL    HW182372  12.151   2.810   3.947
60782SOL    HW282373  12.128   2.689   4.054
60783SOL     OW82374  11.544   3.150   5.214
60783SOL    HW182375  11.531   3.243   5.180
60783SOL    HW282376  11.460   3.098   5.201
60784SOL     OW82377  12.211   2.960   4.420
60784SOL    HW182378  12.141   2.913   4.474
60784SOL    HW282379  12.270   2.892   4.377
60785SOL     OW82380  12.186   2.098   4.695
60785SOL    HW182381  12.178   2.062   4.602
60785SOL    HW282382  12.184   2.022   4.760
60786SOL     OW82383  11.762   3.349   4.215
60786SOL    HW182384  11.804   3.291   4.145
60786SOL    HW282385  11.718   3.428   4.171
60787SOL     OW82386  11.427   3.210   4.014
60787SOL    HW182387  11.331   3.211   3.987
60787SOL    HW282388  11.439   3.263   4.098
60788SOL     OW82389  11.277   2.875   5.450
60788SOL    HW182390  11.200   2.842   5.504
60788SOL    HW282391  11.362   2.845   5.492
60789SOL     OW82392  11.844   2.065   5.213
60789SOL    HW182393  11.934   2.049   5.173
60789SOL    HW282394  11.852   2.070   5.312
60790SOL     OW82395  11.247   2.207   3.757
60790SOL    HW182396  11.155   2.179   3.728
60790SOL    HW282397  11.278   2.284   3.701
60791SOL     OW82398  12.612   2.718   5.122
60791SOL    HW182399  12.555   2.770   5.059
60791SOL    HW282400  12.708   2.730   5.098
60792SOL     OW82401  11.244   2.028   4.042
60792SOL    HW182402  11.227   2.111   3.988
60792SOL    HW282403  11.334   1.991   4.020
60793SOL     OW82404  12.355   3.197   3.843
60793SOL    HW182405  12.256   3.186   3.845
60793SOL    HW282406  12.389   3.212   3.936
60794SOL     OW82407  11.785   2.704   5.155
60794SOL    HW182408  11.841   2.785   5.138
60794SOL    HW282409  11.844   2.624   5.158
60795SOL     OW82410  11.888   2.427   5.432
60795SOL    HW182411  11.907   2.492   5.506
60795SOL    HW282412  11.948   2.347   5.441
60796SOL     OW82413  12.622   3.082   5.357
60796SOL    HW182414  12.613   3.072   5.456
60796SOL    HW282415  12.718   3.075   5.331
60797SOL     OW82416  11.562   3.603   5.284
60797SOL    HW182417  11.471   3.644   5.282
60797SOL    HW282418  11.555   3.509   5.316
60798SOL     OW82419  12.397   2.187   4.173
60798SOL    HW182420  12.462   2.113   4.162
60798SOL    HW282421  12.417   2.237   4.257
60799SOL     OW82422  11.766   2.607   4.376
60799SOL    HW182423  11.816   2.692   4.357
60799SOL    HW282424  11.678   2.609   4.328
60800SOL     OW82425  12.031   3.236   3.740
60800SOL    HW182426  11.985   3.251   3.828
60800SOL    HW282427  12.075   3.321   3.710
60801SOL     OW82428  11.833   3.652   4.677
60801SOL    HW182429  11.787   3.740   4.664
60801SOL    HW282430  11.932   3.664   4.670
60802SOL     OW82431  12.031   2.818   4.585
60802SOL    HW182432  12.085   2.749   4.633
60802SOL    HW282433  11.999   2.887   4.651
60803SOL     OW82434  12.255   2.846   3.811
60803SOL    HW182435  12.232   2.899   3.729
60803SOL    HW282436  12.336   2.790   3.792
60804SOL     OW82437  11.393   3.176   5.568
60804SOL    HW182438  11.328   3.103   5.547
60804SOL    HW282439  11.397   3.190   5.666
60805SOL     OW82440  11.251   3.102   4.377
60805SOL    HW182441  11.250   3.055   4.465
60805SOL    HW282442  11.333   3.074   4.326
60806SOL     OW82443  11.844   3.253   5.348
60806SOL    HW182444  11.766   3.203   5.386
60806SOL    HW282445  11.841   3.348   5.379
60807SOL     OW82446  11.600   2.286   4.244
60807SOL    HW182447  11.630   2.214   4.182
60807SOL    HW282448  11.561   2.246   4.327
60808SOL     OW82449  12.877   3.349   4.828
60808SOL    HW182450  12.784   3.324   4.801
60808SOL    HW282451  12.903   3.299   4.910
60809SOL     OW82452  11.489   2.409   5.004
60809SOL    HW182453  11.527   2.350   5.076
60809SOL    HW282454  11.529   2.383   4.916
60810SOL     OW82455  11.984   3.448   4.411
60810SOL    HW182456  12.016   3.458   4.317
60810SOL    HW282457  11.905   3.386   4.413
60811SOL     OW82458  12.596   2.076   4.836
60811SOL    HW182459  12.648   2.011   4.891
60811SOL    HW282460  12.547   2.139   4.897
60812SOL     OW82461  12.173   1.896   4.878
60812SOL    HW182462  12.110   1.824   4.847
60812SOL    HW282463  12.266   1.860   4.878
60813SOL     OW82464  11.942   3.192   4.025
60813SOL    HW182465  11.896   3.105   4.042
60813SOL    HW282466  12.033   3.189   4.066
60814SOL     OW82467  11.790   3.429   5.008
60814SOL    HW182468  11.785   3.511   5.065
60814SOL    HW282469  11.879   3.426   4.963
60815SOL     OW82470  12.524   1.914   3.892
60815SOL    HW182471  12.559   1.873   3.808
60815SOL    HW282472  12.434   1.876   3.912
60816SOL     OW82473  12.472   2.315   4.415
60816SOL    HW182474  12.413   2.395   4.419
60816SOL    HW282475  12.487   2.280   4.508
60817SOL     OW82476  11.211   2.939   4.024
60817SOL    HW182477  11.310   2.928   4.015
60817SOL    HW282478  11.171   2.853   4.056
60818SOL     OW82479  12.047   3.508   4.061
60818SOL    HW182480  11.970   3.473   4.007
60818SOL    HW282481  12.015   3.579   4.123
60819SOL     OW82482  11.402   2.490   5.699
60819SOL    HW182483  11.309   2.488   5.736
60819SOL    HW282484  11.403   2.451   5.607
60820SOL     OW82485  11.397   2.137   6.582
60820SOL    HW182486  11.432   2.120   6.674
60820SOL    HW282487  11.309   2.092   6.570
60821SOL     OW82488  11.191   2.230   6.233
60821SOL    HW182489  11.109   2.273   6.272
60821SOL    HW282490  11.163   2.157   6.170
60822SOL     OW82491  11.741   3.137   6.751
60822SOL    HW182492  11.648   3.130   6.714
60822SOL    HW282493  11.752   3.226   6.795
60823SOL     OW82494  12.727   3.373   6.289
60823SOL    HW182495  12.670   3.357   6.370
60823SOL    HW282496  12.668   3.383   6.209
60824SOL     OW82497  12.307   2.565   6.303
60824SOL    HW182498  12.364   2.643   6.278
60824SOL    HW282499  12.247   2.591   6.379
60825SOL     OW82500  11.940   3.006   6.609
60825SOL    HW182501  11.862   3.023   6.669
60825SOL    HW282502  11.974   3.093   6.573
60826SOL     OW82503  12.022   2.660   7.409
60826SOL    HW182504  12.018   2.736   7.474
60826SOL    HW282505  12.044   2.696   7.318
60827SOL     OW82506  11.857   2.874   6.251
60827SOL    HW182507  11.926   2.858   6.321
60827SOL    HW282508  11.784   2.931   6.289
60828SOL     OW82509  11.858   3.023   7.389
60828SOL    HW182510  11.918   3.102   7.403
60828SOL    HW282511  11.772   3.054   7.348
60829SOL     OW82512  11.507   3.297   6.647
60829SOL    HW182513  11.429   3.266   6.594
60829SOL    HW282514  11.565   3.355   6.590
60830SOL     OW82515  11.610   2.254   7.085
60830SOL    HW182516  11.692   2.198   7.094
60830SOL    HW282517  11.529   2.196   7.089
60831SOL     OW82518  11.403   3.575   6.069
60831SOL    HW182519  11.437   3.652   6.123
60831SOL    HW282520  11.447   3.575   5.979
60832SOL     OW82521  12.299   3.203   7.276
60832SOL    HW182522  12.346   3.203   7.364
60832SOL    HW282523  12.251   3.116   7.265
60833SOL     OW82524  11.402   3.296   6.124
60833SOL    HW182525  11.376   3.392   6.124
60833SOL    HW282526  11.331   3.242   6.169
60834SOL     OW82527  11.412   2.953   6.472
60834SOL    HW182528  11.426   2.869   6.524
60834SOL    HW282529  11.357   3.017   6.527
60835SOL     OW82530  11.792   3.648   7.025
60835SOL    HW182531  11.700   3.631   7.060
60835SOL    HW282532  11.820   3.740   7.051
60836SOL     OW82533  11.778   2.826   5.709
60836SOL    HW182534  11.785   2.910   5.655
60836SOL    HW282535  11.824   2.839   5.797
60837SOL     OW82536  11.294   2.505   6.149
60837SOL    HW182537  11.249   2.417   6.166
60837SOL    HW282538  11.293   2.559   6.233
60838SOL     OW82539  11.199   3.458   5.703
60838SOL    HW182540  11.180   3.362   5.724
60838SOL    HW282541  11.166   3.516   5.778
60839SOL     OW82542  12.861   2.784   6.198
60839SOL    HW182543  12.956   2.755   6.206
60839SOL    HW282544  12.853   2.849   6.123
60840SOL     OW82545  11.285   2.599   7.183
60840SOL    HW182546  11.373   2.586   7.228
60840SOL    HW282547  11.272   2.696   7.161
60841SOL     OW82548  11.785   3.227   6.312
60841SOL    HW182549  11.736   3.140   6.321
60841SOL    HW282550  11.762   3.270   6.225
60842SOL     OW82551  12.465   3.090   7.009
60842SOL    HW182552  12.502   3.017   6.951
60842SOL    HW282553  12.517   3.095   7.094
60843SOL     OW82554  11.981   1.866   6.088
60843SOL    HW182555  12.021   1.957   6.079
60843SOL    HW282556  11.881   1.874   6.094
60844SOL     OW82557  11.369   2.838   6.850
60844SOL    HW182558  11.458   2.793   6.836
60844SOL    HW282559  11.296   2.773   6.831
60845SOL     OW82560  12.359   3.654   7.202
60845SOL    HW182561  12.383   3.714   7.126
60845SOL    HW282562  12.366   3.559   7.172
60846SOL     OW82563  11.489   2.113   7.387
60846SOL    HW182564  11.560   2.184   7.393
60846SOL    HW282565  11.401   2.152   7.415
60847SOL     OW82566  12.638   3.279   6.539
60847SOL    HW182567  12.579   3.285   6.619
60847SOL    HW282568  12.623   3.191   6.493
60848SOL     OW82569  11.770   2.591   5.856
60848SOL    HW182570  11.794   2.660   5.788
60848SOL    HW282571  11.692   2.624   5.910
60849SOL     OW82572  12.453   2.207   6.530
60849SOL    HW182573  12.367   2.157   6.517
60849SOL    HW282574  12.515   2.153   6.586
60850SOL     OW82575  11.979   2.467   7.051
60850SOL    HW182576  11.932   2.464   7.140
60850SOL    HW282577  11.928   2.412   6.985
60851SOL     OW82578  12.566   2.331   7.260
60851SOL    HW182579  12.546   2.374   7.348
60851SOL    HW282580  12.644   2.269   7.269
60852SOL     OW82581  12.145   2.752   7.158
60852SOL    HW182582  12.191   2.668   7.129
60852SOL    HW282583  12.089   2.786   7.083
60853SOL     OW82584  12.163   2.272   6.828
60853SOL    HW182585  12.086   2.306   6.882
60853SOL    HW282586  12.129   2.221   6.749
60854SOL     OW82587  12.213   2.563   6.015
60854SOL    HW182588  12.239   2.559   6.111
60854SOL    HW282589  12.128   2.512   6.001
60855SOL     OW82590  11.248   2.673   6.375
60855SOL    HW182591  11.347   2.661   6.384
60855SOL    HW282592  11.224   2.768   6.396
60856SOL     OW82593  11.302   3.683   7.157
60856SOL    HW182594  11.292   3.668   7.256
60856SOL    HW282595  11.216   3.719   7.121
60857SOL     OW82596  12.037   2.210   5.781
60857SOL    HW182597  12.096   2.273   5.732
60857SOL    HW282598  12.056   2.116   5.752
60858SOL     OW82599  12.534   3.006   6.131
60858SOL    HW182600  12.617   2.977   6.083
60858SOL    HW282601  12.485   3.073   6.075
60859SOL     OW82602  11.722   2.058   6.471
60859SOL    HW182603  11.717   2.053   6.571
60859SOL    HW282604  11.724   2.154   6.442
60860SOL     OW82605  11.523   3.663   6.439
60860SOL    HW182606  11.573   3.577   6.445
60860SOL    HW282607  11.588   3.740   6.436
60861SOL     OW82608  12.399   3.412   7.092
60861SOL    HW182609  12.405   3.335   7.156
60861SOL    HW282610  12.347   3.386   7.012
60862SOL     OW82611  11.493   2.805   5.828
60862SOL    HW182612  11.575   2.844   5.786
60862SOL    HW282613  11.466   2.723   5.779
60863SOL     OW82614  11.633   3.128   7.313
60863SOL    HW182615  11.583   3.129   7.227
60863SOL    HW282616  11.570   3.110   7.389
60864SOL     OW82617  12.283   3.638   5.823
60864SOL    HW182618  12.223   3.576   5.873
60864SOL    HW282619  12.314   3.594   5.738
60865SOL     OW82620  11.374   2.147   7.084
60865SOL    HW182621  11.294   2.207   7.071
60865SOL    HW282622  11.364   2.098   7.170
60866SOL     OW82623  11.636   3.605   5.909
60866SOL    HW182624  11.669   3.644   5.995
60866SOL    HW282625  11.712   3.598   5.844
60867SOL     OW82626  12.572   1.969   6.012
60867SOL    HW182627  12.548   1.932   5.922
60867SOL    HW282628  12.671   1.985   6.016
60868SOL     OW82629  11.421   3.647   6.827
60868SOL    HW182630  11.478   3.582   6.877
60868SOL    HW282631  11.405   3.614   6.734
60869SOL     OW82632  12.112   3.560   6.490
60869SOL    HW182633  12.192   3.503   6.511
60869SOL    HW282634  12.063   3.520   6.413
60870SOL     OW82635  11.554   2.562   6.066
60870SOL    HW182636  11.599   2.472   6.063
60870SOL    HW282637  11.460   2.551   6.099
60871SOL     OW82638  11.786   1.984   5.703
60871SOL    HW182639  11.884   1.962   5.710
60871SOL    HW282640  11.755   1.967   5.610
60872SOL     OW82641  11.953   2.126   7.335
60872SOL    HW182642  12.020   2.065   7.378
60872SOL    HW282643  11.880   2.145   7.400
60873SOL     OW82644  12.060   3.376   6.781
60873SOL    HW182645  12.037   3.351   6.687
60873SOL    HW282646  12.121   3.307   6.820
60874SOL     OW82647  12.523   2.452   7.019
60874SOL    HW182648  12.551   2.409   7.104
60874SOL    HW282649  12.548   2.548   7.020
60875SOL     OW82650  11.975   3.264   6.510
60875SOL    HW182651  12.065   3.278   6.468
60875SOL    HW282652  11.904   3.266   6.439
60876SOL     OW82653  12.094   2.365   6.485
60876SOL    HW182654  12.069   2.356   6.389
60876SOL    HW282655  12.142   2.283   6.516
60877SOL     OW82656  11.711   1.926   6.098
60877SOL    HW182657  11.630   1.927   6.156
60877SOL    HW282658  11.714   2.009   6.043
60878SOL     OW82659  12.606   3.050   5.627
60878SOL    HW182660  12.638   2.974   5.684
60878SOL    HW282661  12.514   3.077   5.657
60879SOL     OW82662  11.469   1.897   5.757
60879SOL    HW182663  11.518   1.981   5.736
60879SOL    HW282664  11.531   1.832   5.802
60880SOL     OW82665  12.107   2.098   6.066
60880SOL    HW182666  12.059   2.139   5.988
60880SOL    HW282667  12.206   2.096   6.047
60881SOL     OW82668  12.248   2.545   7.050
60881SOL    HW182669  12.168   2.484   7.053
60881SOL    HW282670  12.329   2.492   7.026
60882SOL     OW82671  12.399   3.432   6.379
60882SOL    HW182672  12.420   3.506   6.314
60882SOL    HW282673  12.467   3.432   6.452
60883SOL     OW82674  11.631   3.014   6.327
60883SOL    HW182675  11.560   2.987   6.392
60883SOL    HW282676  11.605   2.986   6.234
60884SOL     OW82677  12.443   3.659   6.177
60884SOL    HW182678  12.487   3.723   6.113
60884SOL    HW282679  12.393   3.711   6.247
60885SOL     OW82680  12.204   2.411   5.602
60885SOL    HW182681  12.163   2.493   5.563
60885SOL    HW282682  12.268   2.437   5.675
60886SOL     OW82683  11.250   2.418   6.972
60886SOL    HW182684  11.342   2.417   6.931
60886SOL    HW282685  11.244   2.492   7.039
60887SOL     OW82686  11.733   2.084   6.733
60887SOL    HW182687  11.771   2.000   6.770
60887SOL    HW282688  11.645   2.103   6.777
60888SOL     OW82689  12.038   2.316   6.228
60888SOL    HW182690  12.006   2.388   6.166
60888SOL    HW282691  12.062   2.235   6.175
60889SOL     OW82692  12.189   1.901   6.339
60889SOL    HW182693  12.117   1.906   6.270
60889SOL    HW282694  12.165   1.832   6.408
60890SOL     OW82695  12.601   3.035   6.453
60890SOL    HW182696  12.546   2.951   6.446
60890SOL    HW282697  12.627   3.064   6.361
60891SOL     OW82698  11.660   3.247   5.760
60891SOL    HW182699  11.573   3.232   5.807
60891SOL    HW282700  11.643   3.273   5.665
60892SOL     OW82701  12.562   2.437   5.664
60892SOL    HW182702  12.508   2.416   5.745
60892SOL    HW282703  12.653   2.396   5.673
60893SOL     OW82704  11.699   2.118   5.914
60893SOL    HW182705  11.726   2.059   5.839
60893SOL    HW282706  11.699   2.213   5.883
60894SOL     OW82707  12.236   3.209   6.926
60894SOL    HW182708  12.156   3.186   6.981
60894SOL    HW282709  12.319   3.183   6.975
60895SOL     OW82710  12.764   3.491   7.211
60895SOL    HW182711  12.791   3.525   7.121
60895SOL    HW282712  12.843   3.453   7.257
60896SOL     OW82713  12.283   3.057   6.686
60896SOL    HW182714  12.243   3.101   6.767
60896SOL    HW282715  12.242   3.094   6.603
60897SOL     OW82716  12.087   1.951   6.988
60897SOL    HW182717  12.112   1.931   6.893
60897SOL    HW282718  12.159   2.007   7.030
60898SOL     OW82719  12.152   2.978   7.305
60898SOL    HW182720  12.053   2.984   7.315
60898SOL    HW282721  12.175   2.898   7.249
60899SOL     OW82722  11.877   2.912   5.954
60899SOL    HW182723  11.863   2.919   6.053
60899SOL    HW282724  11.961   2.861   5.936
60900SOL     OW82725  11.582   2.675   6.837
60900SOL    HW182726  11.668   2.687   6.887
60900SOL    HW282727  11.540   2.588   6.864
60901SOL     OW82728  12.446   2.248   6.848
60901SOL    HW182729  12.467   2.322   6.912
60901SOL    HW282730  12.357   2.265   6.805
60902SOL     OW82731  11.236   3.426   6.917
60902SOL    HW182732  11.190   3.508   6.883
60902SOL    HW282733  11.334   3.445   6.926
60903SOL     OW82734  11.539   2.962   6.087
60903SOL    HW182735  11.532   3.045   6.031
60903SOL    HW282736  11.543   2.882   6.027
60904SOL     OW82737  11.738   2.399   6.451
60904SOL    HW182738  11.750   2.465   6.377
60904SOL    HW282739  11.784   2.433   6.534
60905SOL     OW82740  12.424   3.210   5.974
60905SOL    HW182741  12.474   3.287   6.014
60905SOL    HW282742  12.329   3.212   6.006
60906SOL     OW82743  12.444   3.307   6.728
60906SOL    HW182744  12.491   3.320   6.815
60906SOL    HW282745  12.378   3.233   6.737
60907SOL     OW82746  11.526   3.372   6.915
60907SOL    HW182747  11.505   3.328   6.828
60907SOL    HW282748  11.623   3.398   6.918
60908SOL     OW82749  11.574   2.613   7.184
60908SOL    HW182750  11.642   2.668   7.137
60908SOL    HW282751  11.614   2.525   7.211
60909SOL     OW82752  12.185   1.967   7.356
60909SOL    HW182753  12.191   2.052   7.304
60909SOL    HW282754  12.217   1.891   7.299
60910SOL     OW82755  11.676   1.912   7.326
60910SOL    HW182756  11.634   1.855   7.256
60910SOL    HW282757  11.610   1.981   7.358
60911SOL     OW82758  11.745   2.732   6.615
60911SOL    HW182759  11.789   2.821   6.606
60911SOL    HW282760  11.682   2.732   6.692
60912SOL     OW82761  12.532   2.724   6.631
60912SOL    HW182762  12.457   2.724   6.565
60912SOL    HW282763  12.569   2.632   6.640
60913SOL     OW82764  12.381   2.387   5.861
60913SOL    HW182765  12.394   2.303   5.915
60913SOL    HW282766  12.352   2.461   5.921
60914SOL     OW82767  11.479   2.075   6.817
60914SOL    HW182768  11.456   2.112   6.907
60914SOL    HW282769  11.449   1.980   6.811
60915SOL     OW82770  11.209   3.172   6.868
60915SOL    HW182771  11.262   3.123   6.936
60915SOL    HW282772  11.231   3.270   6.873
60916SOL     OW82773  11.904   2.496   6.650
60916SOL    HW182774  11.963   2.470   6.574
60916SOL    HW282775  11.876   2.592   6.639
60917SOL     OW82776  11.479   1.925   6.204
60917SOL    HW182777  11.468   2.019   6.237
60917SOL    HW282778  11.474   1.862   6.281
60918SOL     OW82779  12.794   2.229   5.960
60918SOL    HW182780  12.796   2.153   6.024
60918SOL    HW282781  12.746   2.306   6.000
60919SOL     OW82782  12.195   2.628   6.552
60919SOL    HW182783  12.210   2.649   6.648
60919SOL    HW282784  12.165   2.533   6.543
60920SOL     OW82785  12.152   3.435   7.286
60920SOL    HW182786  12.132   3.479   7.198
60920SOL    HW282787  12.191   3.344   7.270
60921SOL     OW82788  11.522   2.760   7.390
60921SOL    HW182789  11.598   2.804   7.438
60921SOL    HW282790  11.557   2.713   7.308
60922SOL     OW82791  12.475   2.700   5.628
60922SOL    HW182792  12.509   2.607   5.643
60922SOL    HW282793  12.493   2.727   5.533
60923SOL     OW82794  12.240   3.195   6.435
60923SOL    HW182795  12.247   3.111   6.380
60923SOL    HW282796  12.302   3.264   6.399
60924SOL     OW82797  11.491   2.672   6.535
60924SOL    HW182798  11.584   2.708   6.540
60924SOL    HW282799  11.485   2.587   6.587
60925SOL     OW82800  11.511   2.371   6.592
60925SOL    HW182801  11.459   2.288   6.575
60925SOL    HW282802  11.588   2.376   6.528
60926SOL     OW82803  12.310   2.242   7.264
60926SOL    HW182804  12.265   2.305   7.328
60926SOL    HW282805  12.403   2.273   7.247
60927SOL     OW82806  12.332   2.069   7.063
60927SOL    HW182807  12.332   2.133   7.140
60927SOL    HW282808  12.360   2.117   6.980
60928SOL     OW82809  11.180   3.188   5.786
60928SOL    HW182810  11.087   3.209   5.755
60928SOL    HW282811  11.190   3.089   5.799
60929SOL     OW82812  11.260   3.663   6.513
60929SOL    HW182813  11.218   3.577   6.486
60929SOL    HW282814  11.354   3.666   6.479
60930SOL     OW82815  11.676   3.430   6.496
60930SOL    HW182816  11.742   3.504   6.505
60930SOL    HW282817  11.720   3.351   6.454
60931SOL     OW82818  12.174   2.658   6.824
60931SOL    HW182819  12.215   2.626   6.910
60931SOL    HW282820  12.078   2.631   6.821
60932SOL     OW82821  11.212   2.406   6.700
60932SOL    HW182822  11.297   2.373   6.659
60932SOL    HW282823  11.225   2.421   6.798
60933SOL     OW82824  11.361   2.382   7.308
60933SOL    HW182825  11.420   2.342   7.238
60933SOL    HW282826  11.303   2.453   7.267
60934SOL     OW82827  12.541   2.812   7.246
60934SOL    HW182828  12.580   2.901   7.266
60934SOL    HW282829  12.551   2.792   7.149
60935SOL     OW82830  11.987   2.434   5.911
60935SOL    HW182831  11.994   2.345   5.865
60935SOL    HW282832  11.893   2.468   5.903
60936SOL     OW82833  11.424   3.426   7.330
60936SOL    HW182834  11.394   3.483   7.406
60936SOL    HW282835  11.417   3.329   7.356
60937SOL     OW82836  11.843   2.326   6.855
60937SOL    HW182837  11.809   2.237   6.825
60937SOL    HW282838  11.869   2.380   6.775
60938SOL     OW82839  12.102   3.540   7.051
60938SOL    HW182840  12.078   3.522   6.956
60938SOL    HW282841  12.132   3.634   7.061
60939SOL     OW82842  11.645   2.362   5.777
60939SOL    HW182843  11.706   2.442   5.781
60939SOL    HW282844  11.550   2.393   5.784
60940SOL     OW82845  11.331   2.999   7.052
60940SOL    HW182846  11.353   2.938   7.128
60940SOL    HW282847  11.341   2.950   6.966
60941SOL     OW82848  12.519   2.921   6.820
60941SOL    HW182849  12.543   2.858   6.746
60941SOL    HW282850  12.429   2.961   6.802
60942SOL     OW82851  12.474   2.717   5.895
60942SOL    HW182852  12.388   2.686   5.937
60942SOL    HW282853  12.470   2.703   5.796
60943SOL     OW82854  12.424   3.593   6.714
60943SOL    HW182855  12.508   3.598   6.660
60943SOL    HW282856  12.401   3.497   6.732
60944SOL     OW82857  11.255   3.120   6.608
60944SOL    HW182858  11.250   3.119   6.708
60944SOL    HW282859  11.172   3.079   6.570
60945SOL     OW82860  11.860   3.524   7.302
60945SOL    HW182861  11.804   3.605   7.311
60945SOL    HW282862  11.912   3.528   7.216
60946SOL     OW82863  12.898   1.997   6.109
60946SOL    HW182864  12.971   1.980   6.042
60946SOL    HW282865  12.867   1.910   6.147
60947SOL     OW82866  12.560   3.435   6.063
60947SOL    HW182867  12.627   3.447   5.989
60947SOL    HW282868  12.520   3.524   6.086
60948SOL     OW82869  11.302   3.656   7.437
60948SOL    HW182870  11.261   3.582   7.490
60948SOL    HW282871  11.366   3.707   7.495
60949SOL     OW82872  12.452   2.789   6.258
60949SOL    HW182873  12.512   2.708   6.260
60949SOL    HW282874  12.492   2.858   6.198
60950SOL     OW82875  12.002   3.135   7.008
60950SOL    HW182876  11.997   3.168   7.103
60950SOL    HW282877  11.916   3.154   6.962
60951SOL     OW82878  11.844   3.478   5.740
60951SOL    HW182879  11.853   3.488   5.641
60951SOL    HW282880  11.804   3.389   5.761
60952SOL     OW82881  11.435   2.188   6.306
60952SOL    HW182882  11.356   2.239   6.272
60952SOL    HW282883  11.426   2.173   6.404
60953SOL     OW82884  12.366   3.474   5.617
60953SOL    HW182885  12.372   3.381   5.654
60953SOL    HW282886  12.307   3.474   5.537
60954SOL     OW82887  11.994   2.864   6.958
60954SOL    HW182888  12.034   2.863   6.866
60954SOL    HW282889  12.004   2.956   6.998
60955SOL     OW82890  12.088   2.772   5.877
60955SOL    HW182891  12.151   2.810   5.809
60955SOL    HW282892  12.128   2.689   5.916
60956SOL     OW82893  11.544   3.150   7.076
60956SOL    HW182894  11.531   3.243   7.042
60956SOL    HW282895  11.460   3.098   7.063
60957SOL     OW82896  12.211   2.960   6.282
60957SOL    HW182897  12.141   2.913   6.336
60957SOL    HW282898  12.270   2.892   6.239
60958SOL     OW82899  12.186   2.098   6.557
60958SOL    HW182900  12.178   2.062   6.464
60958SOL    HW282901  12.184   2.022   6.622
60959SOL     OW82902  11.762   3.349   6.077
60959SOL    HW182903  11.804   3.291   6.007
60959SOL    HW282904  11.718   3.428   6.033
60960SOL     OW82905  11.427   3.210   5.876
60960SOL    HW182906  11.331   3.211   5.849
60960SOL    HW282907  11.439   3.263   5.960
60961SOL     OW82908  11.277   2.875   7.312
60961SOL    HW182909  11.200   2.842   7.366
60961SOL    HW282910  11.362   2.845   7.354
60962SOL     OW82911  11.844   2.065   7.075
60962SOL    HW182912  11.934   2.049   7.035
60962SOL    HW282913  11.852   2.070   7.174
60963SOL     OW82914  11.247   2.207   5.619
60963SOL    HW182915  11.155   2.179   5.590
60963SOL    HW282916  11.278   2.284   5.563
60964SOL     OW82917  12.612   2.718   6.984
60964SOL    HW182918  12.555   2.770   6.921
60964SOL    HW282919  12.708   2.730   6.960
60965SOL     OW82920  11.244   2.028   5.904
60965SOL    HW182921  11.227   2.111   5.850
60965SOL    HW282922  11.334   1.991   5.882
60966SOL     OW82923  12.355   3.197   5.705
60966SOL    HW182924  12.256   3.186   5.707
60966SOL    HW282925  12.389   3.212   5.798
60967SOL     OW82926  11.785   2.704   7.017
60967SOL    HW182927  11.841   2.785   7.000
60967SOL    HW282928  11.844   2.624   7.020
60968SOL     OW82929  11.888   2.427   7.294
60968SOL    HW182930  11.907   2.492   7.368
60968SOL    HW282931  11.948   2.347   7.303
60969SOL     OW82932  12.622   3.082   7.219
60969SOL    HW182933  12.613   3.072   7.318
60969SOL    HW282934  12.718   3.075   7.193
60970SOL     OW82935  11.562   3.603   7.146
60970SOL    HW182936  11.471   3.644   7.144
60970SOL    HW282937  11.555   3.509   7.178
60971SOL     OW82938  12.397   2.187   6.035
60971SOL    HW182939  12.462   2.113   6.024
60971SOL    HW282940  12.417   2.237   6.119
60972SOL     OW82941  11.766   2.607   6.238
60972SOL    HW182942  11.816   2.692   6.219
60972SOL    HW282943  11.678   2.609   6.190
60973SOL     OW82944  12.031   3.236   5.602
60973SOL    HW182945  11.985   3.251   5.690
60973SOL    HW282946  12.075   3.321   5.572
60974SOL     OW82947  11.833   3.652   6.539
60974SOL    HW182948  11.787   3.740   6.526
60974SOL    HW282949  11.932   3.664   6.532
60975SOL     OW82950  12.031   2.818   6.447
60975SOL    HW182951  12.085   2.749   6.495
60975SOL    HW282952  11.999   2.887   6.513
60976SOL     OW82953  12.255   2.846   5.673
60976SOL    HW182954  12.232   2.899   5.591
60976SOL    HW282955  12.336   2.790   5.654
60977SOL     OW82956  11.393   3.176   7.430
60977SOL    HW182957  11.328   3.103   7.409
60977SOL    HW282958  11.397   3.190   7.528
60978SOL     OW82959  11.251   3.102   6.239
60978SOL    HW182960  11.250   3.055   6.327
60978SOL    HW282961  11.333   3.074   6.188
60979SOL     OW82962  11.844   3.253   7.210
60979SOL    HW182963  11.766   3.203   7.248
60979SOL    HW282964  11.841   3.348   7.241
60980SOL     OW82965  11.600   2.286   6.106
60980SOL    HW182966  11.630   2.214   6.044
60980SOL    HW282967  11.561   2.246   6.189
60981SOL     OW82968  12.877   3.349   6.690
60981SOL    HW182969  12.784   3.324   6.663
60981SOL    HW282970  12.903   3.299   6.772
60982SOL     OW82971  11.489   2.409   6.866
60982SOL    HW182972  11.527   2.350   6.938
60982SOL    HW282973  11.529   2.383   6.778
60983SOL     OW82974  11.984   3.448   6.273
60983SOL    HW182975  12.016   3.458   6.179
60983SOL    HW282976  11.905   3.386   6.275
60984SOL     OW82977  12.596   2.076   6.698
60984SOL    HW182978  12.648   2.011   6.753
60984SOL    HW282979  12.547   2.139   6.759
60985SOL     OW82980  12.173   1.896   6.740
60985SOL    HW182981  12.110   1.824   6.709
60985SOL    HW282982  12.266   1.860   6.740
60986SOL     OW82983  11.942   3.192   5.887
60986SOL    HW182984  11.896   3.105   5.904
60986SOL    HW282985  12.033   3.189   5.928
60987SOL     OW82986  11.790   3.429   6.870
60987SOL    HW182987  11.785   3.511   6.927
60987SOL    HW282988  11.879   3.426   6.825
60988SOL     OW82989  12.524   1.914   5.754
60988SOL    HW182990  12.559   1.873   5.670
60988SOL    HW282991  12.434   1.876   5.774
60989SOL     OW82992  12.472   2.315   6.277
60989SOL    HW182993  12.413   2.395   6.281
60989SOL    HW282994  12.487   2.280   6.370
60990SOL     OW82995  11.211   2.939   5.886
60990SOL    HW182996  11.310   2.928   5.877
60990SOL    HW282997  11.171   2.853   5.918
60991SOL     OW82998  12.047   3.508   5.923
60991SOL    HW182999  11.970   3.473   5.869
60991SOL    HW283000  12.015   3.579   5.985
60992SOL     OW83001  11.402   2.490   7.561
60992SOL    HW183002  11.309   2.488   7.598
60992SOL    HW283003  11.403   2.451   7.469
60993SOL     OW83004  11.397   2.137   8.444
60993SOL    HW183005  11.432   2.120   8.536
60993SOL    HW283006  11.309   2.092   8.432
60994SOL     OW83007  11.191   2.230   8.095
60994SOL    HW183008  11.109   2.273   8.134
60994SOL    HW283009  11.163   2.157   8.032
60995SOL     OW83010  11.741   3.137   8.613
60995SOL    HW183011  11.648   3.130   8.576
60995SOL    HW283012  11.752   3.226   8.657
60996SOL     OW83013  12.727   3.373   8.151
60996SOL    HW183014  12.670   3.357   8.232
60996SOL    HW283015  12.668   3.383   8.071
60997SOL     OW83016  12.307   2.565   8.165
60997SOL    HW183017  12.364   2.643   8.140
60997SOL    HW283018  12.247   2.591   8.241
60998SOL     OW83019  11.940   3.006   8.471
60998SOL    HW183020  11.862   3.023   8.531
60998SOL    HW283021  11.974   3.093   8.435
60999SOL     OW83022  12.022   2.660   9.271
60999SOL    HW183023  12.018   2.736   9.336
60999SOL    HW283024  12.044   2.696   9.180
61000SOL     OW83025  11.857   2.874   8.113
61000SOL    HW183026  11.926   2.858   8.183
61000SOL    HW283027  11.784   2.931   8.151
61001SOL     OW83028  11.858   3.023   9.251
61001SOL    HW183029  11.918   3.102   9.265
61001SOL    HW283030  11.772   3.054   9.210
61002SOL     OW83031  11.507   3.297   8.509
61002SOL    HW183032  11.429   3.266   8.456
61002SOL    HW283033  11.565   3.355   8.452
61003SOL     OW83034  11.610   2.254   8.947
61003SOL    HW183035  11.692   2.198   8.956
61003SOL    HW283036  11.529   2.196   8.951
61004SOL     OW83037  11.403   3.575   7.931
61004SOL    HW183038  11.437   3.652   7.985
61004SOL    HW283039  11.447   3.575   7.841
61005SOL     OW83040  12.299   3.203   9.138
61005SOL    HW183041  12.346   3.203   9.226
61005SOL    HW283042  12.251   3.116   9.127
61006SOL     OW83043  11.402   3.296   7.986
61006SOL    HW183044  11.376   3.392   7.986
61006SOL    HW283045  11.331   3.242   8.031
61007SOL     OW83046  11.412   2.953   8.334
61007SOL    HW183047  11.426   2.869   8.386
61007SOL    HW283048  11.357   3.017   8.389
61008SOL     OW83049  11.792   3.648   8.887
61008SOL    HW183050  11.700   3.631   8.922
61008SOL    HW283051  11.820   3.740   8.913
61009SOL     OW83052  11.778   2.826   7.571
61009SOL    HW183053  11.785   2.910   7.517
61009SOL    HW283054  11.824   2.839   7.659
61010SOL     OW83055  11.294   2.505   8.011
61010SOL    HW183056  11.249   2.417   8.028
61010SOL    HW283057  11.293   2.559   8.095
61011SOL     OW83058  11.199   3.458   7.565
61011SOL    HW183059  11.180   3.362   7.586
61011SOL    HW283060  11.166   3.516   7.640
61012SOL     OW83061  12.861   2.784   8.060
61012SOL    HW183062  12.956   2.755   8.068
61012SOL    HW283063  12.853   2.849   7.985
61013SOL     OW83064  11.285   2.599   9.045
61013SOL    HW183065  11.373   2.586   9.090
61013SOL    HW283066  11.272   2.696   9.023
61014SOL     OW83067  11.785   3.227   8.174
61014SOL    HW183068  11.736   3.140   8.183
61014SOL    HW283069  11.762   3.270   8.087
61015SOL     OW83070  12.465   3.090   8.871
61015SOL    HW183071  12.502   3.017   8.813
61015SOL    HW283072  12.517   3.095   8.956
61016SOL     OW83073  11.981   1.866   7.950
61016SOL    HW183074  12.021   1.957   7.941
61016SOL    HW283075  11.881   1.874   7.956
61017SOL     OW83076  11.369   2.838   8.712
61017SOL    HW183077  11.458   2.793   8.698
61017SOL    HW283078  11.296   2.773   8.693
61018SOL     OW83079  12.359   3.654   9.064
61018SOL    HW183080  12.383   3.714   8.988
61018SOL    HW283081  12.366   3.559   9.034
61019SOL     OW83082  11.489   2.113   9.249
61019SOL    HW183083  11.560   2.184   9.255
61019SOL    HW283084  11.401   2.152   9.277
61020SOL     OW83085  12.638   3.279   8.401
61020SOL    HW183086  12.579   3.285   8.481
61020SOL    HW283087  12.623   3.191   8.355
61021SOL     OW83088  11.770   2.591   7.718
61021SOL    HW183089  11.794   2.660   7.650
61021SOL    HW283090  11.692   2.624   7.772
61022SOL     OW83091  12.453   2.207   8.392
61022SOL    HW183092  12.367   2.157   8.379
61022SOL    HW283093  12.515   2.153   8.448
61023SOL     OW83094  11.979   2.467   8.913
61023SOL    HW183095  11.932   2.464   9.002
61023SOL    HW283096  11.928   2.412   8.847
61024SOL     OW83097  12.566   2.331   9.122
61024SOL    HW183098  12.546   2.374   9.210
61024SOL    HW283099  12.644   2.269   9.131
61025SOL     OW83100  12.145   2.752   9.020
61025SOL    HW183101  12.191   2.668   8.991
61025SOL    HW283102  12.089   2.786   8.945
61026SOL     OW83103  12.163   2.272   8.690
61026SOL    HW183104  12.086   2.306   8.744
61026SOL    HW283105  12.129   2.221   8.611
61027SOL     OW83106  12.213   2.563   7.877
61027SOL    HW183107  12.239   2.559   7.973
61027SOL    HW283108  12.128   2.512   7.863
61028SOL     OW83109  11.248   2.673   8.237
61028SOL    HW183110  11.347   2.661   8.246
61028SOL    HW283111  11.224   2.768   8.258
61029SOL     OW83112  11.302   3.683   9.019
61029SOL    HW183113  11.292   3.668   9.118
61029SOL    HW283114  11.216   3.719   8.983
61030SOL     OW83115  12.037   2.210   7.643
61030SOL    HW183116  12.096   2.273   7.594
61030SOL    HW283117  12.056   2.116   7.614
61031SOL     OW83118  12.534   3.006   7.993
61031SOL    HW183119  12.617   2.977   7.945
61031SOL    HW283120  12.485   3.073   7.937
61032SOL     OW83121  11.722   2.058   8.333
61032SOL    HW183122  11.717   2.053   8.433
61032SOL    HW283123  11.724   2.154   8.304
61033SOL     OW83124  12.180   3.318   7.925
61033SOL    HW183125  12.134   3.390   7.873
61033SOL    HW283126  12.176   3.338   8.023
61034SOL     OW83127  11.523   3.663   8.301
61034SOL    HW183128  11.573   3.577   8.307
61034SOL    HW283129  11.588   3.740   8.298
61035SOL     OW83130  12.399   3.412   8.954
61035SOL    HW183131  12.405   3.335   9.018
61035SOL    HW283132  12.347   3.386   8.874
61036SOL     OW83133  11.493   2.805   7.690
61036SOL    HW183134  11.575   2.844   7.648
61036SOL    HW283135  11.466   2.723   7.641
61037SOL     OW83136  11.633   3.128   9.175
61037SOL    HW183137  11.583   3.129   9.089
61037SOL    HW283138  11.570   3.110   9.251
61038SOL     OW83139  12.283   3.638   7.685
61038SOL    HW183140  12.223   3.576   7.735
61038SOL    HW283141  12.314   3.594   7.600
61039SOL     OW83142  11.374   2.147   8.946
61039SOL    HW183143  11.294   2.207   8.933
61039SOL    HW283144  11.364   2.098   9.032
61040SOL     OW83145  11.636   3.605   7.771
61040SOL    HW183146  11.669   3.644   7.857
61040SOL    HW283147  11.712   3.598   7.706
61041SOL     OW83148  12.572   1.969   7.874
61041SOL    HW183149  12.548   1.932   7.784
61041SOL    HW283150  12.671   1.985   7.878
61042SOL     OW83151  11.421   3.647   8.689
61042SOL    HW183152  11.478   3.582   8.739
61042SOL    HW283153  11.405   3.614   8.596
61043SOL     OW83154  12.112   3.560   8.352
61043SOL    HW183155  12.192   3.503   8.373
61043SOL    HW283156  12.063   3.520   8.275
61044SOL     OW83157  11.554   2.562   7.928
61044SOL    HW183158  11.599   2.472   7.925
61044SOL    HW283159  11.460   2.551   7.961
61045SOL     OW83160  11.786   1.984   7.565
61045SOL    HW183161  11.884   1.962   7.572
61045SOL    HW283162  11.755   1.967   7.472
61046SOL     OW83163  11.953   2.126   9.197
61046SOL    HW183164  12.020   2.065   9.240
61046SOL    HW283165  11.880   2.145   9.262
61047SOL     OW83166  12.060   3.376   8.643
61047SOL    HW183167  12.037   3.351   8.549
61047SOL    HW283168  12.121   3.307   8.682
61048SOL     OW83169  12.523   2.452   8.881
61048SOL    HW183170  12.551   2.409   8.966
61048SOL    HW283171  12.548   2.548   8.882
61049SOL     OW83172  11.975   3.264   8.372
61049SOL    HW183173  12.065   3.278   8.330
61049SOL    HW283174  11.904   3.266   8.301
61050SOL     OW83175  12.094   2.365   8.347
61050SOL    HW183176  12.069   2.356   8.251
61050SOL    HW283177  12.142   2.283   8.378
61051SOL     OW83178  11.711   1.926   7.960
61051SOL    HW183179  11.630   1.927   8.018
61051SOL    HW283180  11.714   2.009   7.905
61052SOL     OW83181  12.606   3.050   7.489
61052SOL    HW183182  12.638   2.974   7.546
61052SOL    HW283183  12.514   3.077   7.519
61053SOL     OW83184  11.469   1.897   7.619
61053SOL    HW183185  11.518   1.981   7.598
61053SOL    HW283186  11.531   1.832   7.664
61054SOL     OW83187  12.107   2.098   7.928
61054SOL    HW183188  12.059   2.139   7.850
61054SOL    HW283189  12.206   2.096   7.909
61055SOL     OW83190  12.248   2.545   8.912
61055SOL    HW183191  12.168   2.484   8.915
61055SOL    HW283192  12.329   2.492   8.888
61056SOL     OW83193  12.399   3.432   8.241
61056SOL    HW183194  12.420   3.506   8.176
61056SOL    HW283195  12.467   3.432   8.314
61057SOL     OW83196  11.631   3.014   8.189
61057SOL    HW183197  11.560   2.987   8.254
61057SOL    HW283198  11.605   2.986   8.096
61058SOL     OW83199  12.443   3.659   8.039
61058SOL    HW183200  12.487   3.723   7.975
61058SOL    HW283201  12.393   3.711   8.109
61059SOL     OW83202  12.204   2.411   7.464
61059SOL    HW183203  12.163   2.493   7.425
61059SOL    HW283204  12.268   2.437   7.537
61060SOL     OW83205  11.250   2.418   8.834
61060SOL    HW183206  11.342   2.417   8.793
61060SOL    HW283207  11.244   2.492   8.901
61061SOL     OW83208  11.733   2.084   8.595
61061SOL    HW183209  11.771   2.000   8.632
61061SOL    HW283210  11.645   2.103   8.639
61062SOL     OW83211  12.038   2.316   8.090
61062SOL    HW183212  12.006   2.388   8.028
61062SOL    HW283213  12.062   2.235   8.037
61063SOL     OW83214  12.189   1.901   8.201
61063SOL    HW183215  12.117   1.906   8.132
61063SOL    HW283216  12.165   1.832   8.270
61064SOL     OW83217  12.601   3.035   8.315
61064SOL    HW183218  12.546   2.951   8.308
61064SOL    HW283219  12.627   3.064   8.223
61065SOL     OW83220  11.660   3.247   7.622
61065SOL    HW183221  11.573   3.232   7.669
61065SOL    HW283222  11.643   3.273   7.527
61066SOL     OW83223  12.562   2.437   7.526
61066SOL    HW183224  12.508   2.416   7.607
61066SOL    HW283225  12.653   2.396   7.535
61067SOL     OW83226  11.699   2.118   7.776
61067SOL    HW183227  11.726   2.059   7.701
61067SOL    HW283228  11.699   2.213   7.745
61068SOL     OW83229  12.236   3.209   8.788
61068SOL    HW183230  12.156   3.186   8.843
61068SOL    HW283231  12.319   3.183   8.837
61069SOL     OW83232  12.764   3.491   9.073
61069SOL    HW183233  12.791   3.525   8.983
61069SOL    HW283234  12.843   3.453   9.119
61070SOL     OW83235  12.283   3.057   8.548
61070SOL    HW183236  12.243   3.101   8.629
61070SOL    HW283237  12.242   3.094   8.465
61071SOL     OW83238  12.087   1.951   8.850
61071SOL    HW183239  12.112   1.931   8.755
61071SOL    HW283240  12.159   2.007   8.892
61072SOL     OW83241  12.152   2.978   9.167
61072SOL    HW183242  12.053   2.984   9.177
61072SOL    HW283243  12.175   2.898   9.111
61073SOL     OW83244  11.877   2.912   7.816
61073SOL    HW183245  11.863   2.919   7.915
61073SOL    HW283246  11.961   2.861   7.798
61074SOL     OW83247  11.582   2.675   8.699
61074SOL    HW183248  11.668   2.687   8.749
61074SOL    HW283249  11.540   2.588   8.726
61075SOL     OW83250  12.446   2.248   8.710
61075SOL    HW183251  12.467   2.322   8.774
61075SOL    HW283252  12.357   2.265   8.667
61076SOL     OW83253  11.236   3.426   8.779
61076SOL    HW183254  11.190   3.508   8.745
61076SOL    HW283255  11.334   3.445   8.788
61077SOL     OW83256  11.539   2.962   7.949
61077SOL    HW183257  11.532   3.045   7.893
61077SOL    HW283258  11.543   2.882   7.889
61078SOL     OW83259  11.738   2.399   8.313
61078SOL    HW183260  11.750   2.465   8.239
61078SOL    HW283261  11.784   2.433   8.396
61079SOL     OW83262  12.424   3.210   7.836
61079SOL    HW183263  12.474   3.287   7.876
61079SOL    HW283264  12.329   3.212   7.868
61080SOL     OW83265  12.444   3.307   8.590
61080SOL    HW183266  12.491   3.320   8.677
61080SOL    HW283267  12.378   3.233   8.599
61081SOL     OW83268  11.526   3.372   8.777
61081SOL    HW183269  11.505   3.328   8.690
61081SOL    HW283270  11.623   3.398   8.780
61082SOL     OW83271  11.574   2.613   9.046
61082SOL    HW183272  11.642   2.668   8.999
61082SOL    HW283273  11.614   2.525   9.073
61083SOL     OW83274  12.185   1.967   9.218
61083SOL    HW183275  12.191   2.052   9.166
61083SOL    HW283276  12.217   1.891   9.161
61084SOL     OW83277  11.676   1.912   9.188
61084SOL    HW183278  11.634   1.855   9.118
61084SOL    HW283279  11.610   1.981   9.220
61085SOL     OW83280  11.745   2.732   8.477
61085SOL    HW183281  11.789   2.821   8.468
61085SOL    HW283282  11.682   2.732   8.554
61086SOL     OW83283  12.532   2.724   8.493
61086SOL    HW183284  12.457   2.724   8.427
61086SOL    HW283285  12.569   2.632   8.502
61087SOL     OW83286  12.381   2.387   7.723
61087SOL    HW183287  12.394   2.303   7.777
61087SOL    HW283288  12.352   2.461   7.783
61088SOL     OW83289  11.479   2.075   8.679
61088SOL    HW183290  11.456   2.112   8.769
61088SOL    HW283291  11.449   1.980   8.673
61089SOL     OW83292  11.209   3.172   8.730
61089SOL    HW183293  11.262   3.123   8.798
61089SOL    HW283294  11.231   3.270   8.735
61090SOL     OW83295  11.904   2.496   8.512
61090SOL    HW183296  11.963   2.470   8.436
61090SOL    HW283297  11.876   2.592   8.501
61091SOL     OW83298  11.479   1.925   8.066
61091SOL    HW183299  11.468   2.019   8.099
61091SOL    HW283300  11.474   1.862   8.143
61092SOL     OW83301  12.794   2.229   7.822
61092SOL    HW183302  12.796   2.153   7.886
61092SOL    HW283303  12.746   2.306   7.862
61093SOL     OW83304  12.195   2.628   8.414
61093SOL    HW183305  12.210   2.649   8.510
61093SOL    HW283306  12.165   2.533   8.405
61094SOL     OW83307  12.152   3.435   9.148
61094SOL    HW183308  12.132   3.479   9.060
61094SOL    HW283309  12.191   3.344   9.132
61095SOL     OW83310  11.522   2.760   9.252
61095SOL    HW183311  11.598   2.804   9.300
61095SOL    HW283312  11.557   2.713   9.170
61096SOL     OW83313  12.475   2.700   7.490
61096SOL    HW183314  12.509   2.607   7.505
61096SOL    HW283315  12.493   2.727   7.395
61097SOL     OW83316  12.240   3.195   8.297
61097SOL    HW183317  12.247   3.111   8.242
61097SOL    HW283318  12.302   3.264   8.261
61098SOL     OW83319  11.491   2.672   8.397
61098SOL    HW183320  11.584   2.708   8.402
61098SOL    HW283321  11.485   2.587   8.449
61099SOL     OW83322  11.511   2.371   8.454
61099SOL    HW183323  11.459   2.288   8.437
61099SOL    HW283324  11.588   2.376   8.390
61100SOL     OW83325  12.310   2.242   9.126
61100SOL    HW183326  12.265   2.305   9.190
61100SOL    HW283327  12.403   2.273   9.109
61101SOL     OW83328  12.332   2.069   8.925
61101SOL    HW183329  12.332   2.133   9.002
61101SOL    HW283330  12.360   2.117   8.842
61102SOL     OW83331  11.180   3.188   7.648
61102SOL    HW183332  11.087   3.209   7.617
61102SOL    HW283333  11.190   3.089   7.661
61103SOL     OW83334  11.260   3.663   8.375
61103SOL    HW183335  11.218   3.577   8.348
61103SOL    HW283336  11.354   3.666   8.341
61104SOL     OW83337  11.676   3.430   8.358
61104SOL    HW183338  11.742   3.504   8.367
61104SOL    HW283339  11.720   3.351   8.316
61105SOL     OW83340  12.174   2.658   8.686
61105SOL    HW183341  12.215   2.626   8.772
61105SOL    HW283342  12.078   2.631   8.683
61106SOL     OW83343  11.212   2.406   8.562
61106SOL    HW183344  11.297   2.373   8.521
61106SOL    HW283345  11.225   2.421   8.660
61107SOL     OW83346  11.361   2.382   9.170
61107SOL    HW183347  11.420   2.342   9.100
61107SOL    HW283348  11.303   2.453   9.129
61108SOL     OW83349  12.541   2.812   9.108
61108SOL    HW183350  12.580   2.901   9.128
61108SOL    HW283351  12.551   2.792   9.011
61109SOL     OW83352  11.987   2.434   7.773
61109SOL    HW183353  11.994   2.345   7.727
61109SOL    HW283354  11.893   2.468   7.765
61110SOL     OW83355  11.424   3.426   9.192
61110SOL    HW183356  11.394   3.483   9.268
61110SOL    HW283357  11.417   3.329   9.218
61111SOL     OW83358  11.843   2.326   8.717
61111SOL    HW183359  11.809   2.237   8.687
61111SOL    HW283360  11.869   2.380   8.637
61112SOL     OW83361  12.102   3.540   8.913
61112SOL    HW183362  12.078   3.522   8.818
61112SOL    HW283363  12.132   3.634   8.923
61113SOL     OW83364  11.645   2.362   7.639
61113SOL    HW183365  11.706   2.442   7.643
61113SOL    HW283366  11.550   2.393   7.646
61114SOL     OW83367  11.331   2.999   8.914
61114SOL    HW183368  11.353   2.938   8.990
61114SOL    HW283369  11.341   2.950   8.828
61115SOL     OW83370  12.519   2.921   8.682
61115SOL    HW183371  12.543   2.858   8.608
61115SOL    HW283372  12.429   2.961   8.664
61116SOL     OW83373  12.474   2.717   7.757
61116SOL    HW183374  12.388   2.686   7.799
61116SOL    HW283375  12.470   2.703   7.658
61117SOL     OW83376  12.424   3.593   8.576
61117SOL    HW183377  12.508   3.598   8.522
61117SOL    HW283378  12.401   3.497   8.594
61118SOL     OW83379  11.255   3.120   8.470
61118SOL    HW183380  11.250   3.119   8.570
61118SOL    HW283381  11.172   3.079   8.432
61119SOL     OW83382  11.860   3.524   9.164
61119SOL    HW183383  11.804   3.605   9.173
61119SOL    HW283384  11.912   3.528   9.078
61120SOL     OW83385  12.898   1.997   7.971
61120SOL    HW183386  12.971   1.980   7.904
61120SOL    HW283387  12.867   1.910   8.009
61121SOL     OW83388  12.560   3.435   7.925
61121SOL    HW183389  12.627   3.447   7.851
61121SOL    HW283390  12.520   3.524   7.948
61122SOL     OW83391  11.302   3.656   9.299
61122SOL    HW183392  11.261   3.582   9.352
61122SOL    HW283393  11.366   3.707   9.357
61123SOL     OW83394  12.452   2.789   8.120
61123SOL    HW183395  12.512   2.708   8.122
61123SOL    HW283396  12.492   2.858   8.060
61124SOL     OW83397  12.002   3.135   8.870
61124SOL    HW183398  11.997   3.168   8.965
61124SOL    HW283399  11.916   3.154   8.824
61125SOL     OW83400  11.844   3.478   7.602
61125SOL    HW183401  11.853   3.488   7.503
61125SOL    HW283402  11.804   3.389   7.623
61126SOL     OW83403  11.435   2.188   8.168
61126SOL    HW183404  11.356   2.239   8.134
61126SOL    HW283405  11.426   2.173   8.266
61127SOL     OW83406  12.366   3.474   7.479
61127SOL    HW183407  12.372   3.381   7.516
61127SOL    HW283408  12.307   3.474   7.399
61128SOL     OW83409  11.994   2.864   8.820
61128SOL    HW183410  12.034   2.863   8.728
61128SOL    HW283411  12.004   2.956   8.860
61129SOL     OW83412  12.088   2.772   7.739
61129SOL    HW183413  12.151   2.810   7.671
61129SOL    HW283414  12.128   2.689   7.778
61130SOL     OW83415  11.544   3.150   8.938
61130SOL    HW183416  11.531   3.243   8.904
61130SOL    HW283417  11.460   3.098   8.925
61131SOL     OW83418  12.211   2.960   8.144
61131SOL    HW183419  12.141   2.913   8.198
61131SOL    HW283420  12.270   2.892   8.101
61132SOL     OW83421  12.186   2.098   8.419
61132SOL    HW183422  12.178   2.062   8.326
61132SOL    HW283423  12.184   2.022   8.484
61133SOL     OW83424  11.762   3.349   7.939
61133SOL    HW183425  11.804   3.291   7.869
61133SOL    HW283426  11.718   3.428   7.895
61134SOL     OW83427  11.427   3.210   7.738
61134SOL    HW183428  11.331   3.211   7.711
61134SOL    HW283429  11.439   3.263   7.822
61135SOL     OW83430  11.277   2.875   9.174
61135SOL    HW183431  11.200   2.842   9.228
61135SOL    HW283432  11.362   2.845   9.216
61136SOL     OW83433  11.844   2.065   8.937
61136SOL    HW183434  11.934   2.049   8.897
61136SOL    HW283435  11.852   2.070   9.036
61137SOL     OW83436  11.247   2.207   7.481
61137SOL    HW183437  11.155   2.179   7.452
61137SOL    HW283438  11.278   2.284   7.425
61138SOL     OW83439  12.612   2.718   8.846
61138SOL    HW183440  12.555   2.770   8.783
61138SOL    HW283441  12.708   2.730   8.822
61139SOL     OW83442  11.244   2.028   7.766
61139SOL    HW183443  11.227   2.111   7.712
61139SOL    HW283444  11.334   1.991   7.744
61140SOL     OW83445  12.355   3.197   7.567
61140SOL    HW183446  12.256   3.186   7.569
61140SOL    HW283447  12.389   3.212   7.660
61141SOL     OW83448  11.785   2.704   8.879
61141SOL    HW183449  11.841   2.785   8.862
61141SOL    HW283450  11.844   2.624   8.882
61142SOL     OW83451  11.888   2.427   9.156
61142SOL    HW183452  11.907   2.492   9.230
61142SOL    HW283453  11.948   2.347   9.165
61143SOL     OW83454  12.622   3.082   9.081
61143SOL    HW183455  12.613   3.072   9.180
61143SOL    HW283456  12.718   3.075   9.055
61144SOL     OW83457  11.562   3.603   9.008
61144SOL    HW183458  11.471   3.644   9.006
61144SOL    HW283459  11.555   3.509   9.040
61145SOL     OW83460  12.397   2.187   7.897
61145SOL    HW183461  12.462   2.113   7.886
61145SOL    HW283462  12.417   2.237   7.981
61146SOL     OW83463  11.766   2.607   8.100
61146SOL    HW183464  11.816   2.692   8.081
61146SOL    HW283465  11.678   2.609   8.052
61147SOL     OW83466  12.031   3.236   7.464
61147SOL    HW183467  11.985   3.251   7.552
61147SOL    HW283468  12.075   3.321   7.434
61148SOL     OW83469  11.833   3.652   8.401
61148SOL    HW183470  11.787   3.740   8.388
61148SOL    HW283471  11.932   3.664   8.394
61149SOL     OW83472  12.031   2.818   8.309
61149SOL    HW183473  12.085   2.749   8.357
61149SOL    HW283474  11.999   2.887   8.375
61150SOL     OW83475  12.255   2.846   7.535
61150SOL    HW183476  12.232   2.899   7.453
61150SOL    HW283477  12.336   2.790   7.516
61151SOL     OW83478  11.393   3.176   9.292
61151SOL    HW183479  11.328   3.103   9.271
61151SOL    HW283480  11.397   3.190   9.390
61152SOL     OW83481  11.251   3.102   8.101
61152SOL    HW183482  11.250   3.055   8.189
61152SOL    HW283483  11.333   3.074   8.050
61153SOL     OW83484  11.844   3.253   9.072
61153SOL    HW183485  11.766   3.203   9.110
61153SOL    HW283486  11.841   3.348   9.103
61154SOL     OW83487  11.600   2.286   7.968
61154SOL    HW183488  11.630   2.214   7.906
61154SOL    HW283489  11.561   2.246   8.051
61155SOL     OW83490  12.877   3.349   8.552
61155SOL    HW183491  12.784   3.324   8.525
61155SOL    HW283492  12.903   3.299   8.634
61156SOL     OW83493  11.489   2.409   8.728
61156SOL    HW183494  11.527   2.350   8.800
61156SOL    HW283495  11.529   2.383   8.640
61157SOL     OW83496  11.984   3.448   8.135
61157SOL    HW183497  12.016   3.458   8.041
61157SOL    HW283498  11.905   3.386   8.137
61158SOL     OW83499  12.596   2.076   8.560
61158SOL    HW183500  12.648   2.011   8.615
61158SOL    HW283501  12.547   2.139   8.621
61159SOL     OW83502  12.173   1.896   8.602
61159SOL    HW183503  12.110   1.824   8.571
61159SOL    HW283504  12.266   1.860   8.602
61160SOL     OW83505  11.942   3.192   7.749
61160SOL    HW183506  11.896   3.105   7.766
61160SOL    HW283507  12.033   3.189   7.790
61161SOL     OW83508  11.790   3.429   8.732
61161SOL    HW183509  11.785   3.511   8.789
61161SOL    HW283510  11.879   3.426   8.687
61162SOL     OW83511  12.524   1.914   7.616
61162SOL    HW183512  12.559   1.873   7.532
61162SOL    HW283513  12.434   1.876   7.636
61163SOL     OW83514  12.472   2.315   8.139
61163SOL    HW183515  12.413   2.395   8.143
61163SOL    HW283516  12.487   2.280   8.232
61164SOL     OW83517  11.211   2.939   7.748
61164SOL    HW183518  11.310   2.928   7.739
61164SOL    HW283519  11.171   2.853   7.780
61165SOL     OW83520  12.047   3.508   7.785
61165SOL    HW183521  11.970   3.473   7.731
61165SOL    HW283522  12.015   3.579   7.847
61166SOL     OW83523  11.402   2.490   9.423
61166SOL    HW183524  11.309   2.488   9.460
61166SOL    HW283525  11.403   2.451   9.331
61167SOL     OW83526  11.397   2.137  10.306
61167SOL    HW183527  11.432   2.120  10.398
61167SOL    HW283528  11.309   2.092  10.294
61168SOL     OW83529  11.191   2.230   9.957
61168SOL    HW183530  11.109   2.273   9.996
61168SOL    HW283531  11.163   2.157   9.894
61169SOL     OW83532  11.741   3.137  10.475
61169SOL    HW183533  11.648   3.130  10.438
61169SOL    HW283534  11.752   3.226  10.519
61170SOL     OW83535  12.727   3.373  10.013
61170SOL    HW183536  12.670   3.357  10.094
61170SOL    HW283537  12.668   3.383   9.933
61171SOL     OW83538  12.307   2.565  10.027
61171SOL    HW183539  12.364   2.643  10.002
61171SOL    HW283540  12.247   2.591  10.103
61172SOL     OW83541  11.940   3.006  10.333
61172SOL    HW183542  11.862   3.023  10.393
61172SOL    HW283543  11.974   3.093  10.297
61173SOL     OW83544  12.022   2.660  11.133
61173SOL    HW183545  12.018   2.736  11.198
61173SOL    HW283546  12.044   2.696  11.042
61174SOL     OW83547  11.857   2.874   9.975
61174SOL    HW183548  11.926   2.858  10.045
61174SOL    HW283549  11.784   2.931  10.013
61175SOL     OW83550  11.858   3.023  11.113
61175SOL    HW183551  11.918   3.102  11.127
61175SOL    HW283552  11.772   3.054  11.072
61176SOL     OW83553  11.507   3.297  10.371
61176SOL    HW183554  11.429   3.266  10.318
61176SOL    HW283555  11.565   3.355  10.314
61177SOL     OW83556  11.610   2.254  10.809
61177SOL    HW183557  11.692   2.198  10.818
61177SOL    HW283558  11.529   2.196  10.813
61178SOL     OW83559  11.403   3.575   9.793
61178SOL    HW183560  11.437   3.652   9.847
61178SOL    HW283561  11.447   3.575   9.703
61179SOL     OW83562  12.299   3.203  11.000
61179SOL    HW183563  12.346   3.203  11.088
61179SOL    HW283564  12.251   3.116  10.989
61180SOL     OW83565  11.402   3.296   9.848
61180SOL    HW183566  11.376   3.392   9.848
61180SOL    HW283567  11.331   3.242   9.893
61181SOL     OW83568  11.412   2.953  10.196
61181SOL    HW183569  11.426   2.869  10.248
61181SOL    HW283570  11.357   3.017  10.251
61182SOL     OW83571  11.792   3.648  10.749
61182SOL    HW183572  11.700   3.631  10.784
61182SOL    HW283573  11.820   3.740  10.775
61183SOL     OW83574  11.778   2.826   9.433
61183SOL    HW183575  11.785   2.910   9.379
61183SOL    HW283576  11.824   2.839   9.521
61184SOL     OW83577  11.294   2.505   9.873
61184SOL    HW183578  11.249   2.417   9.890
61184SOL    HW283579  11.293   2.559   9.957
61185SOL     OW83580  11.199   3.458   9.427
61185SOL    HW183581  11.180   3.362   9.448
61185SOL    HW283582  11.166   3.516   9.502
61186SOL     OW83583  12.861   2.784   9.922
61186SOL    HW183584  12.956   2.755   9.930
61186SOL    HW283585  12.853   2.849   9.847
61187SOL     OW83586  11.285   2.599  10.907
61187SOL    HW183587  11.373   2.586  10.952
61187SOL    HW283588  11.272   2.696  10.885
61188SOL     OW83589  11.785   3.227  10.036
61188SOL    HW183590  11.736   3.140  10.045
61188SOL    HW283591  11.762   3.270   9.949
61189SOL     OW83592  12.465   3.090  10.733
61189SOL    HW183593  12.502   3.017  10.675
61189SOL    HW283594  12.517   3.095  10.818
61190SOL     OW83595  11.981   1.866   9.812
61190SOL    HW183596  12.021   1.957   9.803
61190SOL    HW283597  11.881   1.874   9.818
61191SOL     OW83598  11.369   2.838  10.574
61191SOL    HW183599  11.458   2.793  10.560
61191SOL    HW283600  11.296   2.773  10.555
61192SOL     OW83601  12.359   3.654  10.926
61192SOL    HW183602  12.383   3.714  10.850
61192SOL    HW283603  12.366   3.559  10.896
61193SOL     OW83604  11.489   2.113  11.111
61193SOL    HW183605  11.560   2.184  11.117
61193SOL    HW283606  11.401   2.152  11.139
61194SOL     OW83607  12.638   3.279  10.263
61194SOL    HW183608  12.579   3.285  10.343
61194SOL    HW283609  12.623   3.191  10.217
61195SOL     OW83610  11.770   2.591   9.580
61195SOL    HW183611  11.794   2.660   9.512
61195SOL    HW283612  11.692   2.624   9.634
61196SOL     OW83613  12.453   2.207  10.254
61196SOL    HW183614  12.367   2.157  10.241
61196SOL    HW283615  12.515   2.153  10.310
61197SOL     OW83616  11.979   2.467  10.775
61197SOL    HW183617  11.932   2.464  10.864
61197SOL    HW283618  11.928   2.412  10.709
61198SOL     OW83619  12.566   2.331  10.984
61198SOL    HW183620  12.546   2.374  11.072
61198SOL    HW283621  12.644   2.269  10.993
61199SOL     OW83622  12.145   2.752  10.882
61199SOL    HW183623  12.191   2.668  10.853
61199SOL    HW283624  12.089   2.786  10.807
61200SOL     OW83625  12.163   2.272  10.552
61200SOL    HW183626  12.086   2.306  10.606
61200SOL    HW283627  12.129   2.221  10.473
61201SOL     OW83628  12.213   2.563   9.739
61201SOL    HW183629  12.239   2.559   9.835
61201SOL    HW283630  12.128   2.512   9.725
61202SOL     OW83631  11.248   2.673  10.099
61202SOL    HW183632  11.347   2.661  10.108
61202SOL    HW283633  11.224   2.768  10.120
61203SOL     OW83634  11.302   3.683  10.881
61203SOL    HW183635  11.292   3.668  10.980
61203SOL    HW283636  11.216   3.719  10.845
61204SOL     OW83637  12.037   2.210   9.505
61204SOL    HW183638  12.096   2.273   9.456
61204SOL    HW283639  12.056   2.116   9.476
61205SOL     OW83640  12.534   3.006   9.855
61205SOL    HW183641  12.617   2.977   9.807
61205SOL    HW283642  12.485   3.073   9.799
61206SOL     OW83643  11.722   2.058  10.195
61206SOL    HW183644  11.717   2.053  10.295
61206SOL    HW283645  11.724   2.154  10.166
61207SOL     OW83646  12.180   3.318   9.787
61207SOL    HW183647  12.134   3.390   9.735
61207SOL    HW283648  12.176   3.338   9.885
61208SOL     OW83649  11.523   3.663  10.163
61208SOL    HW183650  11.573   3.577  10.169
61208SOL    HW283651  11.588   3.740  10.160
61209SOL     OW83652  12.399   3.412  10.816
61209SOL    HW183653  12.405   3.335  10.880
61209SOL    HW283654  12.347   3.386  10.736
61210SOL     OW83655  11.493   2.805   9.552
61210SOL    HW183656  11.575   2.844   9.510
61210SOL    HW283657  11.466   2.723   9.503
61211SOL     OW83658  11.633   3.128  11.037
61211SOL    HW183659  11.583   3.129  10.951
61211SOL    HW283660  11.570   3.110  11.113
61212SOL     OW83661  12.283   3.638   9.547
61212SOL    HW183662  12.223   3.576   9.597
61212SOL    HW283663  12.314   3.594   9.462
61213SOL     OW83664  11.374   2.147  10.808
61213SOL    HW183665  11.294   2.207  10.795
61213SOL    HW283666  11.364   2.098  10.894
61214SOL     OW83667  11.636   3.605   9.633
61214SOL    HW183668  11.669   3.644   9.719
61214SOL    HW283669  11.712   3.598   9.568
61215SOL     OW83670  12.572   1.969   9.736
61215SOL    HW183671  12.548   1.932   9.646
61215SOL    HW283672  12.671   1.985   9.740
61216SOL     OW83673  11.421   3.647  10.551
61216SOL    HW183674  11.478   3.582  10.601
61216SOL    HW283675  11.405   3.614  10.458
61217SOL     OW83676  12.112   3.560  10.214
61217SOL    HW183677  12.192   3.503  10.235
61217SOL    HW283678  12.063   3.520  10.137
61218SOL     OW83679  11.554   2.562   9.790
61218SOL    HW183680  11.599   2.472   9.787
61218SOL    HW283681  11.460   2.551   9.823
61219SOL     OW83682  11.786   1.984   9.427
61219SOL    HW183683  11.884   1.962   9.434
61219SOL    HW283684  11.755   1.967   9.334
61220SOL     OW83685  11.953   2.126  11.059
61220SOL    HW183686  12.020   2.065  11.102
61220SOL    HW283687  11.880   2.145  11.124
61221SOL     OW83688  12.060   3.376  10.505
61221SOL    HW183689  12.037   3.351  10.411
61221SOL    HW283690  12.121   3.307  10.544
61222SOL     OW83691  12.523   2.452  10.743
61222SOL    HW183692  12.551   2.409  10.828
61222SOL    HW283693  12.548   2.548  10.744
61223SOL     OW83694  11.975   3.264  10.234
61223SOL    HW183695  12.065   3.278  10.192
61223SOL    HW283696  11.904   3.266  10.163
61224SOL     OW83697  12.094   2.365  10.209
61224SOL    HW183698  12.069   2.356  10.113
61224SOL    HW283699  12.142   2.283  10.240
61225SOL     OW83700  11.711   1.926   9.822
61225SOL    HW183701  11.630   1.927   9.880
61225SOL    HW283702  11.714   2.009   9.767
61226SOL     OW83703  12.606   3.050   9.351
61226SOL    HW183704  12.638   2.974   9.408
61226SOL    HW283705  12.514   3.077   9.381
61227SOL     OW83706  11.469   1.897   9.481
61227SOL    HW183707  11.518   1.981   9.460
61227SOL    HW283708  11.531   1.832   9.526
61228SOL     OW83709  12.107   2.098   9.790
61228SOL    HW183710  12.059   2.139   9.712
61228SOL    HW283711  12.206   2.096   9.771
61229SOL     OW83712  12.248   2.545  10.774
61229SOL    HW183713  12.168   2.484  10.777
61229SOL    HW283714  12.329   2.492  10.750
61230SOL     OW83715  12.399   3.432  10.103
61230SOL    HW183716  12.420   3.506  10.038
61230SOL    HW283717  12.467   3.432  10.176
61231SOL     OW83718  11.631   3.014  10.051
61231SOL    HW183719  11.560   2.987  10.116
61231SOL    HW283720  11.605   2.986   9.958
61232SOL     OW83721  12.443   3.659   9.901
61232SOL    HW183722  12.487   3.723   9.837
61232SOL    HW283723  12.393   3.711   9.971
61233SOL     OW83724  12.204   2.411   9.326
61233SOL    HW183725  12.163   2.493   9.287
61233SOL    HW283726  12.268   2.437   9.399
61234SOL     OW83727  11.250   2.418  10.696
61234SOL    HW183728  11.342   2.417  10.655
61234SOL    HW283729  11.244   2.492  10.763
61235SOL     OW83730  11.733   2.084  10.457
61235SOL    HW183731  11.771   2.000  10.494
61235SOL    HW283732  11.645   2.103  10.501
61236SOL     OW83733  12.038   2.316   9.952
61236SOL    HW183734  12.006   2.388   9.890
61236SOL    HW283735  12.062   2.235   9.899
61237SOL     OW83736  12.189   1.901  10.063
61237SOL    HW183737  12.117   1.906   9.994
61237SOL    HW283738  12.165   1.832  10.132
61238SOL     OW83739  12.601   3.035  10.177
61238SOL    HW183740  12.546   2.951  10.170
61238SOL    HW283741  12.627   3.064  10.085
61239SOL     OW83742  11.660   3.247   9.484
61239SOL    HW183743  11.573   3.232   9.531
61239SOL    HW283744  11.643   3.273   9.389
61240SOL     OW83745  12.562   2.437   9.388
61240SOL    HW183746  12.508   2.416   9.469
61240SOL    HW283747  12.653   2.396   9.397
61241SOL     OW83748  11.699   2.118   9.638
61241SOL    HW183749  11.726   2.059   9.563
61241SOL    HW283750  11.699   2.213   9.607
61242SOL     OW83751  12.236   3.209  10.650
61242SOL    HW183752  12.156   3.186  10.705
61242SOL    HW283753  12.319   3.183  10.699
61243SOL     OW83754  12.764   3.491  10.935
61243SOL    HW183755  12.791   3.525  10.845
61243SOL    HW283756  12.843   3.453  10.981
61244SOL     OW83757  12.283   3.057  10.410
61244SOL    HW183758  12.243   3.101  10.491
61244SOL    HW283759  12.242   3.094  10.327
61245SOL     OW83760  12.087   1.951  10.712
61245SOL    HW183761  12.112   1.931  10.617
61245SOL    HW283762  12.159   2.007  10.754
61246SOL     OW83763  12.152   2.978  11.029
61246SOL    HW183764  12.053   2.984  11.039
61246SOL    HW283765  12.175   2.898  10.973
61247SOL     OW83766  11.877   2.912   9.678
61247SOL    HW183767  11.863   2.919   9.777
61247SOL    HW283768  11.961   2.861   9.660
61248SOL     OW83769  11.582   2.675  10.561
61248SOL    HW183770  11.668   2.687  10.611
61248SOL    HW283771  11.540   2.588  10.588
61249SOL     OW83772  12.446   2.248  10.572
61249SOL    HW183773  12.467   2.322  10.636
61249SOL    HW283774  12.357   2.265  10.529
61250SOL     OW83775  11.236   3.426  10.641
61250SOL    HW183776  11.190   3.508  10.607
61250SOL    HW283777  11.334   3.445  10.650
61251SOL     OW83778  11.539   2.962   9.811
61251SOL    HW183779  11.532   3.045   9.755
61251SOL    HW283780  11.543   2.882   9.751
61252SOL     OW83781  11.738   2.399  10.175
61252SOL    HW183782  11.750   2.465  10.101
61252SOL    HW283783  11.784   2.433  10.258
61253SOL     OW83784  12.424   3.210   9.698
61253SOL    HW183785  12.474   3.287   9.738
61253SOL    HW283786  12.329   3.212   9.730
61254SOL     OW83787  12.444   3.307  10.452
61254SOL    HW183788  12.491   3.320  10.539
61254SOL    HW283789  12.378   3.233  10.461
61255SOL     OW83790  11.526   3.372  10.639
61255SOL    HW183791  11.505   3.328  10.552
61255SOL    HW283792  11.623   3.398  10.642
61256SOL     OW83793  11.574   2.613  10.908
61256SOL    HW183794  11.642   2.668  10.861
61256SOL    HW283795  11.614   2.525  10.935
61257SOL     OW83796  12.185   1.967  11.080
61257SOL    HW183797  12.191   2.052  11.028
61257SOL    HW283798  12.217   1.891  11.023
61258SOL     OW83799  11.676   1.912  11.050
61258SOL    HW183800  11.634   1.855  10.980
61258SOL    HW283801  11.610   1.981  11.082
61259SOL     OW83802  11.745   2.732  10.339
61259SOL    HW183803  11.789   2.821  10.330
61259SOL    HW283804  11.682   2.732  10.416
61260SOL     OW83805  12.532   2.724  10.355
61260SOL    HW183806  12.457   2.724  10.289
61260SOL    HW283807  12.569   2.632  10.364
61261SOL     OW83808  12.381   2.387   9.585
61261SOL    HW183809  12.394   2.303   9.639
61261SOL    HW283810  12.352   2.461   9.645
61262SOL     OW83811  11.479   2.075  10.541
61262SOL    HW183812  11.456   2.112  10.631
61262SOL    HW283813  11.449   1.980  10.535
61263SOL     OW83814  11.209   3.172  10.592
61263SOL    HW183815  11.262   3.123  10.660
61263SOL    HW283816  11.231   3.270  10.597
61264SOL     OW83817  11.904   2.496  10.374
61264SOL    HW183818  11.963   2.470  10.298
61264SOL    HW283819  11.876   2.592  10.363
61265SOL     OW83820  11.479   1.925   9.928
61265SOL    HW183821  11.468   2.019   9.961
61265SOL    HW283822  11.474   1.862  10.005
61266SOL     OW83823  12.794   2.229   9.684
61266SOL    HW183824  12.796   2.153   9.748
61266SOL    HW283825  12.746   2.306   9.724
61267SOL     OW83826  12.195   2.628  10.276
61267SOL    HW183827  12.210   2.649  10.372
61267SOL    HW283828  12.165   2.533  10.267
61268SOL     OW83829  12.152   3.435  11.010
61268SOL    HW183830  12.132   3.479  10.922
61268SOL    HW283831  12.191   3.344  10.994
61269SOL     OW83832  11.522   2.760  11.114
61269SOL    HW183833  11.598   2.804  11.162
61269SOL    HW283834  11.557   2.713  11.032
61270SOL     OW83835  12.475   2.700   9.352
61270SOL    HW183836  12.509   2.607   9.367
61270SOL    HW283837  12.493   2.727   9.257
61271SOL     OW83838  12.240   3.195  10.159
61271SOL    HW183839  12.247   3.111  10.104
61271SOL    HW283840  12.302   3.264  10.123
61272SOL     OW83841  11.491   2.672  10.259
61272SOL    HW183842  11.584   2.708  10.264
61272SOL    HW283843  11.485   2.587  10.311
61273SOL     OW83844  11.511   2.371  10.316
61273SOL    HW183845  11.459   2.288  10.299
61273SOL    HW283846  11.588   2.376  10.252
61274SOL     OW83847  12.310   2.242  10.988
61274SOL    HW183848  12.265   2.305  11.052
61274SOL    HW283849  12.403   2.273  10.971
61275SOL     OW83850  12.332   2.069  10.787
61275SOL    HW183851  12.332   2.133  10.864
61275SOL    HW283852  12.360   2.117  10.704
61276SOL     OW83853  11.180   3.188   9.510
61276SOL    HW183854  11.087   3.209   9.479
61276SOL    HW283855  11.190   3.089   9.523
61277SOL     OW83856  11.260   3.663  10.237
61277SOL    HW183857  11.218   3.577  10.210
61277SOL    HW283858  11.354   3.666  10.203
61278SOL     OW83859  11.676   3.430  10.220
61278SOL    HW183860  11.742   3.504  10.229
61278SOL    HW283861  11.720   3.351  10.178
61279SOL     OW83862  12.174   2.658  10.548
61279SOL    HW183863  12.215   2.626  10.634
61279SOL    HW283864  12.078   2.631  10.545
61280SOL     OW83865  11.212   2.406  10.424
61280SOL    HW183866  11.297   2.373  10.383
61280SOL    HW283867  11.225   2.421  10.522
61281SOL     OW83868  11.361   2.382  11.032
61281SOL    HW183869  11.420   2.342  10.962
61281SOL    HW283870  11.303   2.453  10.991
61282SOL     OW83871  12.541   2.812  10.970
61282SOL    HW183872  12.580   2.901  10.990
61282SOL    HW283873  12.551   2.792  10.873
61283SOL     OW83874  11.987   2.434   9.635
61283SOL    HW183875  11.994   2.345   9.589
61283SOL    HW283876  11.893   2.468   9.627
61284SOL     OW83877  11.424   3.426  11.054
61284SOL    HW183878  11.394   3.483  11.130
61284SOL    HW283879  11.417   3.329  11.080
61285SOL     OW83880  11.843   2.326  10.579
61285SOL    HW183881  11.809   2.237  10.549
61285SOL    HW283882  11.869   2.380  10.499
61286SOL     OW83883  12.102   3.540  10.775
61286SOL    HW183884  12.078   3.522  10.680
61286SOL    HW283885  12.132   3.634  10.785
61287SOL     OW83886  11.645   2.362   9.501
61287SOL    HW183887  11.706   2.442   9.505
61287SOL    HW283888  11.550   2.393   9.508
61288SOL     OW83889  11.331   2.999  10.776
61288SOL    HW183890  11.353   2.938  10.852
61288SOL    HW283891  11.341   2.950  10.690
61289SOL     OW83892  12.519   2.921  10.544
61289SOL    HW183893  12.543   2.858  10.470
61289SOL    HW283894  12.429   2.961  10.526
61290SOL     OW83895  12.474   2.717   9.619
61290SOL    HW183896  12.388   2.686   9.661
61290SOL    HW283897  12.470   2.703   9.520
61291SOL     OW83898  12.424   3.593  10.438
61291SOL    HW183899  12.508   3.598  10.384
61291SOL    HW283900  12.401   3.497  10.456
61292SOL     OW83901  11.255   3.120  10.332
61292SOL    HW183902  11.250   3.119  10.432
61292SOL    HW283903  11.172   3.079  10.294
61293SOL     OW83904  11.860   3.524  11.026
61293SOL    HW183905  11.804   3.605  11.035
61293SOL    HW283906  11.912   3.528  10.940
61294SOL     OW83907  12.898   1.997   9.833
61294SOL    HW183908  12.971   1.980   9.766
61294SOL    HW283909  12.867   1.910   9.871
61295SOL     OW83910  12.560   3.435   9.787
61295SOL    HW183911  12.627   3.447   9.713
61295SOL    HW283912  12.520   3.524   9.810
61296SOL     OW83913  11.302   3.656  11.161
61296SOL    HW183914  11.261   3.582  11.214
61296SOL    HW283915  11.366   3.707  11.219
61297SOL     OW83916  12.452   2.789   9.982
61297SOL    HW183917  12.512   2.708   9.984
61297SOL    HW283918  12.492   2.858   9.922
61298SOL     OW83919  12.002   3.135  10.732
61298SOL    HW183920  11.997   3.168  10.827
61298SOL    HW283921  11.916   3.154  10.686
61299SOL     OW83922  11.844   3.478   9.464
61299SOL    HW183923  11.853   3.488   9.365
61299SOL    HW283924  11.804   3.389   9.485
61300SOL     OW83925  11.435   2.188  10.030
61300SOL    HW183926  11.356   2.239   9.996
61300SOL    HW283927  11.426   2.173  10.128
61301SOL     OW83928  12.366   3.474   9.341
61301SOL    HW183929  12.372   3.381   9.378
61301SOL    HW283930  12.307   3.474   9.261
61302SOL     OW83931  11.994   2.864  10.682
61302SOL    HW183932  12.034   2.863  10.590
61302SOL    HW283933  12.004   2.956  10.722
61303SOL     OW83934  12.088   2.772   9.601
61303SOL    HW183935  12.151   2.810   9.533
61303SOL    HW283936  12.128   2.689   9.640
61304SOL     OW83937  11.544   3.150  10.800
61304SOL    HW183938  11.531   3.243  10.766
61304SOL    HW283939  11.460   3.098  10.787
61305SOL     OW83940  12.211   2.960  10.006
61305SOL    HW183941  12.141   2.913  10.060
61305SOL    HW283942  12.270   2.892   9.963
61306SOL     OW83943  12.186   2.098  10.281
61306SOL    HW183944  12.178   2.062  10.188
61306SOL    HW283945  12.184   2.022  10.346
61307SOL     OW83946  11.762   3.349   9.801
61307SOL    HW183947  11.804   3.291   9.731
61307SOL    HW283948  11.718   3.428   9.757
61308SOL     OW83949  11.427   3.210   9.600
61308SOL    HW183950  11.331   3.211   9.573
61308SOL    HW283951  11.439   3.263   9.684
61309SOL     OW83952  11.277   2.875  11.036
61309SOL    HW183953  11.200   2.842  11.090
61309SOL    HW283954  11.362   2.845  11.078
61310SOL     OW83955  11.844   2.065  10.799
61310SOL    HW183956  11.934   2.049  10.759
61310SOL    HW283957  11.852   2.070  10.898
61311SOL     OW83958  11.247   2.207   9.343
61311SOL    HW183959  11.155   2.179   9.314
61311SOL    HW283960  11.278   2.284   9.287
61312SOL     OW83961  12.612   2.718  10.708
61312SOL    HW183962  12.555   2.770  10.645
61312SOL    HW283963  12.708   2.730  10.684
61313SOL     OW83964  11.244   2.028   9.628
61313SOL    HW183965  11.227   2.111   9.574
61313SOL    HW283966  11.334   1.991   9.606
61314SOL     OW83967  12.355   3.197   9.429
61314SOL    HW183968  12.256   3.186   9.431
61314SOL    HW283969  12.389   3.212   9.522
61315SOL     OW83970  11.785   2.704  10.741
61315SOL    HW183971  11.841   2.785  10.724
61315SOL    HW283972  11.844   2.624  10.744
61316SOL     OW83973  11.888   2.427  11.018
61316SOL    HW183974  11.907   2.492  11.092
61316SOL    HW283975  11.948   2.347  11.027
61317SOL     OW83976  12.622   3.082  10.943
61317SOL    HW183977  12.613   3.072  11.042
61317SOL    HW283978  12.718   3.075  10.917
61318SOL     OW83979  11.562   3.603  10.870
61318SOL    HW183980  11.471   3.644  10.868
61318SOL    HW283981  11.555   3.509  10.902
61319SOL     OW83982  12.397   2.187   9.759
61319SOL    HW183983  12.462   2.113   9.748
61319SOL    HW283984  12.417   2.237   9.843
61320SOL     OW83985  11.766   2.607   9.962
61320SOL    HW183986  11.816   2.692   9.943
61320SOL    HW283987  11.678   2.609   9.914
61321SOL     OW83988  12.031   3.236   9.326
61321SOL    HW183989  11.985   3.251   9.414
61321SOL    HW283990  12.075   3.321   9.296
61322SOL     OW83991  11.833   3.652  10.263
61322SOL    HW183992  11.787   3.740  10.250
61322SOL    HW283993  11.932   3.664  10.256
61323SOL     OW83994  12.031   2.818  10.171
61323SOL    HW183995  12.085   2.749  10.219
61323SOL    HW283996  11.999   2.887  10.237
61324SOL     OW83997  12.255   2.846   9.397
61324SOL    HW183998  12.232   2.899   9.315
61324SOL    HW283999  12.336   2.790   9.378
61325SOL     OW84000  11.393   3.176  11.154
61325SOL    HW184001  11.328   3.103  11.133
61325SOL    HW284002  11.397   3.190  11.252
61326SOL     OW84003  11.251   3.102   9.963
61326SOL    HW184004  11.250   3.055  10.051
61326SOL    HW284005  11.333   3.074   9.912
61327SOL     OW84006  11.844   3.253  10.934
61327SOL    HW184007  11.766   3.203  10.972
61327SOL    HW284008  11.841   3.348  10.965
61328SOL     OW84009  11.600   2.286   9.830
61328SOL    HW184010  11.630   2.214   9.768
61328SOL    HW284011  11.561   2.246   9.913
61329SOL     OW84012  12.877   3.349  10.414
61329SOL    HW184013  12.784   3.324  10.387
61329SOL    HW284014  12.903   3.299  10.496
61330SOL     OW84015  11.489   2.409  10.590
61330SOL    HW184016  11.527   2.350  10.662
61330SOL    HW284017  11.529   2.383  10.502
61331SOL     OW84018  11.984   3.448   9.997
61331SOL    HW184019  12.016   3.458   9.903
61331SOL    HW284020  11.905   3.386   9.999
61332SOL     OW84021  12.596   2.076  10.422
61332SOL    HW184022  12.648   2.011  10.477
61332SOL    HW284023  12.547   2.139  10.483
61333SOL     OW84024  12.173   1.896  10.464
61333SOL    HW184025  12.110   1.824  10.433
61333SOL    HW284026  12.266   1.860  10.464
61334SOL     OW84027  11.942   3.192   9.611
61334SOL    HW184028  11.896   3.105   9.628
61334SOL    HW284029  12.033   3.189   9.652
61335SOL     OW84030  11.790   3.429  10.594
61335SOL    HW184031  11.785   3.511  10.651
61335SOL    HW284032  11.879   3.426  10.549
61336SOL     OW84033  12.524   1.914   9.478
61336SOL    HW184034  12.559   1.873   9.394
61336SOL    HW284035  12.434   1.876   9.498
61337SOL     OW84036  12.472   2.315  10.001
61337SOL    HW184037  12.413   2.395  10.005
61337SOL    HW284038  12.487   2.280  10.094
61338SOL     OW84039  11.211   2.939   9.610
61338SOL    HW184040  11.310   2.928   9.601
61338SOL    HW284041  11.171   2.853   9.642
61339SOL     OW84042  12.047   3.508   9.647
61339SOL    HW184043  11.970   3.473   9.593
61339SOL    HW284044  12.015   3.579   9.709
61340SOL     OW84045  11.402   2.490  11.285
61340SOL    HW184046  11.309   2.488  11.322
61340SOL    HW284047  11.403   2.451  11.193
61341SOL     OW84048  11.397   2.137  12.168
61341SOL    HW184049  11.432   2.120  12.260
61341SOL    HW284050  11.309   2.092  12.156
61342SOL     OW84051  11.191   2.230  11.819
61342SOL    HW184052  11.109   2.273  11.858
61342SOL    HW284053  11.163   2.157  11.756
61343SOL     OW84054  11.741   3.137  12.337
61343SOL    HW184055  11.648   3.130  12.300
61343SOL    HW284056  11.752   3.226  12.381
61344SOL     OW84057  12.727   3.373  11.875
61344SOL    HW184058  12.670   3.357  11.956
61344SOL    HW284059  12.668   3.383  11.795
61345SOL     OW84060  12.307   2.565  11.889
61345SOL    HW184061  12.364   2.643  11.864
61345SOL    HW284062  12.247   2.591  11.965
61346SOL     OW84063  11.940   3.006  12.195
61346SOL    HW184064  11.862   3.023  12.255
61346SOL    HW284065  11.974   3.093  12.159
61347SOL     OW84066  11.857   2.874  11.837
61347SOL    HW184067  11.926   2.858  11.907
61347SOL    HW284068  11.784   2.931  11.875
61348SOL     OW84069  11.507   3.297  12.233
61348SOL    HW184070  11.429   3.266  12.180
61348SOL    HW284071  11.565   3.355  12.176
61349SOL     OW84072  11.610   2.254  12.671
61349SOL    HW184073  11.692   2.198  12.680
61349SOL    HW284074  11.529   2.196  12.675
61350SOL     OW84075  11.403   3.575  11.655
61350SOL    HW184076  11.437   3.652  11.709
61350SOL    HW284077  11.447   3.575  11.565
61351SOL     OW84078  11.402   3.296  11.710
61351SOL    HW184079  11.376   3.392  11.710
61351SOL    HW284080  11.331   3.242  11.755
61352SOL     OW84081  11.412   2.953  12.058
61352SOL    HW184082  11.426   2.869  12.110
61352SOL    HW284083  11.357   3.017  12.113
61353SOL     OW84084  11.792   3.648  12.611
61353SOL    HW184085  11.700   3.631  12.646
61353SOL    HW284086  11.820   3.740  12.637
61354SOL     OW84087  11.778   2.826  11.295
61354SOL    HW184088  11.785   2.910  11.241
61354SOL    HW284089  11.824   2.839  11.383
61355SOL     OW84090  11.294   2.505  11.735
61355SOL    HW184091  11.249   2.417  11.752
61355SOL    HW284092  11.293   2.559  11.819
61356SOL     OW84093  11.199   3.458  11.289
61356SOL    HW184094  11.180   3.362  11.310
61356SOL    HW284095  11.166   3.516  11.364
61357SOL     OW84096  12.861   2.784  11.784
61357SOL    HW184097  12.956   2.755  11.792
61357SOL    HW284098  12.853   2.849  11.709
61358SOL     OW84099  11.785   3.227  11.898
61358SOL    HW184100  11.736   3.140  11.907
61358SOL    HW284101  11.762   3.270  11.811
61359SOL     OW84102  11.981   1.866  11.674
61359SOL    HW184103  12.021   1.957  11.665
61359SOL    HW284104  11.881   1.874  11.680
61360SOL     OW84105  11.369   2.838  12.436
61360SOL    HW184106  11.458   2.793  12.422
61360SOL    HW284107  11.296   2.773  12.417
61361SOL     OW84108  11.489   2.113  12.973
61361SOL    HW184109  11.560   2.184  12.979
61361SOL    HW284110  11.401   2.152  13.001
61362SOL     OW84111  12.638   3.279  12.125
61362SOL    HW184112  12.579   3.285  12.205
61362SOL    HW284113  12.623   3.191  12.079
61363SOL     OW84114  11.770   2.591  11.442
61363SOL    HW184115  11.794   2.660  11.374
61363SOL    HW284116  11.692   2.624  11.496
61364SOL     OW84117  12.453   2.207  12.116
61364SOL    HW184118  12.367   2.157  12.103
61364SOL    HW284119  12.515   2.153  12.172
61365SOL     OW84120  11.979   2.467  12.637
61365SOL    HW184121  11.932   2.464  12.726
61365SOL    HW284122  11.928   2.412  12.571
61366SOL     OW84123  12.163   2.272  12.414
61366SOL    HW184124  12.086   2.306  12.468
61366SOL    HW284125  12.129   2.221  12.335
61367SOL     OW84126  12.213   2.563  11.601
61367SOL    HW184127  12.239   2.559  11.697
61367SOL    HW284128  12.128   2.512  11.587
61368SOL     OW84129  11.248   2.673  11.961
61368SOL    HW184130  11.347   2.661  11.970
61368SOL    HW284131  11.224   2.768  11.982
61369SOL     OW84132  11.302   3.683  12.743
61369SOL    HW184133  11.292   3.668  12.842
61369SOL    HW284134  11.216   3.719  12.707
61370SOL     OW84135  12.037   2.210  11.367
61370SOL    HW184136  12.096   2.273  11.318
61370SOL    HW284137  12.056   2.116  11.338
61371SOL     OW84138  12.534   3.006  11.717
61371SOL    HW184139  12.617   2.977  11.669
61371SOL    HW284140  12.485   3.073  11.661
61372SOL     OW84141  11.722   2.058  12.057
61372SOL    HW184142  11.717   2.053  12.157
61372SOL    HW284143  11.724   2.154  12.028
61373SOL     OW84144  12.180   3.318  11.649
61373SOL    HW184145  12.134   3.390  11.597
61373SOL    HW284146  12.176   3.338  11.747
61374SOL     OW84147  11.523   3.663  12.025
61374SOL    HW184148  11.573   3.577  12.031
61374SOL    HW284149  11.588   3.740  12.022
61375SOL     OW84150  11.493   2.805  11.414
61375SOL    HW184151  11.575   2.844  11.372
61375SOL    HW284152  11.466   2.723  11.365
61376SOL     OW84153  12.283   3.638  11.409
61376SOL    HW184154  12.223   3.576  11.459
61376SOL    HW284155  12.314   3.594  11.324
61377SOL     OW84156  11.374   2.147  12.670
61377SOL    HW184157  11.294   2.207  12.657
61377SOL    HW284158  11.364   2.098  12.756
61378SOL     OW84159  11.636   3.605  11.495
61378SOL    HW184160  11.669   3.644  11.581
61378SOL    HW284161  11.712   3.598  11.430
61379SOL     OW84162  12.572   1.969  11.598
61379SOL    HW184163  12.548   1.932  11.508
61379SOL    HW284164  12.671   1.985  11.602
61380SOL     OW84165  11.421   3.647  12.413
61380SOL    HW184166  11.478   3.582  12.463
61380SOL    HW284167  11.405   3.614  12.320
61381SOL     OW84168  12.112   3.560  12.076
61381SOL    HW184169  12.192   3.503  12.097
61381SOL    HW284170  12.063   3.520  11.999
61382SOL     OW84171  11.554   2.562  11.652
61382SOL    HW184172  11.599   2.472  11.649
61382SOL    HW284173  11.460   2.551  11.685
61383SOL     OW84174  11.786   1.984  11.289
61383SOL    HW184175  11.884   1.962  11.296
61383SOL    HW284176  11.755   1.967  11.196
61384SOL     OW84177  12.060   3.376  12.367
61384SOL    HW184178  12.037   3.351  12.273
61384SOL    HW284179  12.121   3.307  12.406
61385SOL     OW84180  11.975   3.264  12.096
61385SOL    HW184181  12.065   3.278  12.054
61385SOL    HW284182  11.904   3.266  12.025
61386SOL     OW84183  12.094   2.365  12.071
61386SOL    HW184184  12.069   2.356  11.975
61386SOL    HW284185  12.142   2.283  12.102
61387SOL     OW84186  11.711   1.926  11.684
61387SOL    HW184187  11.630   1.927  11.742
61387SOL    HW284188  11.714   2.009  11.629
61388SOL     OW84189  12.606   3.050  11.213
61388SOL    HW184190  12.638   2.974  11.270
61388SOL    HW284191  12.514   3.077  11.243
61389SOL     OW84192  11.469   1.897  11.343
61389SOL    HW184193  11.518   1.981  11.322
61389SOL    HW284194  11.531   1.832  11.388
61390SOL     OW84195  12.107   2.098  11.652
61390SOL    HW184196  12.059   2.139  11.574
61390SOL    HW284197  12.206   2.096  11.633
61391SOL     OW84198  12.399   3.432  11.965
61391SOL    HW184199  12.420   3.506  11.900
61391SOL    HW284200  12.467   3.432  12.038
61392SOL     OW84201  11.631   3.014  11.913
61392SOL    HW184202  11.560   2.987  11.978
61392SOL    HW284203  11.605   2.986  11.820
61393SOL     OW84204  12.443   3.659  11.763
61393SOL    HW184205  12.487   3.723  11.699
61393SOL    HW284206  12.393   3.711  11.833
61394SOL     OW84207  12.204   2.411  11.188
61394SOL    HW184208  12.163   2.493  11.149
61394SOL    HW284209  12.268   2.437  11.261
61395SOL     OW84210  11.250   2.418  12.558
61395SOL    HW184211  11.342   2.417  12.517
61395SOL    HW284212  11.244   2.492  12.625
61396SOL     OW84213  11.733   2.084  12.319
61396SOL    HW184214  11.771   2.000  12.356
61396SOL    HW284215  11.645   2.103  12.363
61397SOL     OW84216  12.038   2.316  11.814
61397SOL    HW184217  12.006   2.388  11.752
61397SOL    HW284218  12.062   2.235  11.761
61398SOL     OW84219  12.189   1.901  11.925
61398SOL    HW184220  12.117   1.906  11.856
61398SOL    HW284221  12.165   1.832  11.994
61399SOL     OW84222  12.601   3.035  12.039
61399SOL    HW184223  12.546   2.951  12.032
61399SOL    HW284224  12.627   3.064  11.947
61400SOL     OW84225  11.660   3.247  11.346
61400SOL    HW184226  11.573   3.232  11.393
61400SOL    HW284227  11.643   3.273  11.251
61401SOL     OW84228  12.562   2.437  11.250
61401SOL    HW184229  12.508   2.416  11.331
61401SOL    HW284230  12.653   2.396  11.259
61402SOL     OW84231  11.699   2.118  11.500
61402SOL    HW184232  11.726   2.059  11.425
61402SOL    HW284233  11.699   2.213  11.469
61403SOL     OW84234  12.236   3.209  12.512
61403SOL    HW184235  12.156   3.186  12.567
61403SOL    HW284236  12.319   3.183  12.561
61404SOL     OW84237  12.283   3.057  12.272
61404SOL    HW184238  12.243   3.101  12.353
61404SOL    HW284239  12.242   3.094  12.189
61405SOL     OW84240  12.087   1.951  12.574
61405SOL    HW184241  12.112   1.931  12.479
61405SOL    HW284242  12.159   2.007  12.616
61406SOL     OW84243  11.877   2.912  11.540
61406SOL    HW184244  11.863   2.919  11.639
61406SOL    HW284245  11.961   2.861  11.522
61407SOL     OW84246  11.582   2.675  12.423
61407SOL    HW184247  11.668   2.687  12.473
61407SOL    HW284248  11.540   2.588  12.450
61408SOL     OW84249  12.446   2.248  12.434
61408SOL    HW184250  12.467   2.322  12.498
61408SOL    HW284251  12.357   2.265  12.391
61409SOL     OW84252  11.236   3.426  12.503
61409SOL    HW184253  11.190   3.508  12.469
61409SOL    HW284254  11.334   3.445  12.512
61410SOL     OW84255  11.539   2.962  11.673
61410SOL    HW184256  11.532   3.045  11.617
61410SOL    HW284257  11.543   2.882  11.613
61411SOL     OW84258  11.738   2.399  12.037
61411SOL    HW184259  11.750   2.465  11.963
61411SOL    HW284260  11.784   2.433  12.120
61412SOL     OW84261  12.424   3.210  11.560
61412SOL    HW184262  12.474   3.287  11.600
61412SOL    HW284263  12.329   3.212  11.592
61413SOL     OW84264  12.444   3.307  12.314
61413SOL    HW184265  12.491   3.320  12.401
61413SOL    HW284266  12.378   3.233  12.323
61414SOL     OW84267  11.526   3.372  12.501
61414SOL    HW184268  11.505   3.328  12.414
61414SOL    HW284269  11.623   3.398  12.504
61415SOL     OW84270  11.574   2.613  12.770
61415SOL    HW184271  11.642   2.668  12.723
61415SOL    HW284272  11.614   2.525  12.797
61416SOL     OW84273  12.759   2.641  12.842
61416SOL    HW184274  12.667   2.679  12.837
61416SOL    HW284275  12.819   2.688  12.777
61417SOL     OW84276  11.745   2.732  12.201
61417SOL    HW184277  11.789   2.821  12.192
61417SOL    HW284278  11.682   2.732  12.278
61418SOL     OW84279  12.532   2.724  12.217
61418SOL    HW184280  12.457   2.724  12.151
61418SOL    HW284281  12.569   2.632  12.226
61419SOL     OW84282  12.381   2.387  11.447
61419SOL    HW184283  12.394   2.303  11.501
61419SOL    HW284284  12.352   2.461  11.507
61420SOL     OW84285  11.479   2.075  12.403
61420SOL    HW184286  11.456   2.112  12.493
61420SOL    HW284287  11.449   1.980  12.397
61421SOL     OW84288  11.209   3.172  12.454
61421SOL    HW184289  11.262   3.123  12.522
61421SOL    HW284290  11.231   3.270  12.459
61422SOL     OW84291  11.904   2.496  12.236
61422SOL    HW184292  11.963   2.470  12.160
61422SOL    HW284293  11.876   2.592  12.225
61423SOL     OW84294  11.479   1.925  11.790
61423SOL    HW184295  11.468   2.019  11.823
61423SOL    HW284296  11.474   1.862  11.867
61424SOL     OW84297  12.794   2.229  11.546
61424SOL    HW184298  12.796   2.153  11.610
61424SOL    HW284299  12.746   2.306  11.586
61425SOL     OW84300  12.195   2.628  12.138
61425SOL    HW184301  12.210   2.649  12.234
61425SOL    HW284302  12.165   2.533  12.129
61426SOL     OW84303  12.152   3.435  12.872
61426SOL    HW184304  12.132   3.479  12.784
61426SOL    HW284305  12.191   3.344  12.856
61427SOL     OW84306  12.475   2.700  11.214
61427SOL    HW184307  12.509   2.607  11.229
61427SOL    HW284308  12.493   2.727  11.119
61428SOL     OW84309  12.240   3.195  12.021
61428SOL    HW184310  12.247   3.111  11.966
61428SOL    HW284311  12.302   3.264  11.985
61429SOL     OW84312  11.491   2.672  12.121
61429SOL    HW184313  11.584   2.708  12.126
61429SOL    HW284314  11.485   2.587  12.173
61430SOL     OW84315  11.511   2.371  12.178
61430SOL    HW184316  11.459   2.288  12.161
61430SOL    HW284317  11.588   2.376  12.114
61431SOL     OW84318  12.310   2.242  12.850
61431SOL    HW184319  12.265   2.305  12.914
61431SOL    HW284320  12.403   2.273  12.833
61432SOL     OW84321  12.332   2.069  12.649
61432SOL    HW184322  12.332   2.133  12.726
61432SOL    HW284323  12.360   2.117  12.566
61433SOL     OW84324  11.180   3.188  11.372
61433SOL    HW184325  11.087   3.209  11.341
61433SOL    HW284326  11.190   3.089  11.385
61434SOL     OW84327  11.260   3.663  12.099
61434SOL    HW184328  11.218   3.577  12.072
61434SOL    HW284329  11.354   3.666  12.065
61435SOL     OW84330  11.676   3.430  12.082
61435SOL    HW184331  11.742   3.504  12.091
61435SOL    HW284332  11.720   3.351  12.040
61436SOL     OW84333  12.174   2.658  12.410
61436SOL    HW184334  12.215   2.626  12.496
61436SOL    HW284335  12.078   2.631  12.407
61437SOL     OW84336  11.212   2.406  12.286
61437SOL    HW184337  11.297   2.373  12.245
61437SOL    HW284338  11.225   2.421  12.384
61438SOL     OW84339  11.987   2.434  11.497
61438SOL    HW184340  11.994   2.345  11.451
61438SOL    HW284341  11.893   2.468  11.489
61439SOL     OW84342  11.843   2.326  12.441
61439SOL    HW184343  11.809   2.237  12.411
61439SOL    HW284344  11.869   2.380  12.361
61440SOL     OW84345  12.102   3.540  12.637
61440SOL    HW184346  12.078   3.522  12.542
61440SOL    HW284347  12.132   3.634  12.647
61441SOL     OW84348  11.645   2.362  11.363
61441SOL    HW184349  11.706   2.442  11.367
61441SOL    HW284350  11.550   2.393  11.370
61442SOL     OW84351  11.331   2.999  12.638
61442SOL    HW184352  11.353   2.938  12.714
61442SOL    HW284353  11.341   2.950  12.552
61443SOL     OW84354  12.519   2.921  12.406
61443SOL    HW184355  12.543   2.858  12.332
61443SOL    HW284356  12.429   2.961  12.388
61444SOL     OW84357  12.474   2.717  11.481
61444SOL    HW184358  12.388   2.686  11.523
61444SOL    HW284359  12.470   2.703  11.382
61445SOL     OW84360  12.424   3.593  12.300
61445SOL    HW184361  12.508   3.598  12.246
61445SOL    HW284362  12.401   3.497  12.318
61446SOL     OW84363  11.255   3.120  12.194
61446SOL    HW184364  11.250   3.119  12.294
61446SOL    HW284365  11.172   3.079  12.156
61447SOL     OW84366  12.898   1.997  11.695
61447SOL    HW184367  12.971   1.980  11.628
61447SOL    HW284368  12.867   1.910  11.733
61448SOL     OW84369  12.560   3.435  11.649
61448SOL    HW184370  12.627   3.447  11.575
61448SOL    HW284371  12.520   3.524  11.672
61449SOL     OW84372  12.452   2.789  11.844
61449SOL    HW184373  12.512   2.708  11.846
61449SOL    HW284374  12.492   2.858  11.784
61450SOL     OW84375  11.844   3.478  11.326
61450SOL    HW184376  11.853   3.488  11.227
61450SOL    HW284377  11.804   3.389  11.347
61451SOL     OW84378  11.435   2.188  11.892
61451SOL    HW184379  11.356   2.239  11.858
61451SOL    HW284380  11.426   2.173  11.990
61452SOL     OW84381  12.366   3.474  11.203
61452SOL    HW184382  12.372   3.381  11.240
61452SOL    HW284383  12.307   3.474  11.123
61453SOL     OW84384  11.994   2.864  12.544
61453SOL    HW184385  12.034   2.863  12.452
61453SOL    HW284386  12.004   2.956  12.584
61454SOL     OW84387  12.088   2.772  11.463
61454SOL    HW184388  12.151   2.810  11.395
61454SOL    HW284389  12.128   2.689  11.502
61455SOL     OW84390  11.544   3.150  12.662
61455SOL    HW184391  11.531   3.243  12.628
61455SOL    HW284392  11.460   3.098  12.649
61456SOL     OW84393  12.211   2.960  11.868
61456SOL    HW184394  12.141   2.913  11.922
61456SOL    HW284395  12.270   2.892  11.825
61457SOL     OW84396  12.186   2.098  12.143
61457SOL    HW184397  12.178   2.062  12.050
61457SOL    HW284398  12.184   2.022  12.208
61458SOL     OW84399  11.762   3.349  11.663
61458SOL    HW184400  11.804   3.291  11.593
61458SOL    HW284401  11.718   3.428  11.619
61459SOL     OW84402  11.427   3.210  11.462
61459SOL    HW184403  11.331   3.211  11.435
61459SOL    HW284404  11.439   3.263  11.546
61460SOL     OW84405  11.247   2.207  11.205
61460SOL    HW184406  11.155   2.179  11.176
61460SOL    HW284407  11.278   2.284  11.149
61461SOL     OW84408  12.612   2.718  12.570
61461SOL    HW184409  12.555   2.770  12.507
61461SOL    HW284410  12.708   2.730  12.546
61462SOL     OW84411  11.244   2.028  11.490
61462SOL    HW184412  11.227   2.111  11.436
61462SOL    HW284413  11.334   1.991  11.468
61463SOL     OW84414  12.355   3.197  11.291
61463SOL    HW184415  12.256   3.186  11.293
61463SOL    HW284416  12.389   3.212  11.384
61464SOL     OW84417  11.785   2.704  12.603
61464SOL    HW184418  11.841   2.785  12.586
61464SOL    HW284419  11.844   2.624  12.606
61465SOL     OW84420  11.562   3.603  12.732
61465SOL    HW184421  11.471   3.644  12.730
61465SOL    HW284422  11.555   3.509  12.764
61466SOL     OW84423  12.397   2.187  11.621
61466SOL    HW184424  12.462   2.113  11.610
61466SOL    HW284425  12.417   2.237  11.705
61467SOL     OW84426  11.766   2.607  11.824
61467SOL    HW184427  11.816   2.692  11.805
61467SOL    HW284428  11.678   2.609  11.776
61468SOL     OW84429  12.031   3.236  11.188
61468SOL    HW184430  11.985   3.251  11.276
61468SOL    HW284431  12.075   3.321  11.158
61469SOL     OW84432  11.833   3.652  12.125
61469SOL    HW184433  11.787   3.740  12.112
61469SOL    HW284434  11.932   3.664  12.118
61470SOL     OW84435  12.031   2.818  12.033
61470SOL    HW184436  12.085   2.749  12.081
61470SOL    HW284437  11.999   2.887  12.099
61471SOL     OW84438  12.255   2.846  11.259
61471SOL    HW184439  12.232   2.899  11.177
61471SOL    HW284440  12.336   2.790  11.240
61472SOL     OW84441  11.251   3.102  11.825
61472SOL    HW184442  11.250   3.055  11.913
61472SOL    HW284443  11.333   3.074  11.774
61473SOL     OW84444  11.600   2.286  11.692
61473SOL    HW184445  11.630   2.214  11.630
61473SOL    HW284446  11.561   2.246  11.775
61474SOL     OW84447  12.877   3.349  12.276
61474SOL    HW184448  12.784   3.324  12.249
61474SOL    HW284449  12.903   3.299  12.358
61475SOL     OW84450  11.489   2.409  12.452
61475SOL    HW184451  11.527   2.350  12.524
61475SOL    HW284452  11.529   2.383  12.364
61476SOL     OW84453  11.984   3.448  11.859
61476SOL    HW184454  12.016   3.458  11.765
61476SOL    HW284455  11.905   3.386  11.861
61477SOL     OW84456  12.596   2.076  12.284
61477SOL    HW184457  12.648   2.011  12.339
61477SOL    HW284458  12.547   2.139  12.345
61478SOL     OW84459  12.173   1.896  12.326
61478SOL    HW184460  12.110   1.824  12.295
61478SOL    HW284461  12.266   1.860  12.326
61479SOL     OW84462  11.942   3.192  11.473
61479SOL    HW184463  11.896   3.105  11.490
61479SOL    HW284464  12.033   3.189  11.514
61480SOL     OW84465  11.790   3.429  12.456
61480SOL    HW184466  11.785   3.511  12.513
61480SOL    HW284467  11.879   3.426  12.411
61481SOL     OW84468  12.524   1.914  11.340
61481SOL    HW184469  12.559   1.873  11.256
61481SOL    HW284470  12.434   1.876  11.360
61482SOL     OW84471  12.472   2.315  11.863
61482SOL    HW184472  12.413   2.395  11.867
61482SOL    HW284473  12.487   2.280  11.956
61483SOL     OW84474  11.211   2.939  11.472
61483SOL    HW184475  11.310   2.928  11.463
61483SOL    HW284476  11.171   2.853  11.504
61484SOL     OW84477  12.047   3.508  11.509
61484SOL    HW184478  11.970   3.473  11.455
61484SOL    HW284479  12.015   3.579  11.571
61485SOL     OW84480  11.402   4.352   0.113
61485SOL    HW184481  11.309   4.350   0.150
61485SOL    HW284482  11.403   4.313   0.021
61486SOL     OW84483  11.397   3.999   0.996
61486SOL    HW184484  11.432   3.982   1.088
61486SOL    HW284485  11.309   3.954   0.984
61487SOL     OW84486  11.191   4.092   0.647
61487SOL    HW184487  11.109   4.135   0.686
61487SOL    HW284488  11.163   4.019   0.584
61488SOL     OW84489  11.741   4.999   1.165
61488SOL    HW184490  11.648   4.992   1.128
61488SOL    HW284491  11.752   5.088   1.209
61489SOL     OW84492  12.727   5.235   0.703
61489SOL    HW184493  12.670   5.219   0.784
61489SOL    HW284494  12.668   5.245   0.623
61490SOL     OW84495  11.940   4.868   1.023
61490SOL    HW184496  11.862   4.885   1.083
61490SOL    HW284497  11.974   4.955   0.987
61491SOL     OW84498  12.022   4.522   1.823
61491SOL    HW184499  12.018   4.598   1.888
61491SOL    HW284500  12.044   4.558   1.732
61492SOL     OW84501  11.857   4.736   0.665
61492SOL    HW184502  11.926   4.720   0.735
61492SOL    HW284503  11.784   4.793   0.703
61493SOL     OW84504  11.858   4.885   1.803
61493SOL    HW184505  11.918   4.964   1.817
61493SOL    HW284506  11.772   4.916   1.762
61494SOL     OW84507  11.507   5.159   1.061
61494SOL    HW184508  11.429   5.128   1.008
61494SOL    HW284509  11.565   5.217   1.004
61495SOL     OW84510  11.610   4.116   1.499
61495SOL    HW184511  11.692   4.060   1.508
61495SOL    HW284512  11.529   4.058   1.503
61496SOL     OW84513  11.403   5.437   0.483
61496SOL    HW184514  11.437   5.514   0.537
61496SOL    HW284515  11.447   5.437   0.393
61497SOL     OW84516  12.299   5.065   1.690
61497SOL    HW184517  12.346   5.065   1.778
61497SOL    HW284518  12.251   4.978   1.679
61498SOL     OW84519  11.402   5.158   0.538
61498SOL    HW184520  11.376   5.254   0.538
61498SOL    HW284521  11.331   5.104   0.583
61499SOL     OW84522  11.412   4.815   0.886
61499SOL    HW184523  11.426   4.731   0.938
61499SOL    HW284524  11.357   4.879   0.941
61500SOL     OW84525  11.792   5.510   1.439
61500SOL    HW184526  11.700   5.493   1.474
61500SOL    HW284527  11.820   5.602   1.465
61501SOL     OW84528  11.778   4.688   0.123
61501SOL    HW184529  11.785   4.772   0.069
61501SOL    HW284530  11.824   4.701   0.211
61502SOL     OW84531  11.294   4.367   0.563
61502SOL    HW184532  11.249   4.279   0.580
61502SOL    HW284533  11.293   4.421   0.647
61503SOL     OW84534  11.199   5.320   0.117
61503SOL    HW184535  11.180   5.224   0.138
61503SOL    HW284536  11.166   5.378   0.192
61504SOL     OW84537  12.861   4.646   0.612
61504SOL    HW184538  12.956   4.617   0.620
61504SOL    HW284539  12.853   4.711   0.537
61505SOL     OW84540  11.285   4.461   1.597
61505SOL    HW184541  11.373   4.448   1.642
61505SOL    HW284542  11.272   4.558   1.575
61506SOL     OW84543  11.785   5.089   0.726
61506SOL    HW184544  11.736   5.002   0.735
61506SOL    HW284545  11.762   5.132   0.639
61507SOL     OW84546  12.465   4.952   1.423
61507SOL    HW184547  12.502   4.879   1.365
61507SOL    HW284548  12.517   4.957   1.508
61508SOL     OW84549  11.981   3.728   0.502
61508SOL    HW184550  12.021   3.819   0.493
61508SOL    HW284551  11.881   3.736   0.508
61509SOL     OW84552  11.369   4.700   1.264
61509SOL    HW184553  11.458   4.655   1.250
61509SOL    HW284554  11.296   4.635   1.245
61510SOL     OW84555  12.359   5.516   1.616
61510SOL    HW184556  12.383   5.576   1.540
61510SOL    HW284557  12.366   5.421   1.586
61511SOL     OW84558  11.489   3.975   1.801
61511SOL    HW184559  11.560   4.046   1.807
61511SOL    HW284560  11.401   4.014   1.829
61512SOL     OW84561  12.638   5.141   0.953
61512SOL    HW184562  12.579   5.147   1.033
61512SOL    HW284563  12.623   5.053   0.907
61513SOL     OW84564  11.770   4.453   0.270
61513SOL    HW184565  11.794   4.522   0.202
61513SOL    HW284566  11.692   4.486   0.324
61514SOL     OW84567  12.453   4.069   0.944
61514SOL    HW184568  12.367   4.019   0.931
61514SOL    HW284569  12.515   4.015   1.000
61515SOL     OW84570  11.979   4.329   1.465
61515SOL    HW184571  11.932   4.326   1.554
61515SOL    HW284572  11.928   4.274   1.399
61516SOL     OW84573  12.566   4.193   1.674
61516SOL    HW184574  12.546   4.236   1.762
61516SOL    HW284575  12.644   4.131   1.683
61517SOL     OW84576  12.145   4.614   1.572
61517SOL    HW184577  12.191   4.530   1.543
61517SOL    HW284578  12.089   4.648   1.497
61518SOL     OW84579  12.163   4.134   1.242
61518SOL    HW184580  12.086   4.168   1.296
61518SOL    HW284581  12.129   4.083   1.163
61519SOL     OW84582  12.213   4.425   0.429
61519SOL    HW184583  12.239   4.421   0.525
61519SOL    HW284584  12.128   4.374   0.415
61520SOL     OW84585  11.248   4.535   0.789
61520SOL    HW184586  11.347   4.523   0.798
61520SOL    HW284587  11.224   4.630   0.810
61521SOL     OW84588  11.302   5.545   1.571
61521SOL    HW184589  11.292   5.530   1.670
61521SOL    HW284590  11.216   5.581   1.535
61522SOL     OW84591  12.037   4.072   0.195
61522SOL    HW184592  12.096   4.135   0.146
61522SOL    HW284593  12.056   3.978   0.166
61523SOL     OW84594  12.534   4.868   0.545
61523SOL    HW184595  12.617   4.839   0.497
61523SOL    HW284596  12.485   4.935   0.489
61524SOL     OW84597  11.722   3.920   0.885
61524SOL    HW184598  11.717   3.915   0.985
61524SOL    HW284599  11.724   4.016   0.856
61525SOL     OW84600  12.180   5.180   0.477
61525SOL    HW184601  12.134   5.252   0.425
61525SOL    HW284602  12.176   5.200   0.575
61526SOL     OW84603  11.523   5.525   0.853
61526SOL    HW184604  11.573   5.439   0.859
61526SOL    HW284605  11.588   5.602   0.850
61527SOL     OW84606  12.399   5.274   1.506
61527SOL    HW184607  12.405   5.197   1.570
61527SOL    HW284608  12.347   5.248   1.426
61528SOL     OW84609  11.493   4.667   0.242
61528SOL    HW184610  11.575   4.706   0.200
61528SOL    HW284611  11.466   4.585   0.193
61529SOL     OW84612  11.633   4.990   1.727
61529SOL    HW184613  11.583   4.991   1.641
61529SOL    HW284614  11.570   4.972   1.803
61530SOL     OW84615  12.283   5.500   0.237
61530SOL    HW184616  12.223   5.438   0.287
61530SOL    HW284617  12.314   5.456   0.152
61531SOL     OW84618  11.374   4.009   1.498
61531SOL    HW184619  11.294   4.069   1.485
61531SOL    HW284620  11.364   3.960   1.584
61532SOL     OW84621  11.636   5.467   0.323
61532SOL    HW184622  11.669   5.506   0.409
61532SOL    HW284623  11.712   5.460   0.258
61533SOL     OW84624  12.572   3.831   0.426
61533SOL    HW184625  12.548   3.794   0.336
61533SOL    HW284626  12.671   3.847   0.430
61534SOL     OW84627  11.421   5.509   1.241
61534SOL    HW184628  11.478   5.444   1.291
61534SOL    HW284629  11.405   5.476   1.148
61535SOL     OW84630  12.112   5.422   0.904
61535SOL    HW184631  12.192   5.365   0.925
61535SOL    HW284632  12.063   5.382   0.827
61536SOL     OW84633  11.554   4.424   0.480
61536SOL    HW184634  11.599   4.334   0.477
61536SOL    HW284635  11.460   4.413   0.513
61537SOL     OW84636  11.786   3.846   0.117
61537SOL    HW184637  11.884   3.824   0.124
61537SOL    HW284638  11.755   3.829   0.024
61538SOL     OW84639  11.953   3.988   1.749
61538SOL    HW184640  12.020   3.927   1.792
61538SOL    HW284641  11.880   4.007   1.814
61539SOL     OW84642  12.060   5.238   1.195
61539SOL    HW184643  12.037   5.213   1.101
61539SOL    HW284644  12.121   5.169   1.234
61540SOL     OW84645  12.523   4.314   1.433
61540SOL    HW184646  12.551   4.271   1.518
61540SOL    HW284647  12.548   4.410   1.434
61541SOL     OW84648  11.975   5.126   0.924
61541SOL    HW184649  12.065   5.140   0.882
61541SOL    HW284650  11.904   5.128   0.853
61542SOL     OW84651  12.094   4.227   0.899
61542SOL    HW184652  12.069   4.218   0.803
61542SOL    HW284653  12.142   4.145   0.930
61543SOL     OW84654  11.711   3.788   0.512
61543SOL    HW184655  11.630   3.789   0.570
61543SOL    HW284656  11.714   3.871   0.457
61544SOL     OW84657  12.606   4.912   0.041
61544SOL    HW184658  12.638   4.836   0.098
61544SOL    HW284659  12.514   4.939   0.071
61545SOL     OW84660  11.469   3.759   0.171
61545SOL    HW184661  11.518   3.843   0.150
61545SOL    HW284662  11.531   3.694   0.216
61546SOL     OW84663  12.107   3.960   0.480
61546SOL    HW184664  12.059   4.001   0.402
61546SOL    HW284665  12.206   3.958   0.461
61547SOL     OW84666  12.248   4.407   1.464
61547SOL    HW184667  12.168   4.346   1.467
61547SOL    HW284668  12.329   4.354   1.440
61548SOL     OW84669  12.399   5.294   0.793
61548SOL    HW184670  12.420   5.368   0.728
61548SOL    HW284671  12.467   5.294   0.866
61549SOL     OW84672  11.631   4.876   0.741
61549SOL    HW184673  11.560   4.849   0.806
61549SOL    HW284674  11.605   4.848   0.648
61550SOL     OW84675  12.443   5.521   0.591
61550SOL    HW184676  12.487   5.585   0.527
61550SOL    HW284677  12.393   5.573   0.661
61551SOL     OW84678  12.204   4.273   0.016
61551SOL    HW184679  12.163   4.355  -0.023
61551SOL    HW284680  12.268   4.299   0.089
61552SOL     OW84681  11.250   4.280   1.386
61552SOL    HW184682  11.342   4.279   1.345
61552SOL    HW284683  11.244   4.354   1.453
61553SOL     OW84684  11.733   3.946   1.147
61553SOL    HW184685  11.771   3.862   1.184
61553SOL    HW284686  11.645   3.965   1.191
61554SOL     OW84687  12.038   4.178   0.642
61554SOL    HW184688  12.006   4.250   0.580
61554SOL    HW284689  12.062   4.097   0.589
61555SOL     OW84690  12.189   3.763   0.753
61555SOL    HW184691  12.117   3.768   0.684
61555SOL    HW284692  12.165   3.694   0.822
61556SOL     OW84693  12.601   4.897   0.867
61556SOL    HW184694  12.546   4.813   0.860
61556SOL    HW284695  12.627   4.926   0.775
61557SOL     OW84696  11.660   5.109   0.174
61557SOL    HW184697  11.573   5.094   0.221
61557SOL    HW284698  11.643   5.135   0.079
61558SOL     OW84699  12.562   4.299   0.078
61558SOL    HW184700  12.508   4.278   0.159
61558SOL    HW284701  12.653   4.258   0.087
61559SOL     OW84702  11.699   3.980   0.328
61559SOL    HW184703  11.726   3.921   0.253
61559SOL    HW284704  11.699   4.075   0.297
61560SOL     OW84705  12.236   5.071   1.340
61560SOL    HW184706  12.156   5.048   1.395
61560SOL    HW284707  12.319   5.045   1.389
61561SOL     OW84708  12.764   5.353   1.625
61561SOL    HW184709  12.791   5.387   1.535
61561SOL    HW284710  12.843   5.315   1.671
61562SOL     OW84711  12.283   4.919   1.100
61562SOL    HW184712  12.243   4.963   1.181
61562SOL    HW284713  12.242   4.956   1.017
61563SOL     OW84714  12.087   3.813   1.402
61563SOL    HW184715  12.112   3.793   1.307
61563SOL    HW284716  12.159   3.869   1.444
61564SOL     OW84717  12.152   4.840   1.719
61564SOL    HW184718  12.053   4.846   1.729
61564SOL    HW284719  12.175   4.760   1.663
61565SOL     OW84720  11.877   4.774   0.368
61565SOL    HW184721  11.863   4.781   0.467
61565SOL    HW284722  11.961   4.723   0.350
61566SOL     OW84723  11.582   4.537   1.251
61566SOL    HW184724  11.668   4.549   1.301
61566SOL    HW284725  11.540   4.450   1.278
61567SOL     OW84726  12.446   4.110   1.262
61567SOL    HW184727  12.467   4.184   1.326
61567SOL    HW284728  12.357   4.127   1.219
61568SOL     OW84729  11.539   4.824   0.501
61568SOL    HW184730  11.532   4.907   0.445
61568SOL    HW284731  11.543   4.744   0.441
61569SOL     OW84732  11.738   4.261   0.865
61569SOL    HW184733  11.750   4.327   0.791
61569SOL    HW284734  11.784   4.295   0.948
61570SOL     OW84735  12.424   5.072   0.388
61570SOL    HW184736  12.474   5.149   0.428
61570SOL    HW284737  12.329   5.074   0.420
61571SOL     OW84738  12.444   5.169   1.142
61571SOL    HW184739  12.491   5.182   1.229
61571SOL    HW284740  12.378   5.095   1.151
61572SOL     OW84741  11.526   5.234   1.329
61572SOL    HW184742  11.505   5.190   1.242
61572SOL    HW284743  11.623   5.260   1.332
61573SOL     OW84744  11.574   4.475   1.598
61573SOL    HW184745  11.642   4.530   1.551
61573SOL    HW284746  11.614   4.387   1.625
61574SOL     OW84747  12.185   3.829   1.770
61574SOL    HW184748  12.191   3.914   1.718
61574SOL    HW284749  12.217   3.753   1.713
61575SOL     OW84750  11.676   3.774   1.740
61575SOL    HW184751  11.634   3.717   1.670
61575SOL    HW284752  11.610   3.843   1.772
61576SOL     OW84753  11.745   4.594   1.029
61576SOL    HW184754  11.789   4.683   1.020
61576SOL    HW284755  11.682   4.594   1.106
61577SOL     OW84756  12.532   4.586   1.045
61577SOL    HW184757  12.457   4.586   0.979
61577SOL    HW284758  12.569   4.494   1.054
61578SOL     OW84759  12.381   4.249   0.275
61578SOL    HW184760  12.394   4.165   0.329
61578SOL    HW284761  12.352   4.323   0.335
61579SOL     OW84762  11.479   3.937   1.231
61579SOL    HW184763  11.456   3.974   1.321
61579SOL    HW284764  11.449   3.842   1.225
61580SOL     OW84765  11.209   5.034   1.282
61580SOL    HW184766  11.262   4.985   1.350
61580SOL    HW284767  11.231   5.132   1.287
61581SOL     OW84768  11.904   4.358   1.064
61581SOL    HW184769  11.963   4.332   0.988
61581SOL    HW284770  11.876   4.454   1.053
61582SOL     OW84771  11.479   3.787   0.618
61582SOL    HW184772  11.468   3.881   0.651
61582SOL    HW284773  11.474   3.724   0.695
61583SOL     OW84774  12.794   4.091   0.374
61583SOL    HW184775  12.796   4.015   0.438
61583SOL    HW284776  12.746   4.168   0.414
61584SOL     OW84777  12.195   4.490   0.966
61584SOL    HW184778  12.210   4.511   1.062
61584SOL    HW284779  12.165   4.395   0.957
61585SOL     OW84780  12.152   5.297   1.700
61585SOL    HW184781  12.132   5.341   1.612
61585SOL    HW284782  12.191   5.206   1.684
61586SOL     OW84783  11.522   4.622   1.804
61586SOL    HW184784  11.598   4.666   1.852
61586SOL    HW284785  11.557   4.575   1.722
61587SOL     OW84786  12.475   4.562   0.042
61587SOL    HW184787  12.509   4.469   0.057
61587SOL    HW284788  12.493   4.589  -0.053
61588SOL     OW84789  12.240   5.057   0.849
61588SOL    HW184790  12.247   4.973   0.794
61588SOL    HW284791  12.302   5.126   0.813
61589SOL     OW84792  11.491   4.534   0.949
61589SOL    HW184793  11.584   4.570   0.954
61589SOL    HW284794  11.485   4.449   1.001
61590SOL     OW84795  11.511   4.233   1.006
61590SOL    HW184796  11.459   4.150   0.989
61590SOL    HW284797  11.588   4.238   0.942
61591SOL     OW84798  12.310   4.104   1.678
61591SOL    HW184799  12.265   4.167   1.742
61591SOL    HW284800  12.403   4.135   1.661
61592SOL     OW84801  12.332   3.931   1.477
61592SOL    HW184802  12.332   3.995   1.554
61592SOL    HW284803  12.360   3.979   1.394
61593SOL     OW84804  11.180   5.050   0.200
61593SOL    HW184805  11.087   5.071   0.169
61593SOL    HW284806  11.190   4.951   0.213
61594SOL     OW84807  11.260   5.525   0.927
61594SOL    HW184808  11.218   5.439   0.900
61594SOL    HW284809  11.354   5.528   0.893
61595SOL     OW84810  11.676   5.292   0.910
61595SOL    HW184811  11.742   5.366   0.919
61595SOL    HW284812  11.720   5.213   0.868
61596SOL     OW84813  12.174   4.520   1.238
61596SOL    HW184814  12.215   4.488   1.324
61596SOL    HW284815  12.078   4.493   1.235
61597SOL     OW84816  11.212   4.268   1.114
61597SOL    HW184817  11.297   4.235   1.073
61597SOL    HW284818  11.225   4.283   1.212
61598SOL     OW84819  11.361   4.244   1.722
61598SOL    HW184820  11.420   4.204   1.652
61598SOL    HW284821  11.303   4.315   1.681
61599SOL     OW84822  12.541   4.674   1.660
61599SOL    HW184823  12.580   4.763   1.680
61599SOL    HW284824  12.551   4.654   1.563
61600SOL     OW84825  11.987   4.296   0.325
61600SOL    HW184826  11.994   4.207   0.279
61600SOL    HW284827  11.893   4.330   0.317
61601SOL     OW84828  11.424   5.288   1.744
61601SOL    HW184829  11.394   5.345   1.820
61601SOL    HW284830  11.417   5.191   1.770
61602SOL     OW84831  11.843   4.188   1.269
61602SOL    HW184832  11.809   4.099   1.239
61602SOL    HW284833  11.869   4.242   1.189
61603SOL     OW84834  12.102   5.402   1.465
61603SOL    HW184835  12.078   5.384   1.370
61603SOL    HW284836  12.132   5.496   1.475
61604SOL     OW84837  11.645   4.224   0.191
61604SOL    HW184838  11.706   4.304   0.195
61604SOL    HW284839  11.550   4.255   0.198
61605SOL     OW84840  11.331   4.861   1.466
61605SOL    HW184841  11.353   4.800   1.542
61605SOL    HW284842  11.341   4.812   1.380
61606SOL     OW84843  12.519   4.783   1.234
61606SOL    HW184844  12.543   4.720   1.160
61606SOL    HW284845  12.429   4.823   1.216
61607SOL     OW84846  12.474   4.579   0.309
61607SOL    HW184847  12.388   4.548   0.351
61607SOL    HW284848  12.470   4.565   0.210
61608SOL     OW84849  12.424   5.455   1.128
61608SOL    HW184850  12.508   5.460   1.074
61608SOL    HW284851  12.401   5.359   1.146
61609SOL     OW84852  11.255   4.982   1.022
61609SOL    HW184853  11.250   4.981   1.122
61609SOL    HW284854  11.172   4.941   0.984
61610SOL     OW84855  11.860   5.386   1.716
61610SOL    HW184856  11.804   5.467   1.725
61610SOL    HW284857  11.912   5.390   1.630
61611SOL     OW84858  12.075   3.810   0.133
61611SOL    HW184859  12.126   3.811   0.047
61611SOL    HW284860  12.131   3.768   0.204
61612SOL     OW84861  12.898   3.859   0.523
61612SOL    HW184862  12.971   3.842   0.456
61612SOL    HW284863  12.867   3.772   0.561
61613SOL     OW84864  12.560   5.297   0.477
61613SOL    HW184865  12.627   5.309   0.403
61613SOL    HW284866  12.520   5.386   0.500
61614SOL     OW84867  11.302   5.518   1.851
61614SOL    HW184868  11.261   5.444   1.904
61614SOL    HW284869  11.366   5.569   1.909
61615SOL     OW84870  12.452   4.651   0.672
61615SOL    HW184871  12.512   4.570   0.674
61615SOL    HW284872  12.492   4.720   0.612
61616SOL     OW84873  12.002   4.997   1.422
61616SOL    HW184874  11.997   5.030   1.517
61616SOL    HW284875  11.916   5.016   1.376
61617SOL     OW84876  11.844   5.340   0.154
61617SOL    HW184877  11.853   5.350   0.055
61617SOL    HW284878  11.804   5.251   0.175
61618SOL     OW84879  11.435   4.050   0.720
61618SOL    HW184880  11.356   4.101   0.686
61618SOL    HW284881  11.426   4.035   0.818
61619SOL     OW84882  12.366   5.336   0.031
61619SOL    HW184883  12.372   5.243   0.068
61619SOL    HW284884  12.307   5.336  -0.049
61620SOL     OW84885  11.994   4.726   1.372
61620SOL    HW184886  12.034   4.725   1.280
61620SOL    HW284887  12.004   4.818   1.412
61621SOL     OW84888  12.088   4.634   0.291
61621SOL    HW184889  12.151   4.672   0.223
61621SOL    HW284890  12.128   4.551   0.330
61622SOL     OW84891  11.544   5.012   1.490
61622SOL    HW184892  11.531   5.105   1.456
61622SOL    HW284893  11.460   4.960   1.477
61623SOL     OW84894  12.211   4.822   0.696
61623SOL    HW184895  12.141   4.775   0.750
61623SOL    HW284896  12.270   4.754   0.653
61624SOL     OW84897  12.186   3.960   0.971
61624SOL    HW184898  12.178   3.924   0.878
61624SOL    HW284899  12.184   3.884   1.036
61625SOL     OW84900  11.762   5.211   0.491
61625SOL    HW184901  11.804   5.153   0.421
61625SOL    HW284902  11.718   5.290   0.447
61626SOL     OW84903  11.427   5.072   0.290
61626SOL    HW184904  11.331   5.073   0.263
61626SOL    HW284905  11.439   5.125   0.374
61627SOL     OW84906  11.277   4.737   1.726
61627SOL    HW184907  11.200   4.704   1.780
61627SOL    HW284908  11.362   4.707   1.768
61628SOL     OW84909  11.844   3.927   1.489
61628SOL    HW184910  11.934   3.911   1.449
61628SOL    HW284911  11.852   3.932   1.588
61629SOL     OW84912  12.612   4.580   1.398
61629SOL    HW184913  12.555   4.632   1.335
61629SOL    HW284914  12.708   4.592   1.374
61630SOL     OW84915  11.244   3.890   0.318
61630SOL    HW184916  11.227   3.973   0.264
61630SOL    HW284917  11.334   3.853   0.296
61631SOL     OW84918  12.355   5.059   0.119
61631SOL    HW184919  12.256   5.048   0.121
61631SOL    HW284920  12.389   5.074   0.212
61632SOL     OW84921  11.785   4.566   1.431
61632SOL    HW184922  11.841   4.647   1.414
61632SOL    HW284923  11.844   4.486   1.434
61633SOL     OW84924  11.888   4.289   1.708
61633SOL    HW184925  11.907   4.354   1.782
61633SOL    HW284926  11.948   4.209   1.717
61634SOL     OW84927  12.622   4.944   1.633
61634SOL    HW184928  12.613   4.934   1.732
61634SOL    HW284929  12.718   4.937   1.607
61635SOL     OW84930  11.562   5.465   1.560
61635SOL    HW184931  11.471   5.506   1.558
61635SOL    HW284932  11.555   5.371   1.592
61636SOL     OW84933  12.397   4.049   0.449
61636SOL    HW184934  12.462   3.975   0.438
61636SOL    HW284935  12.417   4.099   0.533
61637SOL     OW84936  11.766   4.469   0.652
61637SOL    HW184937  11.816   4.554   0.633
61637SOL    HW284938  11.678   4.471   0.604
61638SOL     OW84939  12.031   5.098   0.016
61638SOL    HW184940  11.985   5.113   0.104
61638SOL    HW284941  12.075   5.183  -0.014
61639SOL     OW84942  11.833   5.514   0.953
61639SOL    HW184943  11.787   5.602   0.940
61639SOL    HW284944  11.932   5.526   0.946
61640SOL     OW84945  12.031   4.680   0.861
61640SOL    HW184946  12.085   4.611   0.909
61640SOL    HW284947  11.999   4.749   0.927
61641SOL     OW84948  12.255   4.708   0.087
61641SOL    HW184949  12.232   4.761   0.005
61641SOL    HW284950  12.336   4.652   0.068
61642SOL     OW84951  11.393   5.038   1.844
61642SOL    HW184952  11.328   4.965   1.823
61642SOL    HW284953  11.397   5.052   1.942
61643SOL     OW84954  11.251   4.964   0.653
61643SOL    HW184955  11.250   4.917   0.741
61643SOL    HW284956  11.333   4.936   0.602
61644SOL     OW84957  11.844   5.115   1.624
61644SOL    HW184958  11.766   5.065   1.662
61644SOL    HW284959  11.841   5.210   1.655
61645SOL     OW84960  11.600   4.148   0.520
61645SOL    HW184961  11.630   4.076   0.458
61645SOL    HW284962  11.561   4.108   0.603
61646SOL     OW84963  12.877   5.211   1.104
61646SOL    HW184964  12.784   5.186   1.077
61646SOL    HW284965  12.903   5.161   1.186
61647SOL     OW84966  11.489   4.271   1.280
61647SOL    HW184967  11.527   4.212   1.352
61647SOL    HW284968  11.529   4.245   1.192
61648SOL     OW84969  11.984   5.310   0.687
61648SOL    HW184970  12.016   5.320   0.593
61648SOL    HW284971  11.905   5.248   0.689
61649SOL     OW84972  12.596   3.938   1.112
61649SOL    HW184973  12.648   3.873   1.167
61649SOL    HW284974  12.547   4.001   1.173
61650SOL     OW84975  12.173   3.758   1.154
61650SOL    HW184976  12.110   3.686   1.123
61650SOL    HW284977  12.266   3.722   1.154
61651SOL     OW84978  11.942   5.054   0.301
61651SOL    HW184979  11.896   4.967   0.318
61651SOL    HW284980  12.033   5.051   0.342
61652SOL     OW84981  11.790   5.291   1.284
61652SOL    HW184982  11.785   5.373   1.341
61652SOL    HW284983  11.879   5.288   1.239
61653SOL     OW84984  12.524   3.776   0.168
61653SOL    HW184985  12.559   3.735   0.084
61653SOL    HW284986  12.434   3.738   0.188
61654SOL     OW84987  12.472   4.177   0.691
61654SOL    HW184988  12.413   4.257   0.695
61654SOL    HW284989  12.487   4.142   0.784
61655SOL     OW84990  11.211   4.801   0.300
61655SOL    HW184991  11.310   4.790   0.291
61655SOL    HW284992  11.171   4.715   0.332
61656SOL     OW84993  12.047   5.370   0.337
61656SOL    HW184994  11.970   5.335   0.283
61656SOL    HW284995  12.015   5.441   0.399
61657SOL     OW84996  11.402   4.352   1.975
61657SOL    HW184997  11.309   4.350   2.012
61657SOL    HW284998  11.403   4.313   1.883
61658SOL     OW84999  11.397   3.999   2.858
61658SOL    HW185000  11.432   3.982   2.950
61658SOL    HW285001  11.309   3.954   2.846
61659SOL     OW85002  11.191   4.092   2.509
61659SOL    HW185003  11.109   4.135   2.548
61659SOL    HW285004  11.163   4.019   2.446
61660SOL     OW85005  11.741   4.999   3.027
61660SOL    HW185006  11.648   4.992   2.990
61660SOL    HW285007  11.752   5.088   3.071
61661SOL     OW85008  12.727   5.235   2.565
61661SOL    HW185009  12.670   5.219   2.646
61661SOL    HW285010  12.668   5.245   2.485
61662SOL     OW85011  12.307   4.427   2.579
61662SOL    HW185012  12.364   4.505   2.554
61662SOL    HW285013  12.247   4.453   2.655
61663SOL     OW85014  11.940   4.868   2.885
61663SOL    HW185015  11.862   4.885   2.945
61663SOL    HW285016  11.974   4.955   2.849
61664SOL     OW85017  12.022   4.522   3.685
61664SOL    HW185018  12.018   4.598   3.750
61664SOL    HW285019  12.044   4.558   3.594
61665SOL     OW85020  11.857   4.736   2.527
61665SOL    HW185021  11.926   4.720   2.597
61665SOL    HW285022  11.784   4.793   2.565
61666SOL     OW85023  11.858   4.885   3.665
61666SOL    HW185024  11.918   4.964   3.679
61666SOL    HW285025  11.772   4.916   3.624
61667SOL     OW85026  11.507   5.159   2.923
61667SOL    HW185027  11.429   5.128   2.870
61667SOL    HW285028  11.565   5.217   2.866
61668SOL     OW85029  11.610   4.116   3.361
61668SOL    HW185030  11.692   4.060   3.370
61668SOL    HW285031  11.529   4.058   3.365
61669SOL     OW85032  11.403   5.437   2.345
61669SOL    HW185033  11.437   5.514   2.399
61669SOL    HW285034  11.447   5.437   2.255
61670SOL     OW85035  12.299   5.065   3.552
61670SOL    HW185036  12.346   5.065   3.640
61670SOL    HW285037  12.251   4.978   3.541
61671SOL     OW85038  11.402   5.158   2.400
61671SOL    HW185039  11.376   5.254   2.400
61671SOL    HW285040  11.331   5.104   2.445
61672SOL     OW85041  11.412   4.815   2.748
61672SOL    HW185042  11.426   4.731   2.800
61672SOL    HW285043  11.357   4.879   2.803
61673SOL     OW85044  11.792   5.510   3.301
61673SOL    HW185045  11.700   5.493   3.336
61673SOL    HW285046  11.820   5.602   3.327
61674SOL     OW85047  11.778   4.688   1.985
61674SOL    HW185048  11.785   4.772   1.931
61674SOL    HW285049  11.824   4.701   2.073
61675SOL     OW85050  11.294   4.367   2.425
61675SOL    HW185051  11.249   4.279   2.442
61675SOL    HW285052  11.293   4.421   2.509
61676SOL     OW85053  11.199   5.320   1.979
61676SOL    HW185054  11.180   5.224   2.000
61676SOL    HW285055  11.166   5.378   2.054
61677SOL     OW85056  12.861   4.646   2.474
61677SOL    HW185057  12.956   4.617   2.482
61677SOL    HW285058  12.853   4.711   2.399
61678SOL     OW85059  11.285   4.461   3.459
61678SOL    HW185060  11.373   4.448   3.504
61678SOL    HW285061  11.272   4.558   3.437
61679SOL     OW85062  11.785   5.089   2.588
61679SOL    HW185063  11.736   5.002   2.597
61679SOL    HW285064  11.762   5.132   2.501
61680SOL     OW85065  12.465   4.952   3.285
61680SOL    HW185066  12.502   4.879   3.227
61680SOL    HW285067  12.517   4.957   3.370
61681SOL     OW85068  11.981   3.728   2.364
61681SOL    HW185069  12.021   3.819   2.355
61681SOL    HW285070  11.881   3.736   2.370
61682SOL     OW85071  11.369   4.700   3.126
61682SOL    HW185072  11.458   4.655   3.112
61682SOL    HW285073  11.296   4.635   3.107
61683SOL     OW85074  12.359   5.516   3.478
61683SOL    HW185075  12.383   5.576   3.402
61683SOL    HW285076  12.366   5.421   3.448
61684SOL     OW85077  11.489   3.975   3.663
61684SOL    HW185078  11.560   4.046   3.669
61684SOL    HW285079  11.401   4.014   3.691
61685SOL     OW85080  12.638   5.141   2.815
61685SOL    HW185081  12.579   5.147   2.895
61685SOL    HW285082  12.623   5.053   2.769
61686SOL     OW85083  11.770   4.453   2.132
61686SOL    HW185084  11.794   4.522   2.064
61686SOL    HW285085  11.692   4.486   2.186
61687SOL     OW85086  12.453   4.069   2.806
61687SOL    HW185087  12.367   4.019   2.793
61687SOL    HW285088  12.515   4.015   2.862
61688SOL     OW85089  11.979   4.329   3.327
61688SOL    HW185090  11.932   4.326   3.416
61688SOL    HW285091  11.928   4.274   3.261
61689SOL     OW85092  12.566   4.193   3.536
61689SOL    HW185093  12.546   4.236   3.624
61689SOL    HW285094  12.644   4.131   3.545
61690SOL     OW85095  12.145   4.614   3.434
61690SOL    HW185096  12.191   4.530   3.405
61690SOL    HW285097  12.089   4.648   3.359
61691SOL     OW85098  12.163   4.134   3.104
61691SOL    HW185099  12.086   4.168   3.158
61691SOL    HW285100  12.129   4.083   3.025
61692SOL     OW85101  12.213   4.425   2.291
61692SOL    HW185102  12.239   4.421   2.387
61692SOL    HW285103  12.128   4.374   2.277
61693SOL     OW85104  11.248   4.535   2.651
61693SOL    HW185105  11.347   4.523   2.660
61693SOL    HW285106  11.224   4.630   2.672
61694SOL     OW85107  11.302   5.545   3.433
61694SOL    HW185108  11.292   5.530   3.532
61694SOL    HW285109  11.216   5.581   3.397
61695SOL     OW85110  12.037   4.072   2.057
61695SOL    HW185111  12.096   4.135   2.008
61695SOL    HW285112  12.056   3.978   2.028
61696SOL     OW85113  12.534   4.868   2.407
61696SOL    HW185114  12.617   4.839   2.359
61696SOL    HW285115  12.485   4.935   2.351
61697SOL     OW85116  11.722   3.920   2.747
61697SOL    HW185117  11.717   3.915   2.847
61697SOL    HW285118  11.724   4.016   2.718
61698SOL     OW85119  12.180   5.180   2.339
61698SOL    HW185120  12.134   5.252   2.287
61698SOL    HW285121  12.176   5.200   2.437
61699SOL     OW85122  11.523   5.525   2.715
61699SOL    HW185123  11.573   5.439   2.721
61699SOL    HW285124  11.588   5.602   2.712
61700SOL     OW85125  12.399   5.274   3.368
61700SOL    HW185126  12.405   5.197   3.432
61700SOL    HW285127  12.347   5.248   3.288
61701SOL     OW85128  11.493   4.667   2.104
61701SOL    HW185129  11.575   4.706   2.062
61701SOL    HW285130  11.466   4.585   2.055
61702SOL     OW85131  11.633   4.990   3.589
61702SOL    HW185132  11.583   4.991   3.503
61702SOL    HW285133  11.570   4.972   3.665
61703SOL     OW85134  12.283   5.500   2.099
61703SOL    HW185135  12.223   5.438   2.149
61703SOL    HW285136  12.314   5.456   2.014
61704SOL     OW85137  11.374   4.009   3.360
61704SOL    HW185138  11.294   4.069   3.347
61704SOL    HW285139  11.364   3.960   3.446
61705SOL     OW85140  11.636   5.467   2.185
61705SOL    HW185141  11.669   5.506   2.271
61705SOL    HW285142  11.712   5.460   2.120
61706SOL     OW85143  12.572   3.831   2.288
61706SOL    HW185144  12.548   3.794   2.198
61706SOL    HW285145  12.671   3.847   2.292
61707SOL     OW85146  11.421   5.509   3.103
61707SOL    HW185147  11.478   5.444   3.153
61707SOL    HW285148  11.405   5.476   3.010
61708SOL     OW85149  12.112   5.422   2.766
61708SOL    HW185150  12.192   5.365   2.787
61708SOL    HW285151  12.063   5.382   2.689
61709SOL     OW85152  11.554   4.424   2.342
61709SOL    HW185153  11.599   4.334   2.339
61709SOL    HW285154  11.460   4.413   2.375
61710SOL     OW85155  11.786   3.846   1.979
61710SOL    HW185156  11.884   3.824   1.986
61710SOL    HW285157  11.755   3.829   1.886
61711SOL     OW85158  11.953   3.988   3.611
61711SOL    HW185159  12.020   3.927   3.654
61711SOL    HW285160  11.880   4.007   3.676
61712SOL     OW85161  12.060   5.238   3.057
61712SOL    HW185162  12.037   5.213   2.963
61712SOL    HW285163  12.121   5.169   3.096
61713SOL     OW85164  12.523   4.314   3.295
61713SOL    HW185165  12.551   4.271   3.380
61713SOL    HW285166  12.548   4.410   3.296
61714SOL     OW85167  11.975   5.126   2.786
61714SOL    HW185168  12.065   5.140   2.744
61714SOL    HW285169  11.904   5.128   2.715
61715SOL     OW85170  12.094   4.227   2.761
61715SOL    HW185171  12.069   4.218   2.665
61715SOL    HW285172  12.142   4.145   2.792
61716SOL     OW85173  11.711   3.788   2.374
61716SOL    HW185174  11.630   3.789   2.432
61716SOL    HW285175  11.714   3.871   2.319
61717SOL     OW85176  12.606   4.912   1.903
61717SOL    HW185177  12.638   4.836   1.960
61717SOL    HW285178  12.514   4.939   1.933
61718SOL     OW85179  11.469   3.759   2.033
61718SOL    HW185180  11.518   3.843   2.012
61718SOL    HW285181  11.531   3.694   2.078
61719SOL     OW85182  12.107   3.960   2.342
61719SOL    HW185183  12.059   4.001   2.264
61719SOL    HW285184  12.206   3.958   2.323
61720SOL     OW85185  12.248   4.407   3.326
61720SOL    HW185186  12.168   4.346   3.329
61720SOL    HW285187  12.329   4.354   3.302
61721SOL     OW85188  12.399   5.294   2.655
61721SOL    HW185189  12.420   5.368   2.590
61721SOL    HW285190  12.467   5.294   2.728
61722SOL     OW85191  11.631   4.876   2.603
61722SOL    HW185192  11.560   4.849   2.668
61722SOL    HW285193  11.605   4.848   2.510
61723SOL     OW85194  12.443   5.521   2.453
61723SOL    HW185195  12.487   5.585   2.389
61723SOL    HW285196  12.393   5.573   2.523
61724SOL     OW85197  12.204   4.273   1.878
61724SOL    HW185198  12.163   4.355   1.839
61724SOL    HW285199  12.268   4.299   1.951
61725SOL     OW85200  11.250   4.280   3.248
61725SOL    HW185201  11.342   4.279   3.207
61725SOL    HW285202  11.244   4.354   3.315
61726SOL     OW85203  11.733   3.946   3.009
61726SOL    HW185204  11.771   3.862   3.046
61726SOL    HW285205  11.645   3.965   3.053
61727SOL     OW85206  12.038   4.178   2.504
61727SOL    HW185207  12.006   4.250   2.442
61727SOL    HW285208  12.062   4.097   2.451
61728SOL     OW85209  12.189   3.763   2.615
61728SOL    HW185210  12.117   3.768   2.546
61728SOL    HW285211  12.165   3.694   2.684
61729SOL     OW85212  12.601   4.897   2.729
61729SOL    HW185213  12.546   4.813   2.722
61729SOL    HW285214  12.627   4.926   2.637
61730SOL     OW85215  11.660   5.109   2.036
61730SOL    HW185216  11.573   5.094   2.083
61730SOL    HW285217  11.643   5.135   1.941
61731SOL     OW85218  12.562   4.299   1.940
61731SOL    HW185219  12.508   4.278   2.021
61731SOL    HW285220  12.653   4.258   1.949
61732SOL     OW85221  11.699   3.980   2.190
61732SOL    HW185222  11.726   3.921   2.115
61732SOL    HW285223  11.699   4.075   2.159
61733SOL     OW85224  12.236   5.071   3.202
61733SOL    HW185225  12.156   5.048   3.257
61733SOL    HW285226  12.319   5.045   3.251
61734SOL     OW85227  12.764   5.353   3.487
61734SOL    HW185228  12.791   5.387   3.397
61734SOL    HW285229  12.843   5.315   3.533
61735SOL     OW85230  12.283   4.919   2.962
61735SOL    HW185231  12.243   4.963   3.043
61735SOL    HW285232  12.242   4.956   2.879
61736SOL     OW85233  12.087   3.813   3.264
61736SOL    HW185234  12.112   3.793   3.169
61736SOL    HW285235  12.159   3.869   3.306
61737SOL     OW85236  12.152   4.840   3.581
61737SOL    HW185237  12.053   4.846   3.591
61737SOL    HW285238  12.175   4.760   3.525
61738SOL     OW85239  11.877   4.774   2.230
61738SOL    HW185240  11.863   4.781   2.329
61738SOL    HW285241  11.961   4.723   2.212
61739SOL     OW85242  11.582   4.537   3.113
61739SOL    HW185243  11.668   4.549   3.163
61739SOL    HW285244  11.540   4.450   3.140
61740SOL     OW85245  12.446   4.110   3.124
61740SOL    HW185246  12.467   4.184   3.188
61740SOL    HW285247  12.357   4.127   3.081
61741SOL     OW85248  11.236   5.288   3.193
61741SOL    HW185249  11.190   5.370   3.159
61741SOL    HW285250  11.334   5.307   3.202
61742SOL     OW85251  11.539   4.824   2.363
61742SOL    HW185252  11.532   4.907   2.307
61742SOL    HW285253  11.543   4.744   2.303
61743SOL     OW85254  11.738   4.261   2.727
61743SOL    HW185255  11.750   4.327   2.653
61743SOL    HW285256  11.784   4.295   2.810
61744SOL     OW85257  12.424   5.072   2.250
61744SOL    HW185258  12.474   5.149   2.290
61744SOL    HW285259  12.329   5.074   2.282
61745SOL     OW85260  12.444   5.169   3.004
61745SOL    HW185261  12.491   5.182   3.091
61745SOL    HW285262  12.378   5.095   3.013
61746SOL     OW85263  11.526   5.234   3.191
61746SOL    HW185264  11.505   5.190   3.104
61746SOL    HW285265  11.623   5.260   3.194
61747SOL     OW85266  11.574   4.475   3.460
61747SOL    HW185267  11.642   4.530   3.413
61747SOL    HW285268  11.614   4.387   3.487
61748SOL     OW85269  12.185   3.829   3.632
61748SOL    HW185270  12.191   3.914   3.580
61748SOL    HW285271  12.217   3.753   3.575
61749SOL     OW85272  11.676   3.774   3.602
61749SOL    HW185273  11.634   3.717   3.532
61749SOL    HW285274  11.610   3.843   3.634
61750SOL     OW85275  11.745   4.594   2.891
61750SOL    HW185276  11.789   4.683   2.882
61750SOL    HW285277  11.682   4.594   2.968
61751SOL     OW85278  12.532   4.586   2.907
61751SOL    HW185279  12.457   4.586   2.841
61751SOL    HW285280  12.569   4.494   2.916
61752SOL     OW85281  12.381   4.249   2.137
61752SOL    HW185282  12.394   4.165   2.191
61752SOL    HW285283  12.352   4.323   2.197
61753SOL     OW85284  11.479   3.937   3.093
61753SOL    HW185285  11.456   3.974   3.183
61753SOL    HW285286  11.449   3.842   3.087
61754SOL     OW85287  11.209   5.034   3.144
61754SOL    HW185288  11.262   4.985   3.212
61754SOL    HW285289  11.231   5.132   3.149
61755SOL     OW85290  11.904   4.358   2.926
61755SOL    HW185291  11.963   4.332   2.850
61755SOL    HW285292  11.876   4.454   2.915
61756SOL     OW85293  11.479   3.787   2.480
61756SOL    HW185294  11.468   3.881   2.513
61756SOL    HW285295  11.474   3.724   2.557
61757SOL     OW85296  12.794   4.091   2.236
61757SOL    HW185297  12.796   4.015   2.300
61757SOL    HW285298  12.746   4.168   2.276
61758SOL     OW85299  12.195   4.490   2.828
61758SOL    HW185300  12.210   4.511   2.924
61758SOL    HW285301  12.165   4.395   2.819
61759SOL     OW85302  12.152   5.297   3.562
61759SOL    HW185303  12.132   5.341   3.474
61759SOL    HW285304  12.191   5.206   3.546
61760SOL     OW85305  11.522   4.622   3.666
61760SOL    HW185306  11.598   4.666   3.714
61760SOL    HW285307  11.557   4.575   3.584
61761SOL     OW85308  12.475   4.562   1.904
61761SOL    HW185309  12.509   4.469   1.919
61761SOL    HW285310  12.493   4.589   1.809
61762SOL     OW85311  12.240   5.057   2.711
61762SOL    HW185312  12.247   4.973   2.656
61762SOL    HW285313  12.302   5.126   2.675
61763SOL     OW85314  11.491   4.534   2.811
61763SOL    HW185315  11.584   4.570   2.816
61763SOL    HW285316  11.485   4.449   2.863
61764SOL     OW85317  11.511   4.233   2.868
61764SOL    HW185318  11.459   4.150   2.851
61764SOL    HW285319  11.588   4.238   2.804
61765SOL     OW85320  12.310   4.104   3.540
61765SOL    HW185321  12.265   4.167   3.604
61765SOL    HW285322  12.403   4.135   3.523
61766SOL     OW85323  12.332   3.931   3.339
61766SOL    HW185324  12.332   3.995   3.416
61766SOL    HW285325  12.360   3.979   3.256
61767SOL     OW85326  11.180   5.050   2.062
61767SOL    HW185327  11.087   5.071   2.031
61767SOL    HW285328  11.190   4.951   2.075
61768SOL     OW85329  11.260   5.525   2.789
61768SOL    HW185330  11.218   5.439   2.762
61768SOL    HW285331  11.354   5.528   2.755
61769SOL     OW85332  11.676   5.292   2.772
61769SOL    HW185333  11.742   5.366   2.781
61769SOL    HW285334  11.720   5.213   2.730
61770SOL     OW85335  12.174   4.520   3.100
61770SOL    HW185336  12.215   4.488   3.186
61770SOL    HW285337  12.078   4.493   3.097
61771SOL     OW85338  11.212   4.268   2.976
61771SOL    HW185339  11.297   4.235   2.935
61771SOL    HW285340  11.225   4.283   3.074
61772SOL     OW85341  11.361   4.244   3.584
61772SOL    HW185342  11.420   4.204   3.514
61772SOL    HW285343  11.303   4.315   3.543
61773SOL     OW85344  12.541   4.674   3.522
61773SOL    HW185345  12.580   4.763   3.542
61773SOL    HW285346  12.551   4.654   3.425
61774SOL     OW85347  11.987   4.296   2.187
61774SOL    HW185348  11.994   4.207   2.141
61774SOL    HW285349  11.893   4.330   2.179
61775SOL     OW85350  11.424   5.288   3.606
61775SOL    HW185351  11.394   5.345   3.682
61775SOL    HW285352  11.417   5.191   3.632
61776SOL     OW85353  11.843   4.188   3.131
61776SOL    HW185354  11.809   4.099   3.101
61776SOL    HW285355  11.869   4.242   3.051
61777SOL     OW85356  12.102   5.402   3.327
61777SOL    HW185357  12.078   5.384   3.232
61777SOL    HW285358  12.132   5.496   3.337
61778SOL     OW85359  11.645   4.224   2.053
61778SOL    HW185360  11.706   4.304   2.057
61778SOL    HW285361  11.550   4.255   2.060
61779SOL     OW85362  11.331   4.861   3.328
61779SOL    HW185363  11.353   4.800   3.404
61779SOL    HW285364  11.341   4.812   3.242
61780SOL     OW85365  12.519   4.783   3.096
61780SOL    HW185366  12.543   4.720   3.022
61780SOL    HW285367  12.429   4.823   3.078
61781SOL     OW85368  12.474   4.579   2.171
61781SOL    HW185369  12.388   4.548   2.213
61781SOL    HW285370  12.470   4.565   2.072
61782SOL     OW85371  12.424   5.455   2.990
61782SOL    HW185372  12.508   5.460   2.936
61782SOL    HW285373  12.401   5.359   3.008
61783SOL     OW85374  11.255   4.982   2.884
61783SOL    HW185375  11.250   4.981   2.984
61783SOL    HW285376  11.172   4.941   2.846
61784SOL     OW85377  11.860   5.386   3.578
61784SOL    HW185378  11.804   5.467   3.587
61784SOL    HW285379  11.912   5.390   3.492
61785SOL     OW85380  12.898   3.859   2.385
61785SOL    HW185381  12.971   3.842   2.318
61785SOL    HW285382  12.867   3.772   2.423
61786SOL     OW85383  12.560   5.297   2.339
61786SOL    HW185384  12.627   5.309   2.265
61786SOL    HW285385  12.520   5.386   2.362
61787SOL     OW85386  11.302   5.518   3.713
61787SOL    HW185387  11.261   5.444   3.766
61787SOL    HW285388  11.366   5.569   3.771
61788SOL     OW85389  12.452   4.651   2.534
61788SOL    HW185390  12.512   4.570   2.536
61788SOL    HW285391  12.492   4.720   2.474
61789SOL     OW85392  12.002   4.997   3.284
61789SOL    HW185393  11.997   5.030   3.379
61789SOL    HW285394  11.916   5.016   3.238
61790SOL     OW85395  11.844   5.340   2.016
61790SOL    HW185396  11.853   5.350   1.917
61790SOL    HW285397  11.804   5.251   2.037
61791SOL     OW85398  11.435   4.050   2.582
61791SOL    HW185399  11.356   4.101   2.548
61791SOL    HW285400  11.426   4.035   2.680
61792SOL     OW85401  12.366   5.336   1.893
61792SOL    HW185402  12.372   5.243   1.930
61792SOL    HW285403  12.307   5.336   1.813
61793SOL     OW85404  11.994   4.726   3.234
61793SOL    HW185405  12.034   4.725   3.142
61793SOL    HW285406  12.004   4.818   3.274
61794SOL     OW85407  12.088   4.634   2.153
61794SOL    HW185408  12.151   4.672   2.085
61794SOL    HW285409  12.128   4.551   2.192
61795SOL     OW85410  11.544   5.012   3.352
61795SOL    HW185411  11.531   5.105   3.318
61795SOL    HW285412  11.460   4.960   3.339
61796SOL     OW85413  12.211   4.822   2.558
61796SOL    HW185414  12.141   4.775   2.612
61796SOL    HW285415  12.270   4.754   2.515
61797SOL     OW85416  12.186   3.960   2.833
61797SOL    HW185417  12.178   3.924   2.740
61797SOL    HW285418  12.184   3.884   2.898
61798SOL     OW85419  11.762   5.211   2.353
61798SOL    HW185420  11.804   5.153   2.283
61798SOL    HW285421  11.718   5.290   2.309
61799SOL     OW85422  11.427   5.072   2.152
61799SOL    HW185423  11.331   5.073   2.125
61799SOL    HW285424  11.439   5.125   2.236
61800SOL     OW85425  11.277   4.737   3.588
61800SOL    HW185426  11.200   4.704   3.642
61800SOL    HW285427  11.362   4.707   3.630
61801SOL     OW85428  11.844   3.927   3.351
61801SOL    HW185429  11.934   3.911   3.311
61801SOL    HW285430  11.852   3.932   3.450
61802SOL     OW85431  11.247   4.069   1.895
61802SOL    HW185432  11.155   4.041   1.866
61802SOL    HW285433  11.278   4.146   1.839
61803SOL     OW85434  12.612   4.580   3.260
61803SOL    HW185435  12.555   4.632   3.197
61803SOL    HW285436  12.708   4.592   3.236
61804SOL     OW85437  11.244   3.890   2.180
61804SOL    HW185438  11.227   3.973   2.126
61804SOL    HW285439  11.334   3.853   2.158
61805SOL     OW85440  12.355   5.059   1.981
61805SOL    HW185441  12.256   5.048   1.983
61805SOL    HW285442  12.389   5.074   2.074
61806SOL     OW85443  11.785   4.566   3.293
61806SOL    HW185444  11.841   4.647   3.276
61806SOL    HW285445  11.844   4.486   3.296
61807SOL     OW85446  11.888   4.289   3.570
61807SOL    HW185447  11.907   4.354   3.644
61807SOL    HW285448  11.948   4.209   3.579
61808SOL     OW85449  12.622   4.944   3.495
61808SOL    HW185450  12.613   4.934   3.594
61808SOL    HW285451  12.718   4.937   3.469
61809SOL     OW85452  11.562   5.465   3.422
61809SOL    HW185453  11.471   5.506   3.420
61809SOL    HW285454  11.555   5.371   3.454
61810SOL     OW85455  12.397   4.049   2.311
61810SOL    HW185456  12.462   3.975   2.300
61810SOL    HW285457  12.417   4.099   2.395
61811SOL     OW85458  11.766   4.469   2.514
61811SOL    HW185459  11.816   4.554   2.495
61811SOL    HW285460  11.678   4.471   2.466
61812SOL     OW85461  12.031   5.098   1.878
61812SOL    HW185462  11.985   5.113   1.966
61812SOL    HW285463  12.075   5.183   1.848
61813SOL     OW85464  11.833   5.514   2.815
61813SOL    HW185465  11.787   5.602   2.802
61813SOL    HW285466  11.932   5.526   2.808
61814SOL     OW85467  12.031   4.680   2.723
61814SOL    HW185468  12.085   4.611   2.771
61814SOL    HW285469  11.999   4.749   2.789
61815SOL     OW85470  12.255   4.708   1.949
61815SOL    HW185471  12.232   4.761   1.867
61815SOL    HW285472  12.336   4.652   1.930
61816SOL     OW85473  11.393   5.038   3.706
61816SOL    HW185474  11.328   4.965   3.685
61816SOL    HW285475  11.397   5.052   3.804
61817SOL     OW85476  11.251   4.964   2.515
61817SOL    HW185477  11.250   4.917   2.603
61817SOL    HW285478  11.333   4.936   2.464
61818SOL     OW85479  11.844   5.115   3.486
61818SOL    HW185480  11.766   5.065   3.524
61818SOL    HW285481  11.841   5.210   3.517
61819SOL     OW85482  11.600   4.148   2.382
61819SOL    HW185483  11.630   4.076   2.320
61819SOL    HW285484  11.561   4.108   2.465
61820SOL     OW85485  12.877   5.211   2.966
61820SOL    HW185486  12.784   5.186   2.939
61820SOL    HW285487  12.903   5.161   3.048
61821SOL     OW85488  11.489   4.271   3.142
61821SOL    HW185489  11.527   4.212   3.214
61821SOL    HW285490  11.529   4.245   3.054
61822SOL     OW85491  11.984   5.310   2.549
61822SOL    HW185492  12.016   5.320   2.455
61822SOL    HW285493  11.905   5.248   2.551
61823SOL     OW85494  12.596   3.938   2.974
61823SOL    HW185495  12.648   3.873   3.029
61823SOL    HW285496  12.547   4.001   3.035
61824SOL     OW85497  12.173   3.758   3.016
61824SOL    HW185498  12.110   3.686   2.985
61824SOL    HW285499  12.266   3.722   3.016
61825SOL     OW85500  11.942   5.054   2.163
61825SOL    HW185501  11.896   4.967   2.180
61825SOL    HW285502  12.033   5.051   2.204
61826SOL     OW85503  11.790   5.291   3.146
61826SOL    HW185504  11.785   5.373   3.203
61826SOL    HW285505  11.879   5.288   3.101
61827SOL     OW85506  12.524   3.776   2.030
61827SOL    HW185507  12.559   3.735   1.946
61827SOL    HW285508  12.434   3.738   2.050
61828SOL     OW85509  12.472   4.177   2.553
61828SOL    HW185510  12.413   4.257   2.557
61828SOL    HW285511  12.487   4.142   2.646
61829SOL     OW85512  11.211   4.801   2.162
61829SOL    HW185513  11.310   4.790   2.153
61829SOL    HW285514  11.171   4.715   2.194
61830SOL     OW85515  12.047   5.370   2.199
61830SOL    HW185516  11.970   5.335   2.145
61830SOL    HW285517  12.015   5.441   2.261
61831SOL     OW85518  11.402   4.352   3.837
61831SOL    HW185519  11.309   4.350   3.874
61831SOL    HW285520  11.403   4.313   3.745
61832SOL     OW85521  11.397   3.999   4.720
61832SOL    HW185522  11.432   3.982   4.812
61832SOL    HW285523  11.309   3.954   4.708
61833SOL     OW85524  11.191   4.092   4.371
61833SOL    HW185525  11.109   4.135   4.410
61833SOL    HW285526  11.163   4.019   4.308
61834SOL     OW85527  11.741   4.999   4.889
61834SOL    HW185528  11.648   4.992   4.852
61834SOL    HW285529  11.752   5.088   4.933
61835SOL     OW85530  12.727   5.235   4.427
61835SOL    HW185531  12.670   5.219   4.508
61835SOL    HW285532  12.668   5.245   4.347
61836SOL     OW85533  12.307   4.427   4.441
61836SOL    HW185534  12.364   4.505   4.416
61836SOL    HW285535  12.247   4.453   4.517
61837SOL     OW85536  11.940   4.868   4.747
61837SOL    HW185537  11.862   4.885   4.807
61837SOL    HW285538  11.974   4.955   4.711
61838SOL     OW85539  12.022   4.522   5.547
61838SOL    HW185540  12.018   4.598   5.612
61838SOL    HW285541  12.044   4.558   5.456
61839SOL     OW85542  11.857   4.736   4.389
61839SOL    HW185543  11.926   4.720   4.459
61839SOL    HW285544  11.784   4.793   4.427
61840SOL     OW85545  11.858   4.885   5.527
61840SOL    HW185546  11.918   4.964   5.541
61840SOL    HW285547  11.772   4.916   5.486
61841SOL     OW85548  11.507   5.159   4.785
61841SOL    HW185549  11.429   5.128   4.732
61841SOL    HW285550  11.565   5.217   4.728
61842SOL     OW85551  11.610   4.116   5.223
61842SOL    HW185552  11.692   4.060   5.232
61842SOL    HW285553  11.529   4.058   5.227
61843SOL     OW85554  11.403   5.437   4.207
61843SOL    HW185555  11.437   5.514   4.261
61843SOL    HW285556  11.447   5.437   4.117
61844SOL     OW85557  12.299   5.065   5.414
61844SOL    HW185558  12.346   5.065   5.502
61844SOL    HW285559  12.251   4.978   5.403
61845SOL     OW85560  11.402   5.158   4.262
61845SOL    HW185561  11.376   5.254   4.262
61845SOL    HW285562  11.331   5.104   4.307
61846SOL     OW85563  11.412   4.815   4.610
61846SOL    HW185564  11.426   4.731   4.662
61846SOL    HW285565  11.357   4.879   4.665
61847SOL     OW85566  11.792   5.510   5.163
61847SOL    HW185567  11.700   5.493   5.198
61847SOL    HW285568  11.820   5.602   5.189
61848SOL     OW85569  11.778   4.688   3.847
61848SOL    HW185570  11.785   4.772   3.793
61848SOL    HW285571  11.824   4.701   3.935
61849SOL     OW85572  11.294   4.367   4.287
61849SOL    HW185573  11.249   4.279   4.304
61849SOL    HW285574  11.293   4.421   4.371
61850SOL     OW85575  11.199   5.320   3.841
61850SOL    HW185576  11.180   5.224   3.862
61850SOL    HW285577  11.166   5.378   3.916
61851SOL     OW85578  12.861   4.646   4.336
61851SOL    HW185579  12.956   4.617   4.344
61851SOL    HW285580  12.853   4.711   4.261
61852SOL     OW85581  11.285   4.461   5.321
61852SOL    HW185582  11.373   4.448   5.366
61852SOL    HW285583  11.272   4.558   5.299
61853SOL     OW85584  11.785   5.089   4.450
61853SOL    HW185585  11.736   5.002   4.459
61853SOL    HW285586  11.762   5.132   4.363
61854SOL     OW85587  12.465   4.952   5.147
61854SOL    HW185588  12.502   4.879   5.089
61854SOL    HW285589  12.517   4.957   5.232
61855SOL     OW85590  11.981   3.728   4.226
61855SOL    HW185591  12.021   3.819   4.217
61855SOL    HW285592  11.881   3.736   4.232
61856SOL     OW85593  11.369   4.700   4.988
61856SOL    HW185594  11.458   4.655   4.974
61856SOL    HW285595  11.296   4.635   4.969
61857SOL     OW85596  12.359   5.516   5.340
61857SOL    HW185597  12.383   5.576   5.264
61857SOL    HW285598  12.366   5.421   5.310
61858SOL     OW85599  11.489   3.975   5.525
61858SOL    HW185600  11.560   4.046   5.531
61858SOL    HW285601  11.401   4.014   5.553
61859SOL     OW85602  12.638   5.141   4.677
61859SOL    HW185603  12.579   5.147   4.757
61859SOL    HW285604  12.623   5.053   4.631
61860SOL     OW85605  11.770   4.453   3.994
61860SOL    HW185606  11.794   4.522   3.926
61860SOL    HW285607  11.692   4.486   4.048
61861SOL     OW85608  12.453   4.069   4.668
61861SOL    HW185609  12.367   4.019   4.655
61861SOL    HW285610  12.515   4.015   4.724
61862SOL     OW85611  11.979   4.329   5.189
61862SOL    HW185612  11.932   4.326   5.278
61862SOL    HW285613  11.928   4.274   5.123
61863SOL     OW85614  12.566   4.193   5.398
61863SOL    HW185615  12.546   4.236   5.486
61863SOL    HW285616  12.644   4.131   5.407
61864SOL     OW85617  12.145   4.614   5.296
61864SOL    HW185618  12.191   4.530   5.267
61864SOL    HW285619  12.089   4.648   5.221
61865SOL     OW85620  12.163   4.134   4.966
61865SOL    HW185621  12.086   4.168   5.020
61865SOL    HW285622  12.129   4.083   4.887
61866SOL     OW85623  12.213   4.425   4.153
61866SOL    HW185624  12.239   4.421   4.249
61866SOL    HW285625  12.128   4.374   4.139
61867SOL     OW85626  11.248   4.535   4.513
61867SOL    HW185627  11.347   4.523   4.522
61867SOL    HW285628  11.224   4.630   4.534
61868SOL     OW85629  11.302   5.545   5.295
61868SOL    HW185630  11.292   5.530   5.394
61868SOL    HW285631  11.216   5.581   5.259
61869SOL     OW85632  12.037   4.072   3.919
61869SOL    HW185633  12.096   4.135   3.870
61869SOL    HW285634  12.056   3.978   3.890
61870SOL     OW85635  12.534   4.868   4.269
61870SOL    HW185636  12.617   4.839   4.221
61870SOL    HW285637  12.485   4.935   4.213
61871SOL     OW85638  11.722   3.920   4.609
61871SOL    HW185639  11.717   3.915   4.709
61871SOL    HW285640  11.724   4.016   4.580
61872SOL     OW85641  12.180   5.180   4.201
61872SOL    HW185642  12.134   5.252   4.149
61872SOL    HW285643  12.176   5.200   4.299
61873SOL     OW85644  11.523   5.525   4.577
61873SOL    HW185645  11.573   5.439   4.583
61873SOL    HW285646  11.588   5.602   4.574
61874SOL     OW85647  12.399   5.274   5.230
61874SOL    HW185648  12.405   5.197   5.294
61874SOL    HW285649  12.347   5.248   5.150
61875SOL     OW85650  11.493   4.667   3.966
61875SOL    HW185651  11.575   4.706   3.924
61875SOL    HW285652  11.466   4.585   3.917
61876SOL     OW85653  11.633   4.990   5.451
61876SOL    HW185654  11.583   4.991   5.365
61876SOL    HW285655  11.570   4.972   5.527
61877SOL     OW85656  12.283   5.500   3.961
61877SOL    HW185657  12.223   5.438   4.011
61877SOL    HW285658  12.314   5.456   3.876
61878SOL     OW85659  11.374   4.009   5.222
61878SOL    HW185660  11.294   4.069   5.209
61878SOL    HW285661  11.364   3.960   5.308
61879SOL     OW85662  11.636   5.467   4.047
61879SOL    HW185663  11.669   5.506   4.133
61879SOL    HW285664  11.712   5.460   3.982
61880SOL     OW85665  12.572   3.831   4.150
61880SOL    HW185666  12.548   3.794   4.060
61880SOL    HW285667  12.671   3.847   4.154
61881SOL     OW85668  11.421   5.509   4.965
61881SOL    HW185669  11.478   5.444   5.015
61881SOL    HW285670  11.405   5.476   4.872
61882SOL     OW85671  12.112   5.422   4.628
61882SOL    HW185672  12.192   5.365   4.649
61882SOL    HW285673  12.063   5.382   4.551
61883SOL     OW85674  11.554   4.424   4.204
61883SOL    HW185675  11.599   4.334   4.201
61883SOL    HW285676  11.460   4.413   4.237
61884SOL     OW85677  11.786   3.846   3.841
61884SOL    HW185678  11.884   3.824   3.848
61884SOL    HW285679  11.755   3.829   3.748
61885SOL     OW85680  11.953   3.988   5.473
61885SOL    HW185681  12.020   3.927   5.516
61885SOL    HW285682  11.880   4.007   5.538
61886SOL     OW85683  12.060   5.238   4.919
61886SOL    HW185684  12.037   5.213   4.825
61886SOL    HW285685  12.121   5.169   4.958
61887SOL     OW85686  12.523   4.314   5.157
61887SOL    HW185687  12.551   4.271   5.242
61887SOL    HW285688  12.548   4.410   5.158
61888SOL     OW85689  11.975   5.126   4.648
61888SOL    HW185690  12.065   5.140   4.606
61888SOL    HW285691  11.904   5.128   4.577
61889SOL     OW85692  12.094   4.227   4.623
61889SOL    HW185693  12.069   4.218   4.527
61889SOL    HW285694  12.142   4.145   4.654
61890SOL     OW85695  11.711   3.788   4.236
61890SOL    HW185696  11.630   3.789   4.294
61890SOL    HW285697  11.714   3.871   4.181
61891SOL     OW85698  12.606   4.912   3.765
61891SOL    HW185699  12.638   4.836   3.822
61891SOL    HW285700  12.514   4.939   3.795
61892SOL     OW85701  11.469   3.759   3.895
61892SOL    HW185702  11.518   3.843   3.874
61892SOL    HW285703  11.531   3.694   3.940
61893SOL     OW85704  12.107   3.960   4.204
61893SOL    HW185705  12.059   4.001   4.126
61893SOL    HW285706  12.206   3.958   4.185
61894SOL     OW85707  12.248   4.407   5.188
61894SOL    HW185708  12.168   4.346   5.191
61894SOL    HW285709  12.329   4.354   5.164
61895SOL     OW85710  12.399   5.294   4.517
61895SOL    HW185711  12.420   5.368   4.452
61895SOL    HW285712  12.467   5.294   4.590
61896SOL     OW85713  11.631   4.876   4.465
61896SOL    HW185714  11.560   4.849   4.530
61896SOL    HW285715  11.605   4.848   4.372
61897SOL     OW85716  12.443   5.521   4.315
61897SOL    HW185717  12.487   5.585   4.251
61897SOL    HW285718  12.393   5.573   4.385
61898SOL     OW85719  12.204   4.273   3.740
61898SOL    HW185720  12.163   4.355   3.701
61898SOL    HW285721  12.268   4.299   3.813
61899SOL     OW85722  11.250   4.280   5.110
61899SOL    HW185723  11.342   4.279   5.069
61899SOL    HW285724  11.244   4.354   5.177
61900SOL     OW85725  11.733   3.946   4.871
61900SOL    HW185726  11.771   3.862   4.908
61900SOL    HW285727  11.645   3.965   4.915
61901SOL     OW85728  12.038   4.178   4.366
61901SOL    HW185729  12.006   4.250   4.304
61901SOL    HW285730  12.062   4.097   4.313
61902SOL     OW85731  12.189   3.763   4.477
61902SOL    HW185732  12.117   3.768   4.408
61902SOL    HW285733  12.165   3.694   4.546
61903SOL     OW85734  12.601   4.897   4.591
61903SOL    HW185735  12.546   4.813   4.584
61903SOL    HW285736  12.627   4.926   4.499
61904SOL     OW85737  11.660   5.109   3.898
61904SOL    HW185738  11.573   5.094   3.945
61904SOL    HW285739  11.643   5.135   3.803
61905SOL     OW85740  12.562   4.299   3.802
61905SOL    HW185741  12.508   4.278   3.883
61905SOL    HW285742  12.653   4.258   3.811
61906SOL     OW85743  11.699   3.980   4.052
61906SOL    HW185744  11.726   3.921   3.977
61906SOL    HW285745  11.699   4.075   4.021
61907SOL     OW85746  12.236   5.071   5.064
61907SOL    HW185747  12.156   5.048   5.119
61907SOL    HW285748  12.319   5.045   5.113
61908SOL     OW85749  12.764   5.353   5.349
61908SOL    HW185750  12.791   5.387   5.259
61908SOL    HW285751  12.843   5.315   5.395
61909SOL     OW85752  12.283   4.919   4.824
61909SOL    HW185753  12.243   4.963   4.905
61909SOL    HW285754  12.242   4.956   4.741
61910SOL     OW85755  12.087   3.813   5.126
61910SOL    HW185756  12.112   3.793   5.031
61910SOL    HW285757  12.159   3.869   5.168
61911SOL     OW85758  12.152   4.840   5.443
61911SOL    HW185759  12.053   4.846   5.453
61911SOL    HW285760  12.175   4.760   5.387
61912SOL     OW85761  11.877   4.774   4.092
61912SOL    HW185762  11.863   4.781   4.191
61912SOL    HW285763  11.961   4.723   4.074
61913SOL     OW85764  11.582   4.537   4.975
61913SOL    HW185765  11.668   4.549   5.025
61913SOL    HW285766  11.540   4.450   5.002
61914SOL     OW85767  12.446   4.110   4.986
61914SOL    HW185768  12.467   4.184   5.050
61914SOL    HW285769  12.357   4.127   4.943
61915SOL     OW85770  11.236   5.288   5.055
61915SOL    HW185771  11.190   5.370   5.021
61915SOL    HW285772  11.334   5.307   5.064
61916SOL     OW85773  11.539   4.824   4.225
61916SOL    HW185774  11.532   4.907   4.169
61916SOL    HW285775  11.543   4.744   4.165
61917SOL     OW85776  11.738   4.261   4.589
61917SOL    HW185777  11.750   4.327   4.515
61917SOL    HW285778  11.784   4.295   4.672
61918SOL     OW85779  12.424   5.072   4.112
61918SOL    HW185780  12.474   5.149   4.152
61918SOL    HW285781  12.329   5.074   4.144
61919SOL     OW85782  12.444   5.169   4.866
61919SOL    HW185783  12.491   5.182   4.953
61919SOL    HW285784  12.378   5.095   4.875
61920SOL     OW85785  11.526   5.234   5.053
61920SOL    HW185786  11.505   5.190   4.966
61920SOL    HW285787  11.623   5.260   5.056
61921SOL     OW85788  11.574   4.475   5.322
61921SOL    HW185789  11.642   4.530   5.275
61921SOL    HW285790  11.614   4.387   5.349
61922SOL     OW85791  12.185   3.829   5.494
61922SOL    HW185792  12.191   3.914   5.442
61922SOL    HW285793  12.217   3.753   5.437
61923SOL     OW85794  11.676   3.774   5.464
61923SOL    HW185795  11.634   3.717   5.394
61923SOL    HW285796  11.610   3.843   5.496
61924SOL     OW85797  11.745   4.594   4.753
61924SOL    HW185798  11.789   4.683   4.744
61924SOL    HW285799  11.682   4.594   4.830
61925SOL     OW85800  12.532   4.586   4.769
61925SOL    HW185801  12.457   4.586   4.703
61925SOL    HW285802  12.569   4.494   4.778
61926SOL     OW85803  12.381   4.249   3.999
61926SOL    HW185804  12.394   4.165   4.053
61926SOL    HW285805  12.352   4.323   4.059
61927SOL     OW85806  11.479   3.937   4.955
61927SOL    HW185807  11.456   3.974   5.045
61927SOL    HW285808  11.449   3.842   4.949
61928SOL     OW85809  11.209   5.034   5.006
61928SOL    HW185810  11.262   4.985   5.074
61928SOL    HW285811  11.231   5.132   5.011
61929SOL     OW85812  11.904   4.358   4.788
61929SOL    HW185813  11.963   4.332   4.712
61929SOL    HW285814  11.876   4.454   4.777
61930SOL     OW85815  11.479   3.787   4.342
61930SOL    HW185816  11.468   3.881   4.375
61930SOL    HW285817  11.474   3.724   4.419
61931SOL     OW85818  12.794   4.091   4.098
61931SOL    HW185819  12.796   4.015   4.162
61931SOL    HW285820  12.746   4.168   4.138
61932SOL     OW85821  12.195   4.490   4.690
61932SOL    HW185822  12.210   4.511   4.786
61932SOL    HW285823  12.165   4.395   4.681
61933SOL     OW85824  12.152   5.297   5.424
61933SOL    HW185825  12.132   5.341   5.336
61933SOL    HW285826  12.191   5.206   5.408
61934SOL     OW85827  11.522   4.622   5.528
61934SOL    HW185828  11.598   4.666   5.576
61934SOL    HW285829  11.557   4.575   5.446
61935SOL     OW85830  12.475   4.562   3.766
61935SOL    HW185831  12.509   4.469   3.781
61935SOL    HW285832  12.493   4.589   3.671
61936SOL     OW85833  12.240   5.057   4.573
61936SOL    HW185834  12.247   4.973   4.518
61936SOL    HW285835  12.302   5.126   4.537
61937SOL     OW85836  11.491   4.534   4.673
61937SOL    HW185837  11.584   4.570   4.678
61937SOL    HW285838  11.485   4.449   4.725
61938SOL     OW85839  11.511   4.233   4.730
61938SOL    HW185840  11.459   4.150   4.713
61938SOL    HW285841  11.588   4.238   4.666
61939SOL     OW85842  12.310   4.104   5.402
61939SOL    HW185843  12.265   4.167   5.466
61939SOL    HW285844  12.403   4.135   5.385
61940SOL     OW85845  12.332   3.931   5.201
61940SOL    HW185846  12.332   3.995   5.278
61940SOL    HW285847  12.360   3.979   5.118
61941SOL     OW85848  11.180   5.050   3.924
61941SOL    HW185849  11.087   5.071   3.893
61941SOL    HW285850  11.190   4.951   3.937
61942SOL     OW85851  11.260   5.525   4.651
61942SOL    HW185852  11.218   5.439   4.624
61942SOL    HW285853  11.354   5.528   4.617
61943SOL     OW85854  11.676   5.292   4.634
61943SOL    HW185855  11.742   5.366   4.643
61943SOL    HW285856  11.720   5.213   4.592
61944SOL     OW85857  12.174   4.520   4.962
61944SOL    HW185858  12.215   4.488   5.048
61944SOL    HW285859  12.078   4.493   4.959
61945SOL     OW85860  11.212   4.268   4.838
61945SOL    HW185861  11.297   4.235   4.797
61945SOL    HW285862  11.225   4.283   4.936
61946SOL     OW85863  11.361   4.244   5.446
61946SOL    HW185864  11.420   4.204   5.376
61946SOL    HW285865  11.303   4.315   5.405
61947SOL     OW85866  12.541   4.674   5.384
61947SOL    HW185867  12.580   4.763   5.404
61947SOL    HW285868  12.551   4.654   5.287
61948SOL     OW85869  11.987   4.296   4.049
61948SOL    HW185870  11.994   4.207   4.003
61948SOL    HW285871  11.893   4.330   4.041
61949SOL     OW85872  11.424   5.288   5.468
61949SOL    HW185873  11.394   5.345   5.544
61949SOL    HW285874  11.417   5.191   5.494
61950SOL     OW85875  11.843   4.188   4.993
61950SOL    HW185876  11.809   4.099   4.963
61950SOL    HW285877  11.869   4.242   4.913
61951SOL     OW85878  12.102   5.402   5.189
61951SOL    HW185879  12.078   5.384   5.094
61951SOL    HW285880  12.132   5.496   5.199
61952SOL     OW85881  11.645   4.224   3.915
61952SOL    HW185882  11.706   4.304   3.919
61952SOL    HW285883  11.550   4.255   3.922
61953SOL     OW85884  11.331   4.861   5.190
61953SOL    HW185885  11.353   4.800   5.266
61953SOL    HW285886  11.341   4.812   5.104
61954SOL     OW85887  12.519   4.783   4.958
61954SOL    HW185888  12.543   4.720   4.884
61954SOL    HW285889  12.429   4.823   4.940
61955SOL     OW85890  12.474   4.579   4.033
61955SOL    HW185891  12.388   4.548   4.075
61955SOL    HW285892  12.470   4.565   3.934
61956SOL     OW85893  12.424   5.455   4.852
61956SOL    HW185894  12.508   5.460   4.798
61956SOL    HW285895  12.401   5.359   4.870
61957SOL     OW85896  11.255   4.982   4.746
61957SOL    HW185897  11.250   4.981   4.846
61957SOL    HW285898  11.172   4.941   4.708
61958SOL     OW85899  11.860   5.386   5.440
61958SOL    HW185900  11.804   5.467   5.449
61958SOL    HW285901  11.912   5.390   5.354
61959SOL     OW85902  12.898   3.859   4.247
61959SOL    HW185903  12.971   3.842   4.180
61959SOL    HW285904  12.867   3.772   4.285
61960SOL     OW85905  12.560   5.297   4.201
61960SOL    HW185906  12.627   5.309   4.127
61960SOL    HW285907  12.520   5.386   4.224
61961SOL     OW85908  11.302   5.518   5.575
61961SOL    HW185909  11.261   5.444   5.628
61961SOL    HW285910  11.366   5.569   5.633
61962SOL     OW85911  12.452   4.651   4.396
61962SOL    HW185912  12.512   4.570   4.398
61962SOL    HW285913  12.492   4.720   4.336
61963SOL     OW85914  12.002   4.997   5.146
61963SOL    HW185915  11.997   5.030   5.241
61963SOL    HW285916  11.916   5.016   5.100
61964SOL     OW85917  11.844   5.340   3.878
61964SOL    HW185918  11.853   5.350   3.779
61964SOL    HW285919  11.804   5.251   3.899
61965SOL     OW85920  11.435   4.050   4.444
61965SOL    HW185921  11.356   4.101   4.410
61965SOL    HW285922  11.426   4.035   4.542
61966SOL     OW85923  12.366   5.336   3.755
61966SOL    HW185924  12.372   5.243   3.792
61966SOL    HW285925  12.307   5.336   3.675
61967SOL     OW85926  11.994   4.726   5.096
61967SOL    HW185927  12.034   4.725   5.004
61967SOL    HW285928  12.004   4.818   5.136
61968SOL     OW85929  12.088   4.634   4.015
61968SOL    HW185930  12.151   4.672   3.947
61968SOL    HW285931  12.128   4.551   4.054
61969SOL     OW85932  11.544   5.012   5.214
61969SOL    HW185933  11.531   5.105   5.180
61969SOL    HW285934  11.460   4.960   5.201
61970SOL     OW85935  12.211   4.822   4.420
61970SOL    HW185936  12.141   4.775   4.474
61970SOL    HW285937  12.270   4.754   4.377
61971SOL     OW85938  12.186   3.960   4.695
61971SOL    HW185939  12.178   3.924   4.602
61971SOL    HW285940  12.184   3.884   4.760
61972SOL     OW85941  11.762   5.211   4.215
61972SOL    HW185942  11.804   5.153   4.145
61972SOL    HW285943  11.718   5.290   4.171
61973SOL     OW85944  11.427   5.072   4.014
61973SOL    HW185945  11.331   5.073   3.987
61973SOL    HW285946  11.439   5.125   4.098
61974SOL     OW85947  11.277   4.737   5.450
61974SOL    HW185948  11.200   4.704   5.504
61974SOL    HW285949  11.362   4.707   5.492
61975SOL     OW85950  11.844   3.927   5.213
61975SOL    HW185951  11.934   3.911   5.173
61975SOL    HW285952  11.852   3.932   5.312
61976SOL     OW85953  11.247   4.069   3.757
61976SOL    HW185954  11.155   4.041   3.728
61976SOL    HW285955  11.278   4.146   3.701
61977SOL     OW85956  12.612   4.580   5.122
61977SOL    HW185957  12.555   4.632   5.059
61977SOL    HW285958  12.708   4.592   5.098
61978SOL     OW85959  11.244   3.890   4.042
61978SOL    HW185960  11.227   3.973   3.988
61978SOL    HW285961  11.334   3.853   4.020
61979SOL     OW85962  12.355   5.059   3.843
61979SOL    HW185963  12.256   5.048   3.845
61979SOL    HW285964  12.389   5.074   3.936
61980SOL     OW85965  11.785   4.566   5.155
61980SOL    HW185966  11.841   4.647   5.138
61980SOL    HW285967  11.844   4.486   5.158
61981SOL     OW85968  11.888   4.289   5.432
61981SOL    HW185969  11.907   4.354   5.506
61981SOL    HW285970  11.948   4.209   5.441
61982SOL     OW85971  12.622   4.944   5.357
61982SOL    HW185972  12.613   4.934   5.456
61982SOL    HW285973  12.718   4.937   5.331
61983SOL     OW85974  11.562   5.465   5.284
61983SOL    HW185975  11.471   5.506   5.282
61983SOL    HW285976  11.555   5.371   5.316
61984SOL     OW85977  12.397   4.049   4.173
61984SOL    HW185978  12.462   3.975   4.162
61984SOL    HW285979  12.417   4.099   4.257
61985SOL     OW85980  11.766   4.469   4.376
61985SOL    HW185981  11.816   4.554   4.357
61985SOL    HW285982  11.678   4.471   4.328
61986SOL     OW85983  12.031   5.098   3.740
61986SOL    HW185984  11.985   5.113   3.828
61986SOL    HW285985  12.075   5.183   3.710
61987SOL     OW85986  11.833   5.514   4.677
61987SOL    HW185987  11.787   5.602   4.664
61987SOL    HW285988  11.932   5.526   4.670
61988SOL     OW85989  12.031   4.680   4.585
61988SOL    HW185990  12.085   4.611   4.633
61988SOL    HW285991  11.999   4.749   4.651
61989SOL     OW85992  12.255   4.708   3.811
61989SOL    HW185993  12.232   4.761   3.729
61989SOL    HW285994  12.336   4.652   3.792
61990SOL     OW85995  11.393   5.038   5.568
61990SOL    HW185996  11.328   4.965   5.547
61990SOL    HW285997  11.397   5.052   5.666
61991SOL     OW85998  11.251   4.964   4.377
61991SOL    HW185999  11.250   4.917   4.465
61991SOL    HW286000  11.333   4.936   4.326
61992SOL     OW86001  11.844   5.115   5.348
61992SOL    HW186002  11.766   5.065   5.386
61992SOL    HW286003  11.841   5.210   5.379
61993SOL     OW86004  11.600   4.148   4.244
61993SOL    HW186005  11.630   4.076   4.182
61993SOL    HW286006  11.561   4.108   4.327
61994SOL     OW86007  12.877   5.211   4.828
61994SOL    HW186008  12.784   5.186   4.801
61994SOL    HW286009  12.903   5.161   4.910
61995SOL     OW86010  11.489   4.271   5.004
61995SOL    HW186011  11.527   4.212   5.076
61995SOL    HW286012  11.529   4.245   4.916
61996SOL     OW86013  11.984   5.310   4.411
61996SOL    HW186014  12.016   5.320   4.317
61996SOL    HW286015  11.905   5.248   4.413
61997SOL     OW86016  12.596   3.938   4.836
61997SOL    HW186017  12.648   3.873   4.891
61997SOL    HW286018  12.547   4.001   4.897
61998SOL     OW86019  12.173   3.758   4.878
61998SOL    HW186020  12.110   3.686   4.847
61998SOL    HW286021  12.266   3.722   4.878
61999SOL     OW86022  11.942   5.054   4.025
61999SOL    HW186023  11.896   4.967   4.042
61999SOL    HW286024  12.033   5.051   4.066
62000SOL     OW86025  11.790   5.291   5.008
62000SOL    HW186026  11.785   5.373   5.065
62000SOL    HW286027  11.879   5.288   4.963
62001SOL     OW86028  12.524   3.776   3.892
62001SOL    HW186029  12.559   3.735   3.808
62001SOL    HW286030  12.434   3.738   3.912
62002SOL     OW86031  12.472   4.177   4.415
62002SOL    HW186032  12.413   4.257   4.419
62002SOL    HW286033  12.487   4.142   4.508
62003SOL     OW86034  11.211   4.801   4.024
62003SOL    HW186035  11.310   4.790   4.015
62003SOL    HW286036  11.171   4.715   4.056
62004SOL     OW86037  12.047   5.370   4.061
62004SOL    HW186038  11.970   5.335   4.007
62004SOL    HW286039  12.015   5.441   4.123
62005SOL     OW86040  11.402   4.352   5.699
62005SOL    HW186041  11.309   4.350   5.736
62005SOL    HW286042  11.403   4.313   5.607
62006SOL     OW86043  11.397   3.999   6.582
62006SOL    HW186044  11.432   3.982   6.674
62006SOL    HW286045  11.309   3.954   6.570
62007SOL     OW86046  11.191   4.092   6.233
62007SOL    HW186047  11.109   4.135   6.272
62007SOL    HW286048  11.163   4.019   6.170
62008SOL     OW86049  11.741   4.999   6.751
62008SOL    HW186050  11.648   4.992   6.714
62008SOL    HW286051  11.752   5.088   6.795
62009SOL     OW86052  12.727   5.235   6.289
62009SOL    HW186053  12.670   5.219   6.370
62009SOL    HW286054  12.668   5.245   6.209
62010SOL     OW86055  12.307   4.427   6.303
62010SOL    HW186056  12.364   4.505   6.278
62010SOL    HW286057  12.247   4.453   6.379
62011SOL     OW86058  11.940   4.868   6.609
62011SOL    HW186059  11.862   4.885   6.669
62011SOL    HW286060  11.974   4.955   6.573
62012SOL     OW86061  12.022   4.522   7.409
62012SOL    HW186062  12.018   4.598   7.474
62012SOL    HW286063  12.044   4.558   7.318
62013SOL     OW86064  11.857   4.736   6.251
62013SOL    HW186065  11.926   4.720   6.321
62013SOL    HW286066  11.784   4.793   6.289
62014SOL     OW86067  11.858   4.885   7.389
62014SOL    HW186068  11.918   4.964   7.403
62014SOL    HW286069  11.772   4.916   7.348
62015SOL     OW86070  11.507   5.159   6.647
62015SOL    HW186071  11.429   5.128   6.594
62015SOL    HW286072  11.565   5.217   6.590
62016SOL     OW86073  11.610   4.116   7.085
62016SOL    HW186074  11.692   4.060   7.094
62016SOL    HW286075  11.529   4.058   7.089
62017SOL     OW86076  11.403   5.437   6.069
62017SOL    HW186077  11.437   5.514   6.123
62017SOL    HW286078  11.447   5.437   5.979
62018SOL     OW86079  12.299   5.065   7.276
62018SOL    HW186080  12.346   5.065   7.364
62018SOL    HW286081  12.251   4.978   7.265
62019SOL     OW86082  11.402   5.158   6.124
62019SOL    HW186083  11.376   5.254   6.124
62019SOL    HW286084  11.331   5.104   6.169
62020SOL     OW86085  11.412   4.815   6.472
62020SOL    HW186086  11.426   4.731   6.524
62020SOL    HW286087  11.357   4.879   6.527
62021SOL     OW86088  11.792   5.510   7.025
62021SOL    HW186089  11.700   5.493   7.060
62021SOL    HW286090  11.820   5.602   7.051
62022SOL     OW86091  11.778   4.688   5.709
62022SOL    HW186092  11.785   4.772   5.655
62022SOL    HW286093  11.824   4.701   5.797
62023SOL     OW86094  11.294   4.367   6.149
62023SOL    HW186095  11.249   4.279   6.166
62023SOL    HW286096  11.293   4.421   6.233
62024SOL     OW86097  11.199   5.320   5.703
62024SOL    HW186098  11.180   5.224   5.724
62024SOL    HW286099  11.166   5.378   5.778
62025SOL     OW86100  12.861   4.646   6.198
62025SOL    HW186101  12.956   4.617   6.206
62025SOL    HW286102  12.853   4.711   6.123
62026SOL     OW86103  11.285   4.461   7.183
62026SOL    HW186104  11.373   4.448   7.228
62026SOL    HW286105  11.272   4.558   7.161
62027SOL     OW86106  11.785   5.089   6.312
62027SOL    HW186107  11.736   5.002   6.321
62027SOL    HW286108  11.762   5.132   6.225
62028SOL     OW86109  12.465   4.952   7.009
62028SOL    HW186110  12.502   4.879   6.951
62028SOL    HW286111  12.517   4.957   7.094
62029SOL     OW86112  11.981   3.728   6.088
62029SOL    HW186113  12.021   3.819   6.079
62029SOL    HW286114  11.881   3.736   6.094
62030SOL     OW86115  11.369   4.700   6.850
62030SOL    HW186116  11.458   4.655   6.836
62030SOL    HW286117  11.296   4.635   6.831
62031SOL     OW86118  12.359   5.516   7.202
62031SOL    HW186119  12.383   5.576   7.126
62031SOL    HW286120  12.366   5.421   7.172
62032SOL     OW86121  11.489   3.975   7.387
62032SOL    HW186122  11.560   4.046   7.393
62032SOL    HW286123  11.401   4.014   7.415
62033SOL     OW86124  12.638   5.141   6.539
62033SOL    HW186125  12.579   5.147   6.619
62033SOL    HW286126  12.623   5.053   6.493
62034SOL     OW86127  11.770   4.453   5.856
62034SOL    HW186128  11.794   4.522   5.788
62034SOL    HW286129  11.692   4.486   5.910
62035SOL     OW86130  12.453   4.069   6.530
62035SOL    HW186131  12.367   4.019   6.517
62035SOL    HW286132  12.515   4.015   6.586
62036SOL     OW86133  11.979   4.329   7.051
62036SOL    HW186134  11.932   4.326   7.140
62036SOL    HW286135  11.928   4.274   6.985
62037SOL     OW86136  12.566   4.193   7.260
62037SOL    HW186137  12.546   4.236   7.348
62037SOL    HW286138  12.644   4.131   7.269
62038SOL     OW86139  12.145   4.614   7.158
62038SOL    HW186140  12.191   4.530   7.129
62038SOL    HW286141  12.089   4.648   7.083
62039SOL     OW86142  12.163   4.134   6.828
62039SOL    HW186143  12.086   4.168   6.882
62039SOL    HW286144  12.129   4.083   6.749
62040SOL     OW86145  12.213   4.425   6.015
62040SOL    HW186146  12.239   4.421   6.111
62040SOL    HW286147  12.128   4.374   6.001
62041SOL     OW86148  11.248   4.535   6.375
62041SOL    HW186149  11.347   4.523   6.384
62041SOL    HW286150  11.224   4.630   6.396
62042SOL     OW86151  11.302   5.545   7.157
62042SOL    HW186152  11.292   5.530   7.256
62042SOL    HW286153  11.216   5.581   7.121
62043SOL     OW86154  12.037   4.072   5.781
62043SOL    HW186155  12.096   4.135   5.732
62043SOL    HW286156  12.056   3.978   5.752
62044SOL     OW86157  12.534   4.868   6.131
62044SOL    HW186158  12.617   4.839   6.083
62044SOL    HW286159  12.485   4.935   6.075
62045SOL     OW86160  11.722   3.920   6.471
62045SOL    HW186161  11.717   3.915   6.571
62045SOL    HW286162  11.724   4.016   6.442
62046SOL     OW86163  12.180   5.180   6.063
62046SOL    HW186164  12.134   5.252   6.011
62046SOL    HW286165  12.176   5.200   6.161
62047SOL     OW86166  11.523   5.525   6.439
62047SOL    HW186167  11.573   5.439   6.445
62047SOL    HW286168  11.588   5.602   6.436
62048SOL     OW86169  12.399   5.274   7.092
62048SOL    HW186170  12.405   5.197   7.156
62048SOL    HW286171  12.347   5.248   7.012
62049SOL     OW86172  11.493   4.667   5.828
62049SOL    HW186173  11.575   4.706   5.786
62049SOL    HW286174  11.466   4.585   5.779
62050SOL     OW86175  11.633   4.990   7.313
62050SOL    HW186176  11.583   4.991   7.227
62050SOL    HW286177  11.570   4.972   7.389
62051SOL     OW86178  12.283   5.500   5.823
62051SOL    HW186179  12.223   5.438   5.873
62051SOL    HW286180  12.314   5.456   5.738
62052SOL     OW86181  11.374   4.009   7.084
62052SOL    HW186182  11.294   4.069   7.071
62052SOL    HW286183  11.364   3.960   7.170
62053SOL     OW86184  11.636   5.467   5.909
62053SOL    HW186185  11.669   5.506   5.995
62053SOL    HW286186  11.712   5.460   5.844
62054SOL     OW86187  12.572   3.831   6.012
62054SOL    HW186188  12.548   3.794   5.922
62054SOL    HW286189  12.671   3.847   6.016
62055SOL     OW86190  11.421   5.509   6.827
62055SOL    HW186191  11.478   5.444   6.877
62055SOL    HW286192  11.405   5.476   6.734
62056SOL     OW86193  12.112   5.422   6.490
62056SOL    HW186194  12.192   5.365   6.511
62056SOL    HW286195  12.063   5.382   6.413
62057SOL     OW86196  11.554   4.424   6.066
62057SOL    HW186197  11.599   4.334   6.063
62057SOL    HW286198  11.460   4.413   6.099
62058SOL     OW86199  11.786   3.846   5.703
62058SOL    HW186200  11.884   3.824   5.710
62058SOL    HW286201  11.755   3.829   5.610
62059SOL     OW86202  11.953   3.988   7.335
62059SOL    HW186203  12.020   3.927   7.378
62059SOL    HW286204  11.880   4.007   7.400
62060SOL     OW86205  12.060   5.238   6.781
62060SOL    HW186206  12.037   5.213   6.687
62060SOL    HW286207  12.121   5.169   6.820
62061SOL     OW86208  12.523   4.314   7.019
62061SOL    HW186209  12.551   4.271   7.104
62061SOL    HW286210  12.548   4.410   7.020
62062SOL     OW86211  11.975   5.126   6.510
62062SOL    HW186212  12.065   5.140   6.468
62062SOL    HW286213  11.904   5.128   6.439
62063SOL     OW86214  12.094   4.227   6.485
62063SOL    HW186215  12.069   4.218   6.389
62063SOL    HW286216  12.142   4.145   6.516
62064SOL     OW86217  11.711   3.788   6.098
62064SOL    HW186218  11.630   3.789   6.156
62064SOL    HW286219  11.714   3.871   6.043
62065SOL     OW86220  12.606   4.912   5.627
62065SOL    HW186221  12.638   4.836   5.684
62065SOL    HW286222  12.514   4.939   5.657
62066SOL     OW86223  11.469   3.759   5.757
62066SOL    HW186224  11.518   3.843   5.736
62066SOL    HW286225  11.531   3.694   5.802
62067SOL     OW86226  12.107   3.960   6.066
62067SOL    HW186227  12.059   4.001   5.988
62067SOL    HW286228  12.206   3.958   6.047
62068SOL     OW86229  12.248   4.407   7.050
62068SOL    HW186230  12.168   4.346   7.053
62068SOL    HW286231  12.329   4.354   7.026
62069SOL     OW86232  12.399   5.294   6.379
62069SOL    HW186233  12.420   5.368   6.314
62069SOL    HW286234  12.467   5.294   6.452
62070SOL     OW86235  11.631   4.876   6.327
62070SOL    HW186236  11.560   4.849   6.392
62070SOL    HW286237  11.605   4.848   6.234
62071SOL     OW86238  12.443   5.521   6.177
62071SOL    HW186239  12.487   5.585   6.113
62071SOL    HW286240  12.393   5.573   6.247
62072SOL     OW86241  12.204   4.273   5.602
62072SOL    HW186242  12.163   4.355   5.563
62072SOL    HW286243  12.268   4.299   5.675
62073SOL     OW86244  11.250   4.280   6.972
62073SOL    HW186245  11.342   4.279   6.931
62073SOL    HW286246  11.244   4.354   7.039
62074SOL     OW86247  11.733   3.946   6.733
62074SOL    HW186248  11.771   3.862   6.770
62074SOL    HW286249  11.645   3.965   6.777
62075SOL     OW86250  12.038   4.178   6.228
62075SOL    HW186251  12.006   4.250   6.166
62075SOL    HW286252  12.062   4.097   6.175
62076SOL     OW86253  12.189   3.763   6.339
62076SOL    HW186254  12.117   3.768   6.270
62076SOL    HW286255  12.165   3.694   6.408
62077SOL     OW86256  12.601   4.897   6.453
62077SOL    HW186257  12.546   4.813   6.446
62077SOL    HW286258  12.627   4.926   6.361
62078SOL     OW86259  11.660   5.109   5.760
62078SOL    HW186260  11.573   5.094   5.807
62078SOL    HW286261  11.643   5.135   5.665
62079SOL     OW86262  12.562   4.299   5.664
62079SOL    HW186263  12.508   4.278   5.745
62079SOL    HW286264  12.653   4.258   5.673
62080SOL     OW86265  11.699   3.980   5.914
62080SOL    HW186266  11.726   3.921   5.839
62080SOL    HW286267  11.699   4.075   5.883
62081SOL     OW86268  12.236   5.071   6.926
62081SOL    HW186269  12.156   5.048   6.981
62081SOL    HW286270  12.319   5.045   6.975
62082SOL     OW86271  12.764   5.353   7.211
62082SOL    HW186272  12.791   5.387   7.121
62082SOL    HW286273  12.843   5.315   7.257
62083SOL     OW86274  12.283   4.919   6.686
62083SOL    HW186275  12.243   4.963   6.767
62083SOL    HW286276  12.242   4.956   6.603
62084SOL     OW86277  12.087   3.813   6.988
62084SOL    HW186278  12.112   3.793   6.893
62084SOL    HW286279  12.159   3.869   7.030
62085SOL     OW86280  12.152   4.840   7.305
62085SOL    HW186281  12.053   4.846   7.315
62085SOL    HW286282  12.175   4.760   7.249
62086SOL     OW86283  11.877   4.774   5.954
62086SOL    HW186284  11.863   4.781   6.053
62086SOL    HW286285  11.961   4.723   5.936
62087SOL     OW86286  11.582   4.537   6.837
62087SOL    HW186287  11.668   4.549   6.887
62087SOL    HW286288  11.540   4.450   6.864
62088SOL     OW86289  12.446   4.110   6.848
62088SOL    HW186290  12.467   4.184   6.912
62088SOL    HW286291  12.357   4.127   6.805
62089SOL     OW86292  11.236   5.288   6.917
62089SOL    HW186293  11.190   5.370   6.883
62089SOL    HW286294  11.334   5.307   6.926
62090SOL     OW86295  11.539   4.824   6.087
62090SOL    HW186296  11.532   4.907   6.031
62090SOL    HW286297  11.543   4.744   6.027
62091SOL     OW86298  11.738   4.261   6.451
62091SOL    HW186299  11.750   4.327   6.377
62091SOL    HW286300  11.784   4.295   6.534
62092SOL     OW86301  12.424   5.072   5.974
62092SOL    HW186302  12.474   5.149   6.014
62092SOL    HW286303  12.329   5.074   6.006
62093SOL     OW86304  12.444   5.169   6.728
62093SOL    HW186305  12.491   5.182   6.815
62093SOL    HW286306  12.378   5.095   6.737
62094SOL     OW86307  11.526   5.234   6.915
62094SOL    HW186308  11.505   5.190   6.828
62094SOL    HW286309  11.623   5.260   6.918
62095SOL     OW86310  11.574   4.475   7.184
62095SOL    HW186311  11.642   4.530   7.137
62095SOL    HW286312  11.614   4.387   7.211
62096SOL     OW86313  12.185   3.829   7.356
62096SOL    HW186314  12.191   3.914   7.304
62096SOL    HW286315  12.217   3.753   7.299
62097SOL     OW86316  11.676   3.774   7.326
62097SOL    HW186317  11.634   3.717   7.256
62097SOL    HW286318  11.610   3.843   7.358
62098SOL     OW86319  11.745   4.594   6.615
62098SOL    HW186320  11.789   4.683   6.606
62098SOL    HW286321  11.682   4.594   6.692
62099SOL     OW86322  12.532   4.586   6.631
62099SOL    HW186323  12.457   4.586   6.565
62099SOL    HW286324  12.569   4.494   6.640
62100SOL     OW86325  12.381   4.249   5.861
62100SOL    HW186326  12.394   4.165   5.915
62100SOL    HW286327  12.352   4.323   5.921
62101SOL     OW86328  11.479   3.937   6.817
62101SOL    HW186329  11.456   3.974   6.907
62101SOL    HW286330  11.449   3.842   6.811
62102SOL     OW86331  11.209   5.034   6.868
62102SOL    HW186332  11.262   4.985   6.936
62102SOL    HW286333  11.231   5.132   6.873
62103SOL     OW86334  11.904   4.358   6.650
62103SOL    HW186335  11.963   4.332   6.574
62103SOL    HW286336  11.876   4.454   6.639
62104SOL     OW86337  11.479   3.787   6.204
62104SOL    HW186338  11.468   3.881   6.237
62104SOL    HW286339  11.474   3.724   6.281
62105SOL     OW86340  12.794   4.091   5.960
62105SOL    HW186341  12.796   4.015   6.024
62105SOL    HW286342  12.746   4.168   6.000
62106SOL     OW86343  12.195   4.490   6.552
62106SOL    HW186344  12.210   4.511   6.648
62106SOL    HW286345  12.165   4.395   6.543
62107SOL     OW86346  12.152   5.297   7.286
62107SOL    HW186347  12.132   5.341   7.198
62107SOL    HW286348  12.191   5.206   7.270
62108SOL     OW86349  11.522   4.622   7.390
62108SOL    HW186350  11.598   4.666   7.438
62108SOL    HW286351  11.557   4.575   7.308
62109SOL     OW86352  12.475   4.562   5.628
62109SOL    HW186353  12.509   4.469   5.643
62109SOL    HW286354  12.493   4.589   5.533
62110SOL     OW86355  11.491   4.534   6.535
62110SOL    HW186356  11.584   4.570   6.540
62110SOL    HW286357  11.485   4.449   6.587
62111SOL     OW86358  11.511   4.233   6.592
62111SOL    HW186359  11.459   4.150   6.575
62111SOL    HW286360  11.588   4.238   6.528
62112SOL     OW86361  12.310   4.104   7.264
62112SOL    HW186362  12.265   4.167   7.328
62112SOL    HW286363  12.403   4.135   7.247
62113SOL     OW86364  12.332   3.931   7.063
62113SOL    HW186365  12.332   3.995   7.140
62113SOL    HW286366  12.360   3.979   6.980
62114SOL     OW86367  11.180   5.050   5.786
62114SOL    HW186368  11.087   5.071   5.755
62114SOL    HW286369  11.190   4.951   5.799
62115SOL     OW86370  11.260   5.525   6.513
62115SOL    HW186371  11.218   5.439   6.486
62115SOL    HW286372  11.354   5.528   6.479
62116SOL     OW86373  11.676   5.292   6.496
62116SOL    HW186374  11.742   5.366   6.505
62116SOL    HW286375  11.720   5.213   6.454
62117SOL     OW86376  12.174   4.520   6.824
62117SOL    HW186377  12.215   4.488   6.910
62117SOL    HW286378  12.078   4.493   6.821
62118SOL     OW86379  11.212   4.268   6.700
62118SOL    HW186380  11.297   4.235   6.659
62118SOL    HW286381  11.225   4.283   6.798
62119SOL     OW86382  11.361   4.244   7.308
62119SOL    HW186383  11.420   4.204   7.238
62119SOL    HW286384  11.303   4.315   7.267
62120SOL     OW86385  12.541   4.674   7.246
62120SOL    HW186386  12.580   4.763   7.266
62120SOL    HW286387  12.551   4.654   7.149
62121SOL     OW86388  11.987   4.296   5.911
62121SOL    HW186389  11.994   4.207   5.865
62121SOL    HW286390  11.893   4.330   5.903
62122SOL     OW86391  11.424   5.288   7.330
62122SOL    HW186392  11.394   5.345   7.406
62122SOL    HW286393  11.417   5.191   7.356
62123SOL     OW86394  11.843   4.188   6.855
62123SOL    HW186395  11.809   4.099   6.825
62123SOL    HW286396  11.869   4.242   6.775
62124SOL     OW86397  12.102   5.402   7.051
62124SOL    HW186398  12.078   5.384   6.956
62124SOL    HW286399  12.132   5.496   7.061
62125SOL     OW86400  11.645   4.224   5.777
62125SOL    HW186401  11.706   4.304   5.781
62125SOL    HW286402  11.550   4.255   5.784
62126SOL     OW86403  11.331   4.861   7.052
62126SOL    HW186404  11.353   4.800   7.128
62126SOL    HW286405  11.341   4.812   6.966
62127SOL     OW86406  12.519   4.783   6.820
62127SOL    HW186407  12.543   4.720   6.746
62127SOL    HW286408  12.429   4.823   6.802
62128SOL     OW86409  12.474   4.579   5.895
62128SOL    HW186410  12.388   4.548   5.937
62128SOL    HW286411  12.470   4.565   5.796
62129SOL     OW86412  12.424   5.455   6.714
62129SOL    HW186413  12.508   5.460   6.660
62129SOL    HW286414  12.401   5.359   6.732
62130SOL     OW86415  11.255   4.982   6.608
62130SOL    HW186416  11.250   4.981   6.708
62130SOL    HW286417  11.172   4.941   6.570
62131SOL     OW86418  11.860   5.386   7.302
62131SOL    HW186419  11.804   5.467   7.311
62131SOL    HW286420  11.912   5.390   7.216
62132SOL     OW86421  12.898   3.859   6.109
62132SOL    HW186422  12.971   3.842   6.042
62132SOL    HW286423  12.867   3.772   6.147
62133SOL     OW86424  12.560   5.297   6.063
62133SOL    HW186425  12.627   5.309   5.989
62133SOL    HW286426  12.520   5.386   6.086
62134SOL     OW86427  11.302   5.518   7.437
62134SOL    HW186428  11.261   5.444   7.490
62134SOL    HW286429  11.366   5.569   7.495
62135SOL     OW86430  12.452   4.651   6.258
62135SOL    HW186431  12.512   4.570   6.260
62135SOL    HW286432  12.492   4.720   6.198
62136SOL     OW86433  12.002   4.997   7.008
62136SOL    HW186434  11.997   5.030   7.103
62136SOL    HW286435  11.916   5.016   6.962
62137SOL     OW86436  11.844   5.340   5.740
62137SOL    HW186437  11.853   5.350   5.641
62137SOL    HW286438  11.804   5.251   5.761
62138SOL     OW86439  11.435   4.050   6.306
62138SOL    HW186440  11.356   4.101   6.272
62138SOL    HW286441  11.426   4.035   6.404
62139SOL     OW86442  12.366   5.336   5.617
62139SOL    HW186443  12.372   5.243   5.654
62139SOL    HW286444  12.307   5.336   5.537
62140SOL     OW86445  11.994   4.726   6.958
62140SOL    HW186446  12.034   4.725   6.866
62140SOL    HW286447  12.004   4.818   6.998
62141SOL     OW86448  12.088   4.634   5.877
62141SOL    HW186449  12.151   4.672   5.809
62141SOL    HW286450  12.128   4.551   5.916
62142SOL     OW86451  11.544   5.012   7.076
62142SOL    HW186452  11.531   5.105   7.042
62142SOL    HW286453  11.460   4.960   7.063
62143SOL     OW86454  12.211   4.822   6.282
62143SOL    HW186455  12.141   4.775   6.336
62143SOL    HW286456  12.270   4.754   6.239
62144SOL     OW86457  12.186   3.960   6.557
62144SOL    HW186458  12.178   3.924   6.464
62144SOL    HW286459  12.184   3.884   6.622
62145SOL     OW86460  11.762   5.211   6.077
62145SOL    HW186461  11.804   5.153   6.007
62145SOL    HW286462  11.718   5.290   6.033
62146SOL     OW86463  11.427   5.072   5.876
62146SOL    HW186464  11.331   5.073   5.849
62146SOL    HW286465  11.439   5.125   5.960
62147SOL     OW86466  11.277   4.737   7.312
62147SOL    HW186467  11.200   4.704   7.366
62147SOL    HW286468  11.362   4.707   7.354
62148SOL     OW86469  11.844   3.927   7.075
62148SOL    HW186470  11.934   3.911   7.035
62148SOL    HW286471  11.852   3.932   7.174
62149SOL     OW86472  11.247   4.069   5.619
62149SOL    HW186473  11.155   4.041   5.590
62149SOL    HW286474  11.278   4.146   5.563
62150SOL     OW86475  12.612   4.580   6.984
62150SOL    HW186476  12.555   4.632   6.921
62150SOL    HW286477  12.708   4.592   6.960
62151SOL     OW86478  11.244   3.890   5.904
62151SOL    HW186479  11.227   3.973   5.850
62151SOL    HW286480  11.334   3.853   5.882
62152SOL     OW86481  12.355   5.059   5.705
62152SOL    HW186482  12.256   5.048   5.707
62152SOL    HW286483  12.389   5.074   5.798
62153SOL     OW86484  11.785   4.566   7.017
62153SOL    HW186485  11.841   4.647   7.000
62153SOL    HW286486  11.844   4.486   7.020
62154SOL     OW86487  11.888   4.289   7.294
62154SOL    HW186488  11.907   4.354   7.368
62154SOL    HW286489  11.948   4.209   7.303
62155SOL     OW86490  12.622   4.944   7.219
62155SOL    HW186491  12.613   4.934   7.318
62155SOL    HW286492  12.718   4.937   7.193
62156SOL     OW86493  11.562   5.465   7.146
62156SOL    HW186494  11.471   5.506   7.144
62156SOL    HW286495  11.555   5.371   7.178
62157SOL     OW86496  12.397   4.049   6.035
62157SOL    HW186497  12.462   3.975   6.024
62157SOL    HW286498  12.417   4.099   6.119
62158SOL     OW86499  11.766   4.469   6.238
62158SOL    HW186500  11.816   4.554   6.219
62158SOL    HW286501  11.678   4.471   6.190
62159SOL     OW86502  12.031   5.098   5.602
62159SOL    HW186503  11.985   5.113   5.690
62159SOL    HW286504  12.075   5.183   5.572
62160SOL     OW86505  11.833   5.514   6.539
62160SOL    HW186506  11.787   5.602   6.526
62160SOL    HW286507  11.932   5.526   6.532
62161SOL     OW86508  12.031   4.680   6.447
62161SOL    HW186509  12.085   4.611   6.495
62161SOL    HW286510  11.999   4.749   6.513
62162SOL     OW86511  12.255   4.708   5.673
62162SOL    HW186512  12.232   4.761   5.591
62162SOL    HW286513  12.336   4.652   5.654
62163SOL     OW86514  11.393   5.038   7.430
62163SOL    HW186515  11.328   4.965   7.409
62163SOL    HW286516  11.397   5.052   7.528
62164SOL     OW86517  11.251   4.964   6.239
62164SOL    HW186518  11.250   4.917   6.327
62164SOL    HW286519  11.333   4.936   6.188
62165SOL     OW86520  11.844   5.115   7.210
62165SOL    HW186521  11.766   5.065   7.248
62165SOL    HW286522  11.841   5.210   7.241
62166SOL     OW86523  11.600   4.148   6.106
62166SOL    HW186524  11.630   4.076   6.044
62166SOL    HW286525  11.561   4.108   6.189
62167SOL     OW86526  12.877   5.211   6.690
62167SOL    HW186527  12.784   5.186   6.663
62167SOL    HW286528  12.903   5.161   6.772
62168SOL     OW86529  11.489   4.271   6.866
62168SOL    HW186530  11.527   4.212   6.938
62168SOL    HW286531  11.529   4.245   6.778
62169SOL     OW86532  11.984   5.310   6.273
62169SOL    HW186533  12.016   5.320   6.179
62169SOL    HW286534  11.905   5.248   6.275
62170SOL     OW86535  12.596   3.938   6.698
62170SOL    HW186536  12.648   3.873   6.753
62170SOL    HW286537  12.547   4.001   6.759
62171SOL     OW86538  11.942   5.054   5.887
62171SOL    HW186539  11.896   4.967   5.904
62171SOL    HW286540  12.033   5.051   5.928
62172SOL     OW86541  11.790   5.291   6.870
62172SOL    HW186542  11.785   5.373   6.927
62172SOL    HW286543  11.879   5.288   6.825
62173SOL     OW86544  12.524   3.776   5.754
62173SOL    HW186545  12.559   3.735   5.670
62173SOL    HW286546  12.434   3.738   5.774
62174SOL     OW86547  12.472   4.177   6.277
62174SOL    HW186548  12.413   4.257   6.281
62174SOL    HW286549  12.487   4.142   6.370
62175SOL     OW86550  11.211   4.801   5.886
62175SOL    HW186551  11.310   4.790   5.877
62175SOL    HW286552  11.171   4.715   5.918
62176SOL     OW86553  12.047   5.370   5.923
62176SOL    HW186554  11.970   5.335   5.869
62176SOL    HW286555  12.015   5.441   5.985
62177SOL     OW86556  11.402   4.352   7.561
62177SOL    HW186557  11.309   4.350   7.598
62177SOL    HW286558  11.403   4.313   7.469
62178SOL     OW86559  11.397   3.999   8.444
62178SOL    HW186560  11.432   3.982   8.536
62178SOL    HW286561  11.309   3.954   8.432
62179SOL     OW86562  11.191   4.092   8.095
62179SOL    HW186563  11.109   4.135   8.134
62179SOL    HW286564  11.163   4.019   8.032
62180SOL     OW86565  11.741   4.999   8.613
62180SOL    HW186566  11.648   4.992   8.576
62180SOL    HW286567  11.752   5.088   8.657
62181SOL     OW86568  12.727   5.235   8.151
62181SOL    HW186569  12.670   5.219   8.232
62181SOL    HW286570  12.668   5.245   8.071
62182SOL     OW86571  12.307   4.427   8.165
62182SOL    HW186572  12.364   4.505   8.140
62182SOL    HW286573  12.247   4.453   8.241
62183SOL     OW86574  11.940   4.868   8.471
62183SOL    HW186575  11.862   4.885   8.531
62183SOL    HW286576  11.974   4.955   8.435
62184SOL     OW86577  12.022   4.522   9.271
62184SOL    HW186578  12.018   4.598   9.336
62184SOL    HW286579  12.044   4.558   9.180
62185SOL     OW86580  11.857   4.736   8.113
62185SOL    HW186581  11.926   4.720   8.183
62185SOL    HW286582  11.784   4.793   8.151
62186SOL     OW86583  11.858   4.885   9.251
62186SOL    HW186584  11.918   4.964   9.265
62186SOL    HW286585  11.772   4.916   9.210
62187SOL     OW86586  11.507   5.159   8.509
62187SOL    HW186587  11.429   5.128   8.456
62187SOL    HW286588  11.565   5.217   8.452
62188SOL     OW86589  11.610   4.116   8.947
62188SOL    HW186590  11.692   4.060   8.956
62188SOL    HW286591  11.529   4.058   8.951
62189SOL     OW86592  11.403   5.437   7.931
62189SOL    HW186593  11.437   5.514   7.985
62189SOL    HW286594  11.447   5.437   7.841
62190SOL     OW86595  12.299   5.065   9.138
62190SOL    HW186596  12.346   5.065   9.226
62190SOL    HW286597  12.251   4.978   9.127
62191SOL     OW86598  11.402   5.158   7.986
62191SOL    HW186599  11.376   5.254   7.986
62191SOL    HW286600  11.331   5.104   8.031
62192SOL     OW86601  11.412   4.815   8.334
62192SOL    HW186602  11.426   4.731   8.386
62192SOL    HW286603  11.357   4.879   8.389
62193SOL     OW86604  11.792   5.510   8.887
62193SOL    HW186605  11.700   5.493   8.922
62193SOL    HW286606  11.820   5.602   8.913
62194SOL     OW86607  11.778   4.688   7.571
62194SOL    HW186608  11.785   4.772   7.517
62194SOL    HW286609  11.824   4.701   7.659
62195SOL     OW86610  11.294   4.367   8.011
62195SOL    HW186611  11.249   4.279   8.028
62195SOL    HW286612  11.293   4.421   8.095
62196SOL     OW86613  11.199   5.320   7.565
62196SOL    HW186614  11.180   5.224   7.586
62196SOL    HW286615  11.166   5.378   7.640
62197SOL     OW86616  12.861   4.646   8.060
62197SOL    HW186617  12.956   4.617   8.068
62197SOL    HW286618  12.853   4.711   7.985
62198SOL     OW86619  11.285   4.461   9.045
62198SOL    HW186620  11.373   4.448   9.090
62198SOL    HW286621  11.272   4.558   9.023
62199SOL     OW86622  11.785   5.089   8.174
62199SOL    HW186623  11.736   5.002   8.183
62199SOL    HW286624  11.762   5.132   8.087
62200SOL     OW86625  12.465   4.952   8.871
62200SOL    HW186626  12.502   4.879   8.813
62200SOL    HW286627  12.517   4.957   8.956
62201SOL     OW86628  11.981   3.728   7.950
62201SOL    HW186629  12.021   3.819   7.941
62201SOL    HW286630  11.881   3.736   7.956
62202SOL     OW86631  11.369   4.700   8.712
62202SOL    HW186632  11.458   4.655   8.698
62202SOL    HW286633  11.296   4.635   8.693
62203SOL     OW86634  12.359   5.516   9.064
62203SOL    HW186635  12.383   5.576   8.988
62203SOL    HW286636  12.366   5.421   9.034
62204SOL     OW86637  11.489   3.975   9.249
62204SOL    HW186638  11.560   4.046   9.255
62204SOL    HW286639  11.401   4.014   9.277
62205SOL     OW86640  12.638   5.141   8.401
62205SOL    HW186641  12.579   5.147   8.481
62205SOL    HW286642  12.623   5.053   8.355
62206SOL     OW86643  11.770   4.453   7.718
62206SOL    HW186644  11.794   4.522   7.650
62206SOL    HW286645  11.692   4.486   7.772
62207SOL     OW86646  12.453   4.069   8.392
62207SOL    HW186647  12.367   4.019   8.379
62207SOL    HW286648  12.515   4.015   8.448
62208SOL     OW86649  11.979   4.329   8.913
62208SOL    HW186650  11.932   4.326   9.002
62208SOL    HW286651  11.928   4.274   8.847
62209SOL     OW86652  12.566   4.193   9.122
62209SOL    HW186653  12.546   4.236   9.210
62209SOL    HW286654  12.644   4.131   9.131
62210SOL     OW86655  12.145   4.614   9.020
62210SOL    HW186656  12.191   4.530   8.991
62210SOL    HW286657  12.089   4.648   8.945
62211SOL     OW86658  12.163   4.134   8.690
62211SOL    HW186659  12.086   4.168   8.744
62211SOL    HW286660  12.129   4.083   8.611
62212SOL     OW86661  12.213   4.425   7.877
62212SOL    HW186662  12.239   4.421   7.973
62212SOL    HW286663  12.128   4.374   7.863
62213SOL     OW86664  11.248   4.535   8.237
62213SOL    HW186665  11.347   4.523   8.246
62213SOL    HW286666  11.224   4.630   8.258
62214SOL     OW86667  11.302   5.545   9.019
62214SOL    HW186668  11.292   5.530   9.118
62214SOL    HW286669  11.216   5.581   8.983
62215SOL     OW86670  12.037   4.072   7.643
62215SOL    HW186671  12.096   4.135   7.594
62215SOL    HW286672  12.056   3.978   7.614
62216SOL     OW86673  11.722   3.920   8.333
62216SOL    HW186674  11.717   3.915   8.433
62216SOL    HW286675  11.724   4.016   8.304
62217SOL     OW86676  12.180   5.180   7.925
62217SOL    HW186677  12.134   5.252   7.873
62217SOL    HW286678  12.176   5.200   8.023
62218SOL     OW86679  11.523   5.525   8.301
62218SOL    HW186680  11.573   5.439   8.307
62218SOL    HW286681  11.588   5.602   8.298
62219SOL     OW86682  12.399   5.274   8.954
62219SOL    HW186683  12.405   5.197   9.018
62219SOL    HW286684  12.347   5.248   8.874
62220SOL     OW86685  11.493   4.667   7.690
62220SOL    HW186686  11.575   4.706   7.648
62220SOL    HW286687  11.466   4.585   7.641
62221SOL     OW86688  11.633   4.990   9.175
62221SOL    HW186689  11.583   4.991   9.089
62221SOL    HW286690  11.570   4.972   9.251
62222SOL     OW86691  12.283   5.500   7.685
62222SOL    HW186692  12.223   5.438   7.735
62222SOL    HW286693  12.314   5.456   7.600
62223SOL     OW86694  11.374   4.009   8.946
62223SOL    HW186695  11.294   4.069   8.933
62223SOL    HW286696  11.364   3.960   9.032
62224SOL     OW86697  11.636   5.467   7.771
62224SOL    HW186698  11.669   5.506   7.857
62224SOL    HW286699  11.712   5.460   7.706
62225SOL     OW86700  12.572   3.831   7.874
62225SOL    HW186701  12.548   3.794   7.784
62225SOL    HW286702  12.671   3.847   7.878
62226SOL     OW86703  11.421   5.509   8.689
62226SOL    HW186704  11.478   5.444   8.739
62226SOL    HW286705  11.405   5.476   8.596
62227SOL     OW86706  12.112   5.422   8.352
62227SOL    HW186707  12.192   5.365   8.373
62227SOL    HW286708  12.063   5.382   8.275
62228SOL     OW86709  11.554   4.424   7.928
62228SOL    HW186710  11.599   4.334   7.925
62228SOL    HW286711  11.460   4.413   7.961
62229SOL     OW86712  11.786   3.846   7.565
62229SOL    HW186713  11.884   3.824   7.572
62229SOL    HW286714  11.755   3.829   7.472
62230SOL     OW86715  11.953   3.988   9.197
62230SOL    HW186716  12.020   3.927   9.240
62230SOL    HW286717  11.880   4.007   9.262
62231SOL     OW86718  12.060   5.238   8.643
62231SOL    HW186719  12.037   5.213   8.549
62231SOL    HW286720  12.121   5.169   8.682
62232SOL     OW86721  12.523   4.314   8.881
62232SOL    HW186722  12.551   4.271   8.966
62232SOL    HW286723  12.548   4.410   8.882
62233SOL     OW86724  11.975   5.126   8.372
62233SOL    HW186725  12.065   5.140   8.330
62233SOL    HW286726  11.904   5.128   8.301
62234SOL     OW86727  12.094   4.227   8.347
62234SOL    HW186728  12.069   4.218   8.251
62234SOL    HW286729  12.142   4.145   8.378
62235SOL     OW86730  11.711   3.788   7.960
62235SOL    HW186731  11.630   3.789   8.018
62235SOL    HW286732  11.714   3.871   7.905
62236SOL     OW86733  12.606   4.912   7.489
62236SOL    HW186734  12.638   4.836   7.546
62236SOL    HW286735  12.514   4.939   7.519
62237SOL     OW86736  11.469   3.759   7.619
62237SOL    HW186737  11.518   3.843   7.598
62237SOL    HW286738  11.531   3.694   7.664
62238SOL     OW86739  12.107   3.960   7.928
62238SOL    HW186740  12.059   4.001   7.850
62238SOL    HW286741  12.206   3.958   7.909
62239SOL     OW86742  12.248   4.407   8.912
62239SOL    HW186743  12.168   4.346   8.915
62239SOL    HW286744  12.329   4.354   8.888
62240SOL     OW86745  12.399   5.294   8.241
62240SOL    HW186746  12.420   5.368   8.176
62240SOL    HW286747  12.467   5.294   8.314
62241SOL     OW86748  11.631   4.876   8.189
62241SOL    HW186749  11.560   4.849   8.254
62241SOL    HW286750  11.605   4.848   8.096
62242SOL     OW86751  12.443   5.521   8.039
62242SOL    HW186752  12.487   5.585   7.975
62242SOL    HW286753  12.393   5.573   8.109
62243SOL     OW86754  12.204   4.273   7.464
62243SOL    HW186755  12.163   4.355   7.425
62243SOL    HW286756  12.268   4.299   7.537
62244SOL     OW86757  11.250   4.280   8.834
62244SOL    HW186758  11.342   4.279   8.793
62244SOL    HW286759  11.244   4.354   8.901
62245SOL     OW86760  11.733   3.946   8.595
62245SOL    HW186761  11.771   3.862   8.632
62245SOL    HW286762  11.645   3.965   8.639
62246SOL     OW86763  12.038   4.178   8.090
62246SOL    HW186764  12.006   4.250   8.028
62246SOL    HW286765  12.062   4.097   8.037
62247SOL     OW86766  12.189   3.763   8.201
62247SOL    HW186767  12.117   3.768   8.132
62247SOL    HW286768  12.165   3.694   8.270
62248SOL     OW86769  12.601   4.897   8.315
62248SOL    HW186770  12.546   4.813   8.308
62248SOL    HW286771  12.627   4.926   8.223
62249SOL     OW86772  11.660   5.109   7.622
62249SOL    HW186773  11.573   5.094   7.669
62249SOL    HW286774  11.643   5.135   7.527
62250SOL     OW86775  12.562   4.299   7.526
62250SOL    HW186776  12.508   4.278   7.607
62250SOL    HW286777  12.653   4.258   7.535
62251SOL     OW86778  11.699   3.980   7.776
62251SOL    HW186779  11.726   3.921   7.701
62251SOL    HW286780  11.699   4.075   7.745
62252SOL     OW86781  12.236   5.071   8.788
62252SOL    HW186782  12.156   5.048   8.843
62252SOL    HW286783  12.319   5.045   8.837
62253SOL     OW86784  12.764   5.353   9.073
62253SOL    HW186785  12.791   5.387   8.983
62253SOL    HW286786  12.843   5.315   9.119
62254SOL     OW86787  12.283   4.919   8.548
62254SOL    HW186788  12.243   4.963   8.629
62254SOL    HW286789  12.242   4.956   8.465
62255SOL     OW86790  12.087   3.813   8.850
62255SOL    HW186791  12.112   3.793   8.755
62255SOL    HW286792  12.159   3.869   8.892
62256SOL     OW86793  12.152   4.840   9.167
62256SOL    HW186794  12.053   4.846   9.177
62256SOL    HW286795  12.175   4.760   9.111
62257SOL     OW86796  11.877   4.774   7.816
62257SOL    HW186797  11.863   4.781   7.915
62257SOL    HW286798  11.961   4.723   7.798
62258SOL     OW86799  11.582   4.537   8.699
62258SOL    HW186800  11.668   4.549   8.749
62258SOL    HW286801  11.540   4.450   8.726
62259SOL     OW86802  12.446   4.110   8.710
62259SOL    HW186803  12.467   4.184   8.774
62259SOL    HW286804  12.357   4.127   8.667
62260SOL     OW86805  11.236   5.288   8.779
62260SOL    HW186806  11.190   5.370   8.745
62260SOL    HW286807  11.334   5.307   8.788
62261SOL     OW86808  11.539   4.824   7.949
62261SOL    HW186809  11.532   4.907   7.893
62261SOL    HW286810  11.543   4.744   7.889
62262SOL     OW86811  11.738   4.261   8.313
62262SOL    HW186812  11.750   4.327   8.239
62262SOL    HW286813  11.784   4.295   8.396
62263SOL     OW86814  12.424   5.072   7.836
62263SOL    HW186815  12.474   5.149   7.876
62263SOL    HW286816  12.329   5.074   7.868
62264SOL     OW86817  12.444   5.169   8.590
62264SOL    HW186818  12.491   5.182   8.677
62264SOL    HW286819  12.378   5.095   8.599
62265SOL     OW86820  11.526   5.234   8.777
62265SOL    HW186821  11.505   5.190   8.690
62265SOL    HW286822  11.623   5.260   8.780
62266SOL     OW86823  11.574   4.475   9.046
62266SOL    HW186824  11.642   4.530   8.999
62266SOL    HW286825  11.614   4.387   9.073
62267SOL     OW86826  12.185   3.829   9.218
62267SOL    HW186827  12.191   3.914   9.166
62267SOL    HW286828  12.217   3.753   9.161
62268SOL     OW86829  11.676   3.774   9.188
62268SOL    HW186830  11.634   3.717   9.118
62268SOL    HW286831  11.610   3.843   9.220
62269SOL     OW86832  11.745   4.594   8.477
62269SOL    HW186833  11.789   4.683   8.468
62269SOL    HW286834  11.682   4.594   8.554
62270SOL     OW86835  12.532   4.586   8.493
62270SOL    HW186836  12.457   4.586   8.427
62270SOL    HW286837  12.569   4.494   8.502
62271SOL     OW86838  12.381   4.249   7.723
62271SOL    HW186839  12.394   4.165   7.777
62271SOL    HW286840  12.352   4.323   7.783
62272SOL     OW86841  11.479   3.937   8.679
62272SOL    HW186842  11.456   3.974   8.769
62272SOL    HW286843  11.449   3.842   8.673
62273SOL     OW86844  11.209   5.034   8.730
62273SOL    HW186845  11.262   4.985   8.798
62273SOL    HW286846  11.231   5.132   8.735
62274SOL     OW86847  11.904   4.358   8.512
62274SOL    HW186848  11.963   4.332   8.436
62274SOL    HW286849  11.876   4.454   8.501
62275SOL     OW86850  11.479   3.787   8.066
62275SOL    HW186851  11.468   3.881   8.099
62275SOL    HW286852  11.474   3.724   8.143
62276SOL     OW86853  12.794   4.091   7.822
62276SOL    HW186854  12.796   4.015   7.886
62276SOL    HW286855  12.746   4.168   7.862
62277SOL     OW86856  12.195   4.490   8.414
62277SOL    HW186857  12.210   4.511   8.510
62277SOL    HW286858  12.165   4.395   8.405
62278SOL     OW86859  12.152   5.297   9.148
62278SOL    HW186860  12.132   5.341   9.060
62278SOL    HW286861  12.191   5.206   9.132
62279SOL     OW86862  11.522   4.622   9.252
62279SOL    HW186863  11.598   4.666   9.300
62279SOL    HW286864  11.557   4.575   9.170
62280SOL     OW86865  12.475   4.562   7.490
62280SOL    HW186866  12.509   4.469   7.505
62280SOL    HW286867  12.493   4.589   7.395
62281SOL     OW86868  12.240   5.057   8.297
62281SOL    HW186869  12.247   4.973   8.242
62281SOL    HW286870  12.302   5.126   8.261
62282SOL     OW86871  11.491   4.534   8.397
62282SOL    HW186872  11.584   4.570   8.402
62282SOL    HW286873  11.485   4.449   8.449
62283SOL     OW86874  11.511   4.233   8.454
62283SOL    HW186875  11.459   4.150   8.437
62283SOL    HW286876  11.588   4.238   8.390
62284SOL     OW86877  12.310   4.104   9.126
62284SOL    HW186878  12.265   4.167   9.190
62284SOL    HW286879  12.403   4.135   9.109
62285SOL     OW86880  12.332   3.931   8.925
62285SOL    HW186881  12.332   3.995   9.002
62285SOL    HW286882  12.360   3.979   8.842
62286SOL     OW86883  11.180   5.050   7.648
62286SOL    HW186884  11.087   5.071   7.617
62286SOL    HW286885  11.190   4.951   7.661
62287SOL     OW86886  11.260   5.525   8.375
62287SOL    HW186887  11.218   5.439   8.348
62287SOL    HW286888  11.354   5.528   8.341
62288SOL     OW86889  11.676   5.292   8.358
62288SOL    HW186890  11.742   5.366   8.367
62288SOL    HW286891  11.720   5.213   8.316
62289SOL     OW86892  12.174   4.520   8.686
62289SOL    HW186893  12.215   4.488   8.772
62289SOL    HW286894  12.078   4.493   8.683
62290SOL     OW86895  11.212   4.268   8.562
62290SOL    HW186896  11.297   4.235   8.521
62290SOL    HW286897  11.225   4.283   8.660
62291SOL     OW86898  11.361   4.244   9.170
62291SOL    HW186899  11.420   4.204   9.100
62291SOL    HW286900  11.303   4.315   9.129
62292SOL     OW86901  12.541   4.674   9.108
62292SOL    HW186902  12.580   4.763   9.128
62292SOL    HW286903  12.551   4.654   9.011
62293SOL     OW86904  11.987   4.296   7.773
62293SOL    HW186905  11.994   4.207   7.727
62293SOL    HW286906  11.893   4.330   7.765
62294SOL     OW86907  11.424   5.288   9.192
62294SOL    HW186908  11.394   5.345   9.268
62294SOL    HW286909  11.417   5.191   9.218
62295SOL     OW86910  11.843   4.188   8.717
62295SOL    HW186911  11.809   4.099   8.687
62295SOL    HW286912  11.869   4.242   8.637
62296SOL     OW86913  12.102   5.402   8.913
62296SOL    HW186914  12.078   5.384   8.818
62296SOL    HW286915  12.132   5.496   8.923
62297SOL     OW86916  11.645   4.224   7.639
62297SOL    HW186917  11.706   4.304   7.643
62297SOL    HW286918  11.550   4.255   7.646
62298SOL     OW86919  11.331   4.861   8.914
62298SOL    HW186920  11.353   4.800   8.990
62298SOL    HW286921  11.341   4.812   8.828
62299SOL     OW86922  12.519   4.783   8.682
62299SOL    HW186923  12.543   4.720   8.608
62299SOL    HW286924  12.429   4.823   8.664
62300SOL     OW86925  12.474   4.579   7.757
62300SOL    HW186926  12.388   4.548   7.799
62300SOL    HW286927  12.470   4.565   7.658
62301SOL     OW86928  12.424   5.455   8.576
62301SOL    HW186929  12.508   5.460   8.522
62301SOL    HW286930  12.401   5.359   8.594
62302SOL     OW86931  11.255   4.982   8.470
62302SOL    HW186932  11.250   4.981   8.570
62302SOL    HW286933  11.172   4.941   8.432
62303SOL     OW86934  11.860   5.386   9.164
62303SOL    HW186935  11.804   5.467   9.173
62303SOL    HW286936  11.912   5.390   9.078
62304SOL     OW86937  12.898   3.859   7.971
62304SOL    HW186938  12.971   3.842   7.904
62304SOL    HW286939  12.867   3.772   8.009
62305SOL     OW86940  12.560   5.297   7.925
62305SOL    HW186941  12.627   5.309   7.851
62305SOL    HW286942  12.520   5.386   7.948
62306SOL     OW86943  11.302   5.518   9.299
62306SOL    HW186944  11.261   5.444   9.352
62306SOL    HW286945  11.366   5.569   9.357
62307SOL     OW86946  12.452   4.651   8.120
62307SOL    HW186947  12.512   4.570   8.122
62307SOL    HW286948  12.492   4.720   8.060
62308SOL     OW86949  12.002   4.997   8.870
62308SOL    HW186950  11.997   5.030   8.965
62308SOL    HW286951  11.916   5.016   8.824
62309SOL     OW86952  11.844   5.340   7.602
62309SOL    HW186953  11.853   5.350   7.503
62309SOL    HW286954  11.804   5.251   7.623
62310SOL     OW86955  11.435   4.050   8.168
62310SOL    HW186956  11.356   4.101   8.134
62310SOL    HW286957  11.426   4.035   8.266
62311SOL     OW86958  12.366   5.336   7.479
62311SOL    HW186959  12.372   5.243   7.516
62311SOL    HW286960  12.307   5.336   7.399
62312SOL     OW86961  11.994   4.726   8.820
62312SOL    HW186962  12.034   4.725   8.728
62312SOL    HW286963  12.004   4.818   8.860
62313SOL     OW86964  12.088   4.634   7.739
62313SOL    HW186965  12.151   4.672   7.671
62313SOL    HW286966  12.128   4.551   7.778
62314SOL     OW86967  11.544   5.012   8.938
62314SOL    HW186968  11.531   5.105   8.904
62314SOL    HW286969  11.460   4.960   8.925
62315SOL     OW86970  12.211   4.822   8.144
62315SOL    HW186971  12.141   4.775   8.198
62315SOL    HW286972  12.270   4.754   8.101
62316SOL     OW86973  12.186   3.960   8.419
62316SOL    HW186974  12.178   3.924   8.326
62316SOL    HW286975  12.184   3.884   8.484
62317SOL     OW86976  11.762   5.211   7.939
62317SOL    HW186977  11.804   5.153   7.869
62317SOL    HW286978  11.718   5.290   7.895
62318SOL     OW86979  11.427   5.072   7.738
62318SOL    HW186980  11.331   5.073   7.711
62318SOL    HW286981  11.439   5.125   7.822
62319SOL     OW86982  11.277   4.737   9.174
62319SOL    HW186983  11.200   4.704   9.228
62319SOL    HW286984  11.362   4.707   9.216
62320SOL     OW86985  11.844   3.927   8.937
62320SOL    HW186986  11.934   3.911   8.897
62320SOL    HW286987  11.852   3.932   9.036
62321SOL     OW86988  11.247   4.069   7.481
62321SOL    HW186989  11.155   4.041   7.452
62321SOL    HW286990  11.278   4.146   7.425
62322SOL     OW86991  12.612   4.580   8.846
62322SOL    HW186992  12.555   4.632   8.783
62322SOL    HW286993  12.708   4.592   8.822
62323SOL     OW86994  11.244   3.890   7.766
62323SOL    HW186995  11.227   3.973   7.712
62323SOL    HW286996  11.334   3.853   7.744
62324SOL     OW86997  12.355   5.059   7.567
62324SOL    HW186998  12.256   5.048   7.569
62324SOL    HW286999  12.389   5.074   7.660
62325SOL     OW87000  11.785   4.566   8.879
62325SOL    HW187001  11.841   4.647   8.862
62325SOL    HW287002  11.844   4.486   8.882
62326SOL     OW87003  11.888   4.289   9.156
62326SOL    HW187004  11.907   4.354   9.230
62326SOL    HW287005  11.948   4.209   9.165
62327SOL     OW87006  12.622   4.944   9.081
62327SOL    HW187007  12.613   4.934   9.180
62327SOL    HW287008  12.718   4.937   9.055
62328SOL     OW87009  11.562   5.465   9.008
62328SOL    HW187010  11.471   5.506   9.006
62328SOL    HW287011  11.555   5.371   9.040
62329SOL     OW87012  12.397   4.049   7.897
62329SOL    HW187013  12.462   3.975   7.886
62329SOL    HW287014  12.417   4.099   7.981
62330SOL     OW87015  12.031   5.098   7.464
62330SOL    HW187016  11.985   5.113   7.552
62330SOL    HW287017  12.075   5.183   7.434
62331SOL     OW87018  11.833   5.514   8.401
62331SOL    HW187019  11.787   5.602   8.388
62331SOL    HW287020  11.932   5.526   8.394
62332SOL     OW87021  12.031   4.680   8.309
62332SOL    HW187022  12.085   4.611   8.357
62332SOL    HW287023  11.999   4.749   8.375
62333SOL     OW87024  12.255   4.708   7.535
62333SOL    HW187025  12.232   4.761   7.453
62333SOL    HW287026  12.336   4.652   7.516
62334SOL     OW87027  11.393   5.038   9.292
62334SOL    HW187028  11.328   4.965   9.271
62334SOL    HW287029  11.397   5.052   9.390
62335SOL     OW87030  11.251   4.964   8.101
62335SOL    HW187031  11.250   4.917   8.189
62335SOL    HW287032  11.333   4.936   8.050
62336SOL     OW87033  11.844   5.115   9.072
62336SOL    HW187034  11.766   5.065   9.110
62336SOL    HW287035  11.841   5.210   9.103
62337SOL     OW87036  11.600   4.148   7.968
62337SOL    HW187037  11.630   4.076   7.906
62337SOL    HW287038  11.561   4.108   8.051
62338SOL     OW87039  12.877   5.211   8.552
62338SOL    HW187040  12.784   5.186   8.525
62338SOL    HW287041  12.903   5.161   8.634
62339SOL     OW87042  11.489   4.271   8.728
62339SOL    HW187043  11.527   4.212   8.800
62339SOL    HW287044  11.529   4.245   8.640
62340SOL     OW87045  11.984   5.310   8.135
62340SOL    HW187046  12.016   5.320   8.041
62340SOL    HW287047  11.905   5.248   8.137
62341SOL     OW87048  12.596   3.938   8.560
62341SOL    HW187049  12.648   3.873   8.615
62341SOL    HW287050  12.547   4.001   8.621
62342SOL     OW87051  12.173   3.758   8.602
62342SOL    HW187052  12.110   3.686   8.571
62342SOL    HW287053  12.266   3.722   8.602
62343SOL     OW87054  11.942   5.054   7.749
62343SOL    HW187055  11.896   4.967   7.766
62343SOL    HW287056  12.033   5.051   7.790
62344SOL     OW87057  11.790   5.291   8.732
62344SOL    HW187058  11.785   5.373   8.789
62344SOL    HW287059  11.879   5.288   8.687
62345SOL     OW87060  12.524   3.776   7.616
62345SOL    HW187061  12.559   3.735   7.532
62345SOL    HW287062  12.434   3.738   7.636
62346SOL     OW87063  12.472   4.177   8.139
62346SOL    HW187064  12.413   4.257   8.143
62346SOL    HW287065  12.487   4.142   8.232
62347SOL     OW87066  11.211   4.801   7.748
62347SOL    HW187067  11.310   4.790   7.739
62347SOL    HW287068  11.171   4.715   7.780
62348SOL     OW87069  12.047   5.370   7.785
62348SOL    HW187070  11.970   5.335   7.731
62348SOL    HW287071  12.015   5.441   7.847
62349SOL     OW87072  11.402   4.352   9.423
62349SOL    HW187073  11.309   4.350   9.460
62349SOL    HW287074  11.403   4.313   9.331
62350SOL     OW87075  11.397   3.999  10.306
62350SOL    HW187076  11.432   3.982  10.398
62350SOL    HW287077  11.309   3.954  10.294
62351SOL     OW87078  11.191   4.092   9.957
62351SOL    HW187079  11.109   4.135   9.996
62351SOL    HW287080  11.163   4.019   9.894
62352SOL     OW87081  11.741   4.999  10.475
62352SOL    HW187082  11.648   4.992  10.438
62352SOL    HW287083  11.752   5.088  10.519
62353SOL     OW87084  12.727   5.235  10.013
62353SOL    HW187085  12.670   5.219  10.094
62353SOL    HW287086  12.668   5.245   9.933
62354SOL     OW87087  12.307   4.427  10.027
62354SOL    HW187088  12.364   4.505  10.002
62354SOL    HW287089  12.247   4.453  10.103
62355SOL     OW87090  11.940   4.868  10.333
62355SOL    HW187091  11.862   4.885  10.393
62355SOL    HW287092  11.974   4.955  10.297
62356SOL     OW87093  12.022   4.522  11.133
62356SOL    HW187094  12.018   4.598  11.198
62356SOL    HW287095  12.044   4.558  11.042
62357SOL     OW87096  11.857   4.736   9.975
62357SOL    HW187097  11.926   4.720  10.045
62357SOL    HW287098  11.784   4.793  10.013
62358SOL     OW87099  11.858   4.885  11.113
62358SOL    HW187100  11.918   4.964  11.127
62358SOL    HW287101  11.772   4.916  11.072
62359SOL     OW87102  11.507   5.159  10.371
62359SOL    HW187103  11.429   5.128  10.318
62359SOL    HW287104  11.565   5.217  10.314
62360SOL     OW87105  11.610   4.116  10.809
62360SOL    HW187106  11.692   4.060  10.818
62360SOL    HW287107  11.529   4.058  10.813
62361SOL     OW87108  11.403   5.437   9.793
62361SOL    HW187109  11.437   5.514   9.847
62361SOL    HW287110  11.447   5.437   9.703
62362SOL     OW87111  12.299   5.065  11.000
62362SOL    HW187112  12.346   5.065  11.088
62362SOL    HW287113  12.251   4.978  10.989
62363SOL     OW87114  11.402   5.158   9.848
62363SOL    HW187115  11.376   5.254   9.848
62363SOL    HW287116  11.331   5.104   9.893
62364SOL     OW87117  11.412   4.815  10.196
62364SOL    HW187118  11.426   4.731  10.248
62364SOL    HW287119  11.357   4.879  10.251
62365SOL     OW87120  11.792   5.510  10.749
62365SOL    HW187121  11.700   5.493  10.784
62365SOL    HW287122  11.820   5.602  10.775
62366SOL     OW87123  11.778   4.688   9.433
62366SOL    HW187124  11.785   4.772   9.379
62366SOL    HW287125  11.824   4.701   9.521
62367SOL     OW87126  11.294   4.367   9.873
62367SOL    HW187127  11.249   4.279   9.890
62367SOL    HW287128  11.293   4.421   9.957
62368SOL     OW87129  11.199   5.320   9.427
62368SOL    HW187130  11.180   5.224   9.448
62368SOL    HW287131  11.166   5.378   9.502
62369SOL     OW87132  12.861   4.646   9.922
62369SOL    HW187133  12.956   4.617   9.930
62369SOL    HW287134  12.853   4.711   9.847
62370SOL     OW87135  11.285   4.461  10.907
62370SOL    HW187136  11.373   4.448  10.952
62370SOL    HW287137  11.272   4.558  10.885
62371SOL     OW87138  11.785   5.089  10.036
62371SOL    HW187139  11.736   5.002  10.045
62371SOL    HW287140  11.762   5.132   9.949
62372SOL     OW87141  12.465   4.952  10.733
62372SOL    HW187142  12.502   4.879  10.675
62372SOL    HW287143  12.517   4.957  10.818
62373SOL     OW87144  11.981   3.728   9.812
62373SOL    HW187145  12.021   3.819   9.803
62373SOL    HW287146  11.881   3.736   9.818
62374SOL     OW87147  11.369   4.700  10.574
62374SOL    HW187148  11.458   4.655  10.560
62374SOL    HW287149  11.296   4.635  10.555
62375SOL     OW87150  12.359   5.516  10.926
62375SOL    HW187151  12.383   5.576  10.850
62375SOL    HW287152  12.366   5.421  10.896
62376SOL     OW87153  11.489   3.975  11.111
62376SOL    HW187154  11.560   4.046  11.117
62376SOL    HW287155  11.401   4.014  11.139
62377SOL     OW87156  12.638   5.141  10.263
62377SOL    HW187157  12.579   5.147  10.343
62377SOL    HW287158  12.623   5.053  10.217
62378SOL     OW87159  11.770   4.453   9.580
62378SOL    HW187160  11.794   4.522   9.512
62378SOL    HW287161  11.692   4.486   9.634
62379SOL     OW87162  12.453   4.069  10.254
62379SOL    HW187163  12.367   4.019  10.241
62379SOL    HW287164  12.515   4.015  10.310
62380SOL     OW87165  11.979   4.329  10.775
62380SOL    HW187166  11.932   4.326  10.864
62380SOL    HW287167  11.928   4.274  10.709
62381SOL     OW87168  12.566   4.193  10.984
62381SOL    HW187169  12.546   4.236  11.072
62381SOL    HW287170  12.644   4.131  10.993
62382SOL     OW87171  12.145   4.614  10.882
62382SOL    HW187172  12.191   4.530  10.853
62382SOL    HW287173  12.089   4.648  10.807
62383SOL     OW87174  12.163   4.134  10.552
62383SOL    HW187175  12.086   4.168  10.606
62383SOL    HW287176  12.129   4.083  10.473
62384SOL     OW87177  12.213   4.425   9.739
62384SOL    HW187178  12.239   4.421   9.835
62384SOL    HW287179  12.128   4.374   9.725
62385SOL     OW87180  11.248   4.535  10.099
62385SOL    HW187181  11.347   4.523  10.108
62385SOL    HW287182  11.224   4.630  10.120
62386SOL     OW87183  11.302   5.545  10.881
62386SOL    HW187184  11.292   5.530  10.980
62386SOL    HW287185  11.216   5.581  10.845
62387SOL     OW87186  12.037   4.072   9.505
62387SOL    HW187187  12.096   4.135   9.456
62387SOL    HW287188  12.056   3.978   9.476
62388SOL     OW87189  12.534   4.868   9.855
62388SOL    HW187190  12.617   4.839   9.807
62388SOL    HW287191  12.485   4.935   9.799
62389SOL     OW87192  11.722   3.920  10.195
62389SOL    HW187193  11.717   3.915  10.295
62389SOL    HW287194  11.724   4.016  10.166
62390SOL     OW87195  12.180   5.180   9.787
62390SOL    HW187196  12.134   5.252   9.735
62390SOL    HW287197  12.176   5.200   9.885
62391SOL     OW87198  11.523   5.525  10.163
62391SOL    HW187199  11.573   5.439  10.169
62391SOL    HW287200  11.588   5.602  10.160
62392SOL     OW87201  12.399   5.274  10.816
62392SOL    HW187202  12.405   5.197  10.880
62392SOL    HW287203  12.347   5.248  10.736
62393SOL     OW87204  11.493   4.667   9.552
62393SOL    HW187205  11.575   4.706   9.510
62393SOL    HW287206  11.466   4.585   9.503
62394SOL     OW87207  11.633   4.990  11.037
62394SOL    HW187208  11.583   4.991  10.951
62394SOL    HW287209  11.570   4.972  11.113
62395SOL     OW87210  12.283   5.500   9.547
62395SOL    HW187211  12.223   5.438   9.597
62395SOL    HW287212  12.314   5.456   9.462
62396SOL     OW87213  11.374   4.009  10.808
62396SOL    HW187214  11.294   4.069  10.795
62396SOL    HW287215  11.364   3.960  10.894
62397SOL     OW87216  11.636   5.467   9.633
62397SOL    HW187217  11.669   5.506   9.719
62397SOL    HW287218  11.712   5.460   9.568
62398SOL     OW87219  12.572   3.831   9.736
62398SOL    HW187220  12.548   3.794   9.646
62398SOL    HW287221  12.671   3.847   9.740
62399SOL     OW87222  11.421   5.509  10.551
62399SOL    HW187223  11.478   5.444  10.601
62399SOL    HW287224  11.405   5.476  10.458
62400SOL     OW87225  12.112   5.422  10.214
62400SOL    HW187226  12.192   5.365  10.235
62400SOL    HW287227  12.063   5.382  10.137
62401SOL     OW87228  11.554   4.424   9.790
62401SOL    HW187229  11.599   4.334   9.787
62401SOL    HW287230  11.460   4.413   9.823
62402SOL     OW87231  11.786   3.846   9.427
62402SOL    HW187232  11.884   3.824   9.434
62402SOL    HW287233  11.755   3.829   9.334
62403SOL     OW87234  11.953   3.988  11.059
62403SOL    HW187235  12.020   3.927  11.102
62403SOL    HW287236  11.880   4.007  11.124
62404SOL     OW87237  12.060   5.238  10.505
62404SOL    HW187238  12.037   5.213  10.411
62404SOL    HW287239  12.121   5.169  10.544
62405SOL     OW87240  12.523   4.314  10.743
62405SOL    HW187241  12.551   4.271  10.828
62405SOL    HW287242  12.548   4.410  10.744
62406SOL     OW87243  11.975   5.126  10.234
62406SOL    HW187244  12.065   5.140  10.192
62406SOL    HW287245  11.904   5.128  10.163
62407SOL     OW87246  12.094   4.227  10.209
62407SOL    HW187247  12.069   4.218  10.113
62407SOL    HW287248  12.142   4.145  10.240
62408SOL     OW87249  11.711   3.788   9.822
62408SOL    HW187250  11.630   3.789   9.880
62408SOL    HW287251  11.714   3.871   9.767
62409SOL     OW87252  12.606   4.912   9.351
62409SOL    HW187253  12.638   4.836   9.408
62409SOL    HW287254  12.514   4.939   9.381
62410SOL     OW87255  11.469   3.759   9.481
62410SOL    HW187256  11.518   3.843   9.460
62410SOL    HW287257  11.531   3.694   9.526
62411SOL     OW87258  12.107   3.960   9.790
62411SOL    HW187259  12.059   4.001   9.712
62411SOL    HW287260  12.206   3.958   9.771
62412SOL     OW87261  12.248   4.407  10.774
62412SOL    HW187262  12.168   4.346  10.777
62412SOL    HW287263  12.329   4.354  10.750
62413SOL     OW87264  12.399   5.294  10.103
62413SOL    HW187265  12.420   5.368  10.038
62413SOL    HW287266  12.467   5.294  10.176
62414SOL     OW87267  11.631   4.876  10.051
62414SOL    HW187268  11.560   4.849  10.116
62414SOL    HW287269  11.605   4.848   9.958
62415SOL     OW87270  12.443   5.521   9.901
62415SOL    HW187271  12.487   5.585   9.837
62415SOL    HW287272  12.393   5.573   9.971
62416SOL     OW87273  12.204   4.273   9.326
62416SOL    HW187274  12.163   4.355   9.287
62416SOL    HW287275  12.268   4.299   9.399
62417SOL     OW87276  11.250   4.280  10.696
62417SOL    HW187277  11.342   4.279  10.655
62417SOL    HW287278  11.244   4.354  10.763
62418SOL     OW87279  11.733   3.946  10.457
62418SOL    HW187280  11.771   3.862  10.494
62418SOL    HW287281  11.645   3.965  10.501
62419SOL     OW87282  12.038   4.178   9.952
62419SOL    HW187283  12.006   4.250   9.890
62419SOL    HW287284  12.062   4.097   9.899
62420SOL     OW87285  12.189   3.763  10.063
62420SOL    HW187286  12.117   3.768   9.994
62420SOL    HW287287  12.165   3.694  10.132
62421SOL     OW87288  12.601   4.897  10.177
62421SOL    HW187289  12.546   4.813  10.170
62421SOL    HW287290  12.627   4.926  10.085
62422SOL     OW87291  11.660   5.109   9.484
62422SOL    HW187292  11.573   5.094   9.531
62422SOL    HW287293  11.643   5.135   9.389
62423SOL     OW87294  12.562   4.299   9.388
62423SOL    HW187295  12.508   4.278   9.469
62423SOL    HW287296  12.653   4.258   9.397
62424SOL     OW87297  11.699   3.980   9.638
62424SOL    HW187298  11.726   3.921   9.563
62424SOL    HW287299  11.699   4.075   9.607
62425SOL     OW87300  12.236   5.071  10.650
62425SOL    HW187301  12.156   5.048  10.705
62425SOL    HW287302  12.319   5.045  10.699
62426SOL     OW87303  12.764   5.353  10.935
62426SOL    HW187304  12.791   5.387  10.845
62426SOL    HW287305  12.843   5.315  10.981
62427SOL     OW87306  12.283   4.919  10.410
62427SOL    HW187307  12.243   4.963  10.491
62427SOL    HW287308  12.242   4.956  10.327
62428SOL     OW87309  12.087   3.813  10.712
62428SOL    HW187310  12.112   3.793  10.617
62428SOL    HW287311  12.159   3.869  10.754
62429SOL     OW87312  12.152   4.840  11.029
62429SOL    HW187313  12.053   4.846  11.039
62429SOL    HW287314  12.175   4.760  10.973
62430SOL     OW87315  11.877   4.774   9.678
62430SOL    HW187316  11.863   4.781   9.777
62430SOL    HW287317  11.961   4.723   9.660
62431SOL     OW87318  11.582   4.537  10.561
62431SOL    HW187319  11.668   4.549  10.611
62431SOL    HW287320  11.540   4.450  10.588
62432SOL     OW87321  12.446   4.110  10.572
62432SOL    HW187322  12.467   4.184  10.636
62432SOL    HW287323  12.357   4.127  10.529
62433SOL     OW87324  11.236   5.288  10.641
62433SOL    HW187325  11.190   5.370  10.607
62433SOL    HW287326  11.334   5.307  10.650
62434SOL     OW87327  11.539   4.824   9.811
62434SOL    HW187328  11.532   4.907   9.755
62434SOL    HW287329  11.543   4.744   9.751
62435SOL     OW87330  11.738   4.261  10.175
62435SOL    HW187331  11.750   4.327  10.101
62435SOL    HW287332  11.784   4.295  10.258
62436SOL     OW87333  12.424   5.072   9.698
62436SOL    HW187334  12.474   5.149   9.738
62436SOL    HW287335  12.329   5.074   9.730
62437SOL     OW87336  12.444   5.169  10.452
62437SOL    HW187337  12.491   5.182  10.539
62437SOL    HW287338  12.378   5.095  10.461
62438SOL     OW87339  11.526   5.234  10.639
62438SOL    HW187340  11.505   5.190  10.552
62438SOL    HW287341  11.623   5.260  10.642
62439SOL     OW87342  11.574   4.475  10.908
62439SOL    HW187343  11.642   4.530  10.861
62439SOL    HW287344  11.614   4.387  10.935
62440SOL     OW87345  12.185   3.829  11.080
62440SOL    HW187346  12.191   3.914  11.028
62440SOL    HW287347  12.217   3.753  11.023
62441SOL     OW87348  11.676   3.774  11.050
62441SOL    HW187349  11.634   3.717  10.980
62441SOL    HW287350  11.610   3.843  11.082
62442SOL     OW87351  11.745   4.594  10.339
62442SOL    HW187352  11.789   4.683  10.330
62442SOL    HW287353  11.682   4.594  10.416
62443SOL     OW87354  12.532   4.586  10.355
62443SOL    HW187355  12.457   4.586  10.289
62443SOL    HW287356  12.569   4.494  10.364
62444SOL     OW87357  12.381   4.249   9.585
62444SOL    HW187358  12.394   4.165   9.639
62444SOL    HW287359  12.352   4.323   9.645
62445SOL     OW87360  11.479   3.937  10.541
62445SOL    HW187361  11.456   3.974  10.631
62445SOL    HW287362  11.449   3.842  10.535
62446SOL     OW87363  11.209   5.034  10.592
62446SOL    HW187364  11.262   4.985  10.660
62446SOL    HW287365  11.231   5.132  10.597
62447SOL     OW87366  11.904   4.358  10.374
62447SOL    HW187367  11.963   4.332  10.298
62447SOL    HW287368  11.876   4.454  10.363
62448SOL     OW87369  11.479   3.787   9.928
62448SOL    HW187370  11.468   3.881   9.961
62448SOL    HW287371  11.474   3.724  10.005
62449SOL     OW87372  12.794   4.091   9.684
62449SOL    HW187373  12.796   4.015   9.748
62449SOL    HW287374  12.746   4.168   9.724
62450SOL     OW87375  12.195   4.490  10.276
62450SOL    HW187376  12.210   4.511  10.372
62450SOL    HW287377  12.165   4.395  10.267
62451SOL     OW87378  12.152   5.297  11.010
62451SOL    HW187379  12.132   5.341  10.922
62451SOL    HW287380  12.191   5.206  10.994
62452SOL     OW87381  11.522   4.622  11.114
62452SOL    HW187382  11.598   4.666  11.162
62452SOL    HW287383  11.557   4.575  11.032
62453SOL     OW87384  12.475   4.562   9.352
62453SOL    HW187385  12.509   4.469   9.367
62453SOL    HW287386  12.493   4.589   9.257
62454SOL     OW87387  12.240   5.057  10.159
62454SOL    HW187388  12.247   4.973  10.104
62454SOL    HW287389  12.302   5.126  10.123
62455SOL     OW87390  11.491   4.534  10.259
62455SOL    HW187391  11.584   4.570  10.264
62455SOL    HW287392  11.485   4.449  10.311
62456SOL     OW87393  11.511   4.233  10.316
62456SOL    HW187394  11.459   4.150  10.299
62456SOL    HW287395  11.588   4.238  10.252
62457SOL     OW87396  12.310   4.104  10.988
62457SOL    HW187397  12.265   4.167  11.052
62457SOL    HW287398  12.403   4.135  10.971
62458SOL     OW87399  12.332   3.931  10.787
62458SOL    HW187400  12.332   3.995  10.864
62458SOL    HW287401  12.360   3.979  10.704
62459SOL     OW87402  11.180   5.050   9.510
62459SOL    HW187403  11.087   5.071   9.479
62459SOL    HW287404  11.190   4.951   9.523
62460SOL     OW87405  11.260   5.525  10.237
62460SOL    HW187406  11.218   5.439  10.210
62460SOL    HW287407  11.354   5.528  10.203
62461SOL     OW87408  11.676   5.292  10.220
62461SOL    HW187409  11.742   5.366  10.229
62461SOL    HW287410  11.720   5.213  10.178
62462SOL     OW87411  12.174   4.520  10.548
62462SOL    HW187412  12.215   4.488  10.634
62462SOL    HW287413  12.078   4.493  10.545
62463SOL     OW87414  11.212   4.268  10.424
62463SOL    HW187415  11.297   4.235  10.383
62463SOL    HW287416  11.225   4.283  10.522
62464SOL     OW87417  11.361   4.244  11.032
62464SOL    HW187418  11.420   4.204  10.962
62464SOL    HW287419  11.303   4.315  10.991
62465SOL     OW87420  12.541   4.674  10.970
62465SOL    HW187421  12.580   4.763  10.990
62465SOL    HW287422  12.551   4.654  10.873
62466SOL     OW87423  11.987   4.296   9.635
62466SOL    HW187424  11.994   4.207   9.589
62466SOL    HW287425  11.893   4.330   9.627
62467SOL     OW87426  11.424   5.288  11.054
62467SOL    HW187427  11.394   5.345  11.130
62467SOL    HW287428  11.417   5.191  11.080
62468SOL     OW87429  11.843   4.188  10.579
62468SOL    HW187430  11.809   4.099  10.549
62468SOL    HW287431  11.869   4.242  10.499
62469SOL     OW87432  12.102   5.402  10.775
62469SOL    HW187433  12.078   5.384  10.680
62469SOL    HW287434  12.132   5.496  10.785
62470SOL     OW87435  11.645   4.224   9.501
62470SOL    HW187436  11.706   4.304   9.505
62470SOL    HW287437  11.550   4.255   9.508
62471SOL     OW87438  11.331   4.861  10.776
62471SOL    HW187439  11.353   4.800  10.852
62471SOL    HW287440  11.341   4.812  10.690
62472SOL     OW87441  12.519   4.783  10.544
62472SOL    HW187442  12.543   4.720  10.470
62472SOL    HW287443  12.429   4.823  10.526
62473SOL     OW87444  12.474   4.579   9.619
62473SOL    HW187445  12.388   4.548   9.661
62473SOL    HW287446  12.470   4.565   9.520
62474SOL     OW87447  12.424   5.455  10.438
62474SOL    HW187448  12.508   5.460  10.384
62474SOL    HW287449  12.401   5.359  10.456
62475SOL     OW87450  11.255   4.982  10.332
62475SOL    HW187451  11.250   4.981  10.432
62475SOL    HW287452  11.172   4.941  10.294
62476SOL     OW87453  11.860   5.386  11.026
62476SOL    HW187454  11.804   5.467  11.035
62476SOL    HW287455  11.912   5.390  10.940
62477SOL     OW87456  12.898   3.859   9.833
62477SOL    HW187457  12.971   3.842   9.766
62477SOL    HW287458  12.867   3.772   9.871
62478SOL     OW87459  12.560   5.297   9.787
62478SOL    HW187460  12.627   5.309   9.713
62478SOL    HW287461  12.520   5.386   9.810
62479SOL     OW87462  11.302   5.518  11.161
62479SOL    HW187463  11.261   5.444  11.214
62479SOL    HW287464  11.366   5.569  11.219
62480SOL     OW87465  12.452   4.651   9.982
62480SOL    HW187466  12.512   4.570   9.984
62480SOL    HW287467  12.492   4.720   9.922
62481SOL     OW87468  12.002   4.997  10.732
62481SOL    HW187469  11.997   5.030  10.827
62481SOL    HW287470  11.916   5.016  10.686
62482SOL     OW87471  11.844   5.340   9.464
62482SOL    HW187472  11.853   5.350   9.365
62482SOL    HW287473  11.804   5.251   9.485
62483SOL     OW87474  11.435   4.050  10.030
62483SOL    HW187475  11.356   4.101   9.996
62483SOL    HW287476  11.426   4.035  10.128
62484SOL     OW87477  12.366   5.336   9.341
62484SOL    HW187478  12.372   5.243   9.378
62484SOL    HW287479  12.307   5.336   9.261
62485SOL     OW87480  11.994   4.726  10.682
62485SOL    HW187481  12.034   4.725  10.590
62485SOL    HW287482  12.004   4.818  10.722
62486SOL     OW87483  12.088   4.634   9.601
62486SOL    HW187484  12.151   4.672   9.533
62486SOL    HW287485  12.128   4.551   9.640
62487SOL     OW87486  11.544   5.012  10.800
62487SOL    HW187487  11.531   5.105  10.766
62487SOL    HW287488  11.460   4.960  10.787
62488SOL     OW87489  12.211   4.822  10.006
62488SOL    HW187490  12.141   4.775  10.060
62488SOL    HW287491  12.270   4.754   9.963
62489SOL     OW87492  12.186   3.960  10.281
62489SOL    HW187493  12.178   3.924  10.188
62489SOL    HW287494  12.184   3.884  10.346
62490SOL     OW87495  11.762   5.211   9.801
62490SOL    HW187496  11.804   5.153   9.731
62490SOL    HW287497  11.718   5.290   9.757
62491SOL     OW87498  11.427   5.072   9.600
62491SOL    HW187499  11.331   5.073   9.573
62491SOL    HW287500  11.439   5.125   9.684
62492SOL     OW87501  11.277   4.737  11.036
62492SOL    HW187502  11.200   4.704  11.090
62492SOL    HW287503  11.362   4.707  11.078
62493SOL     OW87504  11.844   3.927  10.799
62493SOL    HW187505  11.934   3.911  10.759
62493SOL    HW287506  11.852   3.932  10.898
62494SOL     OW87507  11.247   4.069   9.343
62494SOL    HW187508  11.155   4.041   9.314
62494SOL    HW287509  11.278   4.146   9.287
62495SOL     OW87510  12.612   4.580  10.708
62495SOL    HW187511  12.555   4.632  10.645
62495SOL    HW287512  12.708   4.592  10.684
62496SOL     OW87513  11.244   3.890   9.628
62496SOL    HW187514  11.227   3.973   9.574
62496SOL    HW287515  11.334   3.853   9.606
62497SOL     OW87516  12.355   5.059   9.429
62497SOL    HW187517  12.256   5.048   9.431
62497SOL    HW287518  12.389   5.074   9.522
62498SOL     OW87519  11.785   4.566  10.741
62498SOL    HW187520  11.841   4.647  10.724
62498SOL    HW287521  11.844   4.486  10.744
62499SOL     OW87522  11.888   4.289  11.018
62499SOL    HW187523  11.907   4.354  11.092
62499SOL    HW287524  11.948   4.209  11.027
62500SOL     OW87525  12.622   4.944  10.943
62500SOL    HW187526  12.613   4.934  11.042
62500SOL    HW287527  12.718   4.937  10.917
62501SOL     OW87528  11.562   5.465  10.870
62501SOL    HW187529  11.471   5.506  10.868
62501SOL    HW287530  11.555   5.371  10.902
62502SOL     OW87531  12.397   4.049   9.759
62502SOL    HW187532  12.462   3.975   9.748
62502SOL    HW287533  12.417   4.099   9.843
62503SOL     OW87534  11.766   4.469   9.962
62503SOL    HW187535  11.816   4.554   9.943
62503SOL    HW287536  11.678   4.471   9.914
62504SOL     OW87537  12.031   5.098   9.326
62504SOL    HW187538  11.985   5.113   9.414
62504SOL    HW287539  12.075   5.183   9.296
62505SOL     OW87540  11.833   5.514  10.263
62505SOL    HW187541  11.787   5.602  10.250
62505SOL    HW287542  11.932   5.526  10.256
62506SOL     OW87543  12.031   4.680  10.171
62506SOL    HW187544  12.085   4.611  10.219
62506SOL    HW287545  11.999   4.749  10.237
62507SOL     OW87546  12.255   4.708   9.397
62507SOL    HW187547  12.232   4.761   9.315
62507SOL    HW287548  12.336   4.652   9.378
62508SOL     OW87549  11.393   5.038  11.154
62508SOL    HW187550  11.328   4.965  11.133
62508SOL    HW287551  11.397   5.052  11.252
62509SOL     OW87552  11.251   4.964   9.963
62509SOL    HW187553  11.250   4.917  10.051
62509SOL    HW287554  11.333   4.936   9.912
62510SOL     OW87555  11.844   5.115  10.934
62510SOL    HW187556  11.766   5.065  10.972
62510SOL    HW287557  11.841   5.210  10.965
62511SOL     OW87558  11.600   4.148   9.830
62511SOL    HW187559  11.630   4.076   9.768
62511SOL    HW287560  11.561   4.108   9.913
62512SOL     OW87561  12.877   5.211  10.414
62512SOL    HW187562  12.784   5.186  10.387
62512SOL    HW287563  12.903   5.161  10.496
62513SOL     OW87564  11.489   4.271  10.590
62513SOL    HW187565  11.527   4.212  10.662
62513SOL    HW287566  11.529   4.245  10.502
62514SOL     OW87567  11.984   5.310   9.997
62514SOL    HW187568  12.016   5.320   9.903
62514SOL    HW287569  11.905   5.248   9.999
62515SOL     OW87570  12.596   3.938  10.422
62515SOL    HW187571  12.648   3.873  10.477
62515SOL    HW287572  12.547   4.001  10.483
62516SOL     OW87573  12.173   3.758  10.464
62516SOL    HW187574  12.110   3.686  10.433
62516SOL    HW287575  12.266   3.722  10.464
62517SOL     OW87576  11.942   5.054   9.611
62517SOL    HW187577  11.896   4.967   9.628
62517SOL    HW287578  12.033   5.051   9.652
62518SOL     OW87579  11.790   5.291  10.594
62518SOL    HW187580  11.785   5.373  10.651
62518SOL    HW287581  11.879   5.288  10.549
62519SOL     OW87582  12.524   3.776   9.478
62519SOL    HW187583  12.559   3.735   9.394
62519SOL    HW287584  12.434   3.738   9.498
62520SOL     OW87585  12.472   4.177  10.001
62520SOL    HW187586  12.413   4.257  10.005
62520SOL    HW287587  12.487   4.142  10.094
62521SOL     OW87588  11.211   4.801   9.610
62521SOL    HW187589  11.310   4.790   9.601
62521SOL    HW287590  11.171   4.715   9.642
62522SOL     OW87591  12.047   5.370   9.647
62522SOL    HW187592  11.970   5.335   9.593
62522SOL    HW287593  12.015   5.441   9.709
62523SOL     OW87594  11.402   4.352  11.285
62523SOL    HW187595  11.309   4.350  11.322
62523SOL    HW287596  11.403   4.313  11.193
62524SOL     OW87597  11.397   3.999  12.168
62524SOL    HW187598  11.432   3.982  12.260
62524SOL    HW287599  11.309   3.954  12.156
62525SOL     OW87600  11.191   4.092  11.819
62525SOL    HW187601  11.109   4.135  11.858
62525SOL    HW287602  11.163   4.019  11.756
62526SOL     OW87603  11.741   4.999  12.337
62526SOL    HW187604  11.648   4.992  12.300
62526SOL    HW287605  11.752   5.088  12.381
62527SOL     OW87606  12.727   5.235  11.875
62527SOL    HW187607  12.670   5.219  11.956
62527SOL    HW287608  12.668   5.245  11.795
62528SOL     OW87609  12.307   4.427  11.889
62528SOL    HW187610  12.364   4.505  11.864
62528SOL    HW287611  12.247   4.453  11.965
62529SOL     OW87612  11.940   4.868  12.195
62529SOL    HW187613  11.862   4.885  12.255
62529SOL    HW287614  11.974   4.955  12.159
62530SOL     OW87615  11.857   4.736  11.837
62530SOL    HW187616  11.926   4.720  11.907
62530SOL    HW287617  11.784   4.793  11.875
62531SOL     OW87618  11.507   5.159  12.233
62531SOL    HW187619  11.429   5.128  12.180
62531SOL    HW287620  11.565   5.217  12.176
62532SOL     OW87621  11.610   4.116  12.671
62532SOL    HW187622  11.692   4.060  12.680
62532SOL    HW287623  11.529   4.058  12.675
62533SOL     OW87624  11.403   5.437  11.655
62533SOL    HW187625  11.437   5.514  11.709
62533SOL    HW287626  11.447   5.437  11.565
62534SOL     OW87627  11.402   5.158  11.710
62534SOL    HW187628  11.376   5.254  11.710
62534SOL    HW287629  11.331   5.104  11.755
62535SOL     OW87630  11.412   4.815  12.058
62535SOL    HW187631  11.426   4.731  12.110
62535SOL    HW287632  11.357   4.879  12.113
62536SOL     OW87633  11.792   5.510  12.611
62536SOL    HW187634  11.700   5.493  12.646
62536SOL    HW287635  11.820   5.602  12.637
62537SOL     OW87636  11.778   4.688  11.295
62537SOL    HW187637  11.785   4.772  11.241
62537SOL    HW287638  11.824   4.701  11.383
62538SOL     OW87639  11.294   4.367  11.735
62538SOL    HW187640  11.249   4.279  11.752
62538SOL    HW287641  11.293   4.421  11.819
62539SOL     OW87642  11.199   5.320  11.289
62539SOL    HW187643  11.180   5.224  11.310
62539SOL    HW287644  11.166   5.378  11.364
62540SOL     OW87645  12.861   4.646  11.784
62540SOL    HW187646  12.956   4.617  11.792
62540SOL    HW287647  12.853   4.711  11.709
62541SOL     OW87648  11.785   5.089  11.898
62541SOL    HW187649  11.736   5.002  11.907
62541SOL    HW287650  11.762   5.132  11.811
62542SOL     OW87651  11.981   3.728  11.674
62542SOL    HW187652  12.021   3.819  11.665
62542SOL    HW287653  11.881   3.736  11.680
62543SOL     OW87654  11.369   4.700  12.436
62543SOL    HW187655  11.458   4.655  12.422
62543SOL    HW287656  11.296   4.635  12.417
62544SOL     OW87657  11.489   3.975  12.973
62544SOL    HW187658  11.560   4.046  12.979
62544SOL    HW287659  11.401   4.014  13.001
62545SOL     OW87660  12.638   5.141  12.125
62545SOL    HW187661  12.579   5.147  12.205
62545SOL    HW287662  12.623   5.053  12.079
62546SOL     OW87663  11.770   4.453  11.442
62546SOL    HW187664  11.794   4.522  11.374
62546SOL    HW287665  11.692   4.486  11.496
62547SOL     OW87666  12.453   4.069  12.116
62547SOL    HW187667  12.367   4.019  12.103
62547SOL    HW287668  12.515   4.015  12.172
62548SOL     OW87669  11.979   4.329  12.637
62548SOL    HW187670  11.932   4.326  12.726
62548SOL    HW287671  11.928   4.274  12.571
62549SOL     OW87672  12.163   4.134  12.414
62549SOL    HW187673  12.086   4.168  12.468
62549SOL    HW287674  12.129   4.083  12.335
62550SOL     OW87675  12.213   4.425  11.601
62550SOL    HW187676  12.239   4.421  11.697
62550SOL    HW287677  12.128   4.374  11.587
62551SOL     OW87678  11.248   4.535  11.961
62551SOL    HW187679  11.347   4.523  11.970
62551SOL    HW287680  11.224   4.630  11.982
62552SOL     OW87681  11.302   5.545  12.743
62552SOL    HW187682  11.292   5.530  12.842
62552SOL    HW287683  11.216   5.581  12.707
62553SOL     OW87684  12.037   4.072  11.367
62553SOL    HW187685  12.096   4.135  11.318
62553SOL    HW287686  12.056   3.978  11.338
62554SOL     OW87687  12.534   4.868  11.717
62554SOL    HW187688  12.617   4.839  11.669
62554SOL    HW287689  12.485   4.935  11.661
62555SOL     OW87690  11.722   3.920  12.057
62555SOL    HW187691  11.717   3.915  12.157
62555SOL    HW287692  11.724   4.016  12.028
62556SOL     OW87693  12.180   5.180  11.649
62556SOL    HW187694  12.134   5.252  11.597
62556SOL    HW287695  12.176   5.200  11.747
62557SOL     OW87696  11.523   5.525  12.025
62557SOL    HW187697  11.573   5.439  12.031
62557SOL    HW287698  11.588   5.602  12.022
62558SOL     OW87699  11.493   4.667  11.414
62558SOL    HW187700  11.575   4.706  11.372
62558SOL    HW287701  11.466   4.585  11.365
62559SOL     OW87702  12.283   5.500  11.409
62559SOL    HW187703  12.223   5.438  11.459
62559SOL    HW287704  12.314   5.456  11.324
62560SOL     OW87705  11.374   4.009  12.670
62560SOL    HW187706  11.294   4.069  12.657
62560SOL    HW287707  11.364   3.960  12.756
62561SOL     OW87708  11.636   5.467  11.495
62561SOL    HW187709  11.669   5.506  11.581
62561SOL    HW287710  11.712   5.460  11.430
62562SOL     OW87711  12.572   3.831  11.598
62562SOL    HW187712  12.548   3.794  11.508
62562SOL    HW287713  12.671   3.847  11.602
62563SOL     OW87714  11.421   5.509  12.413
62563SOL    HW187715  11.478   5.444  12.463
62563SOL    HW287716  11.405   5.476  12.320
62564SOL     OW87717  12.112   5.422  12.076
62564SOL    HW187718  12.192   5.365  12.097
62564SOL    HW287719  12.063   5.382  11.999
62565SOL     OW87720  11.554   4.424  11.652
62565SOL    HW187721  11.599   4.334  11.649
62565SOL    HW287722  11.460   4.413  11.685
62566SOL     OW87723  11.786   3.846  11.289
62566SOL    HW187724  11.884   3.824  11.296
62566SOL    HW287725  11.755   3.829  11.196
62567SOL     OW87726  12.060   5.238  12.367
62567SOL    HW187727  12.037   5.213  12.273
62567SOL    HW287728  12.121   5.169  12.406
62568SOL     OW87729  11.975   5.126  12.096
62568SOL    HW187730  12.065   5.140  12.054
62568SOL    HW287731  11.904   5.128  12.025
62569SOL     OW87732  12.094   4.227  12.071
62569SOL    HW187733  12.069   4.218  11.975
62569SOL    HW287734  12.142   4.145  12.102
62570SOL     OW87735  11.711   3.788  11.684
62570SOL    HW187736  11.630   3.789  11.742
62570SOL    HW287737  11.714   3.871  11.629
62571SOL     OW87738  12.606   4.912  11.213
62571SOL    HW187739  12.638   4.836  11.270
62571SOL    HW287740  12.514   4.939  11.243
62572SOL     OW87741  11.469   3.759  11.343
62572SOL    HW187742  11.518   3.843  11.322
62572SOL    HW287743  11.531   3.694  11.388
62573SOL     OW87744  12.107   3.960  11.652
62573SOL    HW187745  12.059   4.001  11.574
62573SOL    HW287746  12.206   3.958  11.633
62574SOL     OW87747  12.399   5.294  11.965
62574SOL    HW187748  12.420   5.368  11.900
62574SOL    HW287749  12.467   5.294  12.038
62575SOL     OW87750  11.631   4.876  11.913
62575SOL    HW187751  11.560   4.849  11.978
62575SOL    HW287752  11.605   4.848  11.820
62576SOL     OW87753  12.443   5.521  11.763
62576SOL    HW187754  12.487   5.585  11.699
62576SOL    HW287755  12.393   5.573  11.833
62577SOL     OW87756  12.204   4.273  11.188
62577SOL    HW187757  12.163   4.355  11.149
62577SOL    HW287758  12.268   4.299  11.261
62578SOL     OW87759  11.250   4.280  12.558
62578SOL    HW187760  11.342   4.279  12.517
62578SOL    HW287761  11.244   4.354  12.625
62579SOL     OW87762  11.733   3.946  12.319
62579SOL    HW187763  11.771   3.862  12.356
62579SOL    HW287764  11.645   3.965  12.363
62580SOL     OW87765  12.038   4.178  11.814
62580SOL    HW187766  12.006   4.250  11.752
62580SOL    HW287767  12.062   4.097  11.761
62581SOL     OW87768  12.189   3.763  11.925
62581SOL    HW187769  12.117   3.768  11.856
62581SOL    HW287770  12.165   3.694  11.994
62582SOL     OW87771  12.601   4.897  12.039
62582SOL    HW187772  12.546   4.813  12.032
62582SOL    HW287773  12.627   4.926  11.947
62583SOL     OW87774  11.660   5.109  11.346
62583SOL    HW187775  11.573   5.094  11.393
62583SOL    HW287776  11.643   5.135  11.251
62584SOL     OW87777  12.562   4.299  11.250
62584SOL    HW187778  12.508   4.278  11.331
62584SOL    HW287779  12.653   4.258  11.259
62585SOL     OW87780  11.699   3.980  11.500
62585SOL    HW187781  11.726   3.921  11.425
62585SOL    HW287782  11.699   4.075  11.469
62586SOL     OW87783  12.236   5.071  12.512
62586SOL    HW187784  12.156   5.048  12.567
62586SOL    HW287785  12.319   5.045  12.561
62587SOL     OW87786  12.283   4.919  12.272
62587SOL    HW187787  12.243   4.963  12.353
62587SOL    HW287788  12.242   4.956  12.189
62588SOL     OW87789  12.087   3.813  12.574
62588SOL    HW187790  12.112   3.793  12.479
62588SOL    HW287791  12.159   3.869  12.616
62589SOL     OW87792  11.877   4.774  11.540
62589SOL    HW187793  11.863   4.781  11.639
62589SOL    HW287794  11.961   4.723  11.522
62590SOL     OW87795  11.582   4.537  12.423
62590SOL    HW187796  11.668   4.549  12.473
62590SOL    HW287797  11.540   4.450  12.450
62591SOL     OW87798  12.446   4.110  12.434
62591SOL    HW187799  12.467   4.184  12.498
62591SOL    HW287800  12.357   4.127  12.391
62592SOL     OW87801  11.236   5.288  12.503
62592SOL    HW187802  11.190   5.370  12.469
62592SOL    HW287803  11.334   5.307  12.512
62593SOL     OW87804  11.539   4.824  11.673
62593SOL    HW187805  11.532   4.907  11.617
62593SOL    HW287806  11.543   4.744  11.613
62594SOL     OW87807  11.738   4.261  12.037
62594SOL    HW187808  11.750   4.327  11.963
62594SOL    HW287809  11.784   4.295  12.120
62595SOL     OW87810  12.424   5.072  11.560
62595SOL    HW187811  12.474   5.149  11.600
62595SOL    HW287812  12.329   5.074  11.592
62596SOL     OW87813  12.444   5.169  12.314
62596SOL    HW187814  12.491   5.182  12.401
62596SOL    HW287815  12.378   5.095  12.323
62597SOL     OW87816  11.526   5.234  12.501
62597SOL    HW187817  11.505   5.190  12.414
62597SOL    HW287818  11.623   5.260  12.504
62598SOL     OW87819  11.574   4.475  12.770
62598SOL    HW187820  11.642   4.530  12.723
62598SOL    HW287821  11.614   4.387  12.797
62599SOL     OW87822  12.759   4.503  12.842
62599SOL    HW187823  12.667   4.541  12.837
62599SOL    HW287824  12.819   4.550  12.777
62600SOL     OW87825  11.745   4.594  12.201
62600SOL    HW187826  11.789   4.683  12.192
62600SOL    HW287827  11.682   4.594  12.278
62601SOL     OW87828  12.532   4.586  12.217
62601SOL    HW187829  12.457   4.586  12.151
62601SOL    HW287830  12.569   4.494  12.226
62602SOL     OW87831  12.381   4.249  11.447
62602SOL    HW187832  12.394   4.165  11.501
62602SOL    HW287833  12.352   4.323  11.507
62603SOL     OW87834  11.479   3.937  12.403
62603SOL    HW187835  11.456   3.974  12.493
62603SOL    HW287836  11.449   3.842  12.397
62604SOL     OW87837  11.209   5.034  12.454
62604SOL    HW187838  11.262   4.985  12.522
62604SOL    HW287839  11.231   5.132  12.459
62605SOL     OW87840  11.904   4.358  12.236
62605SOL    HW187841  11.963   4.332  12.160
62605SOL    HW287842  11.876   4.454  12.225
62606SOL     OW87843  11.479   3.787  11.790
62606SOL    HW187844  11.468   3.881  11.823
62606SOL    HW287845  11.474   3.724  11.867
62607SOL     OW87846  12.794   4.091  11.546
62607SOL    HW187847  12.796   4.015  11.610
62607SOL    HW287848  12.746   4.168  11.586
62608SOL     OW87849  12.195   4.490  12.138
62608SOL    HW187850  12.210   4.511  12.234
62608SOL    HW287851  12.165   4.395  12.129
62609SOL     OW87852  12.152   5.297  12.872
62609SOL    HW187853  12.132   5.341  12.784
62609SOL    HW287854  12.191   5.206  12.856
62610SOL     OW87855  12.475   4.562  11.214
62610SOL    HW187856  12.509   4.469  11.229
62610SOL    HW287857  12.493   4.589  11.119
62611SOL     OW87858  12.240   5.057  12.021
62611SOL    HW187859  12.247   4.973  11.966
62611SOL    HW287860  12.302   5.126  11.985
62612SOL     OW87861  11.491   4.534  12.121
62612SOL    HW187862  11.584   4.570  12.126
62612SOL    HW287863  11.485   4.449  12.173
62613SOL     OW87864  11.511   4.233  12.178
62613SOL    HW187865  11.459   4.150  12.161
62613SOL    HW287866  11.588   4.238  12.114
62614SOL     OW87867  12.310   4.104  12.850
62614SOL    HW187868  12.265   4.167  12.914
62614SOL    HW287869  12.403   4.135  12.833
62615SOL     OW87870  12.332   3.931  12.649
62615SOL    HW187871  12.332   3.995  12.726
62615SOL    HW287872  12.360   3.979  12.566
62616SOL     OW87873  11.180   5.050  11.372
62616SOL    HW187874  11.087   5.071  11.341
62616SOL    HW287875  11.190   4.951  11.385
62617SOL     OW87876  11.260   5.525  12.099
62617SOL    HW187877  11.218   5.439  12.072
62617SOL    HW287878  11.354   5.528  12.065
62618SOL     OW87879  11.676   5.292  12.082
62618SOL    HW187880  11.742   5.366  12.091
62618SOL    HW287881  11.720   5.213  12.040
62619SOL     OW87882  12.174   4.520  12.410
62619SOL    HW187883  12.215   4.488  12.496
62619SOL    HW287884  12.078   4.493  12.407
62620SOL     OW87885  11.212   4.268  12.286
62620SOL    HW187886  11.297   4.235  12.245
62620SOL    HW287887  11.225   4.283  12.384
62621SOL     OW87888  11.987   4.296  11.497
62621SOL    HW187889  11.994   4.207  11.451
62621SOL    HW287890  11.893   4.330  11.489
62622SOL     OW87891  11.843   4.188  12.441
62622SOL    HW187892  11.809   4.099  12.411
62622SOL    HW287893  11.869   4.242  12.361
62623SOL     OW87894  12.102   5.402  12.637
62623SOL    HW187895  12.078   5.384  12.542
62623SOL    HW287896  12.132   5.496  12.647
62624SOL     OW87897  11.645   4.224  11.363
62624SOL    HW187898  11.706   4.304  11.367
62624SOL    HW287899  11.550   4.255  11.370
62625SOL     OW87900  11.331   4.861  12.638
62625SOL    HW187901  11.353   4.800  12.714
62625SOL    HW287902  11.341   4.812  12.552
62626SOL     OW87903  12.519   4.783  12.406
62626SOL    HW187904  12.543   4.720  12.332
62626SOL    HW287905  12.429   4.823  12.388
62627SOL     OW87906  12.474   4.579  11.481
62627SOL    HW187907  12.388   4.548  11.523
62627SOL    HW287908  12.470   4.565  11.382
62628SOL     OW87909  12.424   5.455  12.300
62628SOL    HW187910  12.508   5.460  12.246
62628SOL    HW287911  12.401   5.359  12.318
62629SOL     OW87912  11.255   4.982  12.194
62629SOL    HW187913  11.250   4.981  12.294
62629SOL    HW287914  11.172   4.941  12.156
62630SOL     OW87915  12.898   3.859  11.695
62630SOL    HW187916  12.971   3.842  11.628
62630SOL    HW287917  12.867   3.772  11.733
62631SOL     OW87918  12.560   5.297  11.649
62631SOL    HW187919  12.627   5.309  11.575
62631SOL    HW287920  12.520   5.386  11.672
62632SOL     OW87921  12.452   4.651  11.844
62632SOL    HW187922  12.512   4.570  11.846
62632SOL    HW287923  12.492   4.720  11.784
62633SOL     OW87924  11.844   5.340  11.326
62633SOL    HW187925  11.853   5.350  11.227
62633SOL    HW287926  11.804   5.251  11.347
62634SOL     OW87927  11.435   4.050  11.892
62634SOL    HW187928  11.356   4.101  11.858
62634SOL    HW287929  11.426   4.035  11.990
62635SOL     OW87930  12.366   5.336  11.203
62635SOL    HW187931  12.372   5.243  11.240
62635SOL    HW287932  12.307   5.336  11.123
62636SOL     OW87933  11.994   4.726  12.544
62636SOL    HW187934  12.034   4.725  12.452
62636SOL    HW287935  12.004   4.818  12.584
62637SOL     OW87936  12.088   4.634  11.463
62637SOL    HW187937  12.151   4.672  11.395
62637SOL    HW287938  12.128   4.551  11.502
62638SOL     OW87939  11.544   5.012  12.662
62638SOL    HW187940  11.531   5.105  12.628
62638SOL    HW287941  11.460   4.960  12.649
62639SOL     OW87942  12.211   4.822  11.868
62639SOL    HW187943  12.141   4.775  11.922
62639SOL    HW287944  12.270   4.754  11.825
62640SOL     OW87945  12.186   3.960  12.143
62640SOL    HW187946  12.178   3.924  12.050
62640SOL    HW287947  12.184   3.884  12.208
62641SOL     OW87948  11.762   5.211  11.663
62641SOL    HW187949  11.804   5.153  11.593
62641SOL    HW287950  11.718   5.290  11.619
62642SOL     OW87951  11.427   5.072  11.462
62642SOL    HW187952  11.331   5.073  11.435
62642SOL    HW287953  11.439   5.125  11.546
62643SOL     OW87954  11.247   4.069  11.205
62643SOL    HW187955  11.155   4.041  11.176
62643SOL    HW287956  11.278   4.146  11.149
62644SOL     OW87957  12.612   4.580  12.570
62644SOL    HW187958  12.555   4.632  12.507
62644SOL    HW287959  12.708   4.592  12.546
62645SOL     OW87960  11.244   3.890  11.490
62645SOL    HW187961  11.227   3.973  11.436
62645SOL    HW287962  11.334   3.853  11.468
62646SOL     OW87963  12.355   5.059  11.291
62646SOL    HW187964  12.256   5.048  11.293
62646SOL    HW287965  12.389   5.074  11.384
62647SOL     OW87966  11.785   4.566  12.603
62647SOL    HW187967  11.841   4.647  12.586
62647SOL    HW287968  11.844   4.486  12.606
62648SOL     OW87969  11.562   5.465  12.732
62648SOL    HW187970  11.471   5.506  12.730
62648SOL    HW287971  11.555   5.371  12.764
62649SOL     OW87972  12.397   4.049  11.621
62649SOL    HW187973  12.462   3.975  11.610
62649SOL    HW287974  12.417   4.099  11.705
62650SOL     OW87975  11.766   4.469  11.824
62650SOL    HW187976  11.816   4.554  11.805
62650SOL    HW287977  11.678   4.471  11.776
62651SOL     OW87978  12.031   5.098  11.188
62651SOL    HW187979  11.985   5.113  11.276
62651SOL    HW287980  12.075   5.183  11.158
62652SOL     OW87981  11.833   5.514  12.125
62652SOL    HW187982  11.787   5.602  12.112
62652SOL    HW287983  11.932   5.526  12.118
62653SOL     OW87984  12.031   4.680  12.033
62653SOL    HW187985  12.085   4.611  12.081
62653SOL    HW287986  11.999   4.749  12.099
62654SOL     OW87987  12.255   4.708  11.259
62654SOL    HW187988  12.232   4.761  11.177
62654SOL    HW287989  12.336   4.652  11.240
62655SOL     OW87990  11.251   4.964  11.825
62655SOL    HW187991  11.250   4.917  11.913
62655SOL    HW287992  11.333   4.936  11.774
62656SOL     OW87993  11.600   4.148  11.692
62656SOL    HW187994  11.630   4.076  11.630
62656SOL    HW287995  11.561   4.108  11.775
62657SOL     OW87996  12.877   5.211  12.276
62657SOL    HW187997  12.784   5.186  12.249
62657SOL    HW287998  12.903   5.161  12.358
62658SOL     OW87999  11.489   4.271  12.452
62658SOL    HW188000  11.527   4.212  12.524
62658SOL    HW288001  11.529   4.245  12.364
62659SOL     OW88002  11.984   5.310  11.859
62659SOL    HW188003  12.016   5.320  11.765
62659SOL    HW288004  11.905   5.248  11.861
62660SOL     OW88005  12.596   3.938  12.284
62660SOL    HW188006  12.648   3.873  12.339
62660SOL    HW288007  12.547   4.001  12.345
62661SOL     OW88008  12.173   3.758  12.326
62661SOL    HW188009  12.110   3.686  12.295
62661SOL    HW288010  12.266   3.722  12.326
62662SOL     OW88011  11.942   5.054  11.473
62662SOL    HW188012  11.896   4.967  11.490
62662SOL    HW288013  12.033   5.051  11.514
62663SOL     OW88014  11.790   5.291  12.456
62663SOL    HW188015  11.785   5.373  12.513
62663SOL    HW288016  11.879   5.288  12.411
62664SOL     OW88017  12.524   3.776  11.340
62664SOL    HW188018  12.559   3.735  11.256
62664SOL    HW288019  12.434   3.738  11.360
62665SOL     OW88020  12.472   4.177  11.863
62665SOL    HW188021  12.413   4.257  11.867
62665SOL    HW288022  12.487   4.142  11.956
62666SOL     OW88023  11.211   4.801  11.472
62666SOL    HW188024  11.310   4.790  11.463
62666SOL    HW288025  11.171   4.715  11.504
62667SOL     OW88026  12.047   5.370  11.509
62667SOL    HW188027  11.970   5.335  11.455
62667SOL    HW288028  12.015   5.441  11.571
62668SOL     OW88029  11.402   6.214   0.113
62668SOL    HW188030  11.309   6.212   0.150
62668SOL    HW288031  11.403   6.175   0.021
62669SOL     OW88032  11.397   5.861   0.996
62669SOL    HW188033  11.432   5.844   1.088
62669SOL    HW288034  11.309   5.816   0.984
62670SOL     OW88035  11.191   5.954   0.647
62670SOL    HW188036  11.109   5.997   0.686
62670SOL    HW288037  11.163   5.881   0.584
62671SOL     OW88038  11.741   6.861   1.165
62671SOL    HW188039  11.648   6.854   1.128
62671SOL    HW288040  11.752   6.950   1.209
62672SOL     OW88041  12.727   7.097   0.703
62672SOL    HW188042  12.670   7.081   0.784
62672SOL    HW288043  12.668   7.107   0.623
62673SOL     OW88044  12.307   6.289   0.717
62673SOL    HW188045  12.364   6.367   0.692
62673SOL    HW288046  12.247   6.315   0.793
62674SOL     OW88047  11.940   6.730   1.023
62674SOL    HW188048  11.862   6.747   1.083
62674SOL    HW288049  11.974   6.817   0.987
62675SOL     OW88050  12.022   6.384   1.823
62675SOL    HW188051  12.018   6.460   1.888
62675SOL    HW288052  12.044   6.420   1.732
62676SOL     OW88053  11.857   6.598   0.665
62676SOL    HW188054  11.926   6.582   0.735
62676SOL    HW288055  11.784   6.655   0.703
62677SOL     OW88056  11.858   6.747   1.803
62677SOL    HW188057  11.918   6.826   1.817
62677SOL    HW288058  11.772   6.778   1.762
62678SOL     OW88059  11.507   7.021   1.061
62678SOL    HW188060  11.429   6.990   1.008
62678SOL    HW288061  11.565   7.079   1.004
62679SOL     OW88062  11.610   5.978   1.499
62679SOL    HW188063  11.692   5.922   1.508
62679SOL    HW288064  11.529   5.920   1.503
62680SOL     OW88065  11.403   7.299   0.483
62680SOL    HW188066  11.437   7.376   0.537
62680SOL    HW288067  11.447   7.299   0.393
62681SOL     OW88068  12.299   6.927   1.690
62681SOL    HW188069  12.346   6.927   1.778
62681SOL    HW288070  12.251   6.840   1.679
62682SOL     OW88071  11.402   7.020   0.538
62682SOL    HW188072  11.376   7.116   0.538
62682SOL    HW288073  11.331   6.966   0.583
62683SOL     OW88074  11.412   6.677   0.886
62683SOL    HW188075  11.426   6.593   0.938
62683SOL    HW288076  11.357   6.741   0.941
62684SOL     OW88077  11.792   7.372   1.439
62684SOL    HW188078  11.700   7.355   1.474
62684SOL    HW288079  11.820   7.464   1.465
62685SOL     OW88080  11.778   6.550   0.123
62685SOL    HW188081  11.785   6.634   0.069
62685SOL    HW288082  11.824   6.563   0.211
62686SOL     OW88083  11.294   6.229   0.563
62686SOL    HW188084  11.249   6.141   0.580
62686SOL    HW288085  11.293   6.283   0.647
62687SOL     OW88086  11.199   7.182   0.117
62687SOL    HW188087  11.180   7.086   0.138
62687SOL    HW288088  11.166   7.240   0.192
62688SOL     OW88089  12.861   6.508   0.612
62688SOL    HW188090  12.956   6.479   0.620
62688SOL    HW288091  12.853   6.573   0.537
62689SOL     OW88092  11.285   6.323   1.597
62689SOL    HW188093  11.373   6.310   1.642
62689SOL    HW288094  11.272   6.420   1.575
62690SOL     OW88095  11.785   6.951   0.726
62690SOL    HW188096  11.736   6.864   0.735
62690SOL    HW288097  11.762   6.994   0.639
62691SOL     OW88098  12.465   6.814   1.423
62691SOL    HW188099  12.502   6.741   1.365
62691SOL    HW288100  12.517   6.819   1.508
62692SOL     OW88101  11.981   5.590   0.502
62692SOL    HW188102  12.021   5.681   0.493
62692SOL    HW288103  11.881   5.598   0.508
62693SOL     OW88104  11.369   6.562   1.264
62693SOL    HW188105  11.458   6.517   1.250
62693SOL    HW288106  11.296   6.497   1.245
62694SOL     OW88107  12.359   7.378   1.616
62694SOL    HW188108  12.383   7.438   1.540
62694SOL    HW288109  12.366   7.283   1.586
62695SOL     OW88110  11.489   5.837   1.801
62695SOL    HW188111  11.560   5.908   1.807
62695SOL    HW288112  11.401   5.876   1.829
62696SOL     OW88113  12.638   7.003   0.953
62696SOL    HW188114  12.579   7.009   1.033
62696SOL    HW288115  12.623   6.915   0.907
62697SOL     OW88116  11.770   6.315   0.270
62697SOL    HW188117  11.794   6.384   0.202
62697SOL    HW288118  11.692   6.348   0.324
62698SOL     OW88119  12.453   5.931   0.944
62698SOL    HW188120  12.367   5.881   0.931
62698SOL    HW288121  12.515   5.877   1.000
62699SOL     OW88122  11.979   6.191   1.465
62699SOL    HW188123  11.932   6.188   1.554
62699SOL    HW288124  11.928   6.136   1.399
62700SOL     OW88125  12.566   6.055   1.674
62700SOL    HW188126  12.546   6.098   1.762
62700SOL    HW288127  12.644   5.993   1.683
62701SOL     OW88128  12.145   6.476   1.572
62701SOL    HW188129  12.191   6.392   1.543
62701SOL    HW288130  12.089   6.510   1.497
62702SOL     OW88131  12.163   5.996   1.242
62702SOL    HW188132  12.086   6.030   1.296
62702SOL    HW288133  12.129   5.945   1.163
62703SOL     OW88134  12.213   6.287   0.429
62703SOL    HW188135  12.239   6.283   0.525
62703SOL    HW288136  12.128   6.236   0.415
62704SOL     OW88137  11.248   6.397   0.789
62704SOL    HW188138  11.347   6.385   0.798
62704SOL    HW288139  11.224   6.492   0.810
62705SOL     OW88140  11.302   7.407   1.571
62705SOL    HW188141  11.292   7.392   1.670
62705SOL    HW288142  11.216   7.443   1.535
62706SOL     OW88143  12.037   5.934   0.195
62706SOL    HW188144  12.096   5.997   0.146
62706SOL    HW288145  12.056   5.840   0.166
62707SOL     OW88146  12.534   6.730   0.545
62707SOL    HW188147  12.617   6.701   0.497
62707SOL    HW288148  12.485   6.797   0.489
62708SOL     OW88149  11.722   5.782   0.885
62708SOL    HW188150  11.717   5.777   0.985
62708SOL    HW288151  11.724   5.878   0.856
62709SOL     OW88152  12.180   7.042   0.477
62709SOL    HW188153  12.134   7.114   0.425
62709SOL    HW288154  12.176   7.062   0.575
62710SOL     OW88155  11.523   7.387   0.853
62710SOL    HW188156  11.573   7.301   0.859
62710SOL    HW288157  11.588   7.464   0.850
62711SOL     OW88158  12.399   7.136   1.506
62711SOL    HW188159  12.405   7.059   1.570
62711SOL    HW288160  12.347   7.110   1.426
62712SOL     OW88161  11.493   6.529   0.242
62712SOL    HW188162  11.575   6.568   0.200
62712SOL    HW288163  11.466   6.447   0.193
62713SOL     OW88164  11.633   6.852   1.727
62713SOL    HW188165  11.583   6.853   1.641
62713SOL    HW288166  11.570   6.834   1.803
62714SOL     OW88167  12.283   7.362   0.237
62714SOL    HW188168  12.223   7.300   0.287
62714SOL    HW288169  12.314   7.318   0.152
62715SOL     OW88170  11.374   5.871   1.498
62715SOL    HW188171  11.294   5.931   1.485
62715SOL    HW288172  11.364   5.822   1.584
62716SOL     OW88173  11.636   7.329   0.323
62716SOL    HW188174  11.669   7.368   0.409
62716SOL    HW288175  11.712   7.322   0.258
62717SOL     OW88176  12.572   5.693   0.426
62717SOL    HW188177  12.548   5.656   0.336
62717SOL    HW288178  12.671   5.709   0.430
62718SOL     OW88179  11.421   7.371   1.241
62718SOL    HW188180  11.478   7.306   1.291
62718SOL    HW288181  11.405   7.338   1.148
62719SOL     OW88182  12.112   7.284   0.904
62719SOL    HW188183  12.192   7.227   0.925
62719SOL    HW288184  12.063   7.244   0.827
62720SOL     OW88185  11.554   6.286   0.480
62720SOL    HW188186  11.599   6.196   0.477
62720SOL    HW288187  11.460   6.275   0.513
62721SOL     OW88188  11.786   5.708   0.117
62721SOL    HW188189  11.884   5.686   0.124
62721SOL    HW288190  11.755   5.691   0.024
62722SOL     OW88191  11.953   5.850   1.749
62722SOL    HW188192  12.020   5.789   1.792
62722SOL    HW288193  11.880   5.869   1.814
62723SOL     OW88194  12.060   7.100   1.195
62723SOL    HW188195  12.037   7.075   1.101
62723SOL    HW288196  12.121   7.031   1.234
62724SOL     OW88197  12.523   6.176   1.433
62724SOL    HW188198  12.551   6.133   1.518
62724SOL    HW288199  12.548   6.272   1.434
62725SOL     OW88200  11.975   6.988   0.924
62725SOL    HW188201  12.065   7.002   0.882
62725SOL    HW288202  11.904   6.990   0.853
62726SOL     OW88203  12.094   6.089   0.899
62726SOL    HW188204  12.069   6.080   0.803
62726SOL    HW288205  12.142   6.007   0.930
62727SOL     OW88206  11.711   5.650   0.512
62727SOL    HW188207  11.630   5.651   0.570
62727SOL    HW288208  11.714   5.733   0.457
62728SOL     OW88209  12.606   6.774   0.041
62728SOL    HW188210  12.638   6.698   0.098
62728SOL    HW288211  12.514   6.801   0.071
62729SOL     OW88212  11.469   5.621   0.171
62729SOL    HW188213  11.518   5.705   0.150
62729SOL    HW288214  11.531   5.556   0.216
62730SOL     OW88215  12.107   5.822   0.480
62730SOL    HW188216  12.059   5.863   0.402
62730SOL    HW288217  12.206   5.820   0.461
62731SOL     OW88218  12.248   6.269   1.464
62731SOL    HW188219  12.168   6.208   1.467
62731SOL    HW288220  12.329   6.216   1.440
62732SOL     OW88221  12.399   7.156   0.793
62732SOL    HW188222  12.420   7.230   0.728
62732SOL    HW288223  12.467   7.156   0.866
62733SOL     OW88224  11.631   6.738   0.741
62733SOL    HW188225  11.560   6.711   0.806
62733SOL    HW288226  11.605   6.710   0.648
62734SOL     OW88227  12.443   7.383   0.591
62734SOL    HW188228  12.487   7.447   0.527
62734SOL    HW288229  12.393   7.435   0.661
62735SOL     OW88230  12.204   6.135   0.016
62735SOL    HW188231  12.163   6.217  -0.023
62735SOL    HW288232  12.268   6.161   0.089
62736SOL     OW88233  11.250   6.142   1.386
62736SOL    HW188234  11.342   6.141   1.345
62736SOL    HW288235  11.244   6.216   1.453
62737SOL     OW88236  11.733   5.808   1.147
62737SOL    HW188237  11.771   5.724   1.184
62737SOL    HW288238  11.645   5.827   1.191
62738SOL     OW88239  12.038   6.040   0.642
62738SOL    HW188240  12.006   6.112   0.580
62738SOL    HW288241  12.062   5.959   0.589
62739SOL     OW88242  12.189   5.625   0.753
62739SOL    HW188243  12.117   5.630   0.684
62739SOL    HW288244  12.165   5.556   0.822
62740SOL     OW88245  12.601   6.759   0.867
62740SOL    HW188246  12.546   6.675   0.860
62740SOL    HW288247  12.627   6.788   0.775
62741SOL     OW88248  11.660   6.971   0.174
62741SOL    HW188249  11.573   6.956   0.221
62741SOL    HW288250  11.643   6.997   0.079
62742SOL     OW88251  12.562   6.161   0.078
62742SOL    HW188252  12.508   6.140   0.159
62742SOL    HW288253  12.653   6.120   0.087
62743SOL     OW88254  11.699   5.842   0.328
62743SOL    HW188255  11.726   5.783   0.253
62743SOL    HW288256  11.699   5.937   0.297
62744SOL     OW88257  12.236   6.933   1.340
62744SOL    HW188258  12.156   6.910   1.395
62744SOL    HW288259  12.319   6.907   1.389
62745SOL     OW88260  12.764   7.215   1.625
62745SOL    HW188261  12.791   7.249   1.535
62745SOL    HW288262  12.843   7.177   1.671
62746SOL     OW88263  12.283   6.781   1.100
62746SOL    HW188264  12.243   6.825   1.181
62746SOL    HW288265  12.242   6.818   1.017
62747SOL     OW88266  12.087   5.675   1.402
62747SOL    HW188267  12.112   5.655   1.307
62747SOL    HW288268  12.159   5.731   1.444
62748SOL     OW88269  12.152   6.702   1.719
62748SOL    HW188270  12.053   6.708   1.729
62748SOL    HW288271  12.175   6.622   1.663
62749SOL     OW88272  11.877   6.636   0.368
62749SOL    HW188273  11.863   6.643   0.467
62749SOL    HW288274  11.961   6.585   0.350
62750SOL     OW88275  11.582   6.399   1.251
62750SOL    HW188276  11.668   6.411   1.301
62750SOL    HW288277  11.540   6.312   1.278
62751SOL     OW88278  12.446   5.972   1.262
62751SOL    HW188279  12.467   6.046   1.326
62751SOL    HW288280  12.357   5.989   1.219
62752SOL     OW88281  11.236   7.150   1.331
62752SOL    HW188282  11.190   7.232   1.297
62752SOL    HW288283  11.334   7.169   1.340
62753SOL     OW88284  11.539   6.686   0.501
62753SOL    HW188285  11.532   6.769   0.445
62753SOL    HW288286  11.543   6.606   0.441
62754SOL     OW88287  11.738   6.123   0.865
62754SOL    HW188288  11.750   6.189   0.791
62754SOL    HW288289  11.784   6.157   0.948
62755SOL     OW88290  12.424   6.934   0.388
62755SOL    HW188291  12.474   7.011   0.428
62755SOL    HW288292  12.329   6.936   0.420
62756SOL     OW88293  12.444   7.031   1.142
62756SOL    HW188294  12.491   7.044   1.229
62756SOL    HW288295  12.378   6.957   1.151
62757SOL     OW88296  11.526   7.096   1.329
62757SOL    HW188297  11.505   7.052   1.242
62757SOL    HW288298  11.623   7.122   1.332
62758SOL     OW88299  11.574   6.337   1.598
62758SOL    HW188300  11.642   6.392   1.551
62758SOL    HW288301  11.614   6.249   1.625
62759SOL     OW88302  12.185   5.691   1.770
62759SOL    HW188303  12.191   5.776   1.718
62759SOL    HW288304  12.217   5.615   1.713
62760SOL     OW88305  11.676   5.636   1.740
62760SOL    HW188306  11.634   5.579   1.670
62760SOL    HW288307  11.610   5.705   1.772
62761SOL     OW88308  11.745   6.456   1.029
62761SOL    HW188309  11.789   6.545   1.020
62761SOL    HW288310  11.682   6.456   1.106
62762SOL     OW88311  12.532   6.448   1.045
62762SOL    HW188312  12.457   6.448   0.979
62762SOL    HW288313  12.569   6.356   1.054
62763SOL     OW88314  12.381   6.111   0.275
62763SOL    HW188315  12.394   6.027   0.329
62763SOL    HW288316  12.352   6.185   0.335
62764SOL     OW88317  11.479   5.799   1.231
62764SOL    HW188318  11.456   5.836   1.321
62764SOL    HW288319  11.449   5.704   1.225
62765SOL     OW88320  11.209   6.896   1.282
62765SOL    HW188321  11.262   6.847   1.350
62765SOL    HW288322  11.231   6.994   1.287
62766SOL     OW88323  11.904   6.220   1.064
62766SOL    HW188324  11.963   6.194   0.988
62766SOL    HW288325  11.876   6.316   1.053
62767SOL     OW88326  11.479   5.649   0.618
62767SOL    HW188327  11.468   5.743   0.651
62767SOL    HW288328  11.474   5.586   0.695
62768SOL     OW88329  12.794   5.953   0.374
62768SOL    HW188330  12.796   5.877   0.438
62768SOL    HW288331  12.746   6.030   0.414
62769SOL     OW88332  12.195   6.352   0.966
62769SOL    HW188333  12.210   6.373   1.062
62769SOL    HW288334  12.165   6.257   0.957
62770SOL     OW88335  12.152   7.159   1.700
62770SOL    HW188336  12.132   7.203   1.612
62770SOL    HW288337  12.191   7.068   1.684
62771SOL     OW88338  11.522   6.484   1.804
62771SOL    HW188339  11.598   6.528   1.852
62771SOL    HW288340  11.557   6.437   1.722
62772SOL     OW88341  12.475   6.424   0.042
62772SOL    HW188342  12.509   6.331   0.057
62772SOL    HW288343  12.493   6.451  -0.053
62773SOL     OW88344  12.240   6.919   0.849
62773SOL    HW188345  12.247   6.835   0.794
62773SOL    HW288346  12.302   6.988   0.813
62774SOL     OW88347  11.491   6.396   0.949
62774SOL    HW188348  11.584   6.432   0.954
62774SOL    HW288349  11.485   6.311   1.001
62775SOL     OW88350  11.511   6.095   1.006
62775SOL    HW188351  11.459   6.012   0.989
62775SOL    HW288352  11.588   6.100   0.942
62776SOL     OW88353  12.310   5.966   1.678
62776SOL    HW188354  12.265   6.029   1.742
62776SOL    HW288355  12.403   5.997   1.661
62777SOL     OW88356  12.332   5.793   1.477
62777SOL    HW188357  12.332   5.857   1.554
62777SOL    HW288358  12.360   5.841   1.394
62778SOL     OW88359  11.180   6.912   0.200
62778SOL    HW188360  11.087   6.933   0.169
62778SOL    HW288361  11.190   6.813   0.213
62779SOL     OW88362  11.260   7.387   0.927
62779SOL    HW188363  11.218   7.301   0.900
62779SOL    HW288364  11.354   7.390   0.893
62780SOL     OW88365  11.676   7.154   0.910
62780SOL    HW188366  11.742   7.228   0.919
62780SOL    HW288367  11.720   7.075   0.868
62781SOL     OW88368  12.174   6.382   1.238
62781SOL    HW188369  12.215   6.350   1.324
62781SOL    HW288370  12.078   6.355   1.235
62782SOL     OW88371  11.212   6.130   1.114
62782SOL    HW188372  11.297   6.097   1.073
62782SOL    HW288373  11.225   6.145   1.212
62783SOL     OW88374  11.361   6.106   1.722
62783SOL    HW188375  11.420   6.066   1.652
62783SOL    HW288376  11.303   6.177   1.681
62784SOL     OW88377  12.541   6.536   1.660
62784SOL    HW188378  12.580   6.625   1.680
62784SOL    HW288379  12.551   6.516   1.563
62785SOL     OW88380  11.987   6.158   0.325
62785SOL    HW188381  11.994   6.069   0.279
62785SOL    HW288382  11.893   6.192   0.317
62786SOL     OW88383  11.424   7.150   1.744
62786SOL    HW188384  11.394   7.207   1.820
62786SOL    HW288385  11.417   7.053   1.770
62787SOL     OW88386  11.843   6.050   1.269
62787SOL    HW188387  11.809   5.961   1.239
62787SOL    HW288388  11.869   6.104   1.189
62788SOL     OW88389  12.102   7.264   1.465
62788SOL    HW188390  12.078   7.246   1.370
62788SOL    HW288391  12.132   7.358   1.475
62789SOL     OW88392  11.645   6.086   0.191
62789SOL    HW188393  11.706   6.166   0.195
62789SOL    HW288394  11.550   6.117   0.198
62790SOL     OW88395  11.331   6.723   1.466
62790SOL    HW188396  11.353   6.662   1.542
62790SOL    HW288397  11.341   6.674   1.380
62791SOL     OW88398  12.519   6.645   1.234
62791SOL    HW188399  12.543   6.582   1.160
62791SOL    HW288400  12.429   6.685   1.216
62792SOL     OW88401  12.474   6.441   0.309
62792SOL    HW188402  12.388   6.410   0.351
62792SOL    HW288403  12.470   6.427   0.210
62793SOL     OW88404  12.424   7.317   1.128
62793SOL    HW188405  12.508   7.322   1.074
62793SOL    HW288406  12.401   7.221   1.146
62794SOL     OW88407  11.255   6.844   1.022
62794SOL    HW188408  11.250   6.843   1.122
62794SOL    HW288409  11.172   6.803   0.984
62795SOL     OW88410  11.860   7.248   1.716
62795SOL    HW188411  11.804   7.329   1.725
62795SOL    HW288412  11.912   7.252   1.630
62796SOL     OW88413  12.075   5.672   0.133
62796SOL    HW188414  12.126   5.673   0.047
62796SOL    HW288415  12.131   5.630   0.204
62797SOL     OW88416  12.898   5.721   0.523
62797SOL    HW188417  12.971   5.704   0.456
62797SOL    HW288418  12.867   5.634   0.561
62798SOL     OW88419  12.560   7.159   0.477
62798SOL    HW188420  12.627   7.171   0.403
62798SOL    HW288421  12.520   7.248   0.500
62799SOL     OW88422  11.302   7.380   1.851
62799SOL    HW188423  11.261   7.306   1.904
62799SOL    HW288424  11.366   7.431   1.909
62800SOL     OW88425  12.452   6.513   0.672
62800SOL    HW188426  12.512   6.432   0.674
62800SOL    HW288427  12.492   6.582   0.612
62801SOL     OW88428  12.002   6.859   1.422
62801SOL    HW188429  11.997   6.892   1.517
62801SOL    HW288430  11.916   6.878   1.376
62802SOL     OW88431  11.844   7.202   0.154
62802SOL    HW188432  11.853   7.212   0.055
62802SOL    HW288433  11.804   7.113   0.175
62803SOL     OW88434  11.435   5.912   0.720
62803SOL    HW188435  11.356   5.963   0.686
62803SOL    HW288436  11.426   5.897   0.818
62804SOL     OW88437  12.366   7.198   0.031
62804SOL    HW188438  12.372   7.105   0.068
62804SOL    HW288439  12.307   7.198  -0.049
62805SOL     OW88440  11.994   6.588   1.372
62805SOL    HW188441  12.034   6.587   1.280
62805SOL    HW288442  12.004   6.680   1.412
62806SOL     OW88443  12.088   6.496   0.291
62806SOL    HW188444  12.151   6.534   0.223
62806SOL    HW288445  12.128   6.413   0.330
62807SOL     OW88446  11.544   6.874   1.490
62807SOL    HW188447  11.531   6.967   1.456
62807SOL    HW288448  11.460   6.822   1.477
62808SOL     OW88449  12.211   6.684   0.696
62808SOL    HW188450  12.141   6.637   0.750
62808SOL    HW288451  12.270   6.616   0.653
62809SOL     OW88452  12.186   5.822   0.971
62809SOL    HW188453  12.178   5.786   0.878
62809SOL    HW288454  12.184   5.746   1.036
62810SOL     OW88455  11.762   7.073   0.491
62810SOL    HW188456  11.804   7.015   0.421
62810SOL    HW288457  11.718   7.152   0.447
62811SOL     OW88458  11.427   6.934   0.290
62811SOL    HW188459  11.331   6.935   0.263
62811SOL    HW288460  11.439   6.987   0.374
62812SOL     OW88461  11.277   6.599   1.726
62812SOL    HW188462  11.200   6.566   1.780
62812SOL    HW288463  11.362   6.569   1.768
62813SOL     OW88464  11.844   5.789   1.489
62813SOL    HW188465  11.934   5.773   1.449
62813SOL    HW288466  11.852   5.794   1.588
62814SOL     OW88467  11.247   5.931   0.033
62814SOL    HW188468  11.155   5.903   0.004
62814SOL    HW288469  11.278   6.008  -0.023
62815SOL     OW88470  12.612   6.442   1.398
62815SOL    HW188471  12.555   6.494   1.335
62815SOL    HW288472  12.708   6.454   1.374
62816SOL     OW88473  11.244   5.752   0.318
62816SOL    HW188474  11.227   5.835   0.264
62816SOL    HW288475  11.334   5.715   0.296
62817SOL     OW88476  12.355   6.921   0.119
62817SOL    HW188477  12.256   6.910   0.121
62817SOL    HW288478  12.389   6.936   0.212
62818SOL     OW88479  11.785   6.428   1.431
62818SOL    HW188480  11.841   6.509   1.414
62818SOL    HW288481  11.844   6.348   1.434
62819SOL     OW88482  11.888   6.151   1.708
62819SOL    HW188483  11.907   6.216   1.782
62819SOL    HW288484  11.948   6.071   1.717
62820SOL     OW88485  12.622   6.806   1.633
62820SOL    HW188486  12.613   6.796   1.732
62820SOL    HW288487  12.718   6.799   1.607
62821SOL     OW88488  11.562   7.327   1.560
62821SOL    HW188489  11.471   7.368   1.558
62821SOL    HW288490  11.555   7.233   1.592
62822SOL     OW88491  12.397   5.911   0.449
62822SOL    HW188492  12.462   5.837   0.438
62822SOL    HW288493  12.417   5.961   0.533
62823SOL     OW88494  11.766   6.331   0.652
62823SOL    HW188495  11.816   6.416   0.633
62823SOL    HW288496  11.678   6.333   0.604
62824SOL     OW88497  12.031   6.960   0.016
62824SOL    HW188498  11.985   6.975   0.104
62824SOL    HW288499  12.075   7.045  -0.014
62825SOL     OW88500  11.833   7.376   0.953
62825SOL    HW188501  11.787   7.464   0.940
62825SOL    HW288502  11.932   7.388   0.946
62826SOL     OW88503  12.031   6.542   0.861
62826SOL    HW188504  12.085   6.473   0.909
62826SOL    HW288505  11.999   6.611   0.927
62827SOL     OW88506  12.255   6.570   0.087
62827SOL    HW188507  12.232   6.623   0.005
62827SOL    HW288508  12.336   6.514   0.068
62828SOL     OW88509  11.393   6.900   1.844
62828SOL    HW188510  11.328   6.827   1.823
62828SOL    HW288511  11.397   6.914   1.942
62829SOL     OW88512  11.251   6.826   0.653
62829SOL    HW188513  11.250   6.779   0.741
62829SOL    HW288514  11.333   6.798   0.602
62830SOL     OW88515  11.844   6.977   1.624
62830SOL    HW188516  11.766   6.927   1.662
62830SOL    HW288517  11.841   7.072   1.655
62831SOL     OW88518  11.600   6.010   0.520
62831SOL    HW188519  11.630   5.938   0.458
62831SOL    HW288520  11.561   5.970   0.603
62832SOL     OW88521  12.877   7.073   1.104
62832SOL    HW188522  12.784   7.048   1.077
62832SOL    HW288523  12.903   7.023   1.186
62833SOL     OW88524  11.489   6.133   1.280
62833SOL    HW188525  11.527   6.074   1.352
62833SOL    HW288526  11.529   6.107   1.192
62834SOL     OW88527  11.984   7.172   0.687
62834SOL    HW188528  12.016   7.182   0.593
62834SOL    HW288529  11.905   7.110   0.689
62835SOL     OW88530  12.596   5.800   1.112
62835SOL    HW188531  12.648   5.735   1.167
62835SOL    HW288532  12.547   5.863   1.173
62836SOL     OW88533  12.173   5.620   1.154
62836SOL    HW188534  12.110   5.548   1.123
62836SOL    HW288535  12.266   5.584   1.154
62837SOL     OW88536  11.942   6.916   0.301
62837SOL    HW188537  11.896   6.829   0.318
62837SOL    HW288538  12.033   6.913   0.342
62838SOL     OW88539  11.790   7.153   1.284
62838SOL    HW188540  11.785   7.235   1.341
62838SOL    HW288541  11.879   7.150   1.239
62839SOL     OW88542  12.524   5.638   0.168
62839SOL    HW188543  12.559   5.597   0.084
62839SOL    HW288544  12.434   5.600   0.188
62840SOL     OW88545  12.472   6.039   0.691
62840SOL    HW188546  12.413   6.119   0.695
62840SOL    HW288547  12.487   6.004   0.784
62841SOL     OW88548  11.211   6.663   0.300
62841SOL    HW188549  11.310   6.652   0.291
62841SOL    HW288550  11.171   6.577   0.332
62842SOL     OW88551  12.047   7.232   0.337
62842SOL    HW188552  11.970   7.197   0.283
62842SOL    HW288553  12.015   7.303   0.399
62843SOL     OW88554  11.402   6.214   1.975
62843SOL    HW188555  11.309   6.212   2.012
62843SOL    HW288556  11.403   6.175   1.883
62844SOL     OW88557  11.397   5.861   2.858
62844SOL    HW188558  11.432   5.844   2.950
62844SOL    HW288559  11.309   5.816   2.846
62845SOL     OW88560  11.191   5.954   2.509
62845SOL    HW188561  11.109   5.997   2.548
62845SOL    HW288562  11.163   5.881   2.446
62846SOL     OW88563  11.741   6.861   3.027
62846SOL    HW188564  11.648   6.854   2.990
62846SOL    HW288565  11.752   6.950   3.071
62847SOL     OW88566  12.727   7.097   2.565
62847SOL    HW188567  12.670   7.081   2.646
62847SOL    HW288568  12.668   7.107   2.485
62848SOL     OW88569  12.307   6.289   2.579
62848SOL    HW188570  12.364   6.367   2.554
62848SOL    HW288571  12.247   6.315   2.655
62849SOL     OW88572  11.940   6.730   2.885
62849SOL    HW188573  11.862   6.747   2.945
62849SOL    HW288574  11.974   6.817   2.849
62850SOL     OW88575  12.022   6.384   3.685
62850SOL    HW188576  12.018   6.460   3.750
62850SOL    HW288577  12.044   6.420   3.594
62851SOL     OW88578  11.857   6.598   2.527
62851SOL    HW188579  11.926   6.582   2.597
62851SOL    HW288580  11.784   6.655   2.565
62852SOL     OW88581  11.858   6.747   3.665
62852SOL    HW188582  11.918   6.826   3.679
62852SOL    HW288583  11.772   6.778   3.624
62853SOL     OW88584  11.507   7.021   2.923
62853SOL    HW188585  11.429   6.990   2.870
62853SOL    HW288586  11.565   7.079   2.866
62854SOL     OW88587  11.610   5.978   3.361
62854SOL    HW188588  11.692   5.922   3.370
62854SOL    HW288589  11.529   5.920   3.365
62855SOL     OW88590  11.403   7.299   2.345
62855SOL    HW188591  11.437   7.376   2.399
62855SOL    HW288592  11.447   7.299   2.255
62856SOL     OW88593  12.299   6.927   3.552
62856SOL    HW188594  12.346   6.927   3.640
62856SOL    HW288595  12.251   6.840   3.541
62857SOL     OW88596  11.402   7.020   2.400
62857SOL    HW188597  11.376   7.116   2.400
62857SOL    HW288598  11.331   6.966   2.445
62858SOL     OW88599  11.412   6.677   2.748
62858SOL    HW188600  11.426   6.593   2.800
62858SOL    HW288601  11.357   6.741   2.803
62859SOL     OW88602  11.792   7.372   3.301
62859SOL    HW188603  11.700   7.355   3.336
62859SOL    HW288604  11.820   7.464   3.327
62860SOL     OW88605  11.778   6.550   1.985
62860SOL    HW188606  11.785   6.634   1.931
62860SOL    HW288607  11.824   6.563   2.073
62861SOL     OW88608  11.294   6.229   2.425
62861SOL    HW188609  11.249   6.141   2.442
62861SOL    HW288610  11.293   6.283   2.509
62862SOL     OW88611  11.199   7.182   1.979
62862SOL    HW188612  11.180   7.086   2.000
62862SOL    HW288613  11.166   7.240   2.054
62863SOL     OW88614  12.861   6.508   2.474
62863SOL    HW188615  12.956   6.479   2.482
62863SOL    HW288616  12.853   6.573   2.399
62864SOL     OW88617  11.285   6.323   3.459
62864SOL    HW188618  11.373   6.310   3.504
62864SOL    HW288619  11.272   6.420   3.437
62865SOL     OW88620  11.785   6.951   2.588
62865SOL    HW188621  11.736   6.864   2.597
62865SOL    HW288622  11.762   6.994   2.501
62866SOL     OW88623  12.465   6.814   3.285
62866SOL    HW188624  12.502   6.741   3.227
62866SOL    HW288625  12.517   6.819   3.370
62867SOL     OW88626  11.981   5.590   2.364
62867SOL    HW188627  12.021   5.681   2.355
62867SOL    HW288628  11.881   5.598   2.370
62868SOL     OW88629  11.369   6.562   3.126
62868SOL    HW188630  11.458   6.517   3.112
62868SOL    HW288631  11.296   6.497   3.107
62869SOL     OW88632  12.359   7.378   3.478
62869SOL    HW188633  12.383   7.438   3.402
62869SOL    HW288634  12.366   7.283   3.448
62870SOL     OW88635  11.489   5.837   3.663
62870SOL    HW188636  11.560   5.908   3.669
62870SOL    HW288637  11.401   5.876   3.691
62871SOL     OW88638  12.638   7.003   2.815
62871SOL    HW188639  12.579   7.009   2.895
62871SOL    HW288640  12.623   6.915   2.769
62872SOL     OW88641  11.770   6.315   2.132
62872SOL    HW188642  11.794   6.384   2.064
62872SOL    HW288643  11.692   6.348   2.186
62873SOL     OW88644  12.453   5.931   2.806
62873SOL    HW188645  12.367   5.881   2.793
62873SOL    HW288646  12.515   5.877   2.862
62874SOL     OW88647  11.979   6.191   3.327
62874SOL    HW188648  11.932   6.188   3.416
62874SOL    HW288649  11.928   6.136   3.261
62875SOL     OW88650  12.566   6.055   3.536
62875SOL    HW188651  12.546   6.098   3.624
62875SOL    HW288652  12.644   5.993   3.545
62876SOL     OW88653  12.145   6.476   3.434
62876SOL    HW188654  12.191   6.392   3.405
62876SOL    HW288655  12.089   6.510   3.359
62877SOL     OW88656  12.163   5.996   3.104
62877SOL    HW188657  12.086   6.030   3.158
62877SOL    HW288658  12.129   5.945   3.025
62878SOL     OW88659  12.213   6.287   2.291
62878SOL    HW188660  12.239   6.283   2.387
62878SOL    HW288661  12.128   6.236   2.277
62879SOL     OW88662  11.248   6.397   2.651
62879SOL    HW188663  11.347   6.385   2.660
62879SOL    HW288664  11.224   6.492   2.672
62880SOL     OW88665  11.302   7.407   3.433
62880SOL    HW188666  11.292   7.392   3.532
62880SOL    HW288667  11.216   7.443   3.397
62881SOL     OW88668  12.037   5.934   2.057
62881SOL    HW188669  12.096   5.997   2.008
62881SOL    HW288670  12.056   5.840   2.028
62882SOL     OW88671  12.534   6.730   2.407
62882SOL    HW188672  12.617   6.701   2.359
62882SOL    HW288673  12.485   6.797   2.351
62883SOL     OW88674  11.722   5.782   2.747
62883SOL    HW188675  11.717   5.777   2.847
62883SOL    HW288676  11.724   5.878   2.718
62884SOL     OW88677  12.180   7.042   2.339
62884SOL    HW188678  12.134   7.114   2.287
62884SOL    HW288679  12.176   7.062   2.437
62885SOL     OW88680  11.523   7.387   2.715
62885SOL    HW188681  11.573   7.301   2.721
62885SOL    HW288682  11.588   7.464   2.712
62886SOL     OW88683  12.399   7.136   3.368
62886SOL    HW188684  12.405   7.059   3.432
62886SOL    HW288685  12.347   7.110   3.288
62887SOL     OW88686  11.493   6.529   2.104
62887SOL    HW188687  11.575   6.568   2.062
62887SOL    HW288688  11.466   6.447   2.055
62888SOL     OW88689  11.633   6.852   3.589
62888SOL    HW188690  11.583   6.853   3.503
62888SOL    HW288691  11.570   6.834   3.665
62889SOL     OW88692  12.283   7.362   2.099
62889SOL    HW188693  12.223   7.300   2.149
62889SOL    HW288694  12.314   7.318   2.014
62890SOL     OW88695  11.374   5.871   3.360
62890SOL    HW188696  11.294   5.931   3.347
62890SOL    HW288697  11.364   5.822   3.446
62891SOL     OW88698  11.636   7.329   2.185
62891SOL    HW188699  11.669   7.368   2.271
62891SOL    HW288700  11.712   7.322   2.120
62892SOL     OW88701  12.572   5.693   2.288
62892SOL    HW188702  12.548   5.656   2.198
62892SOL    HW288703  12.671   5.709   2.292
62893SOL     OW88704  12.112   7.284   2.766
62893SOL    HW188705  12.192   7.227   2.787
62893SOL    HW288706  12.063   7.244   2.689
62894SOL     OW88707  11.554   6.286   2.342
62894SOL    HW188708  11.599   6.196   2.339
62894SOL    HW288709  11.460   6.275   2.375
62895SOL     OW88710  11.786   5.708   1.979
62895SOL    HW188711  11.884   5.686   1.986
62895SOL    HW288712  11.755   5.691   1.886
62896SOL     OW88713  11.953   5.850   3.611
62896SOL    HW188714  12.020   5.789   3.654
62896SOL    HW288715  11.880   5.869   3.676
62897SOL     OW88716  12.060   7.100   3.057
62897SOL    HW188717  12.037   7.075   2.963
62897SOL    HW288718  12.121   7.031   3.096
62898SOL     OW88719  12.523   6.176   3.295
62898SOL    HW188720  12.551   6.133   3.380
62898SOL    HW288721  12.548   6.272   3.296
62899SOL     OW88722  11.975   6.988   2.786
62899SOL    HW188723  12.065   7.002   2.744
62899SOL    HW288724  11.904   6.990   2.715
62900SOL     OW88725  12.094   6.089   2.761
62900SOL    HW188726  12.069   6.080   2.665
62900SOL    HW288727  12.142   6.007   2.792
62901SOL     OW88728  11.711   5.650   2.374
62901SOL    HW188729  11.630   5.651   2.432
62901SOL    HW288730  11.714   5.733   2.319
62902SOL     OW88731  12.606   6.774   1.903
62902SOL    HW188732  12.638   6.698   1.960
62902SOL    HW288733  12.514   6.801   1.933
62903SOL     OW88734  11.469   5.621   2.033
62903SOL    HW188735  11.518   5.705   2.012
62903SOL    HW288736  11.531   5.556   2.078
62904SOL     OW88737  12.107   5.822   2.342
62904SOL    HW188738  12.059   5.863   2.264
62904SOL    HW288739  12.206   5.820   2.323
62905SOL     OW88740  12.248   6.269   3.326
62905SOL    HW188741  12.168   6.208   3.329
62905SOL    HW288742  12.329   6.216   3.302
62906SOL     OW88743  12.399   7.156   2.655
62906SOL    HW188744  12.420   7.230   2.590
62906SOL    HW288745  12.467   7.156   2.728
62907SOL     OW88746  11.631   6.738   2.603
62907SOL    HW188747  11.560   6.711   2.668
62907SOL    HW288748  11.605   6.710   2.510
62908SOL     OW88749  12.443   7.383   2.453
62908SOL    HW188750  12.487   7.447   2.389
62908SOL    HW288751  12.393   7.435   2.523
62909SOL     OW88752  12.204   6.135   1.878
62909SOL    HW188753  12.163   6.217   1.839
62909SOL    HW288754  12.268   6.161   1.951
62910SOL     OW88755  11.250   6.142   3.248
62910SOL    HW188756  11.342   6.141   3.207
62910SOL    HW288757  11.244   6.216   3.315
62911SOL     OW88758  11.733   5.808   3.009
62911SOL    HW188759  11.771   5.724   3.046
62911SOL    HW288760  11.645   5.827   3.053
62912SOL     OW88761  12.038   6.040   2.504
62912SOL    HW188762  12.006   6.112   2.442
62912SOL    HW288763  12.062   5.959   2.451
62913SOL     OW88764  12.189   5.625   2.615
62913SOL    HW188765  12.117   5.630   2.546
62913SOL    HW288766  12.165   5.556   2.684
62914SOL     OW88767  12.601   6.759   2.729
62914SOL    HW188768  12.546   6.675   2.722
62914SOL    HW288769  12.627   6.788   2.637
62915SOL     OW88770  11.660   6.971   2.036
62915SOL    HW188771  11.573   6.956   2.083
62915SOL    HW288772  11.643   6.997   1.941
62916SOL     OW88773  12.562   6.161   1.940
62916SOL    HW188774  12.508   6.140   2.021
62916SOL    HW288775  12.653   6.120   1.949
62917SOL     OW88776  11.699   5.842   2.190
62917SOL    HW188777  11.726   5.783   2.115
62917SOL    HW288778  11.699   5.937   2.159
62918SOL     OW88779  12.236   6.933   3.202
62918SOL    HW188780  12.156   6.910   3.257
62918SOL    HW288781  12.319   6.907   3.251
62919SOL     OW88782  12.764   7.215   3.487
62919SOL    HW188783  12.791   7.249   3.397
62919SOL    HW288784  12.843   7.177   3.533
62920SOL     OW88785  12.283   6.781   2.962
62920SOL    HW188786  12.243   6.825   3.043
62920SOL    HW288787  12.242   6.818   2.879
62921SOL     OW88788  12.087   5.675   3.264
62921SOL    HW188789  12.112   5.655   3.169
62921SOL    HW288790  12.159   5.731   3.306
62922SOL     OW88791  12.152   6.702   3.581
62922SOL    HW188792  12.053   6.708   3.591
62922SOL    HW288793  12.175   6.622   3.525
62923SOL     OW88794  11.877   6.636   2.230
62923SOL    HW188795  11.863   6.643   2.329
62923SOL    HW288796  11.961   6.585   2.212
62924SOL     OW88797  11.582   6.399   3.113
62924SOL    HW188798  11.668   6.411   3.163
62924SOL    HW288799  11.540   6.312   3.140
62925SOL     OW88800  12.446   5.972   3.124
62925SOL    HW188801  12.467   6.046   3.188
62925SOL    HW288802  12.357   5.989   3.081
62926SOL     OW88803  11.236   7.150   3.193
62926SOL    HW188804  11.190   7.232   3.159
62926SOL    HW288805  11.334   7.169   3.202
62927SOL     OW88806  11.539   6.686   2.363
62927SOL    HW188807  11.532   6.769   2.307
62927SOL    HW288808  11.543   6.606   2.303
62928SOL     OW88809  11.738   6.123   2.727
62928SOL    HW188810  11.750   6.189   2.653
62928SOL    HW288811  11.784   6.157   2.810
62929SOL     OW88812  12.424   6.934   2.250
62929SOL    HW188813  12.474   7.011   2.290
62929SOL    HW288814  12.329   6.936   2.282
62930SOL     OW88815  12.444   7.031   3.004
62930SOL    HW188816  12.491   7.044   3.091
62930SOL    HW288817  12.378   6.957   3.013
62931SOL     OW88818  11.526   7.096   3.191
62931SOL    HW188819  11.505   7.052   3.104
62931SOL    HW288820  11.623   7.122   3.194
62932SOL     OW88821  11.574   6.337   3.460
62932SOL    HW188822  11.642   6.392   3.413
62932SOL    HW288823  11.614   6.249   3.487
62933SOL     OW88824  12.185   5.691   3.632
62933SOL    HW188825  12.191   5.776   3.580
62933SOL    HW288826  12.217   5.615   3.575
62934SOL     OW88827  11.676   5.636   3.602
62934SOL    HW188828  11.634   5.579   3.532
62934SOL    HW288829  11.610   5.705   3.634
62935SOL     OW88830  11.745   6.456   2.891
62935SOL    HW188831  11.789   6.545   2.882
62935SOL    HW288832  11.682   6.456   2.968
62936SOL     OW88833  12.532   6.448   2.907
62936SOL    HW188834  12.457   6.448   2.841
62936SOL    HW288835  12.569   6.356   2.916
62937SOL     OW88836  12.381   6.111   2.137
62937SOL    HW188837  12.394   6.027   2.191
62937SOL    HW288838  12.352   6.185   2.197
62938SOL     OW88839  11.479   5.799   3.093
62938SOL    HW188840  11.456   5.836   3.183
62938SOL    HW288841  11.449   5.704   3.087
62939SOL     OW88842  11.209   6.896   3.144
62939SOL    HW188843  11.262   6.847   3.212
62939SOL    HW288844  11.231   6.994   3.149
62940SOL     OW88845  11.904   6.220   2.926
62940SOL    HW188846  11.963   6.194   2.850
62940SOL    HW288847  11.876   6.316   2.915
62941SOL     OW88848  11.479   5.649   2.480
62941SOL    HW188849  11.468   5.743   2.513
62941SOL    HW288850  11.474   5.586   2.557
62942SOL     OW88851  12.794   5.953   2.236
62942SOL    HW188852  12.796   5.877   2.300
62942SOL    HW288853  12.746   6.030   2.276
62943SOL     OW88854  12.195   6.352   2.828
62943SOL    HW188855  12.210   6.373   2.924
62943SOL    HW288856  12.165   6.257   2.819
62944SOL     OW88857  12.152   7.159   3.562
62944SOL    HW188858  12.132   7.203   3.474
62944SOL    HW288859  12.191   7.068   3.546
62945SOL     OW88860  11.522   6.484   3.666
62945SOL    HW188861  11.598   6.528   3.714
62945SOL    HW288862  11.557   6.437   3.584
62946SOL     OW88863  12.475   6.424   1.904
62946SOL    HW188864  12.509   6.331   1.919
62946SOL    HW288865  12.493   6.451   1.809
62947SOL     OW88866  12.240   6.919   2.711
62947SOL    HW188867  12.247   6.835   2.656
62947SOL    HW288868  12.302   6.988   2.675
62948SOL     OW88869  11.491   6.396   2.811
62948SOL    HW188870  11.584   6.432   2.816
62948SOL    HW288871  11.485   6.311   2.863
62949SOL     OW88872  11.511   6.095   2.868
62949SOL    HW188873  11.459   6.012   2.851
62949SOL    HW288874  11.588   6.100   2.804
62950SOL     OW88875  12.310   5.966   3.540
62950SOL    HW188876  12.265   6.029   3.604
62950SOL    HW288877  12.403   5.997   3.523
62951SOL     OW88878  12.332   5.793   3.339
62951SOL    HW188879  12.332   5.857   3.416
62951SOL    HW288880  12.360   5.841   3.256
62952SOL     OW88881  11.180   6.912   2.062
62952SOL    HW188882  11.087   6.933   2.031
62952SOL    HW288883  11.190   6.813   2.075
62953SOL     OW88884  11.260   7.387   2.789
62953SOL    HW188885  11.218   7.301   2.762
62953SOL    HW288886  11.354   7.390   2.755
62954SOL     OW88887  11.676   7.154   2.772
62954SOL    HW188888  11.742   7.228   2.781
62954SOL    HW288889  11.720   7.075   2.730
62955SOL     OW88890  12.174   6.382   3.100
62955SOL    HW188891  12.215   6.350   3.186
62955SOL    HW288892  12.078   6.355   3.097
62956SOL     OW88893  11.212   6.130   2.976
62956SOL    HW188894  11.297   6.097   2.935
62956SOL    HW288895  11.225   6.145   3.074
62957SOL     OW88896  11.361   6.106   3.584
62957SOL    HW188897  11.420   6.066   3.514
62957SOL    HW288898  11.303   6.177   3.543
62958SOL     OW88899  12.541   6.536   3.522
62958SOL    HW188900  12.580   6.625   3.542
62958SOL    HW288901  12.551   6.516   3.425
62959SOL     OW88902  11.987   6.158   2.187
62959SOL    HW188903  11.994   6.069   2.141
62959SOL    HW288904  11.893   6.192   2.179
62960SOL     OW88905  11.424   7.150   3.606
62960SOL    HW188906  11.394   7.207   3.682
62960SOL    HW288907  11.417   7.053   3.632
62961SOL     OW88908  11.843   6.050   3.131
62961SOL    HW188909  11.809   5.961   3.101
62961SOL    HW288910  11.869   6.104   3.051
62962SOL     OW88911  12.102   7.264   3.327
62962SOL    HW188912  12.078   7.246   3.232
62962SOL    HW288913  12.132   7.358   3.337
62963SOL     OW88914  11.645   6.086   2.053
62963SOL    HW188915  11.706   6.166   2.057
62963SOL    HW288916  11.550   6.117   2.060
62964SOL     OW88917  11.331   6.723   3.328
62964SOL    HW188918  11.353   6.662   3.404
62964SOL    HW288919  11.341   6.674   3.242
62965SOL     OW88920  12.519   6.645   3.096
62965SOL    HW188921  12.543   6.582   3.022
62965SOL    HW288922  12.429   6.685   3.078
62966SOL     OW88923  12.474   6.441   2.171
62966SOL    HW188924  12.388   6.410   2.213
62966SOL    HW288925  12.470   6.427   2.072
62967SOL     OW88926  12.424   7.317   2.990
62967SOL    HW188927  12.508   7.322   2.936
62967SOL    HW288928  12.401   7.221   3.008
62968SOL     OW88929  11.255   6.844   2.884
62968SOL    HW188930  11.250   6.843   2.984
62968SOL    HW288931  11.172   6.803   2.846
62969SOL     OW88932  11.860   7.248   3.578
62969SOL    HW188933  11.804   7.329   3.587
62969SOL    HW288934  11.912   7.252   3.492
62970SOL     OW88935  12.898   5.721   2.385
62970SOL    HW188936  12.971   5.704   2.318
62970SOL    HW288937  12.867   5.634   2.423
62971SOL     OW88938  12.560   7.159   2.339
62971SOL    HW188939  12.627   7.171   2.265
62971SOL    HW288940  12.520   7.248   2.362
62972SOL     OW88941  11.302   7.380   3.713
62972SOL    HW188942  11.261   7.306   3.766
62972SOL    HW288943  11.366   7.431   3.771
62973SOL     OW88944  12.452   6.513   2.534
62973SOL    HW188945  12.512   6.432   2.536
62973SOL    HW288946  12.492   6.582   2.474
62974SOL     OW88947  12.002   6.859   3.284
62974SOL    HW188948  11.997   6.892   3.379
62974SOL    HW288949  11.916   6.878   3.238
62975SOL     OW88950  11.844   7.202   2.016
62975SOL    HW188951  11.853   7.212   1.917
62975SOL    HW288952  11.804   7.113   2.037
62976SOL     OW88953  11.435   5.912   2.582
62976SOL    HW188954  11.356   5.963   2.548
62976SOL    HW288955  11.426   5.897   2.680
62977SOL     OW88956  12.366   7.198   1.893
62977SOL    HW188957  12.372   7.105   1.930
62977SOL    HW288958  12.307   7.198   1.813
62978SOL     OW88959  11.994   6.588   3.234
62978SOL    HW188960  12.034   6.587   3.142
62978SOL    HW288961  12.004   6.680   3.274
62979SOL     OW88962  12.088   6.496   2.153
62979SOL    HW188963  12.151   6.534   2.085
62979SOL    HW288964  12.128   6.413   2.192
62980SOL     OW88965  11.544   6.874   3.352
62980SOL    HW188966  11.531   6.967   3.318
62980SOL    HW288967  11.460   6.822   3.339
62981SOL     OW88968  12.211   6.684   2.558
62981SOL    HW188969  12.141   6.637   2.612
62981SOL    HW288970  12.270   6.616   2.515
62982SOL     OW88971  12.186   5.822   2.833
62982SOL    HW188972  12.178   5.786   2.740
62982SOL    HW288973  12.184   5.746   2.898
62983SOL     OW88974  11.762   7.073   2.353
62983SOL    HW188975  11.804   7.015   2.283
62983SOL    HW288976  11.718   7.152   2.309
62984SOL     OW88977  11.427   6.934   2.152
62984SOL    HW188978  11.331   6.935   2.125
62984SOL    HW288979  11.439   6.987   2.236
62985SOL     OW88980  11.277   6.599   3.588
62985SOL    HW188981  11.200   6.566   3.642
62985SOL    HW288982  11.362   6.569   3.630
62986SOL     OW88983  11.844   5.789   3.351
62986SOL    HW188984  11.934   5.773   3.311
62986SOL    HW288985  11.852   5.794   3.450
62987SOL     OW88986  11.247   5.931   1.895
62987SOL    HW188987  11.155   5.903   1.866
62987SOL    HW288988  11.278   6.008   1.839
62988SOL     OW88989  12.612   6.442   3.260
62988SOL    HW188990  12.555   6.494   3.197
62988SOL    HW288991  12.708   6.454   3.236
62989SOL     OW88992  11.244   5.752   2.180
62989SOL    HW188993  11.227   5.835   2.126
62989SOL    HW288994  11.334   5.715   2.158
62990SOL     OW88995  12.355   6.921   1.981
62990SOL    HW188996  12.256   6.910   1.983
62990SOL    HW288997  12.389   6.936   2.074
62991SOL     OW88998  11.785   6.428   3.293
62991SOL    HW188999  11.841   6.509   3.276
62991SOL    HW289000  11.844   6.348   3.296
62992SOL     OW89001  11.888   6.151   3.570
62992SOL    HW189002  11.907   6.216   3.644
62992SOL    HW289003  11.948   6.071   3.579
62993SOL     OW89004  12.622   6.806   3.495
62993SOL    HW189005  12.613   6.796   3.594
62993SOL    HW289006  12.718   6.799   3.469
62994SOL     OW89007  11.562   7.327   3.422
62994SOL    HW189008  11.471   7.368   3.420
62994SOL    HW289009  11.555   7.233   3.454
62995SOL     OW89010  12.397   5.911   2.311
62995SOL    HW189011  12.462   5.837   2.300
62995SOL    HW289012  12.417   5.961   2.395
62996SOL     OW89013  11.766   6.331   2.514
62996SOL    HW189014  11.816   6.416   2.495
62996SOL    HW289015  11.678   6.333   2.466
62997SOL     OW89016  12.031   6.960   1.878
62997SOL    HW189017  11.985   6.975   1.966
62997SOL    HW289018  12.075   7.045   1.848
62998SOL     OW89019  11.833   7.376   2.815
62998SOL    HW189020  11.787   7.464   2.802
62998SOL    HW289021  11.932   7.388   2.808
62999SOL     OW89022  12.031   6.542   2.723
62999SOL    HW189023  12.085   6.473   2.771
62999SOL    HW289024  11.999   6.611   2.789
63000SOL     OW89025  12.255   6.570   1.949
63000SOL    HW189026  12.232   6.623   1.867
63000SOL    HW289027  12.336   6.514   1.930
63001SOL     OW89028  11.393   6.900   3.706
63001SOL    HW189029  11.328   6.827   3.685
63001SOL    HW289030  11.397   6.914   3.804
63002SOL     OW89031  11.251   6.826   2.515
63002SOL    HW189032  11.250   6.779   2.603
63002SOL    HW289033  11.333   6.798   2.464
63003SOL     OW89034  11.844   6.977   3.486
63003SOL    HW189035  11.766   6.927   3.524
63003SOL    HW289036  11.841   7.072   3.517
63004SOL     OW89037  11.600   6.010   2.382
63004SOL    HW189038  11.630   5.938   2.320
63004SOL    HW289039  11.561   5.970   2.465
63005SOL     OW89040  12.877   7.073   2.966
63005SOL    HW189041  12.784   7.048   2.939
63005SOL    HW289042  12.903   7.023   3.048
63006SOL     OW89043  11.489   6.133   3.142
63006SOL    HW189044  11.527   6.074   3.214
63006SOL    HW289045  11.529   6.107   3.054
63007SOL     OW89046  11.984   7.172   2.549
63007SOL    HW189047  12.016   7.182   2.455
63007SOL    HW289048  11.905   7.110   2.551
63008SOL     OW89049  12.596   5.800   2.974
63008SOL    HW189050  12.648   5.735   3.029
63008SOL    HW289051  12.547   5.863   3.035
63009SOL     OW89052  12.173   5.620   3.016
63009SOL    HW189053  12.110   5.548   2.985
63009SOL    HW289054  12.266   5.584   3.016
63010SOL     OW89055  11.942   6.916   2.163
63010SOL    HW189056  11.896   6.829   2.180
63010SOL    HW289057  12.033   6.913   2.204
63011SOL     OW89058  11.790   7.153   3.146
63011SOL    HW189059  11.785   7.235   3.203
63011SOL    HW289060  11.879   7.150   3.101
63012SOL     OW89061  12.524   5.638   2.030
63012SOL    HW189062  12.559   5.597   1.946
63012SOL    HW289063  12.434   5.600   2.050
63013SOL     OW89064  12.472   6.039   2.553
63013SOL    HW189065  12.413   6.119   2.557
63013SOL    HW289066  12.487   6.004   2.646
63014SOL     OW89067  11.211   6.663   2.162
63014SOL    HW189068  11.310   6.652   2.153
63014SOL    HW289069  11.171   6.577   2.194
63015SOL     OW89070  12.047   7.232   2.199
63015SOL    HW189071  11.970   7.197   2.145
63015SOL    HW289072  12.015   7.303   2.261
63016SOL     OW89073  11.402   6.214   3.837
63016SOL    HW189074  11.309   6.212   3.874
63016SOL    HW289075  11.403   6.175   3.745
63017SOL     OW89076  11.397   5.861   4.720
63017SOL    HW189077  11.432   5.844   4.812
63017SOL    HW289078  11.309   5.816   4.708
63018SOL     OW89079  11.191   5.954   4.371
63018SOL    HW189080  11.109   5.997   4.410
63018SOL    HW289081  11.163   5.881   4.308
63019SOL     OW89082  11.741   6.861   4.889
63019SOL    HW189083  11.648   6.854   4.852
63019SOL    HW289084  11.752   6.950   4.933
63020SOL     OW89085  12.727   7.097   4.427
63020SOL    HW189086  12.670   7.081   4.508
63020SOL    HW289087  12.668   7.107   4.347
63021SOL     OW89088  12.307   6.289   4.441
63021SOL    HW189089  12.364   6.367   4.416
63021SOL    HW289090  12.247   6.315   4.517
63022SOL     OW89091  11.940   6.730   4.747
63022SOL    HW189092  11.862   6.747   4.807
63022SOL    HW289093  11.974   6.817   4.711
63023SOL     OW89094  12.022   6.384   5.547
63023SOL    HW189095  12.018   6.460   5.612
63023SOL    HW289096  12.044   6.420   5.456
63024SOL     OW89097  11.857   6.598   4.389
63024SOL    HW189098  11.926   6.582   4.459
63024SOL    HW289099  11.784   6.655   4.427
63025SOL     OW89100  11.858   6.747   5.527
63025SOL    HW189101  11.918   6.826   5.541
63025SOL    HW289102  11.772   6.778   5.486
63026SOL     OW89103  11.507   7.021   4.785
63026SOL    HW189104  11.429   6.990   4.732
63026SOL    HW289105  11.565   7.079   4.728
63027SOL     OW89106  11.610   5.978   5.223
63027SOL    HW189107  11.692   5.922   5.232
63027SOL    HW289108  11.529   5.920   5.227
63028SOL     OW89109  11.403   7.299   4.207
63028SOL    HW189110  11.437   7.376   4.261
63028SOL    HW289111  11.447   7.299   4.117
63029SOL     OW89112  12.299   6.927   5.414
63029SOL    HW189113  12.346   6.927   5.502
63029SOL    HW289114  12.251   6.840   5.403
63030SOL     OW89115  11.402   7.020   4.262
63030SOL    HW189116  11.376   7.116   4.262
63030SOL    HW289117  11.331   6.966   4.307
63031SOL     OW89118  11.412   6.677   4.610
63031SOL    HW189119  11.426   6.593   4.662
63031SOL    HW289120  11.357   6.741   4.665
63032SOL     OW89121  11.792   7.372   5.163
63032SOL    HW189122  11.700   7.355   5.198
63032SOL    HW289123  11.820   7.464   5.189
63033SOL     OW89124  11.778   6.550   3.847
63033SOL    HW189125  11.785   6.634   3.793
63033SOL    HW289126  11.824   6.563   3.935
63034SOL     OW89127  11.294   6.229   4.287
63034SOL    HW189128  11.249   6.141   4.304
63034SOL    HW289129  11.293   6.283   4.371
63035SOL     OW89130  11.199   7.182   3.841
63035SOL    HW189131  11.180   7.086   3.862
63035SOL    HW289132  11.166   7.240   3.916
63036SOL     OW89133  12.861   6.508   4.336
63036SOL    HW189134  12.956   6.479   4.344
63036SOL    HW289135  12.853   6.573   4.261
63037SOL     OW89136  11.285   6.323   5.321
63037SOL    HW189137  11.373   6.310   5.366
63037SOL    HW289138  11.272   6.420   5.299
63038SOL     OW89139  11.785   6.951   4.450
63038SOL    HW189140  11.736   6.864   4.459
63038SOL    HW289141  11.762   6.994   4.363
63039SOL     OW89142  12.465   6.814   5.147
63039SOL    HW189143  12.502   6.741   5.089
63039SOL    HW289144  12.517   6.819   5.232
63040SOL     OW89145  11.981   5.590   4.226
63040SOL    HW189146  12.021   5.681   4.217
63040SOL    HW289147  11.881   5.598   4.232
63041SOL     OW89148  11.369   6.562   4.988
63041SOL    HW189149  11.458   6.517   4.974
63041SOL    HW289150  11.296   6.497   4.969
63042SOL     OW89151  12.359   7.378   5.340
63042SOL    HW189152  12.383   7.438   5.264
63042SOL    HW289153  12.366   7.283   5.310
63043SOL     OW89154  11.489   5.837   5.525
63043SOL    HW189155  11.560   5.908   5.531
63043SOL    HW289156  11.401   5.876   5.553
63044SOL     OW89157  12.638   7.003   4.677
63044SOL    HW189158  12.579   7.009   4.757
63044SOL    HW289159  12.623   6.915   4.631
63045SOL     OW89160  11.770   6.315   3.994
63045SOL    HW189161  11.794   6.384   3.926
63045SOL    HW289162  11.692   6.348   4.048
63046SOL     OW89163  12.453   5.931   4.668
63046SOL    HW189164  12.367   5.881   4.655
63046SOL    HW289165  12.515   5.877   4.724
63047SOL     OW89166  11.979   6.191   5.189
63047SOL    HW189167  11.932   6.188   5.278
63047SOL    HW289168  11.928   6.136   5.123
63048SOL     OW89169  12.566   6.055   5.398
63048SOL    HW189170  12.546   6.098   5.486
63048SOL    HW289171  12.644   5.993   5.407
63049SOL     OW89172  12.145   6.476   5.296
63049SOL    HW189173  12.191   6.392   5.267
63049SOL    HW289174  12.089   6.510   5.221
63050SOL     OW89175  12.163   5.996   4.966
63050SOL    HW189176  12.086   6.030   5.020
63050SOL    HW289177  12.129   5.945   4.887
63051SOL     OW89178  12.213   6.287   4.153
63051SOL    HW189179  12.239   6.283   4.249
63051SOL    HW289180  12.128   6.236   4.139
63052SOL     OW89181  11.248   6.397   4.513
63052SOL    HW189182  11.347   6.385   4.522
63052SOL    HW289183  11.224   6.492   4.534
63053SOL     OW89184  11.302   7.407   5.295
63053SOL    HW189185  11.292   7.392   5.394
63053SOL    HW289186  11.216   7.443   5.259
63054SOL     OW89187  12.037   5.934   3.919
63054SOL    HW189188  12.096   5.997   3.870
63054SOL    HW289189  12.056   5.840   3.890
63055SOL     OW89190  12.534   6.730   4.269
63055SOL    HW189191  12.617   6.701   4.221
63055SOL    HW289192  12.485   6.797   4.213
63056SOL     OW89193  11.722   5.782   4.609
63056SOL    HW189194  11.717   5.777   4.709
63056SOL    HW289195  11.724   5.878   4.580
63057SOL     OW89196  12.180   7.042   4.201
63057SOL    HW189197  12.134   7.114   4.149
63057SOL    HW289198  12.176   7.062   4.299
63058SOL     OW89199  11.523   7.387   4.577
63058SOL    HW189200  11.573   7.301   4.583
63058SOL    HW289201  11.588   7.464   4.574
63059SOL     OW89202  12.399   7.136   5.230
63059SOL    HW189203  12.405   7.059   5.294
63059SOL    HW289204  12.347   7.110   5.150
63060SOL     OW89205  11.493   6.529   3.966
63060SOL    HW189206  11.575   6.568   3.924
63060SOL    HW289207  11.466   6.447   3.917
63061SOL     OW89208  11.633   6.852   5.451
63061SOL    HW189209  11.583   6.853   5.365
63061SOL    HW289210  11.570   6.834   5.527
63062SOL     OW89211  12.283   7.362   3.961
63062SOL    HW189212  12.223   7.300   4.011
63062SOL    HW289213  12.314   7.318   3.876
63063SOL     OW89214  11.374   5.871   5.222
63063SOL    HW189215  11.294   5.931   5.209
63063SOL    HW289216  11.364   5.822   5.308
63064SOL     OW89217  11.636   7.329   4.047
63064SOL    HW189218  11.669   7.368   4.133
63064SOL    HW289219  11.712   7.322   3.982
63065SOL     OW89220  12.572   5.693   4.150
63065SOL    HW189221  12.548   5.656   4.060
63065SOL    HW289222  12.671   5.709   4.154
63066SOL     OW89223  11.421   7.371   4.965
63066SOL    HW189224  11.478   7.306   5.015
63066SOL    HW289225  11.405   7.338   4.872
63067SOL     OW89226  12.112   7.284   4.628
63067SOL    HW189227  12.192   7.227   4.649
63067SOL    HW289228  12.063   7.244   4.551
63068SOL     OW89229  11.554   6.286   4.204
63068SOL    HW189230  11.599   6.196   4.201
63068SOL    HW289231  11.460   6.275   4.237
63069SOL     OW89232  11.786   5.708   3.841
63069SOL    HW189233  11.884   5.686   3.848
63069SOL    HW289234  11.755   5.691   3.748
63070SOL     OW89235  11.953   5.850   5.473
63070SOL    HW189236  12.020   5.789   5.516
63070SOL    HW289237  11.880   5.869   5.538
63071SOL     OW89238  12.060   7.100   4.919
63071SOL    HW189239  12.037   7.075   4.825
63071SOL    HW289240  12.121   7.031   4.958
63072SOL     OW89241  12.523   6.176   5.157
63072SOL    HW189242  12.551   6.133   5.242
63072SOL    HW289243  12.548   6.272   5.158
63073SOL     OW89244  11.975   6.988   4.648
63073SOL    HW189245  12.065   7.002   4.606
63073SOL    HW289246  11.904   6.990   4.577
63074SOL     OW89247  12.094   6.089   4.623
63074SOL    HW189248  12.069   6.080   4.527
63074SOL    HW289249  12.142   6.007   4.654
63075SOL     OW89250  11.711   5.650   4.236
63075SOL    HW189251  11.630   5.651   4.294
63075SOL    HW289252  11.714   5.733   4.181
63076SOL     OW89253  12.606   6.774   3.765
63076SOL    HW189254  12.638   6.698   3.822
63076SOL    HW289255  12.514   6.801   3.795
63077SOL     OW89256  11.469   5.621   3.895
63077SOL    HW189257  11.518   5.705   3.874
63077SOL    HW289258  11.531   5.556   3.940
63078SOL     OW89259  12.107   5.822   4.204
63078SOL    HW189260  12.059   5.863   4.126
63078SOL    HW289261  12.206   5.820   4.185
63079SOL     OW89262  12.248   6.269   5.188
63079SOL    HW189263  12.168   6.208   5.191
63079SOL    HW289264  12.329   6.216   5.164
63080SOL     OW89265  12.399   7.156   4.517
63080SOL    HW189266  12.420   7.230   4.452
63080SOL    HW289267  12.467   7.156   4.590
63081SOL     OW89268  11.631   6.738   4.465
63081SOL    HW189269  11.560   6.711   4.530
63081SOL    HW289270  11.605   6.710   4.372
63082SOL     OW89271  12.443   7.383   4.315
63082SOL    HW189272  12.487   7.447   4.251
63082SOL    HW289273  12.393   7.435   4.385
63083SOL     OW89274  12.204   6.135   3.740
63083SOL    HW189275  12.163   6.217   3.701
63083SOL    HW289276  12.268   6.161   3.813
63084SOL     OW89277  11.250   6.142   5.110
63084SOL    HW189278  11.342   6.141   5.069
63084SOL    HW289279  11.244   6.216   5.177
63085SOL     OW89280  11.733   5.808   4.871
63085SOL    HW189281  11.771   5.724   4.908
63085SOL    HW289282  11.645   5.827   4.915
63086SOL     OW89283  12.038   6.040   4.366
63086SOL    HW189284  12.006   6.112   4.304
63086SOL    HW289285  12.062   5.959   4.313
63087SOL     OW89286  12.189   5.625   4.477
63087SOL    HW189287  12.117   5.630   4.408
63087SOL    HW289288  12.165   5.556   4.546
63088SOL     OW89289  12.601   6.759   4.591
63088SOL    HW189290  12.546   6.675   4.584
63088SOL    HW289291  12.627   6.788   4.499
63089SOL     OW89292  11.660   6.971   3.898
63089SOL    HW189293  11.573   6.956   3.945
63089SOL    HW289294  11.643   6.997   3.803
63090SOL     OW89295  12.562   6.161   3.802
63090SOL    HW189296  12.508   6.140   3.883
63090SOL    HW289297  12.653   6.120   3.811
63091SOL     OW89298  11.699   5.842   4.052
63091SOL    HW189299  11.726   5.783   3.977
63091SOL    HW289300  11.699   5.937   4.021
63092SOL     OW89301  12.236   6.933   5.064
63092SOL    HW189302  12.156   6.910   5.119
63092SOL    HW289303  12.319   6.907   5.113
63093SOL     OW89304  12.764   7.215   5.349
63093SOL    HW189305  12.791   7.249   5.259
63093SOL    HW289306  12.843   7.177   5.395
63094SOL     OW89307  12.283   6.781   4.824
63094SOL    HW189308  12.243   6.825   4.905
63094SOL    HW289309  12.242   6.818   4.741
63095SOL     OW89310  12.087   5.675   5.126
63095SOL    HW189311  12.112   5.655   5.031
63095SOL    HW289312  12.159   5.731   5.168
63096SOL     OW89313  12.152   6.702   5.443
63096SOL    HW189314  12.053   6.708   5.453
63096SOL    HW289315  12.175   6.622   5.387
63097SOL     OW89316  11.877   6.636   4.092
63097SOL    HW189317  11.863   6.643   4.191
63097SOL    HW289318  11.961   6.585   4.074
63098SOL     OW89319  11.582   6.399   4.975
63098SOL    HW189320  11.668   6.411   5.025
63098SOL    HW289321  11.540   6.312   5.002
63099SOL     OW89322  12.446   5.972   4.986
63099SOL    HW189323  12.467   6.046   5.050
63099SOL    HW289324  12.357   5.989   4.943
63100SOL     OW89325  11.236   7.150   5.055
63100SOL    HW189326  11.190   7.232   5.021
63100SOL    HW289327  11.334   7.169   5.064
63101SOL     OW89328  11.539   6.686   4.225
63101SOL    HW189329  11.532   6.769   4.169
63101SOL    HW289330  11.543   6.606   4.165
63102SOL     OW89331  11.738   6.123   4.589
63102SOL    HW189332  11.750   6.189   4.515
63102SOL    HW289333  11.784   6.157   4.672
63103SOL     OW89334  12.424   6.934   4.112
63103SOL    HW189335  12.474   7.011   4.152
63103SOL    HW289336  12.329   6.936   4.144
63104SOL     OW89337  12.444   7.031   4.866
63104SOL    HW189338  12.491   7.044   4.953
63104SOL    HW289339  12.378   6.957   4.875
63105SOL     OW89340  11.526   7.096   5.053
63105SOL    HW189341  11.505   7.052   4.966
63105SOL    HW289342  11.623   7.122   5.056
63106SOL     OW89343  11.574   6.337   5.322
63106SOL    HW189344  11.642   6.392   5.275
63106SOL    HW289345  11.614   6.249   5.349
63107SOL     OW89346  12.185   5.691   5.494
63107SOL    HW189347  12.191   5.776   5.442
63107SOL    HW289348  12.217   5.615   5.437
63108SOL     OW89349  11.676   5.636   5.464
63108SOL    HW189350  11.634   5.579   5.394
63108SOL    HW289351  11.610   5.705   5.496
63109SOL     OW89352  11.745   6.456   4.753
63109SOL    HW189353  11.789   6.545   4.744
63109SOL    HW289354  11.682   6.456   4.830
63110SOL     OW89355  12.532   6.448   4.769
63110SOL    HW189356  12.457   6.448   4.703
63110SOL    HW289357  12.569   6.356   4.778
63111SOL     OW89358  12.381   6.111   3.999
63111SOL    HW189359  12.394   6.027   4.053
63111SOL    HW289360  12.352   6.185   4.059
63112SOL     OW89361  11.479   5.799   4.955
63112SOL    HW189362  11.456   5.836   5.045
63112SOL    HW289363  11.449   5.704   4.949
63113SOL     OW89364  11.209   6.896   5.006
63113SOL    HW189365  11.262   6.847   5.074
63113SOL    HW289366  11.231   6.994   5.011
63114SOL     OW89367  11.904   6.220   4.788
63114SOL    HW189368  11.963   6.194   4.712
63114SOL    HW289369  11.876   6.316   4.777
63115SOL     OW89370  11.479   5.649   4.342
63115SOL    HW189371  11.468   5.743   4.375
63115SOL    HW289372  11.474   5.586   4.419
63116SOL     OW89373  12.794   5.953   4.098
63116SOL    HW189374  12.796   5.877   4.162
63116SOL    HW289375  12.746   6.030   4.138
63117SOL     OW89376  12.195   6.352   4.690
63117SOL    HW189377  12.210   6.373   4.786
63117SOL    HW289378  12.165   6.257   4.681
63118SOL     OW89379  12.152   7.159   5.424
63118SOL    HW189380  12.132   7.203   5.336
63118SOL    HW289381  12.191   7.068   5.408
63119SOL     OW89382  11.522   6.484   5.528
63119SOL    HW189383  11.598   6.528   5.576
63119SOL    HW289384  11.557   6.437   5.446
63120SOL     OW89385  12.475   6.424   3.766
63120SOL    HW189386  12.509   6.331   3.781
63120SOL    HW289387  12.493   6.451   3.671
63121SOL     OW89388  12.240   6.919   4.573
63121SOL    HW189389  12.247   6.835   4.518
63121SOL    HW289390  12.302   6.988   4.537
63122SOL     OW89391  11.491   6.396   4.673
63122SOL    HW189392  11.584   6.432   4.678
63122SOL    HW289393  11.485   6.311   4.725
63123SOL     OW89394  11.511   6.095   4.730
63123SOL    HW189395  11.459   6.012   4.713
63123SOL    HW289396  11.588   6.100   4.666
63124SOL     OW89397  12.310   5.966   5.402
63124SOL    HW189398  12.265   6.029   5.466
63124SOL    HW289399  12.403   5.997   5.385
63125SOL     OW89400  12.332   5.793   5.201
63125SOL    HW189401  12.332   5.857   5.278
63125SOL    HW289402  12.360   5.841   5.118
63126SOL     OW89403  11.180   6.912   3.924
63126SOL    HW189404  11.087   6.933   3.893
63126SOL    HW289405  11.190   6.813   3.937
63127SOL     OW89406  11.260   7.387   4.651
63127SOL    HW189407  11.218   7.301   4.624
63127SOL    HW289408  11.354   7.390   4.617
63128SOL     OW89409  11.676   7.154   4.634
63128SOL    HW189410  11.742   7.228   4.643
63128SOL    HW289411  11.720   7.075   4.592
63129SOL     OW89412  12.174   6.382   4.962
63129SOL    HW189413  12.215   6.350   5.048
63129SOL    HW289414  12.078   6.355   4.959
63130SOL     OW89415  11.212   6.130   4.838
63130SOL    HW189416  11.297   6.097   4.797
63130SOL    HW289417  11.225   6.145   4.936
63131SOL     OW89418  11.361   6.106   5.446
63131SOL    HW189419  11.420   6.066   5.376
63131SOL    HW289420  11.303   6.177   5.405
63132SOL     OW89421  12.541   6.536   5.384
63132SOL    HW189422  12.580   6.625   5.404
63132SOL    HW289423  12.551   6.516   5.287
63133SOL     OW89424  11.987   6.158   4.049
63133SOL    HW189425  11.994   6.069   4.003
63133SOL    HW289426  11.893   6.192   4.041
63134SOL     OW89427  11.424   7.150   5.468
63134SOL    HW189428  11.394   7.207   5.544
63134SOL    HW289429  11.417   7.053   5.494
63135SOL     OW89430  11.843   6.050   4.993
63135SOL    HW189431  11.809   5.961   4.963
63135SOL    HW289432  11.869   6.104   4.913
63136SOL     OW89433  12.102   7.264   5.189
63136SOL    HW189434  12.078   7.246   5.094
63136SOL    HW289435  12.132   7.358   5.199
63137SOL     OW89436  11.645   6.086   3.915
63137SOL    HW189437  11.706   6.166   3.919
63137SOL    HW289438  11.550   6.117   3.922
63138SOL     OW89439  11.331   6.723   5.190
63138SOL    HW189440  11.353   6.662   5.266
63138SOL    HW289441  11.341   6.674   5.104
63139SOL     OW89442  12.519   6.645   4.958
63139SOL    HW189443  12.543   6.582   4.884
63139SOL    HW289444  12.429   6.685   4.940
63140SOL     OW89445  12.474   6.441   4.033
63140SOL    HW189446  12.388   6.410   4.075
63140SOL    HW289447  12.470   6.427   3.934
63141SOL     OW89448  12.424   7.317   4.852
63141SOL    HW189449  12.508   7.322   4.798
63141SOL    HW289450  12.401   7.221   4.870
63142SOL     OW89451  11.255   6.844   4.746
63142SOL    HW189452  11.250   6.843   4.846
63142SOL    HW289453  11.172   6.803   4.708
63143SOL     OW89454  11.860   7.248   5.440
63143SOL    HW189455  11.804   7.329   5.449
63143SOL    HW289456  11.912   7.252   5.354
63144SOL     OW89457  12.898   5.721   4.247
63144SOL    HW189458  12.971   5.704   4.180
63144SOL    HW289459  12.867   5.634   4.285
63145SOL     OW89460  12.560   7.159   4.201
63145SOL    HW189461  12.627   7.171   4.127
63145SOL    HW289462  12.520   7.248   4.224
63146SOL     OW89463  11.302   7.380   5.575
63146SOL    HW189464  11.261   7.306   5.628
63146SOL    HW289465  11.366   7.431   5.633
63147SOL     OW89466  12.452   6.513   4.396
63147SOL    HW189467  12.512   6.432   4.398
63147SOL    HW289468  12.492   6.582   4.336
63148SOL     OW89469  12.002   6.859   5.146
63148SOL    HW189470  11.997   6.892   5.241
63148SOL    HW289471  11.916   6.878   5.100
63149SOL     OW89472  11.844   7.202   3.878
63149SOL    HW189473  11.853   7.212   3.779
63149SOL    HW289474  11.804   7.113   3.899
63150SOL     OW89475  11.435   5.912   4.444
63150SOL    HW189476  11.356   5.963   4.410
63150SOL    HW289477  11.426   5.897   4.542
63151SOL     OW89478  12.366   7.198   3.755
63151SOL    HW189479  12.372   7.105   3.792
63151SOL    HW289480  12.307   7.198   3.675
63152SOL     OW89481  11.994   6.588   5.096
63152SOL    HW189482  12.034   6.587   5.004
63152SOL    HW289483  12.004   6.680   5.136
63153SOL     OW89484  12.088   6.496   4.015
63153SOL    HW189485  12.151   6.534   3.947
63153SOL    HW289486  12.128   6.413   4.054
63154SOL     OW89487  11.544   6.874   5.214
63154SOL    HW189488  11.531   6.967   5.180
63154SOL    HW289489  11.460   6.822   5.201
63155SOL     OW89490  12.211   6.684   4.420
63155SOL    HW189491  12.141   6.637   4.474
63155SOL    HW289492  12.270   6.616   4.377
63156SOL     OW89493  12.186   5.822   4.695
63156SOL    HW189494  12.178   5.786   4.602
63156SOL    HW289495  12.184   5.746   4.760
63157SOL     OW89496  11.762   7.073   4.215
63157SOL    HW189497  11.804   7.015   4.145
63157SOL    HW289498  11.718   7.152   4.171
63158SOL     OW89499  11.427   6.934   4.014
63158SOL    HW189500  11.331   6.935   3.987
63158SOL    HW289501  11.439   6.987   4.098
63159SOL     OW89502  11.277   6.599   5.450
63159SOL    HW189503  11.200   6.566   5.504
63159SOL    HW289504  11.362   6.569   5.492
63160SOL     OW89505  11.844   5.789   5.213
63160SOL    HW189506  11.934   5.773   5.173
63160SOL    HW289507  11.852   5.794   5.312
63161SOL     OW89508  11.247   5.931   3.757
63161SOL    HW189509  11.155   5.903   3.728
63161SOL    HW289510  11.278   6.008   3.701
63162SOL     OW89511  12.612   6.442   5.122
63162SOL    HW189512  12.555   6.494   5.059
63162SOL    HW289513  12.708   6.454   5.098
63163SOL     OW89514  11.244   5.752   4.042
63163SOL    HW189515  11.227   5.835   3.988
63163SOL    HW289516  11.334   5.715   4.020
63164SOL     OW89517  12.355   6.921   3.843
63164SOL    HW189518  12.256   6.910   3.845
63164SOL    HW289519  12.389   6.936   3.936
63165SOL     OW89520  11.785   6.428   5.155
63165SOL    HW189521  11.841   6.509   5.138
63165SOL    HW289522  11.844   6.348   5.158
63166SOL     OW89523  11.888   6.151   5.432
63166SOL    HW189524  11.907   6.216   5.506
63166SOL    HW289525  11.948   6.071   5.441
63167SOL     OW89526  12.622   6.806   5.357
63167SOL    HW189527  12.613   6.796   5.456
63167SOL    HW289528  12.718   6.799   5.331
63168SOL     OW89529  11.562   7.327   5.284
63168SOL    HW189530  11.471   7.368   5.282
63168SOL    HW289531  11.555   7.233   5.316
63169SOL     OW89532  12.397   5.911   4.173
63169SOL    HW189533  12.462   5.837   4.162
63169SOL    HW289534  12.417   5.961   4.257
63170SOL     OW89535  11.766   6.331   4.376
63170SOL    HW189536  11.816   6.416   4.357
63170SOL    HW289537  11.678   6.333   4.328
63171SOL     OW89538  12.031   6.960   3.740
63171SOL    HW189539  11.985   6.975   3.828
63171SOL    HW289540  12.075   7.045   3.710
63172SOL     OW89541  11.833   7.376   4.677
63172SOL    HW189542  11.787   7.464   4.664
63172SOL    HW289543  11.932   7.388   4.670
63173SOL     OW89544  12.031   6.542   4.585
63173SOL    HW189545  12.085   6.473   4.633
63173SOL    HW289546  11.999   6.611   4.651
63174SOL     OW89547  12.255   6.570   3.811
63174SOL    HW189548  12.232   6.623   3.729
63174SOL    HW289549  12.336   6.514   3.792
63175SOL     OW89550  11.393   6.900   5.568
63175SOL    HW189551  11.328   6.827   5.547
63175SOL    HW289552  11.397   6.914   5.666
63176SOL     OW89553  11.251   6.826   4.377
63176SOL    HW189554  11.250   6.779   4.465
63176SOL    HW289555  11.333   6.798   4.326
63177SOL     OW89556  11.844   6.977   5.348
63177SOL    HW189557  11.766   6.927   5.386
63177SOL    HW289558  11.841   7.072   5.379
63178SOL     OW89559  11.600   6.010   4.244
63178SOL    HW189560  11.630   5.938   4.182
63178SOL    HW289561  11.561   5.970   4.327
63179SOL     OW89562  12.877   7.073   4.828
63179SOL    HW189563  12.784   7.048   4.801
63179SOL    HW289564  12.903   7.023   4.910
63180SOL     OW89565  11.489   6.133   5.004
63180SOL    HW189566  11.527   6.074   5.076
63180SOL    HW289567  11.529   6.107   4.916
63181SOL     OW89568  11.984   7.172   4.411
63181SOL    HW189569  12.016   7.182   4.317
63181SOL    HW289570  11.905   7.110   4.413
63182SOL     OW89571  12.596   5.800   4.836
63182SOL    HW189572  12.648   5.735   4.891
63182SOL    HW289573  12.547   5.863   4.897
63183SOL     OW89574  12.173   5.620   4.878
63183SOL    HW189575  12.110   5.548   4.847
63183SOL    HW289576  12.266   5.584   4.878
63184SOL     OW89577  11.942   6.916   4.025
63184SOL    HW189578  11.896   6.829   4.042
63184SOL    HW289579  12.033   6.913   4.066
63185SOL     OW89580  11.790   7.153   5.008
63185SOL    HW189581  11.785   7.235   5.065
63185SOL    HW289582  11.879   7.150   4.963
63186SOL     OW89583  12.524   5.638   3.892
63186SOL    HW189584  12.559   5.597   3.808
63186SOL    HW289585  12.434   5.600   3.912
63187SOL     OW89586  12.472   6.039   4.415
63187SOL    HW189587  12.413   6.119   4.419
63187SOL    HW289588  12.487   6.004   4.508
63188SOL     OW89589  11.211   6.663   4.024
63188SOL    HW189590  11.310   6.652   4.015
63188SOL    HW289591  11.171   6.577   4.056
63189SOL     OW89592  12.047   7.232   4.061
63189SOL    HW189593  11.970   7.197   4.007
63189SOL    HW289594  12.015   7.303   4.123
63190SOL     OW89595  11.402   6.214   5.699
63190SOL    HW189596  11.309   6.212   5.736
63190SOL    HW289597  11.403   6.175   5.607
63191SOL     OW89598  11.397   5.861   6.582
63191SOL    HW189599  11.432   5.844   6.674
63191SOL    HW289600  11.309   5.816   6.570
63192SOL     OW89601  11.191   5.954   6.233
63192SOL    HW189602  11.109   5.997   6.272
63192SOL    HW289603  11.163   5.881   6.170
63193SOL     OW89604  11.741   6.861   6.751
63193SOL    HW189605  11.648   6.854   6.714
63193SOL    HW289606  11.752   6.950   6.795
63194SOL     OW89607  12.727   7.097   6.289
63194SOL    HW189608  12.670   7.081   6.370
63194SOL    HW289609  12.668   7.107   6.209
63195SOL     OW89610  12.307   6.289   6.303
63195SOL    HW189611  12.364   6.367   6.278
63195SOL    HW289612  12.247   6.315   6.379
63196SOL     OW89613  11.940   6.730   6.609
63196SOL    HW189614  11.862   6.747   6.669
63196SOL    HW289615  11.974   6.817   6.573
63197SOL     OW89616  12.022   6.384   7.409
63197SOL    HW189617  12.018   6.460   7.474
63197SOL    HW289618  12.044   6.420   7.318
63198SOL     OW89619  11.857   6.598   6.251
63198SOL    HW189620  11.926   6.582   6.321
63198SOL    HW289621  11.784   6.655   6.289
63199SOL     OW89622  11.858   6.747   7.389
63199SOL    HW189623  11.918   6.826   7.403
63199SOL    HW289624  11.772   6.778   7.348
63200SOL     OW89625  11.507   7.021   6.647
63200SOL    HW189626  11.429   6.990   6.594
63200SOL    HW289627  11.565   7.079   6.590
63201SOL     OW89628  11.610   5.978   7.085
63201SOL    HW189629  11.692   5.922   7.094
63201SOL    HW289630  11.529   5.920   7.089
63202SOL     OW89631  11.403   7.299   6.069
63202SOL    HW189632  11.437   7.376   6.123
63202SOL    HW289633  11.447   7.299   5.979
63203SOL     OW89634  12.299   6.927   7.276
63203SOL    HW189635  12.346   6.927   7.364
63203SOL    HW289636  12.251   6.840   7.265
63204SOL     OW89637  11.402   7.020   6.124
63204SOL    HW189638  11.376   7.116   6.124
63204SOL    HW289639  11.331   6.966   6.169
63205SOL     OW89640  11.412   6.677   6.472
63205SOL    HW189641  11.426   6.593   6.524
63205SOL    HW289642  11.357   6.741   6.527
63206SOL     OW89643  11.792   7.372   7.025
63206SOL    HW189644  11.700   7.355   7.060
63206SOL    HW289645  11.820   7.464   7.051
63207SOL     OW89646  11.778   6.550   5.709
63207SOL    HW189647  11.785   6.634   5.655
63207SOL    HW289648  11.824   6.563   5.797
63208SOL     OW89649  11.294   6.229   6.149
63208SOL    HW189650  11.249   6.141   6.166
63208SOL    HW289651  11.293   6.283   6.233
63209SOL     OW89652  11.199   7.182   5.703
63209SOL    HW189653  11.180   7.086   5.724
63209SOL    HW289654  11.166   7.240   5.778
63210SOL     OW89655  12.861   6.508   6.198
63210SOL    HW189656  12.956   6.479   6.206
63210SOL    HW289657  12.853   6.573   6.123
63211SOL     OW89658  11.285   6.323   7.183
63211SOL    HW189659  11.373   6.310   7.228
63211SOL    HW289660  11.272   6.420   7.161
63212SOL     OW89661  11.785   6.951   6.312
63212SOL    HW189662  11.736   6.864   6.321
63212SOL    HW289663  11.762   6.994   6.225
63213SOL     OW89664  12.465   6.814   7.009
63213SOL    HW189665  12.502   6.741   6.951
63213SOL    HW289666  12.517   6.819   7.094
63214SOL     OW89667  11.981   5.590   6.088
63214SOL    HW189668  12.021   5.681   6.079
63214SOL    HW289669  11.881   5.598   6.094
63215SOL     OW89670  11.369   6.562   6.850
63215SOL    HW189671  11.458   6.517   6.836
63215SOL    HW289672  11.296   6.497   6.831
63216SOL     OW89673  12.359   7.378   7.202
63216SOL    HW189674  12.383   7.438   7.126
63216SOL    HW289675  12.366   7.283   7.172
63217SOL     OW89676  11.489   5.837   7.387
63217SOL    HW189677  11.560   5.908   7.393
63217SOL    HW289678  11.401   5.876   7.415
63218SOL     OW89679  12.638   7.003   6.539
63218SOL    HW189680  12.579   7.009   6.619
63218SOL    HW289681  12.623   6.915   6.493
63219SOL     OW89682  11.770   6.315   5.856
63219SOL    HW189683  11.794   6.384   5.788
63219SOL    HW289684  11.692   6.348   5.910
63220SOL     OW89685  12.453   5.931   6.530
63220SOL    HW189686  12.367   5.881   6.517
63220SOL    HW289687  12.515   5.877   6.586
63221SOL     OW89688  11.979   6.191   7.051
63221SOL    HW189689  11.932   6.188   7.140
63221SOL    HW289690  11.928   6.136   6.985
63222SOL     OW89691  12.566   6.055   7.260
63222SOL    HW189692  12.546   6.098   7.348
63222SOL    HW289693  12.644   5.993   7.269
63223SOL     OW89694  12.145   6.476   7.158
63223SOL    HW189695  12.191   6.392   7.129
63223SOL    HW289696  12.089   6.510   7.083
63224SOL     OW89697  12.163   5.996   6.828
63224SOL    HW189698  12.086   6.030   6.882
63224SOL    HW289699  12.129   5.945   6.749
63225SOL     OW89700  12.213   6.287   6.015
63225SOL    HW189701  12.239   6.283   6.111
63225SOL    HW289702  12.128   6.236   6.001
63226SOL     OW89703  11.248   6.397   6.375
63226SOL    HW189704  11.347   6.385   6.384
63226SOL    HW289705  11.224   6.492   6.396
63227SOL     OW89706  11.302   7.407   7.157
63227SOL    HW189707  11.292   7.392   7.256
63227SOL    HW289708  11.216   7.443   7.121
63228SOL     OW89709  12.037   5.934   5.781
63228SOL    HW189710  12.096   5.997   5.732
63228SOL    HW289711  12.056   5.840   5.752
63229SOL     OW89712  12.534   6.730   6.131
63229SOL    HW189713  12.617   6.701   6.083
63229SOL    HW289714  12.485   6.797   6.075
63230SOL     OW89715  11.722   5.782   6.471
63230SOL    HW189716  11.717   5.777   6.571
63230SOL    HW289717  11.724   5.878   6.442
63231SOL     OW89718  12.180   7.042   6.063
63231SOL    HW189719  12.134   7.114   6.011
63231SOL    HW289720  12.176   7.062   6.161
63232SOL     OW89721  11.523   7.387   6.439
63232SOL    HW189722  11.573   7.301   6.445
63232SOL    HW289723  11.588   7.464   6.436
63233SOL     OW89724  12.399   7.136   7.092
63233SOL    HW189725  12.405   7.059   7.156
63233SOL    HW289726  12.347   7.110   7.012
63234SOL     OW89727  11.493   6.529   5.828
63234SOL    HW189728  11.575   6.568   5.786
63234SOL    HW289729  11.466   6.447   5.779
63235SOL     OW89730  11.633   6.852   7.313
63235SOL    HW189731  11.583   6.853   7.227
63235SOL    HW289732  11.570   6.834   7.389
63236SOL     OW89733  12.283   7.362   5.823
63236SOL    HW189734  12.223   7.300   5.873
63236SOL    HW289735  12.314   7.318   5.738
63237SOL     OW89736  11.374   5.871   7.084
63237SOL    HW189737  11.294   5.931   7.071
63237SOL    HW289738  11.364   5.822   7.170
63238SOL     OW89739  11.636   7.329   5.909
63238SOL    HW189740  11.669   7.368   5.995
63238SOL    HW289741  11.712   7.322   5.844
63239SOL     OW89742  12.572   5.693   6.012
63239SOL    HW189743  12.548   5.656   5.922
63239SOL    HW289744  12.671   5.709   6.016
63240SOL     OW89745  11.421   7.371   6.827
63240SOL    HW189746  11.478   7.306   6.877
63240SOL    HW289747  11.405   7.338   6.734
63241SOL     OW89748  12.112   7.284   6.490
63241SOL    HW189749  12.192   7.227   6.511
63241SOL    HW289750  12.063   7.244   6.413
63242SOL     OW89751  11.554   6.286   6.066
63242SOL    HW189752  11.599   6.196   6.063
63242SOL    HW289753  11.460   6.275   6.099
63243SOL     OW89754  11.786   5.708   5.703
63243SOL    HW189755  11.884   5.686   5.710
63243SOL    HW289756  11.755   5.691   5.610
63244SOL     OW89757  11.953   5.850   7.335
63244SOL    HW189758  12.020   5.789   7.378
63244SOL    HW289759  11.880   5.869   7.400
63245SOL     OW89760  12.060   7.100   6.781
63245SOL    HW189761  12.037   7.075   6.687
63245SOL    HW289762  12.121   7.031   6.820
63246SOL     OW89763  12.523   6.176   7.019
63246SOL    HW189764  12.551   6.133   7.104
63246SOL    HW289765  12.548   6.272   7.020
63247SOL     OW89766  11.975   6.988   6.510
63247SOL    HW189767  12.065   7.002   6.468
63247SOL    HW289768  11.904   6.990   6.439
63248SOL     OW89769  12.094   6.089   6.485
63248SOL    HW189770  12.069   6.080   6.389
63248SOL    HW289771  12.142   6.007   6.516
63249SOL     OW89772  11.711   5.650   6.098
63249SOL    HW189773  11.630   5.651   6.156
63249SOL    HW289774  11.714   5.733   6.043
63250SOL     OW89775  12.606   6.774   5.627
63250SOL    HW189776  12.638   6.698   5.684
63250SOL    HW289777  12.514   6.801   5.657
63251SOL     OW89778  11.469   5.621   5.757
63251SOL    HW189779  11.518   5.705   5.736
63251SOL    HW289780  11.531   5.556   5.802
63252SOL     OW89781  12.107   5.822   6.066
63252SOL    HW189782  12.059   5.863   5.988
63252SOL    HW289783  12.206   5.820   6.047
63253SOL     OW89784  12.248   6.269   7.050
63253SOL    HW189785  12.168   6.208   7.053
63253SOL    HW289786  12.329   6.216   7.026
63254SOL     OW89787  12.399   7.156   6.379
63254SOL    HW189788  12.420   7.230   6.314
63254SOL    HW289789  12.467   7.156   6.452
63255SOL     OW89790  11.631   6.738   6.327
63255SOL    HW189791  11.560   6.711   6.392
63255SOL    HW289792  11.605   6.710   6.234
63256SOL     OW89793  12.443   7.383   6.177
63256SOL    HW189794  12.487   7.447   6.113
63256SOL    HW289795  12.393   7.435   6.247
63257SOL     OW89796  12.204   6.135   5.602
63257SOL    HW189797  12.163   6.217   5.563
63257SOL    HW289798  12.268   6.161   5.675
63258SOL     OW89799  11.250   6.142   6.972
63258SOL    HW189800  11.342   6.141   6.931
63258SOL    HW289801  11.244   6.216   7.039
63259SOL     OW89802  11.733   5.808   6.733
63259SOL    HW189803  11.771   5.724   6.770
63259SOL    HW289804  11.645   5.827   6.777
63260SOL     OW89805  12.038   6.040   6.228
63260SOL    HW189806  12.006   6.112   6.166
63260SOL    HW289807  12.062   5.959   6.175
63261SOL     OW89808  12.189   5.625   6.339
63261SOL    HW189809  12.117   5.630   6.270
63261SOL    HW289810  12.165   5.556   6.408
63262SOL     OW89811  12.601   6.759   6.453
63262SOL    HW189812  12.546   6.675   6.446
63262SOL    HW289813  12.627   6.788   6.361
63263SOL     OW89814  11.660   6.971   5.760
63263SOL    HW189815  11.573   6.956   5.807
63263SOL    HW289816  11.643   6.997   5.665
63264SOL     OW89817  12.562   6.161   5.664
63264SOL    HW189818  12.508   6.140   5.745
63264SOL    HW289819  12.653   6.120   5.673
63265SOL     OW89820  11.699   5.842   5.914
63265SOL    HW189821  11.726   5.783   5.839
63265SOL    HW289822  11.699   5.937   5.883
63266SOL     OW89823  12.236   6.933   6.926
63266SOL    HW189824  12.156   6.910   6.981
63266SOL    HW289825  12.319   6.907   6.975
63267SOL     OW89826  12.764   7.215   7.211
63267SOL    HW189827  12.791   7.249   7.121
63267SOL    HW289828  12.843   7.177   7.257
63268SOL     OW89829  12.283   6.781   6.686
63268SOL    HW189830  12.243   6.825   6.767
63268SOL    HW289831  12.242   6.818   6.603
63269SOL     OW89832  12.087   5.675   6.988
63269SOL    HW189833  12.112   5.655   6.893
63269SOL    HW289834  12.159   5.731   7.030
63270SOL     OW89835  12.152   6.702   7.305
63270SOL    HW189836  12.053   6.708   7.315
63270SOL    HW289837  12.175   6.622   7.249
63271SOL     OW89838  11.877   6.636   5.954
63271SOL    HW189839  11.863   6.643   6.053
63271SOL    HW289840  11.961   6.585   5.936
63272SOL     OW89841  11.582   6.399   6.837
63272SOL    HW189842  11.668   6.411   6.887
63272SOL    HW289843  11.540   6.312   6.864
63273SOL     OW89844  12.446   5.972   6.848
63273SOL    HW189845  12.467   6.046   6.912
63273SOL    HW289846  12.357   5.989   6.805
63274SOL     OW89847  11.236   7.150   6.917
63274SOL    HW189848  11.190   7.232   6.883
63274SOL    HW289849  11.334   7.169   6.926
63275SOL     OW89850  11.539   6.686   6.087
63275SOL    HW189851  11.532   6.769   6.031
63275SOL    HW289852  11.543   6.606   6.027
63276SOL     OW89853  11.738   6.123   6.451
63276SOL    HW189854  11.750   6.189   6.377
63276SOL    HW289855  11.784   6.157   6.534
63277SOL     OW89856  12.424   6.934   5.974
63277SOL    HW189857  12.474   7.011   6.014
63277SOL    HW289858  12.329   6.936   6.006
63278SOL     OW89859  12.444   7.031   6.728
63278SOL    HW189860  12.491   7.044   6.815
63278SOL    HW289861  12.378   6.957   6.737
63279SOL     OW89862  11.526   7.096   6.915
63279SOL    HW189863  11.505   7.052   6.828
63279SOL    HW289864  11.623   7.122   6.918
63280SOL     OW89865  11.574   6.337   7.184
63280SOL    HW189866  11.642   6.392   7.137
63280SOL    HW289867  11.614   6.249   7.211
63281SOL     OW89868  12.185   5.691   7.356
63281SOL    HW189869  12.191   5.776   7.304
63281SOL    HW289870  12.217   5.615   7.299
63282SOL     OW89871  11.676   5.636   7.326
63282SOL    HW189872  11.634   5.579   7.256
63282SOL    HW289873  11.610   5.705   7.358
63283SOL     OW89874  11.745   6.456   6.615
63283SOL    HW189875  11.789   6.545   6.606
63283SOL    HW289876  11.682   6.456   6.692
63284SOL     OW89877  12.532   6.448   6.631
63284SOL    HW189878  12.457   6.448   6.565
63284SOL    HW289879  12.569   6.356   6.640
63285SOL     OW89880  12.381   6.111   5.861
63285SOL    HW189881  12.394   6.027   5.915
63285SOL    HW289882  12.352   6.185   5.921
63286SOL     OW89883  11.479   5.799   6.817
63286SOL    HW189884  11.456   5.836   6.907
63286SOL    HW289885  11.449   5.704   6.811
63287SOL     OW89886  11.904   6.220   6.650
63287SOL    HW189887  11.963   6.194   6.574
63287SOL    HW289888  11.876   6.316   6.639
63288SOL     OW89889  11.479   5.649   6.204
63288SOL    HW189890  11.468   5.743   6.237
63288SOL    HW289891  11.474   5.586   6.281
63289SOL     OW89892  12.794   5.953   5.960
63289SOL    HW189893  12.796   5.877   6.024
63289SOL    HW289894  12.746   6.030   6.000
63290SOL     OW89895  12.195   6.352   6.552
63290SOL    HW189896  12.210   6.373   6.648
63290SOL    HW289897  12.165   6.257   6.543
63291SOL     OW89898  12.152   7.159   7.286
63291SOL    HW189899  12.132   7.203   7.198
63291SOL    HW289900  12.191   7.068   7.270
63292SOL     OW89901  11.522   6.484   7.390
63292SOL    HW189902  11.598   6.528   7.438
63292SOL    HW289903  11.557   6.437   7.308
63293SOL     OW89904  12.475   6.424   5.628
63293SOL    HW189905  12.509   6.331   5.643
63293SOL    HW289906  12.493   6.451   5.533
63294SOL     OW89907  12.240   6.919   6.435
63294SOL    HW189908  12.247   6.835   6.380
63294SOL    HW289909  12.302   6.988   6.399
63295SOL     OW89910  11.491   6.396   6.535
63295SOL    HW189911  11.584   6.432   6.540
63295SOL    HW289912  11.485   6.311   6.587
63296SOL     OW89913  11.511   6.095   6.592
63296SOL    HW189914  11.459   6.012   6.575
63296SOL    HW289915  11.588   6.100   6.528
63297SOL     OW89916  12.310   5.966   7.264
63297SOL    HW189917  12.265   6.029   7.328
63297SOL    HW289918  12.403   5.997   7.247
63298SOL     OW89919  12.332   5.793   7.063
63298SOL    HW189920  12.332   5.857   7.140
63298SOL    HW289921  12.360   5.841   6.980
63299SOL     OW89922  11.180   6.912   5.786
63299SOL    HW189923  11.087   6.933   5.755
63299SOL    HW289924  11.190   6.813   5.799
63300SOL     OW89925  11.260   7.387   6.513
63300SOL    HW189926  11.218   7.301   6.486
63300SOL    HW289927  11.354   7.390   6.479
63301SOL     OW89928  11.676   7.154   6.496
63301SOL    HW189929  11.742   7.228   6.505
63301SOL    HW289930  11.720   7.075   6.454
63302SOL     OW89931  12.174   6.382   6.824
63302SOL    HW189932  12.215   6.350   6.910
63302SOL    HW289933  12.078   6.355   6.821
63303SOL     OW89934  11.212   6.130   6.700
63303SOL    HW189935  11.297   6.097   6.659
63303SOL    HW289936  11.225   6.145   6.798
63304SOL     OW89937  11.361   6.106   7.308
63304SOL    HW189938  11.420   6.066   7.238
63304SOL    HW289939  11.303   6.177   7.267
63305SOL     OW89940  12.541   6.536   7.246
63305SOL    HW189941  12.580   6.625   7.266
63305SOL    HW289942  12.551   6.516   7.149
63306SOL     OW89943  11.987   6.158   5.911
63306SOL    HW189944  11.994   6.069   5.865
63306SOL    HW289945  11.893   6.192   5.903
63307SOL     OW89946  11.424   7.150   7.330
63307SOL    HW189947  11.394   7.207   7.406
63307SOL    HW289948  11.417   7.053   7.356
63308SOL     OW89949  11.843   6.050   6.855
63308SOL    HW189950  11.809   5.961   6.825
63308SOL    HW289951  11.869   6.104   6.775
63309SOL     OW89952  12.102   7.264   7.051
63309SOL    HW189953  12.078   7.246   6.956
63309SOL    HW289954  12.132   7.358   7.061
63310SOL     OW89955  11.645   6.086   5.777
63310SOL    HW189956  11.706   6.166   5.781
63310SOL    HW289957  11.550   6.117   5.784
63311SOL     OW89958  11.331   6.723   7.052
63311SOL    HW189959  11.353   6.662   7.128
63311SOL    HW289960  11.341   6.674   6.966
63312SOL     OW89961  12.519   6.645   6.820
63312SOL    HW189962  12.543   6.582   6.746
63312SOL    HW289963  12.429   6.685   6.802
63313SOL     OW89964  12.474   6.441   5.895
63313SOL    HW189965  12.388   6.410   5.937
63313SOL    HW289966  12.470   6.427   5.796
63314SOL     OW89967  12.424   7.317   6.714
63314SOL    HW189968  12.508   7.322   6.660
63314SOL    HW289969  12.401   7.221   6.732
63315SOL     OW89970  11.255   6.844   6.608
63315SOL    HW189971  11.250   6.843   6.708
63315SOL    HW289972  11.172   6.803   6.570
63316SOL     OW89973  11.860   7.248   7.302
63316SOL    HW189974  11.804   7.329   7.311
63316SOL    HW289975  11.912   7.252   7.216
63317SOL     OW89976  12.898   5.721   6.109
63317SOL    HW189977  12.971   5.704   6.042
63317SOL    HW289978  12.867   5.634   6.147
63318SOL     OW89979  12.560   7.159   6.063
63318SOL    HW189980  12.627   7.171   5.989
63318SOL    HW289981  12.520   7.248   6.086
63319SOL     OW89982  11.302   7.380   7.437
63319SOL    HW189983  11.261   7.306   7.490
63319SOL    HW289984  11.366   7.431   7.495
63320SOL     OW89985  12.452   6.513   6.258
63320SOL    HW189986  12.512   6.432   6.260
63320SOL    HW289987  12.492   6.582   6.198
63321SOL     OW89988  12.002   6.859   7.008
63321SOL    HW189989  11.997   6.892   7.103
63321SOL    HW289990  11.916   6.878   6.962
63322SOL     OW89991  11.844   7.202   5.740
63322SOL    HW189992  11.853   7.212   5.641
63322SOL    HW289993  11.804   7.113   5.761
63323SOL     OW89994  11.435   5.912   6.306
63323SOL    HW189995  11.356   5.963   6.272
63323SOL    HW289996  11.426   5.897   6.404
63324SOL     OW89997  12.366   7.198   5.617
63324SOL    HW189998  12.372   7.105   5.654
63324SOL    HW289999  12.307   7.198   5.537
63325SOL     OW90000  11.994   6.588   6.958
63325SOL    HW190001  12.034   6.587   6.866
63325SOL    HW290002  12.004   6.680   6.998
63326SOL     OW90003  11.544   6.874   7.076
63326SOL    HW190004  11.531   6.967   7.042
63326SOL    HW290005  11.460   6.822   7.063
63327SOL     OW90006  12.211   6.684   6.282
63327SOL    HW190007  12.141   6.637   6.336
63327SOL    HW290008  12.270   6.616   6.239
63328SOL     OW90009  12.186   5.822   6.557
63328SOL    HW190010  12.178   5.786   6.464
63328SOL    HW290011  12.184   5.746   6.622
63329SOL     OW90012  11.762   7.073   6.077
63329SOL    HW190013  11.804   7.015   6.007
63329SOL    HW290014  11.718   7.152   6.033
63330SOL     OW90015  11.427   6.934   5.876
63330SOL    HW190016  11.331   6.935   5.849
63330SOL    HW290017  11.439   6.987   5.960
63331SOL     OW90018  11.277   6.599   7.312
63331SOL    HW190019  11.200   6.566   7.366
63331SOL    HW290020  11.362   6.569   7.354
63332SOL     OW90021  11.844   5.789   7.075
63332SOL    HW190022  11.934   5.773   7.035
63332SOL    HW290023  11.852   5.794   7.174
63333SOL     OW90024  11.247   5.931   5.619
63333SOL    HW190025  11.155   5.903   5.590
63333SOL    HW290026  11.278   6.008   5.563
63334SOL     OW90027  12.612   6.442   6.984
63334SOL    HW190028  12.555   6.494   6.921
63334SOL    HW290029  12.708   6.454   6.960
63335SOL     OW90030  11.244   5.752   5.904
63335SOL    HW190031  11.227   5.835   5.850
63335SOL    HW290032  11.334   5.715   5.882
63336SOL     OW90033  12.355   6.921   5.705
63336SOL    HW190034  12.256   6.910   5.707
63336SOL    HW290035  12.389   6.936   5.798
63337SOL     OW90036  11.785   6.428   7.017
63337SOL    HW190037  11.841   6.509   7.000
63337SOL    HW290038  11.844   6.348   7.020
63338SOL     OW90039  11.888   6.151   7.294
63338SOL    HW190040  11.907   6.216   7.368
63338SOL    HW290041  11.948   6.071   7.303
63339SOL     OW90042  12.622   6.806   7.219
63339SOL    HW190043  12.613   6.796   7.318
63339SOL    HW290044  12.718   6.799   7.193
63340SOL     OW90045  11.562   7.327   7.146
63340SOL    HW190046  11.471   7.368   7.144
63340SOL    HW290047  11.555   7.233   7.178
63341SOL     OW90048  12.397   5.911   6.035
63341SOL    HW190049  12.462   5.837   6.024
63341SOL    HW290050  12.417   5.961   6.119
63342SOL     OW90051  11.766   6.331   6.238
63342SOL    HW190052  11.816   6.416   6.219
63342SOL    HW290053  11.678   6.333   6.190
63343SOL     OW90054  12.031   6.960   5.602
63343SOL    HW190055  11.985   6.975   5.690
63343SOL    HW290056  12.075   7.045   5.572
63344SOL     OW90057  11.833   7.376   6.539
63344SOL    HW190058  11.787   7.464   6.526
63344SOL    HW290059  11.932   7.388   6.532
63345SOL     OW90060  12.031   6.542   6.447
63345SOL    HW190061  12.085   6.473   6.495
63345SOL    HW290062  11.999   6.611   6.513
63346SOL     OW90063  12.255   6.570   5.673
63346SOL    HW190064  12.232   6.623   5.591
63346SOL    HW290065  12.336   6.514   5.654
63347SOL     OW90066  11.393   6.900   7.430
63347SOL    HW190067  11.328   6.827   7.409
63347SOL    HW290068  11.397   6.914   7.528
63348SOL     OW90069  11.251   6.826   6.239
63348SOL    HW190070  11.250   6.779   6.327
63348SOL    HW290071  11.333   6.798   6.188
63349SOL     OW90072  11.844   6.977   7.210
63349SOL    HW190073  11.766   6.927   7.248
63349SOL    HW290074  11.841   7.072   7.241
63350SOL     OW90075  11.600   6.010   6.106
63350SOL    HW190076  11.630   5.938   6.044
63350SOL    HW290077  11.561   5.970   6.189
63351SOL     OW90078  12.877   7.073   6.690
63351SOL    HW190079  12.784   7.048   6.663
63351SOL    HW290080  12.903   7.023   6.772
63352SOL     OW90081  11.489   6.133   6.866
63352SOL    HW190082  11.527   6.074   6.938
63352SOL    HW290083  11.529   6.107   6.778
63353SOL     OW90084  11.984   7.172   6.273
63353SOL    HW190085  12.016   7.182   6.179
63353SOL    HW290086  11.905   7.110   6.275
63354SOL     OW90087  12.596   5.800   6.698
63354SOL    HW190088  12.648   5.735   6.753
63354SOL    HW290089  12.547   5.863   6.759
63355SOL     OW90090  12.173   5.620   6.740
63355SOL    HW190091  12.110   5.548   6.709
63355SOL    HW290092  12.266   5.584   6.740
63356SOL     OW90093  11.942   6.916   5.887
63356SOL    HW190094  11.896   6.829   5.904
63356SOL    HW290095  12.033   6.913   5.928
63357SOL     OW90096  11.790   7.153   6.870
63357SOL    HW190097  11.785   7.235   6.927
63357SOL    HW290098  11.879   7.150   6.825
63358SOL     OW90099  12.524   5.638   5.754
63358SOL    HW190100  12.559   5.597   5.670
63358SOL    HW290101  12.434   5.600   5.774
63359SOL     OW90102  12.472   6.039   6.277
63359SOL    HW190103  12.413   6.119   6.281
63359SOL    HW290104  12.487   6.004   6.370
63360SOL     OW90105  11.211   6.663   5.886
63360SOL    HW190106  11.310   6.652   5.877
63360SOL    HW290107  11.171   6.577   5.918
63361SOL     OW90108  12.047   7.232   5.923
63361SOL    HW190109  11.970   7.197   5.869
63361SOL    HW290110  12.015   7.303   5.985
63362SOL     OW90111  11.402   6.214   7.561
63362SOL    HW190112  11.309   6.212   7.598
63362SOL    HW290113  11.403   6.175   7.469
63363SOL     OW90114  11.397   5.861   8.444
63363SOL    HW190115  11.432   5.844   8.536
63363SOL    HW290116  11.309   5.816   8.432
63364SOL     OW90117  11.191   5.954   8.095
63364SOL    HW190118  11.109   5.997   8.134
63364SOL    HW290119  11.163   5.881   8.032
63365SOL     OW90120  11.741   6.861   8.613
63365SOL    HW190121  11.648   6.854   8.576
63365SOL    HW290122  11.752   6.950   8.657
63366SOL     OW90123  12.727   7.097   8.151
63366SOL    HW190124  12.670   7.081   8.232
63366SOL    HW290125  12.668   7.107   8.071
63367SOL     OW90126  12.307   6.289   8.165
63367SOL    HW190127  12.364   6.367   8.140
63367SOL    HW290128  12.247   6.315   8.241
63368SOL     OW90129  11.940   6.730   8.471
63368SOL    HW190130  11.862   6.747   8.531
63368SOL    HW290131  11.974   6.817   8.435
63369SOL     OW90132  12.022   6.384   9.271
63369SOL    HW190133  12.018   6.460   9.336
63369SOL    HW290134  12.044   6.420   9.180
63370SOL     OW90135  11.857   6.598   8.113
63370SOL    HW190136  11.926   6.582   8.183
63370SOL    HW290137  11.784   6.655   8.151
63371SOL     OW90138  11.858   6.747   9.251
63371SOL    HW190139  11.918   6.826   9.265
63371SOL    HW290140  11.772   6.778   9.210
63372SOL     OW90141  11.507   7.021   8.509
63372SOL    HW190142  11.429   6.990   8.456
63372SOL    HW290143  11.565   7.079   8.452
63373SOL     OW90144  11.610   5.978   8.947
63373SOL    HW190145  11.692   5.922   8.956
63373SOL    HW290146  11.529   5.920   8.951
63374SOL     OW90147  11.403   7.299   7.931
63374SOL    HW190148  11.437   7.376   7.985
63374SOL    HW290149  11.447   7.299   7.841
63375SOL     OW90150  12.299   6.927   9.138
63375SOL    HW190151  12.346   6.927   9.226
63375SOL    HW290152  12.251   6.840   9.127
63376SOL     OW90153  11.402   7.020   7.986
63376SOL    HW190154  11.376   7.116   7.986
63376SOL    HW290155  11.331   6.966   8.031
63377SOL     OW90156  11.412   6.677   8.334
63377SOL    HW190157  11.426   6.593   8.386
63377SOL    HW290158  11.357   6.741   8.389
63378SOL     OW90159  11.792   7.372   8.887
63378SOL    HW190160  11.700   7.355   8.922
63378SOL    HW290161  11.820   7.464   8.913
63379SOL     OW90162  11.778   6.550   7.571
63379SOL    HW190163  11.785   6.634   7.517
63379SOL    HW290164  11.824   6.563   7.659
63380SOL     OW90165  11.294   6.229   8.011
63380SOL    HW190166  11.249   6.141   8.028
63380SOL    HW290167  11.293   6.283   8.095
63381SOL     OW90168  11.199   7.182   7.565
63381SOL    HW190169  11.180   7.086   7.586
63381SOL    HW290170  11.166   7.240   7.640
63382SOL     OW90171  12.861   6.508   8.060
63382SOL    HW190172  12.956   6.479   8.068
63382SOL    HW290173  12.853   6.573   7.985
63383SOL     OW90174  11.285   6.323   9.045
63383SOL    HW190175  11.373   6.310   9.090
63383SOL    HW290176  11.272   6.420   9.023
63384SOL     OW90177  11.785   6.951   8.174
63384SOL    HW190178  11.736   6.864   8.183
63384SOL    HW290179  11.762   6.994   8.087
63385SOL     OW90180  12.465   6.814   8.871
63385SOL    HW190181  12.502   6.741   8.813
63385SOL    HW290182  12.517   6.819   8.956
63386SOL     OW90183  11.981   5.590   7.950
63386SOL    HW190184  12.021   5.681   7.941
63386SOL    HW290185  11.881   5.598   7.956
63387SOL     OW90186  11.369   6.562   8.712
63387SOL    HW190187  11.458   6.517   8.698
63387SOL    HW290188  11.296   6.497   8.693
63388SOL     OW90189  12.359   7.378   9.064
63388SOL    HW190190  12.383   7.438   8.988
63388SOL    HW290191  12.366   7.283   9.034
63389SOL     OW90192  11.489   5.837   9.249
63389SOL    HW190193  11.560   5.908   9.255
63389SOL    HW290194  11.401   5.876   9.277
63390SOL     OW90195  12.638   7.003   8.401
63390SOL    HW190196  12.579   7.009   8.481
63390SOL    HW290197  12.623   6.915   8.355
63391SOL     OW90198  11.770   6.315   7.718
63391SOL    HW190199  11.794   6.384   7.650
63391SOL    HW290200  11.692   6.348   7.772
63392SOL     OW90201  12.453   5.931   8.392
63392SOL    HW190202  12.367   5.881   8.379
63392SOL    HW290203  12.515   5.877   8.448
63393SOL     OW90204  11.979   6.191   8.913
63393SOL    HW190205  11.932   6.188   9.002
63393SOL    HW290206  11.928   6.136   8.847
63394SOL     OW90207  12.566   6.055   9.122
63394SOL    HW190208  12.546   6.098   9.210
63394SOL    HW290209  12.644   5.993   9.131
63395SOL     OW90210  12.145   6.476   9.020
63395SOL    HW190211  12.191   6.392   8.991
63395SOL    HW290212  12.089   6.510   8.945
63396SOL     OW90213  12.163   5.996   8.690
63396SOL    HW190214  12.086   6.030   8.744
63396SOL    HW290215  12.129   5.945   8.611
63397SOL     OW90216  12.213   6.287   7.877
63397SOL    HW190217  12.239   6.283   7.973
63397SOL    HW290218  12.128   6.236   7.863
63398SOL     OW90219  11.248   6.397   8.237
63398SOL    HW190220  11.347   6.385   8.246
63398SOL    HW290221  11.224   6.492   8.258
63399SOL     OW90222  11.302   7.407   9.019
63399SOL    HW190223  11.292   7.392   9.118
63399SOL    HW290224  11.216   7.443   8.983
63400SOL     OW90225  12.037   5.934   7.643
63400SOL    HW190226  12.096   5.997   7.594
63400SOL    HW290227  12.056   5.840   7.614
63401SOL     OW90228  12.534   6.730   7.993
63401SOL    HW190229  12.617   6.701   7.945
63401SOL    HW290230  12.485   6.797   7.937
63402SOL     OW90231  11.722   5.782   8.333
63402SOL    HW190232  11.717   5.777   8.433
63402SOL    HW290233  11.724   5.878   8.304
63403SOL     OW90234  12.180   7.042   7.925
63403SOL    HW190235  12.134   7.114   7.873
63403SOL    HW290236  12.176   7.062   8.023
63404SOL     OW90237  11.523   7.387   8.301
63404SOL    HW190238  11.573   7.301   8.307
63404SOL    HW290239  11.588   7.464   8.298
63405SOL     OW90240  12.399   7.136   8.954
63405SOL    HW190241  12.405   7.059   9.018
63405SOL    HW290242  12.347   7.110   8.874
63406SOL     OW90243  11.493   6.529   7.690
63406SOL    HW190244  11.575   6.568   7.648
63406SOL    HW290245  11.466   6.447   7.641
63407SOL     OW90246  11.633   6.852   9.175
63407SOL    HW190247  11.583   6.853   9.089
63407SOL    HW290248  11.570   6.834   9.251
63408SOL     OW90249  12.283   7.362   7.685
63408SOL    HW190250  12.223   7.300   7.735
63408SOL    HW290251  12.314   7.318   7.600
63409SOL     OW90252  11.374   5.871   8.946
63409SOL    HW190253  11.294   5.931   8.933
63409SOL    HW290254  11.364   5.822   9.032
63410SOL     OW90255  11.636   7.329   7.771
63410SOL    HW190256  11.669   7.368   7.857
63410SOL    HW290257  11.712   7.322   7.706
63411SOL     OW90258  12.572   5.693   7.874
63411SOL    HW190259  12.548   5.656   7.784
63411SOL    HW290260  12.671   5.709   7.878
63412SOL     OW90261  11.421   7.371   8.689
63412SOL    HW190262  11.478   7.306   8.739
63412SOL    HW290263  11.405   7.338   8.596
63413SOL     OW90264  12.112   7.284   8.352
63413SOL    HW190265  12.192   7.227   8.373
63413SOL    HW290266  12.063   7.244   8.275
63414SOL     OW90267  11.554   6.286   7.928
63414SOL    HW190268  11.599   6.196   7.925
63414SOL    HW290269  11.460   6.275   7.961
63415SOL     OW90270  11.786   5.708   7.565
63415SOL    HW190271  11.884   5.686   7.572
63415SOL    HW290272  11.755   5.691   7.472
63416SOL     OW90273  11.953   5.850   9.197
63416SOL    HW190274  12.020   5.789   9.240
63416SOL    HW290275  11.880   5.869   9.262
63417SOL     OW90276  12.060   7.100   8.643
63417SOL    HW190277  12.037   7.075   8.549
63417SOL    HW290278  12.121   7.031   8.682
63418SOL     OW90279  12.523   6.176   8.881
63418SOL    HW190280  12.551   6.133   8.966
63418SOL    HW290281  12.548   6.272   8.882
63419SOL     OW90282  11.975   6.988   8.372
63419SOL    HW190283  12.065   7.002   8.330
63419SOL    HW290284  11.904   6.990   8.301
63420SOL     OW90285  12.094   6.089   8.347
63420SOL    HW190286  12.069   6.080   8.251
63420SOL    HW290287  12.142   6.007   8.378
63421SOL     OW90288  11.711   5.650   7.960
63421SOL    HW190289  11.630   5.651   8.018
63421SOL    HW290290  11.714   5.733   7.905
63422SOL     OW90291  12.606   6.774   7.489
63422SOL    HW190292  12.638   6.698   7.546
63422SOL    HW290293  12.514   6.801   7.519
63423SOL     OW90294  11.469   5.621   7.619
63423SOL    HW190295  11.518   5.705   7.598
63423SOL    HW290296  11.531   5.556   7.664
63424SOL     OW90297  12.107   5.822   7.928
63424SOL    HW190298  12.059   5.863   7.850
63424SOL    HW290299  12.206   5.820   7.909
63425SOL     OW90300  12.248   6.269   8.912
63425SOL    HW190301  12.168   6.208   8.915
63425SOL    HW290302  12.329   6.216   8.888
63426SOL     OW90303  12.399   7.156   8.241
63426SOL    HW190304  12.420   7.230   8.176
63426SOL    HW290305  12.467   7.156   8.314
63427SOL     OW90306  11.631   6.738   8.189
63427SOL    HW190307  11.560   6.711   8.254
63427SOL    HW290308  11.605   6.710   8.096
63428SOL     OW90309  12.443   7.383   8.039
63428SOL    HW190310  12.487   7.447   7.975
63428SOL    HW290311  12.393   7.435   8.109
63429SOL     OW90312  12.204   6.135   7.464
63429SOL    HW190313  12.163   6.217   7.425
63429SOL    HW290314  12.268   6.161   7.537
63430SOL     OW90315  11.250   6.142   8.834
63430SOL    HW190316  11.342   6.141   8.793
63430SOL    HW290317  11.244   6.216   8.901
63431SOL     OW90318  11.733   5.808   8.595
63431SOL    HW190319  11.771   5.724   8.632
63431SOL    HW290320  11.645   5.827   8.639
63432SOL     OW90321  12.038   6.040   8.090
63432SOL    HW190322  12.006   6.112   8.028
63432SOL    HW290323  12.062   5.959   8.037
63433SOL     OW90324  12.189   5.625   8.201
63433SOL    HW190325  12.117   5.630   8.132
63433SOL    HW290326  12.165   5.556   8.270
63434SOL     OW90327  12.601   6.759   8.315
63434SOL    HW190328  12.546   6.675   8.308
63434SOL    HW290329  12.627   6.788   8.223
63435SOL     OW90330  11.660   6.971   7.622
63435SOL    HW190331  11.573   6.956   7.669
63435SOL    HW290332  11.643   6.997   7.527
63436SOL     OW90333  12.562   6.161   7.526
63436SOL    HW190334  12.508   6.140   7.607
63436SOL    HW290335  12.653   6.120   7.535
63437SOL     OW90336  11.699   5.842   7.776
63437SOL    HW190337  11.726   5.783   7.701
63437SOL    HW290338  11.699   5.937   7.745
63438SOL     OW90339  12.236   6.933   8.788
63438SOL    HW190340  12.156   6.910   8.843
63438SOL    HW290341  12.319   6.907   8.837
63439SOL     OW90342  12.764   7.215   9.073
63439SOL    HW190343  12.791   7.249   8.983
63439SOL    HW290344  12.843   7.177   9.119
63440SOL     OW90345  12.283   6.781   8.548
63440SOL    HW190346  12.243   6.825   8.629
63440SOL    HW290347  12.242   6.818   8.465
63441SOL     OW90348  12.087   5.675   8.850
63441SOL    HW190349  12.112   5.655   8.755
63441SOL    HW290350  12.159   5.731   8.892
63442SOL     OW90351  12.152   6.702   9.167
63442SOL    HW190352  12.053   6.708   9.177
63442SOL    HW290353  12.175   6.622   9.111
63443SOL     OW90354  11.877   6.636   7.816
63443SOL    HW190355  11.863   6.643   7.915
63443SOL    HW290356  11.961   6.585   7.798
63444SOL     OW90357  11.582   6.399   8.699
63444SOL    HW190358  11.668   6.411   8.749
63444SOL    HW290359  11.540   6.312   8.726
63445SOL     OW90360  12.446   5.972   8.710
63445SOL    HW190361  12.467   6.046   8.774
63445SOL    HW290362  12.357   5.989   8.667
63446SOL     OW90363  11.236   7.150   8.779
63446SOL    HW190364  11.190   7.232   8.745
63446SOL    HW290365  11.334   7.169   8.788
63447SOL     OW90366  11.539   6.686   7.949
63447SOL    HW190367  11.532   6.769   7.893
63447SOL    HW290368  11.543   6.606   7.889
63448SOL     OW90369  11.738   6.123   8.313
63448SOL    HW190370  11.750   6.189   8.239
63448SOL    HW290371  11.784   6.157   8.396
63449SOL     OW90372  12.424   6.934   7.836
63449SOL    HW190373  12.474   7.011   7.876
63449SOL    HW290374  12.329   6.936   7.868
63450SOL     OW90375  12.444   7.031   8.590
63450SOL    HW190376  12.491   7.044   8.677
63450SOL    HW290377  12.378   6.957   8.599
63451SOL     OW90378  11.526   7.096   8.777
63451SOL    HW190379  11.505   7.052   8.690
63451SOL    HW290380  11.623   7.122   8.780
63452SOL     OW90381  11.574   6.337   9.046
63452SOL    HW190382  11.642   6.392   8.999
63452SOL    HW290383  11.614   6.249   9.073
63453SOL     OW90384  12.185   5.691   9.218
63453SOL    HW190385  12.191   5.776   9.166
63453SOL    HW290386  12.217   5.615   9.161
63454SOL     OW90387  11.676   5.636   9.188
63454SOL    HW190388  11.634   5.579   9.118
63454SOL    HW290389  11.610   5.705   9.220
63455SOL     OW90390  11.745   6.456   8.477
63455SOL    HW190391  11.789   6.545   8.468
63455SOL    HW290392  11.682   6.456   8.554
63456SOL     OW90393  12.532   6.448   8.493
63456SOL    HW190394  12.457   6.448   8.427
63456SOL    HW290395  12.569   6.356   8.502
63457SOL     OW90396  12.381   6.111   7.723
63457SOL    HW190397  12.394   6.027   7.777
63457SOL    HW290398  12.352   6.185   7.783
63458SOL     OW90399  11.479   5.799   8.679
63458SOL    HW190400  11.456   5.836   8.769
63458SOL    HW290401  11.449   5.704   8.673
63459SOL     OW90402  11.209   6.896   8.730
63459SOL    HW190403  11.262   6.847   8.798
63459SOL    HW290404  11.231   6.994   8.735
63460SOL     OW90405  11.904   6.220   8.512
63460SOL    HW190406  11.963   6.194   8.436
63460SOL    HW290407  11.876   6.316   8.501
63461SOL     OW90408  11.479   5.649   8.066
63461SOL    HW190409  11.468   5.743   8.099
63461SOL    HW290410  11.474   5.586   8.143
63462SOL     OW90411  12.794   5.953   7.822
63462SOL    HW190412  12.796   5.877   7.886
63462SOL    HW290413  12.746   6.030   7.862
63463SOL     OW90414  12.195   6.352   8.414
63463SOL    HW190415  12.210   6.373   8.510
63463SOL    HW290416  12.165   6.257   8.405
63464SOL     OW90417  12.152   7.159   9.148
63464SOL    HW190418  12.132   7.203   9.060
63464SOL    HW290419  12.191   7.068   9.132
63465SOL     OW90420  11.522   6.484   9.252
63465SOL    HW190421  11.598   6.528   9.300
63465SOL    HW290422  11.557   6.437   9.170
63466SOL     OW90423  12.475   6.424   7.490
63466SOL    HW190424  12.509   6.331   7.505
63466SOL    HW290425  12.493   6.451   7.395
63467SOL     OW90426  12.240   6.919   8.297
63467SOL    HW190427  12.247   6.835   8.242
63467SOL    HW290428  12.302   6.988   8.261
63468SOL     OW90429  11.491   6.396   8.397
63468SOL    HW190430  11.584   6.432   8.402
63468SOL    HW290431  11.485   6.311   8.449
63469SOL     OW90432  11.511   6.095   8.454
63469SOL    HW190433  11.459   6.012   8.437
63469SOL    HW290434  11.588   6.100   8.390
63470SOL     OW90435  12.310   5.966   9.126
63470SOL    HW190436  12.265   6.029   9.190
63470SOL    HW290437  12.403   5.997   9.109
63471SOL     OW90438  12.332   5.793   8.925
63471SOL    HW190439  12.332   5.857   9.002
63471SOL    HW290440  12.360   5.841   8.842
63472SOL     OW90441  11.180   6.912   7.648
63472SOL    HW190442  11.087   6.933   7.617
63472SOL    HW290443  11.190   6.813   7.661
63473SOL     OW90444  11.260   7.387   8.375
63473SOL    HW190445  11.218   7.301   8.348
63473SOL    HW290446  11.354   7.390   8.341
63474SOL     OW90447  11.676   7.154   8.358
63474SOL    HW190448  11.742   7.228   8.367
63474SOL    HW290449  11.720   7.075   8.316
63475SOL     OW90450  12.174   6.382   8.686
63475SOL    HW190451  12.215   6.350   8.772
63475SOL    HW290452  12.078   6.355   8.683
63476SOL     OW90453  11.212   6.130   8.562
63476SOL    HW190454  11.297   6.097   8.521
63476SOL    HW290455  11.225   6.145   8.660
63477SOL     OW90456  11.361   6.106   9.170
63477SOL    HW190457  11.420   6.066   9.100
63477SOL    HW290458  11.303   6.177   9.129
63478SOL     OW90459  12.541   6.536   9.108
63478SOL    HW190460  12.580   6.625   9.128
63478SOL    HW290461  12.551   6.516   9.011
63479SOL     OW90462  11.987   6.158   7.773
63479SOL    HW190463  11.994   6.069   7.727
63479SOL    HW290464  11.893   6.192   7.765
63480SOL     OW90465  11.424   7.150   9.192
63480SOL    HW190466  11.394   7.207   9.268
63480SOL    HW290467  11.417   7.053   9.218
63481SOL     OW90468  11.843   6.050   8.717
63481SOL    HW190469  11.809   5.961   8.687
63481SOL    HW290470  11.869   6.104   8.637
63482SOL     OW90471  12.102   7.264   8.913
63482SOL    HW190472  12.078   7.246   8.818
63482SOL    HW290473  12.132   7.358   8.923
63483SOL     OW90474  11.645   6.086   7.639
63483SOL    HW190475  11.706   6.166   7.643
63483SOL    HW290476  11.550   6.117   7.646
63484SOL     OW90477  11.331   6.723   8.914
63484SOL    HW190478  11.353   6.662   8.990
63484SOL    HW290479  11.341   6.674   8.828
63485SOL     OW90480  12.519   6.645   8.682
63485SOL    HW190481  12.543   6.582   8.608
63485SOL    HW290482  12.429   6.685   8.664
63486SOL     OW90483  12.474   6.441   7.757
63486SOL    HW190484  12.388   6.410   7.799
63486SOL    HW290485  12.470   6.427   7.658
63487SOL     OW90486  12.424   7.317   8.576
63487SOL    HW190487  12.508   7.322   8.522
63487SOL    HW290488  12.401   7.221   8.594
63488SOL     OW90489  11.255   6.844   8.470
63488SOL    HW190490  11.250   6.843   8.570
63488SOL    HW290491  11.172   6.803   8.432
63489SOL     OW90492  11.860   7.248   9.164
63489SOL    HW190493  11.804   7.329   9.173
63489SOL    HW290494  11.912   7.252   9.078
63490SOL     OW90495  12.898   5.721   7.971
63490SOL    HW190496  12.971   5.704   7.904
63490SOL    HW290497  12.867   5.634   8.009
63491SOL     OW90498  12.560   7.159   7.925
63491SOL    HW190499  12.627   7.171   7.851
63491SOL    HW290500  12.520   7.248   7.948
63492SOL     OW90501  11.302   7.380   9.299
63492SOL    HW190502  11.261   7.306   9.352
63492SOL    HW290503  11.366   7.431   9.357
63493SOL     OW90504  12.452   6.513   8.120
63493SOL    HW190505  12.512   6.432   8.122
63493SOL    HW290506  12.492   6.582   8.060
63494SOL     OW90507  12.002   6.859   8.870
63494SOL    HW190508  11.997   6.892   8.965
63494SOL    HW290509  11.916   6.878   8.824
63495SOL     OW90510  11.844   7.202   7.602
63495SOL    HW190511  11.853   7.212   7.503
63495SOL    HW290512  11.804   7.113   7.623
63496SOL     OW90513  11.435   5.912   8.168
63496SOL    HW190514  11.356   5.963   8.134
63496SOL    HW290515  11.426   5.897   8.266
63497SOL     OW90516  12.366   7.198   7.479
63497SOL    HW190517  12.372   7.105   7.516
63497SOL    HW290518  12.307   7.198   7.399
63498SOL     OW90519  11.994   6.588   8.820
63498SOL    HW190520  12.034   6.587   8.728
63498SOL    HW290521  12.004   6.680   8.860
63499SOL     OW90522  12.088   6.496   7.739
63499SOL    HW190523  12.151   6.534   7.671
63499SOL    HW290524  12.128   6.413   7.778
63500SOL     OW90525  11.544   6.874   8.938
63500SOL    HW190526  11.531   6.967   8.904
63500SOL    HW290527  11.460   6.822   8.925
63501SOL     OW90528  12.211   6.684   8.144
63501SOL    HW190529  12.141   6.637   8.198
63501SOL    HW290530  12.270   6.616   8.101
63502SOL     OW90531  12.186   5.822   8.419
63502SOL    HW190532  12.178   5.786   8.326
63502SOL    HW290533  12.184   5.746   8.484
63503SOL     OW90534  11.762   7.073   7.939
63503SOL    HW190535  11.804   7.015   7.869
63503SOL    HW290536  11.718   7.152   7.895
63504SOL     OW90537  11.427   6.934   7.738
63504SOL    HW190538  11.331   6.935   7.711
63504SOL    HW290539  11.439   6.987   7.822
63505SOL     OW90540  11.277   6.599   9.174
63505SOL    HW190541  11.200   6.566   9.228
63505SOL    HW290542  11.362   6.569   9.216
63506SOL     OW90543  11.844   5.789   8.937
63506SOL    HW190544  11.934   5.773   8.897
63506SOL    HW290545  11.852   5.794   9.036
63507SOL     OW90546  11.247   5.931   7.481
63507SOL    HW190547  11.155   5.903   7.452
63507SOL    HW290548  11.278   6.008   7.425
63508SOL     OW90549  12.612   6.442   8.846
63508SOL    HW190550  12.555   6.494   8.783
63508SOL    HW290551  12.708   6.454   8.822
63509SOL     OW90552  11.244   5.752   7.766
63509SOL    HW190553  11.227   5.835   7.712
63509SOL    HW290554  11.334   5.715   7.744
63510SOL     OW90555  12.355   6.921   7.567
63510SOL    HW190556  12.256   6.910   7.569
63510SOL    HW290557  12.389   6.936   7.660
63511SOL     OW90558  11.888   6.151   9.156
63511SOL    HW190559  11.907   6.216   9.230
63511SOL    HW290560  11.948   6.071   9.165
63512SOL     OW90561  12.622   6.806   9.081
63512SOL    HW190562  12.613   6.796   9.180
63512SOL    HW290563  12.718   6.799   9.055
63513SOL     OW90564  11.562   7.327   9.008
63513SOL    HW190565  11.471   7.368   9.006
63513SOL    HW290566  11.555   7.233   9.040
63514SOL     OW90567  12.397   5.911   7.897
63514SOL    HW190568  12.462   5.837   7.886
63514SOL    HW290569  12.417   5.961   7.981
63515SOL     OW90570  11.766   6.331   8.100
63515SOL    HW190571  11.816   6.416   8.081
63515SOL    HW290572  11.678   6.333   8.052
63516SOL     OW90573  12.031   6.960   7.464
63516SOL    HW190574  11.985   6.975   7.552
63516SOL    HW290575  12.075   7.045   7.434
63517SOL     OW90576  11.833   7.376   8.401
63517SOL    HW190577  11.787   7.464   8.388
63517SOL    HW290578  11.932   7.388   8.394
63518SOL     OW90579  12.031   6.542   8.309
63518SOL    HW190580  12.085   6.473   8.357
63518SOL    HW290581  11.999   6.611   8.375
63519SOL     OW90582  12.255   6.570   7.535
63519SOL    HW190583  12.232   6.623   7.453
63519SOL    HW290584  12.336   6.514   7.516
63520SOL     OW90585  11.393   6.900   9.292
63520SOL    HW190586  11.328   6.827   9.271
63520SOL    HW290587  11.397   6.914   9.390
63521SOL     OW90588  11.251   6.826   8.101
63521SOL    HW190589  11.250   6.779   8.189
63521SOL    HW290590  11.333   6.798   8.050
63522SOL     OW90591  11.844   6.977   9.072
63522SOL    HW190592  11.766   6.927   9.110
63522SOL    HW290593  11.841   7.072   9.103
63523SOL     OW90594  11.600   6.010   7.968
63523SOL    HW190595  11.630   5.938   7.906
63523SOL    HW290596  11.561   5.970   8.051
63524SOL     OW90597  12.877   7.073   8.552
63524SOL    HW190598  12.784   7.048   8.525
63524SOL    HW290599  12.903   7.023   8.634
63525SOL     OW90600  11.489   6.133   8.728
63525SOL    HW190601  11.527   6.074   8.800
63525SOL    HW290602  11.529   6.107   8.640
63526SOL     OW90603  11.984   7.172   8.135
63526SOL    HW190604  12.016   7.182   8.041
63526SOL    HW290605  11.905   7.110   8.137
63527SOL     OW90606  12.596   5.800   8.560
63527SOL    HW190607  12.648   5.735   8.615
63527SOL    HW290608  12.547   5.863   8.621
63528SOL     OW90609  12.173   5.620   8.602
63528SOL    HW190610  12.110   5.548   8.571
63528SOL    HW290611  12.266   5.584   8.602
63529SOL     OW90612  11.942   6.916   7.749
63529SOL    HW190613  11.896   6.829   7.766
63529SOL    HW290614  12.033   6.913   7.790
63530SOL     OW90615  11.790   7.153   8.732
63530SOL    HW190616  11.785   7.235   8.789
63530SOL    HW290617  11.879   7.150   8.687
63531SOL     OW90618  12.524   5.638   7.616
63531SOL    HW190619  12.559   5.597   7.532
63531SOL    HW290620  12.434   5.600   7.636
63532SOL     OW90621  12.472   6.039   8.139
63532SOL    HW190622  12.413   6.119   8.143
63532SOL    HW290623  12.487   6.004   8.232
63533SOL     OW90624  11.211   6.663   7.748
63533SOL    HW190625  11.310   6.652   7.739
63533SOL    HW290626  11.171   6.577   7.780
63534SOL     OW90627  12.047   7.232   7.785
63534SOL    HW190628  11.970   7.197   7.731
63534SOL    HW290629  12.015   7.303   7.847
63535SOL     OW90630  11.402   6.214   9.423
63535SOL    HW190631  11.309   6.212   9.460
63535SOL    HW290632  11.403   6.175   9.331
63536SOL     OW90633  11.397   5.861  10.306
63536SOL    HW190634  11.432   5.844  10.398
63536SOL    HW290635  11.309   5.816  10.294
63537SOL     OW90636  11.191   5.954   9.957
63537SOL    HW190637  11.109   5.997   9.996
63537SOL    HW290638  11.163   5.881   9.894
63538SOL     OW90639  11.741   6.861  10.475
63538SOL    HW190640  11.648   6.854  10.438
63538SOL    HW290641  11.752   6.950  10.519
63539SOL     OW90642  12.727   7.097  10.013
63539SOL    HW190643  12.670   7.081  10.094
63539SOL    HW290644  12.668   7.107   9.933
63540SOL     OW90645  12.307   6.289  10.027
63540SOL    HW190646  12.364   6.367  10.002
63540SOL    HW290647  12.247   6.315  10.103
63541SOL     OW90648  11.940   6.730  10.333
63541SOL    HW190649  11.862   6.747  10.393
63541SOL    HW290650  11.974   6.817  10.297
63542SOL     OW90651  12.022   6.384  11.133
63542SOL    HW190652  12.018   6.460  11.198
63542SOL    HW290653  12.044   6.420  11.042
63543SOL     OW90654  11.857   6.598   9.975
63543SOL    HW190655  11.926   6.582  10.045
63543SOL    HW290656  11.784   6.655  10.013
63544SOL     OW90657  11.858   6.747  11.113
63544SOL    HW190658  11.918   6.826  11.127
63544SOL    HW290659  11.772   6.778  11.072
63545SOL     OW90660  11.507   7.021  10.371
63545SOL    HW190661  11.429   6.990  10.318
63545SOL    HW290662  11.565   7.079  10.314
63546SOL     OW90663  11.610   5.978  10.809
63546SOL    HW190664  11.692   5.922  10.818
63546SOL    HW290665  11.529   5.920  10.813
63547SOL     OW90666  11.403   7.299   9.793
63547SOL    HW190667  11.437   7.376   9.847
63547SOL    HW290668  11.447   7.299   9.703
63548SOL     OW90669  12.299   6.927  11.000
63548SOL    HW190670  12.346   6.927  11.088
63548SOL    HW290671  12.251   6.840  10.989
63549SOL     OW90672  11.402   7.020   9.848
63549SOL    HW190673  11.376   7.116   9.848
63549SOL    HW290674  11.331   6.966   9.893
63550SOL     OW90675  11.412   6.677  10.196
63550SOL    HW190676  11.426   6.593  10.248
63550SOL    HW290677  11.357   6.741  10.251
63551SOL     OW90678  11.792   7.372  10.749
63551SOL    HW190679  11.700   7.355  10.784
63551SOL    HW290680  11.820   7.464  10.775
63552SOL     OW90681  11.778   6.550   9.433
63552SOL    HW190682  11.785   6.634   9.379
63552SOL    HW290683  11.824   6.563   9.521
63553SOL     OW90684  11.294   6.229   9.873
63553SOL    HW190685  11.249   6.141   9.890
63553SOL    HW290686  11.293   6.283   9.957
63554SOL     OW90687  11.199   7.182   9.427
63554SOL    HW190688  11.180   7.086   9.448
63554SOL    HW290689  11.166   7.240   9.502
63555SOL     OW90690  12.861   6.508   9.922
63555SOL    HW190691  12.956   6.479   9.930
63555SOL    HW290692  12.853   6.573   9.847
63556SOL     OW90693  11.285   6.323  10.907
63556SOL    HW190694  11.373   6.310  10.952
63556SOL    HW290695  11.272   6.420  10.885
63557SOL     OW90696  11.785   6.951  10.036
63557SOL    HW190697  11.736   6.864  10.045
63557SOL    HW290698  11.762   6.994   9.949
63558SOL     OW90699  12.465   6.814  10.733
63558SOL    HW190700  12.502   6.741  10.675
63558SOL    HW290701  12.517   6.819  10.818
63559SOL     OW90702  11.981   5.590   9.812
63559SOL    HW190703  12.021   5.681   9.803
63559SOL    HW290704  11.881   5.598   9.818
63560SOL     OW90705  11.369   6.562  10.574
63560SOL    HW190706  11.458   6.517  10.560
63560SOL    HW290707  11.296   6.497  10.555
63561SOL     OW90708  12.359   7.378  10.926
63561SOL    HW190709  12.383   7.438  10.850
63561SOL    HW290710  12.366   7.283  10.896
63562SOL     OW90711  11.489   5.837  11.111
63562SOL    HW190712  11.560   5.908  11.117
63562SOL    HW290713  11.401   5.876  11.139
63563SOL     OW90714  12.638   7.003  10.263
63563SOL    HW190715  12.579   7.009  10.343
63563SOL    HW290716  12.623   6.915  10.217
63564SOL     OW90717  11.770   6.315   9.580
63564SOL    HW190718  11.794   6.384   9.512
63564SOL    HW290719  11.692   6.348   9.634
63565SOL     OW90720  12.453   5.931  10.254
63565SOL    HW190721  12.367   5.881  10.241
63565SOL    HW290722  12.515   5.877  10.310
63566SOL     OW90723  11.979   6.191  10.775
63566SOL    HW190724  11.932   6.188  10.864
63566SOL    HW290725  11.928   6.136  10.709
63567SOL     OW90726  12.566   6.055  10.984
63567SOL    HW190727  12.546   6.098  11.072
63567SOL    HW290728  12.644   5.993  10.993
63568SOL     OW90729  12.145   6.476  10.882
63568SOL    HW190730  12.191   6.392  10.853
63568SOL    HW290731  12.089   6.510  10.807
63569SOL     OW90732  12.163   5.996  10.552
63569SOL    HW190733  12.086   6.030  10.606
63569SOL    HW290734  12.129   5.945  10.473
63570SOL     OW90735  12.213   6.287   9.739
63570SOL    HW190736  12.239   6.283   9.835
63570SOL    HW290737  12.128   6.236   9.725
63571SOL     OW90738  11.248   6.397  10.099
63571SOL    HW190739  11.347   6.385  10.108
63571SOL    HW290740  11.224   6.492  10.120
63572SOL     OW90741  11.302   7.407  10.881
63572SOL    HW190742  11.292   7.392  10.980
63572SOL    HW290743  11.216   7.443  10.845
63573SOL     OW90744  12.037   5.934   9.505
63573SOL    HW190745  12.096   5.997   9.456
63573SOL    HW290746  12.056   5.840   9.476
63574SOL     OW90747  12.534   6.730   9.855
63574SOL    HW190748  12.617   6.701   9.807
63574SOL    HW290749  12.485   6.797   9.799
63575SOL     OW90750  11.722   5.782  10.195
63575SOL    HW190751  11.717   5.777  10.295
63575SOL    HW290752  11.724   5.878  10.166
63576SOL     OW90753  12.180   7.042   9.787
63576SOL    HW190754  12.134   7.114   9.735
63576SOL    HW290755  12.176   7.062   9.885
63577SOL     OW90756  11.523   7.387  10.163
63577SOL    HW190757  11.573   7.301  10.169
63577SOL    HW290758  11.588   7.464  10.160
63578SOL     OW90759  12.399   7.136  10.816
63578SOL    HW190760  12.405   7.059  10.880
63578SOL    HW290761  12.347   7.110  10.736
63579SOL     OW90762  11.493   6.529   9.552
63579SOL    HW190763  11.575   6.568   9.510
63579SOL    HW290764  11.466   6.447   9.503
63580SOL     OW90765  11.633   6.852  11.037
63580SOL    HW190766  11.583   6.853  10.951
63580SOL    HW290767  11.570   6.834  11.113
63581SOL     OW90768  12.283   7.362   9.547
63581SOL    HW190769  12.223   7.300   9.597
63581SOL    HW290770  12.314   7.318   9.462
63582SOL     OW90771  11.374   5.871  10.808
63582SOL    HW190772  11.294   5.931  10.795
63582SOL    HW290773  11.364   5.822  10.894
63583SOL     OW90774  11.636   7.329   9.633
63583SOL    HW190775  11.669   7.368   9.719
63583SOL    HW290776  11.712   7.322   9.568
63584SOL     OW90777  12.572   5.693   9.736
63584SOL    HW190778  12.548   5.656   9.646
63584SOL    HW290779  12.671   5.709   9.740
63585SOL     OW90780  11.421   7.371  10.551
63585SOL    HW190781  11.478   7.306  10.601
63585SOL    HW290782  11.405   7.338  10.458
63586SOL     OW90783  12.112   7.284  10.214
63586SOL    HW190784  12.192   7.227  10.235
63586SOL    HW290785  12.063   7.244  10.137
63587SOL     OW90786  11.554   6.286   9.790
63587SOL    HW190787  11.599   6.196   9.787
63587SOL    HW290788  11.460   6.275   9.823
63588SOL     OW90789  11.786   5.708   9.427
63588SOL    HW190790  11.884   5.686   9.434
63588SOL    HW290791  11.755   5.691   9.334
63589SOL     OW90792  11.953   5.850  11.059
63589SOL    HW190793  12.020   5.789  11.102
63589SOL    HW290794  11.880   5.869  11.124
63590SOL     OW90795  12.060   7.100  10.505
63590SOL    HW190796  12.037   7.075  10.411
63590SOL    HW290797  12.121   7.031  10.544
63591SOL     OW90798  12.523   6.176  10.743
63591SOL    HW190799  12.551   6.133  10.828
63591SOL    HW290800  12.548   6.272  10.744
63592SOL     OW90801  11.975   6.988  10.234
63592SOL    HW190802  12.065   7.002  10.192
63592SOL    HW290803  11.904   6.990  10.163
63593SOL     OW90804  12.094   6.089  10.209
63593SOL    HW190805  12.069   6.080  10.113
63593SOL    HW290806  12.142   6.007  10.240
63594SOL     OW90807  11.711   5.650   9.822
63594SOL    HW190808  11.630   5.651   9.880
63594SOL    HW290809  11.714   5.733   9.767
63595SOL     OW90810  12.606   6.774   9.351
63595SOL    HW190811  12.638   6.698   9.408
63595SOL    HW290812  12.514   6.801   9.381
63596SOL     OW90813  11.469   5.621   9.481
63596SOL    HW190814  11.518   5.705   9.460
63596SOL    HW290815  11.531   5.556   9.526
63597SOL     OW90816  12.107   5.822   9.790
63597SOL    HW190817  12.059   5.863   9.712
63597SOL    HW290818  12.206   5.820   9.771
63598SOL     OW90819  12.248   6.269  10.774
63598SOL    HW190820  12.168   6.208  10.777
63598SOL    HW290821  12.329   6.216  10.750
63599SOL     OW90822  12.399   7.156  10.103
63599SOL    HW190823  12.420   7.230  10.038
63599SOL    HW290824  12.467   7.156  10.176
63600SOL     OW90825  11.631   6.738  10.051
63600SOL    HW190826  11.560   6.711  10.116
63600SOL    HW290827  11.605   6.710   9.958
63601SOL     OW90828  12.443   7.383   9.901
63601SOL    HW190829  12.487   7.447   9.837
63601SOL    HW290830  12.393   7.435   9.971
63602SOL     OW90831  12.204   6.135   9.326
63602SOL    HW190832  12.163   6.217   9.287
63602SOL    HW290833  12.268   6.161   9.399
63603SOL     OW90834  11.250   6.142  10.696
63603SOL    HW190835  11.342   6.141  10.655
63603SOL    HW290836  11.244   6.216  10.763
63604SOL     OW90837  11.733   5.808  10.457
63604SOL    HW190838  11.771   5.724  10.494
63604SOL    HW290839  11.645   5.827  10.501
63605SOL     OW90840  12.038   6.040   9.952
63605SOL    HW190841  12.006   6.112   9.890
63605SOL    HW290842  12.062   5.959   9.899
63606SOL     OW90843  12.189   5.625  10.063
63606SOL    HW190844  12.117   5.630   9.994
63606SOL    HW290845  12.165   5.556  10.132
63607SOL     OW90846  12.601   6.759  10.177
63607SOL    HW190847  12.546   6.675  10.170
63607SOL    HW290848  12.627   6.788  10.085
63608SOL     OW90849  11.660   6.971   9.484
63608SOL    HW190850  11.573   6.956   9.531
63608SOL    HW290851  11.643   6.997   9.389
63609SOL     OW90852  12.562   6.161   9.388
63609SOL    HW190853  12.508   6.140   9.469
63609SOL    HW290854  12.653   6.120   9.397
63610SOL     OW90855  11.699   5.842   9.638
63610SOL    HW190856  11.726   5.783   9.563
63610SOL    HW290857  11.699   5.937   9.607
63611SOL     OW90858  12.236   6.933  10.650
63611SOL    HW190859  12.156   6.910  10.705
63611SOL    HW290860  12.319   6.907  10.699
63612SOL     OW90861  12.764   7.215  10.935
63612SOL    HW190862  12.791   7.249  10.845
63612SOL    HW290863  12.843   7.177  10.981
63613SOL     OW90864  12.283   6.781  10.410
63613SOL    HW190865  12.243   6.825  10.491
63613SOL    HW290866  12.242   6.818  10.327
63614SOL     OW90867  12.087   5.675  10.712
63614SOL    HW190868  12.112   5.655  10.617
63614SOL    HW290869  12.159   5.731  10.754
63615SOL     OW90870  12.152   6.702  11.029
63615SOL    HW190871  12.053   6.708  11.039
63615SOL    HW290872  12.175   6.622  10.973
63616SOL     OW90873  11.877   6.636   9.678
63616SOL    HW190874  11.863   6.643   9.777
63616SOL    HW290875  11.961   6.585   9.660
63617SOL     OW90876  11.582   6.399  10.561
63617SOL    HW190877  11.668   6.411  10.611
63617SOL    HW290878  11.540   6.312  10.588
63618SOL     OW90879  12.446   5.972  10.572
63618SOL    HW190880  12.467   6.046  10.636
63618SOL    HW290881  12.357   5.989  10.529
63619SOL     OW90882  11.236   7.150  10.641
63619SOL    HW190883  11.190   7.232  10.607
63619SOL    HW290884  11.334   7.169  10.650
63620SOL     OW90885  11.539   6.686   9.811
63620SOL    HW190886  11.532   6.769   9.755
63620SOL    HW290887  11.543   6.606   9.751
63621SOL     OW90888  11.738   6.123  10.175
63621SOL    HW190889  11.750   6.189  10.101
63621SOL    HW290890  11.784   6.157  10.258
63622SOL     OW90891  12.424   6.934   9.698
63622SOL    HW190892  12.474   7.011   9.738
63622SOL    HW290893  12.329   6.936   9.730
63623SOL     OW90894  12.444   7.031  10.452
63623SOL    HW190895  12.491   7.044  10.539
63623SOL    HW290896  12.378   6.957  10.461
63624SOL     OW90897  11.526   7.096  10.639
63624SOL    HW190898  11.505   7.052  10.552
63624SOL    HW290899  11.623   7.122  10.642
63625SOL     OW90900  11.574   6.337  10.908
63625SOL    HW190901  11.642   6.392  10.861
63625SOL    HW290902  11.614   6.249  10.935
63626SOL     OW90903  12.185   5.691  11.080
63626SOL    HW190904  12.191   5.776  11.028
63626SOL    HW290905  12.217   5.615  11.023
63627SOL     OW90906  11.676   5.636  11.050
63627SOL    HW190907  11.634   5.579  10.980
63627SOL    HW290908  11.610   5.705  11.082
63628SOL     OW90909  11.745   6.456  10.339
63628SOL    HW190910  11.789   6.545  10.330
63628SOL    HW290911  11.682   6.456  10.416
63629SOL     OW90912  12.532   6.448  10.355
63629SOL    HW190913  12.457   6.448  10.289
63629SOL    HW290914  12.569   6.356  10.364
63630SOL     OW90915  12.381   6.111   9.585
63630SOL    HW190916  12.394   6.027   9.639
63630SOL    HW290917  12.352   6.185   9.645
63631SOL     OW90918  11.479   5.799  10.541
63631SOL    HW190919  11.456   5.836  10.631
63631SOL    HW290920  11.449   5.704  10.535
63632SOL     OW90921  11.209   6.896  10.592
63632SOL    HW190922  11.262   6.847  10.660
63632SOL    HW290923  11.231   6.994  10.597
63633SOL     OW90924  11.904   6.220  10.374
63633SOL    HW190925  11.963   6.194  10.298
63633SOL    HW290926  11.876   6.316  10.363
63634SOL     OW90927  11.479   5.649   9.928
63634SOL    HW190928  11.468   5.743   9.961
63634SOL    HW290929  11.474   5.586  10.005
63635SOL     OW90930  12.794   5.953   9.684
63635SOL    HW190931  12.796   5.877   9.748
63635SOL    HW290932  12.746   6.030   9.724
63636SOL     OW90933  12.195   6.352  10.276
63636SOL    HW190934  12.210   6.373  10.372
63636SOL    HW290935  12.165   6.257  10.267
63637SOL     OW90936  12.152   7.159  11.010
63637SOL    HW190937  12.132   7.203  10.922
63637SOL    HW290938  12.191   7.068  10.994
63638SOL     OW90939  11.522   6.484  11.114
63638SOL    HW190940  11.598   6.528  11.162
63638SOL    HW290941  11.557   6.437  11.032
63639SOL     OW90942  12.475   6.424   9.352
63639SOL    HW190943  12.509   6.331   9.367
63639SOL    HW290944  12.493   6.451   9.257
63640SOL     OW90945  12.240   6.919  10.159
63640SOL    HW190946  12.247   6.835  10.104
63640SOL    HW290947  12.302   6.988  10.123
63641SOL     OW90948  11.491   6.396  10.259
63641SOL    HW190949  11.584   6.432  10.264
63641SOL    HW290950  11.485   6.311  10.311
63642SOL     OW90951  11.511   6.095  10.316
63642SOL    HW190952  11.459   6.012  10.299
63642SOL    HW290953  11.588   6.100  10.252
63643SOL     OW90954  12.310   5.966  10.988
63643SOL    HW190955  12.265   6.029  11.052
63643SOL    HW290956  12.403   5.997  10.971
63644SOL     OW90957  12.332   5.793  10.787
63644SOL    HW190958  12.332   5.857  10.864
63644SOL    HW290959  12.360   5.841  10.704
63645SOL     OW90960  11.180   6.912   9.510
63645SOL    HW190961  11.087   6.933   9.479
63645SOL    HW290962  11.190   6.813   9.523
63646SOL     OW90963  11.260   7.387  10.237
63646SOL    HW190964  11.218   7.301  10.210
63646SOL    HW290965  11.354   7.390  10.203
63647SOL     OW90966  11.676   7.154  10.220
63647SOL    HW190967  11.742   7.228  10.229
63647SOL    HW290968  11.720   7.075  10.178
63648SOL     OW90969  12.174   6.382  10.548
63648SOL    HW190970  12.215   6.350  10.634
63648SOL    HW290971  12.078   6.355  10.545
63649SOL     OW90972  11.212   6.130  10.424
63649SOL    HW190973  11.297   6.097  10.383
63649SOL    HW290974  11.225   6.145  10.522
63650SOL     OW90975  11.361   6.106  11.032
63650SOL    HW190976  11.420   6.066  10.962
63650SOL    HW290977  11.303   6.177  10.991
63651SOL     OW90978  12.541   6.536  10.970
63651SOL    HW190979  12.580   6.625  10.990
63651SOL    HW290980  12.551   6.516  10.873
63652SOL     OW90981  11.987   6.158   9.635
63652SOL    HW190982  11.994   6.069   9.589
63652SOL    HW290983  11.893   6.192   9.627
63653SOL     OW90984  11.424   7.150  11.054
63653SOL    HW190985  11.394   7.207  11.130
63653SOL    HW290986  11.417   7.053  11.080
63654SOL     OW90987  11.843   6.050  10.579
63654SOL    HW190988  11.809   5.961  10.549
63654SOL    HW290989  11.869   6.104  10.499
63655SOL     OW90990  12.102   7.264  10.775
63655SOL    HW190991  12.078   7.246  10.680
63655SOL    HW290992  12.132   7.358  10.785
63656SOL     OW90993  11.645   6.086   9.501
63656SOL    HW190994  11.706   6.166   9.505
63656SOL    HW290995  11.550   6.117   9.508
63657SOL     OW90996  11.331   6.723  10.776
63657SOL    HW190997  11.353   6.662  10.852
63657SOL    HW290998  11.341   6.674  10.690
63658SOL     OW90999  12.519   6.645  10.544
63658SOL    HW191000  12.543   6.582  10.470
63658SOL    HW291001  12.429   6.685  10.526
63659SOL     OW91002  12.474   6.441   9.619
63659SOL    HW191003  12.388   6.410   9.661
63659SOL    HW291004  12.470   6.427   9.520
63660SOL     OW91005  12.424   7.317  10.438
63660SOL    HW191006  12.508   7.322  10.384
63660SOL    HW291007  12.401   7.221  10.456
63661SOL     OW91008  11.255   6.844  10.332
63661SOL    HW191009  11.250   6.843  10.432
63661SOL    HW291010  11.172   6.803  10.294
63662SOL     OW91011  11.860   7.248  11.026
63662SOL    HW191012  11.804   7.329  11.035
63662SOL    HW291013  11.912   7.252  10.940
63663SOL     OW91014  12.898   5.721   9.833
63663SOL    HW191015  12.971   5.704   9.766
63663SOL    HW291016  12.867   5.634   9.871
63664SOL     OW91017  12.560   7.159   9.787
63664SOL    HW191018  12.627   7.171   9.713
63664SOL    HW291019  12.520   7.248   9.810
63665SOL     OW91020  11.302   7.380  11.161
63665SOL    HW191021  11.261   7.306  11.214
63665SOL    HW291022  11.366   7.431  11.219
63666SOL     OW91023  12.452   6.513   9.982
63666SOL    HW191024  12.512   6.432   9.984
63666SOL    HW291025  12.492   6.582   9.922
63667SOL     OW91026  12.002   6.859  10.732
63667SOL    HW191027  11.997   6.892  10.827
63667SOL    HW291028  11.916   6.878  10.686
63668SOL     OW91029  11.844   7.202   9.464
63668SOL    HW191030  11.853   7.212   9.365
63668SOL    HW291031  11.804   7.113   9.485
63669SOL     OW91032  11.435   5.912  10.030
63669SOL    HW191033  11.356   5.963   9.996
63669SOL    HW291034  11.426   5.897  10.128
63670SOL     OW91035  12.366   7.198   9.341
63670SOL    HW191036  12.372   7.105   9.378
63670SOL    HW291037  12.307   7.198   9.261
63671SOL     OW91038  11.994   6.588  10.682
63671SOL    HW191039  12.034   6.587  10.590
63671SOL    HW291040  12.004   6.680  10.722
63672SOL     OW91041  12.088   6.496   9.601
63672SOL    HW191042  12.151   6.534   9.533
63672SOL    HW291043  12.128   6.413   9.640
63673SOL     OW91044  11.544   6.874  10.800
63673SOL    HW191045  11.531   6.967  10.766
63673SOL    HW291046  11.460   6.822  10.787
63674SOL     OW91047  12.211   6.684  10.006
63674SOL    HW191048  12.141   6.637  10.060
63674SOL    HW291049  12.270   6.616   9.963
63675SOL     OW91050  12.186   5.822  10.281
63675SOL    HW191051  12.178   5.786  10.188
63675SOL    HW291052  12.184   5.746  10.346
63676SOL     OW91053  11.762   7.073   9.801
63676SOL    HW191054  11.804   7.015   9.731
63676SOL    HW291055  11.718   7.152   9.757
63677SOL     OW91056  11.427   6.934   9.600
63677SOL    HW191057  11.331   6.935   9.573
63677SOL    HW291058  11.439   6.987   9.684
63678SOL     OW91059  11.277   6.599  11.036
63678SOL    HW191060  11.200   6.566  11.090
63678SOL    HW291061  11.362   6.569  11.078
63679SOL     OW91062  11.844   5.789  10.799
63679SOL    HW191063  11.934   5.773  10.759
63679SOL    HW291064  11.852   5.794  10.898
63680SOL     OW91065  11.247   5.931   9.343
63680SOL    HW191066  11.155   5.903   9.314
63680SOL    HW291067  11.278   6.008   9.287
63681SOL     OW91068  12.612   6.442  10.708
63681SOL    HW191069  12.555   6.494  10.645
63681SOL    HW291070  12.708   6.454  10.684
63682SOL     OW91071  11.244   5.752   9.628
63682SOL    HW191072  11.227   5.835   9.574
63682SOL    HW291073  11.334   5.715   9.606
63683SOL     OW91074  12.355   6.921   9.429
63683SOL    HW191075  12.256   6.910   9.431
63683SOL    HW291076  12.389   6.936   9.522
63684SOL     OW91077  11.785   6.428  10.741
63684SOL    HW191078  11.841   6.509  10.724
63684SOL    HW291079  11.844   6.348  10.744
63685SOL     OW91080  11.888   6.151  11.018
63685SOL    HW191081  11.907   6.216  11.092
63685SOL    HW291082  11.948   6.071  11.027
63686SOL     OW91083  12.622   6.806  10.943
63686SOL    HW191084  12.613   6.796  11.042
63686SOL    HW291085  12.718   6.799  10.917
63687SOL     OW91086  11.562   7.327  10.870
63687SOL    HW191087  11.471   7.368  10.868
63687SOL    HW291088  11.555   7.233  10.902
63688SOL     OW91089  12.397   5.911   9.759
63688SOL    HW191090  12.462   5.837   9.748
63688SOL    HW291091  12.417   5.961   9.843
63689SOL     OW91092  11.766   6.331   9.962
63689SOL    HW191093  11.816   6.416   9.943
63689SOL    HW291094  11.678   6.333   9.914
63690SOL     OW91095  12.031   6.960   9.326
63690SOL    HW191096  11.985   6.975   9.414
63690SOL    HW291097  12.075   7.045   9.296
63691SOL     OW91098  11.833   7.376  10.263
63691SOL    HW191099  11.787   7.464  10.250
63691SOL    HW291100  11.932   7.388  10.256
63692SOL     OW91101  12.031   6.542  10.171
63692SOL    HW191102  12.085   6.473  10.219
63692SOL    HW291103  11.999   6.611  10.237
63693SOL     OW91104  12.255   6.570   9.397
63693SOL    HW191105  12.232   6.623   9.315
63693SOL    HW291106  12.336   6.514   9.378
63694SOL     OW91107  11.393   6.900  11.154
63694SOL    HW191108  11.328   6.827  11.133
63694SOL    HW291109  11.397   6.914  11.252
63695SOL     OW91110  11.251   6.826   9.963
63695SOL    HW191111  11.250   6.779  10.051
63695SOL    HW291112  11.333   6.798   9.912
63696SOL     OW91113  11.844   6.977  10.934
63696SOL    HW191114  11.766   6.927  10.972
63696SOL    HW291115  11.841   7.072  10.965
63697SOL     OW91116  11.600   6.010   9.830
63697SOL    HW191117  11.630   5.938   9.768
63697SOL    HW291118  11.561   5.970   9.913
63698SOL     OW91119  12.877   7.073  10.414
63698SOL    HW191120  12.784   7.048  10.387
63698SOL    HW291121  12.903   7.023  10.496
63699SOL     OW91122  11.489   6.133  10.590
63699SOL    HW191123  11.527   6.074  10.662
63699SOL    HW291124  11.529   6.107  10.502
63700SOL     OW91125  11.984   7.172   9.997
63700SOL    HW191126  12.016   7.182   9.903
63700SOL    HW291127  11.905   7.110   9.999
63701SOL     OW91128  12.596   5.800  10.422
63701SOL    HW191129  12.648   5.735  10.477
63701SOL    HW291130  12.547   5.863  10.483
63702SOL     OW91131  12.173   5.620  10.464
63702SOL    HW191132  12.110   5.548  10.433
63702SOL    HW291133  12.266   5.584  10.464
63703SOL     OW91134  11.942   6.916   9.611
63703SOL    HW191135  11.896   6.829   9.628
63703SOL    HW291136  12.033   6.913   9.652
63704SOL     OW91137  11.790   7.153  10.594
63704SOL    HW191138  11.785   7.235  10.651
63704SOL    HW291139  11.879   7.150  10.549
63705SOL     OW91140  12.524   5.638   9.478
63705SOL    HW191141  12.559   5.597   9.394
63705SOL    HW291142  12.434   5.600   9.498
63706SOL     OW91143  12.472   6.039  10.001
63706SOL    HW191144  12.413   6.119  10.005
63706SOL    HW291145  12.487   6.004  10.094
63707SOL     OW91146  11.211   6.663   9.610
63707SOL    HW191147  11.310   6.652   9.601
63707SOL    HW291148  11.171   6.577   9.642
63708SOL     OW91149  12.047   7.232   9.647
63708SOL    HW191150  11.970   7.197   9.593
63708SOL    HW291151  12.015   7.303   9.709
63709SOL     OW91152  11.402   6.214  11.285
63709SOL    HW191153  11.309   6.212  11.322
63709SOL    HW291154  11.403   6.175  11.193
63710SOL     OW91155  11.397   5.861  12.168
63710SOL    HW191156  11.432   5.844  12.260
63710SOL    HW291157  11.309   5.816  12.156
63711SOL     OW91158  11.191   5.954  11.819
63711SOL    HW191159  11.109   5.997  11.858
63711SOL    HW291160  11.163   5.881  11.756
63712SOL     OW91161  11.741   6.861  12.337
63712SOL    HW191162  11.648   6.854  12.300
63712SOL    HW291163  11.752   6.950  12.381
63713SOL     OW91164  12.727   7.097  11.875
63713SOL    HW191165  12.670   7.081  11.956
63713SOL    HW291166  12.668   7.107  11.795
63714SOL     OW91167  12.307   6.289  11.889
63714SOL    HW191168  12.364   6.367  11.864
63714SOL    HW291169  12.247   6.315  11.965
63715SOL     OW91170  11.940   6.730  12.195
63715SOL    HW191171  11.862   6.747  12.255
63715SOL    HW291172  11.974   6.817  12.159
63716SOL     OW91173  11.857   6.598  11.837
63716SOL    HW191174  11.926   6.582  11.907
63716SOL    HW291175  11.784   6.655  11.875
63717SOL     OW91176  11.507   7.021  12.233
63717SOL    HW191177  11.429   6.990  12.180
63717SOL    HW291178  11.565   7.079  12.176
63718SOL     OW91179  11.610   5.978  12.671
63718SOL    HW191180  11.692   5.922  12.680
63718SOL    HW291181  11.529   5.920  12.675
63719SOL     OW91182  11.403   7.299  11.655
63719SOL    HW191183  11.437   7.376  11.709
63719SOL    HW291184  11.447   7.299  11.565
63720SOL     OW91185  11.402   7.020  11.710
63720SOL    HW191186  11.376   7.116  11.710
63720SOL    HW291187  11.331   6.966  11.755
63721SOL     OW91188  11.412   6.677  12.058
63721SOL    HW191189  11.426   6.593  12.110
63721SOL    HW291190  11.357   6.741  12.113
63722SOL     OW91191  11.792   7.372  12.611
63722SOL    HW191192  11.700   7.355  12.646
63722SOL    HW291193  11.820   7.464  12.637
63723SOL     OW91194  11.778   6.550  11.295
63723SOL    HW191195  11.785   6.634  11.241
63723SOL    HW291196  11.824   6.563  11.383
63724SOL     OW91197  11.294   6.229  11.735
63724SOL    HW191198  11.249   6.141  11.752
63724SOL    HW291199  11.293   6.283  11.819
63725SOL     OW91200  11.199   7.182  11.289
63725SOL    HW191201  11.180   7.086  11.310
63725SOL    HW291202  11.166   7.240  11.364
63726SOL     OW91203  12.861   6.508  11.784
63726SOL    HW191204  12.956   6.479  11.792
63726SOL    HW291205  12.853   6.573  11.709
63727SOL     OW91206  11.785   6.951  11.898
63727SOL    HW191207  11.736   6.864  11.907
63727SOL    HW291208  11.762   6.994  11.811
63728SOL     OW91209  11.981   5.590  11.674
63728SOL    HW191210  12.021   5.681  11.665
63728SOL    HW291211  11.881   5.598  11.680
63729SOL     OW91212  11.369   6.562  12.436
63729SOL    HW191213  11.458   6.517  12.422
63729SOL    HW291214  11.296   6.497  12.417
63730SOL     OW91215  11.489   5.837  12.973
63730SOL    HW191216  11.560   5.908  12.979
63730SOL    HW291217  11.401   5.876  13.001
63731SOL     OW91218  12.638   7.003  12.125
63731SOL    HW191219  12.579   7.009  12.205
63731SOL    HW291220  12.623   6.915  12.079
63732SOL     OW91221  11.770   6.315  11.442
63732SOL    HW191222  11.794   6.384  11.374
63732SOL    HW291223  11.692   6.348  11.496
63733SOL     OW91224  12.453   5.931  12.116
63733SOL    HW191225  12.367   5.881  12.103
63733SOL    HW291226  12.515   5.877  12.172
63734SOL     OW91227  11.979   6.191  12.637
63734SOL    HW191228  11.932   6.188  12.726
63734SOL    HW291229  11.928   6.136  12.571
63735SOL     OW91230  12.163   5.996  12.414
63735SOL    HW191231  12.086   6.030  12.468
63735SOL    HW291232  12.129   5.945  12.335
63736SOL     OW91233  12.213   6.287  11.601
63736SOL    HW191234  12.239   6.283  11.697
63736SOL    HW291235  12.128   6.236  11.587
63737SOL     OW91236  11.248   6.397  11.961
63737SOL    HW191237  11.347   6.385  11.970
63737SOL    HW291238  11.224   6.492  11.982
63738SOL     OW91239  11.302   7.407  12.743
63738SOL    HW191240  11.292   7.392  12.842
63738SOL    HW291241  11.216   7.443  12.707
63739SOL     OW91242  12.037   5.934  11.367
63739SOL    HW191243  12.096   5.997  11.318
63739SOL    HW291244  12.056   5.840  11.338
63740SOL     OW91245  12.534   6.730  11.717
63740SOL    HW191246  12.617   6.701  11.669
63740SOL    HW291247  12.485   6.797  11.661
63741SOL     OW91248  11.722   5.782  12.057
63741SOL    HW191249  11.717   5.777  12.157
63741SOL    HW291250  11.724   5.878  12.028
63742SOL     OW91251  12.180   7.042  11.649
63742SOL    HW191252  12.134   7.114  11.597
63742SOL    HW291253  12.176   7.062  11.747
63743SOL     OW91254  11.523   7.387  12.025
63743SOL    HW191255  11.573   7.301  12.031
63743SOL    HW291256  11.588   7.464  12.022
63744SOL     OW91257  11.493   6.529  11.414
63744SOL    HW191258  11.575   6.568  11.372
63744SOL    HW291259  11.466   6.447  11.365
63745SOL     OW91260  12.283   7.362  11.409
63745SOL    HW191261  12.223   7.300  11.459
63745SOL    HW291262  12.314   7.318  11.324
63746SOL     OW91263  11.636   7.329  11.495
63746SOL    HW191264  11.669   7.368  11.581
63746SOL    HW291265  11.712   7.322  11.430
63747SOL     OW91266  11.421   7.371  12.413
63747SOL    HW191267  11.478   7.306  12.463
63747SOL    HW291268  11.405   7.338  12.320
63748SOL     OW91269  12.112   7.284  12.076
63748SOL    HW191270  12.192   7.227  12.097
63748SOL    HW291271  12.063   7.244  11.999
63749SOL     OW91272  11.554   6.286  11.652
63749SOL    HW191273  11.599   6.196  11.649
63749SOL    HW291274  11.460   6.275  11.685
63750SOL     OW91275  11.786   5.708  11.289
63750SOL    HW191276  11.884   5.686  11.296
63750SOL    HW291277  11.755   5.691  11.196
63751SOL     OW91278  12.060   7.100  12.367
63751SOL    HW191279  12.037   7.075  12.273
63751SOL    HW291280  12.121   7.031  12.406
63752SOL     OW91281  11.975   6.988  12.096
63752SOL    HW191282  12.065   7.002  12.054
63752SOL    HW291283  11.904   6.990  12.025
63753SOL     OW91284  12.094   6.089  12.071
63753SOL    HW191285  12.069   6.080  11.975
63753SOL    HW291286  12.142   6.007  12.102
63754SOL     OW91287  11.711   5.650  11.684
63754SOL    HW191288  11.630   5.651  11.742
63754SOL    HW291289  11.714   5.733  11.629
63755SOL     OW91290  12.606   6.774  11.213
63755SOL    HW191291  12.638   6.698  11.270
63755SOL    HW291292  12.514   6.801  11.243
63756SOL     OW91293  11.469   5.621  11.343
63756SOL    HW191294  11.518   5.705  11.322
63756SOL    HW291295  11.531   5.556  11.388
63757SOL     OW91296  12.107   5.822  11.652
63757SOL    HW191297  12.059   5.863  11.574
63757SOL    HW291298  12.206   5.820  11.633
63758SOL     OW91299  12.399   7.156  11.965
63758SOL    HW191300  12.420   7.230  11.900
63758SOL    HW291301  12.467   7.156  12.038
63759SOL     OW91302  11.631   6.738  11.913
63759SOL    HW191303  11.560   6.711  11.978
63759SOL    HW291304  11.605   6.710  11.820
63760SOL     OW91305  12.443   7.383  11.763
63760SOL    HW191306  12.487   7.447  11.699
63760SOL    HW291307  12.393   7.435  11.833
63761SOL     OW91308  12.204   6.135  11.188
63761SOL    HW191309  12.163   6.217  11.149
63761SOL    HW291310  12.268   6.161  11.261
63762SOL     OW91311  11.250   6.142  12.558
63762SOL    HW191312  11.342   6.141  12.517
63762SOL    HW291313  11.244   6.216  12.625
63763SOL     OW91314  11.733   5.808  12.319
63763SOL    HW191315  11.771   5.724  12.356
63763SOL    HW291316  11.645   5.827  12.363
63764SOL     OW91317  12.038   6.040  11.814
63764SOL    HW191318  12.006   6.112  11.752
63764SOL    HW291319  12.062   5.959  11.761
63765SOL     OW91320  12.189   5.625  11.925
63765SOL    HW191321  12.117   5.630  11.856
63765SOL    HW291322  12.165   5.556  11.994
63766SOL     OW91323  12.601   6.759  12.039
63766SOL    HW191324  12.546   6.675  12.032
63766SOL    HW291325  12.627   6.788  11.947
63767SOL     OW91326  11.660   6.971  11.346
63767SOL    HW191327  11.573   6.956  11.393
63767SOL    HW291328  11.643   6.997  11.251
63768SOL     OW91329  12.562   6.161  11.250
63768SOL    HW191330  12.508   6.140  11.331
63768SOL    HW291331  12.653   6.120  11.259
63769SOL     OW91332  11.699   5.842  11.500
63769SOL    HW191333  11.726   5.783  11.425
63769SOL    HW291334  11.699   5.937  11.469
63770SOL     OW91335  12.236   6.933  12.512
63770SOL    HW191336  12.156   6.910  12.567
63770SOL    HW291337  12.319   6.907  12.561
63771SOL     OW91338  12.283   6.781  12.272
63771SOL    HW191339  12.243   6.825  12.353
63771SOL    HW291340  12.242   6.818  12.189
63772SOL     OW91341  12.087   5.675  12.574
63772SOL    HW191342  12.112   5.655  12.479
63772SOL    HW291343  12.159   5.731  12.616
63773SOL     OW91344  11.877   6.636  11.540
63773SOL    HW191345  11.863   6.643  11.639
63773SOL    HW291346  11.961   6.585  11.522
63774SOL     OW91347  11.582   6.399  12.423
63774SOL    HW191348  11.668   6.411  12.473
63774SOL    HW291349  11.540   6.312  12.450
63775SOL     OW91350  12.446   5.972  12.434
63775SOL    HW191351  12.467   6.046  12.498
63775SOL    HW291352  12.357   5.989  12.391
63776SOL     OW91353  11.236   7.150  12.503
63776SOL    HW191354  11.190   7.232  12.469
63776SOL    HW291355  11.334   7.169  12.512
63777SOL     OW91356  11.539   6.686  11.673
63777SOL    HW191357  11.532   6.769  11.617
63777SOL    HW291358  11.543   6.606  11.613
63778SOL     OW91359  11.738   6.123  12.037
63778SOL    HW191360  11.750   6.189  11.963
63778SOL    HW291361  11.784   6.157  12.120
63779SOL     OW91362  12.424   6.934  11.560
63779SOL    HW191363  12.474   7.011  11.600
63779SOL    HW291364  12.329   6.936  11.592
63780SOL     OW91365  12.444   7.031  12.314
63780SOL    HW191366  12.491   7.044  12.401
63780SOL    HW291367  12.378   6.957  12.323
63781SOL     OW91368  11.526   7.096  12.501
63781SOL    HW191369  11.505   7.052  12.414
63781SOL    HW291370  11.623   7.122  12.504
63782SOL     OW91371  11.574   6.337  12.770
63782SOL    HW191372  11.642   6.392  12.723
63782SOL    HW291373  11.614   6.249  12.797
63783SOL     OW91374  12.759   6.365  12.842
63783SOL    HW191375  12.667   6.403  12.837
63783SOL    HW291376  12.819   6.412  12.777
63784SOL     OW91377  11.745   6.456  12.201
63784SOL    HW191378  11.789   6.545  12.192
63784SOL    HW291379  11.682   6.456  12.278
63785SOL     OW91380  12.532   6.448  12.217
63785SOL    HW191381  12.457   6.448  12.151
63785SOL    HW291382  12.569   6.356  12.226
63786SOL     OW91383  12.381   6.111  11.447
63786SOL    HW191384  12.394   6.027  11.501
63786SOL    HW291385  12.352   6.185  11.507
63787SOL     OW91386  11.479   5.799  12.403
63787SOL    HW191387  11.456   5.836  12.493
63787SOL    HW291388  11.449   5.704  12.397
63788SOL     OW91389  11.209   6.896  12.454
63788SOL    HW191390  11.262   6.847  12.522
63788SOL    HW291391  11.231   6.994  12.459
63789SOL     OW91392  11.904   6.220  12.236
63789SOL    HW191393  11.963   6.194  12.160
63789SOL    HW291394  11.876   6.316  12.225
63790SOL     OW91395  11.479   5.649  11.790
63790SOL    HW191396  11.468   5.743  11.823
63790SOL    HW291397  11.474   5.586  11.867
63791SOL     OW91398  12.794   5.953  11.546
63791SOL    HW191399  12.796   5.877  11.610
63791SOL    HW291400  12.746   6.030  11.586
63792SOL     OW91401  12.195   6.352  12.138
63792SOL    HW191402  12.210   6.373  12.234
63792SOL    HW291403  12.165   6.257  12.129
63793SOL     OW91404  12.152   7.159  12.872
63793SOL    HW191405  12.132   7.203  12.784
63793SOL    HW291406  12.191   7.068  12.856
63794SOL     OW91407  12.475   6.424  11.214
63794SOL    HW191408  12.509   6.331  11.229
63794SOL    HW291409  12.493   6.451  11.119
63795SOL     OW91410  12.240   6.919  12.021
63795SOL    HW191411  12.247   6.835  11.966
63795SOL    HW291412  12.302   6.988  11.985
63796SOL     OW91413  11.491   6.396  12.121
63796SOL    HW191414  11.584   6.432  12.126
63796SOL    HW291415  11.485   6.311  12.173
63797SOL     OW91416  11.511   6.095  12.178
63797SOL    HW191417  11.459   6.012  12.161
63797SOL    HW291418  11.588   6.100  12.114
63798SOL     OW91419  12.310   5.966  12.850
63798SOL    HW191420  12.265   6.029  12.914
63798SOL    HW291421  12.403   5.997  12.833
63799SOL     OW91422  12.332   5.793  12.649
63799SOL    HW191423  12.332   5.857  12.726
63799SOL    HW291424  12.360   5.841  12.566
63800SOL     OW91425  11.180   6.912  11.372
63800SOL    HW191426  11.087   6.933  11.341
63800SOL    HW291427  11.190   6.813  11.385
63801SOL     OW91428  11.260   7.387  12.099
63801SOL    HW191429  11.218   7.301  12.072
63801SOL    HW291430  11.354   7.390  12.065
63802SOL     OW91431  11.676   7.154  12.082
63802SOL    HW191432  11.742   7.228  12.091
63802SOL    HW291433  11.720   7.075  12.040
63803SOL     OW91434  12.174   6.382  12.410
63803SOL    HW191435  12.215   6.350  12.496
63803SOL    HW291436  12.078   6.355  12.407
63804SOL     OW91437  11.212   6.130  12.286
63804SOL    HW191438  11.297   6.097  12.245
63804SOL    HW291439  11.225   6.145  12.384
63805SOL     OW91440  11.987   6.158  11.497
63805SOL    HW191441  11.994   6.069  11.451
63805SOL    HW291442  11.893   6.192  11.489
63806SOL     OW91443  11.843   6.050  12.441
63806SOL    HW191444  11.809   5.961  12.411
63806SOL    HW291445  11.869   6.104  12.361
63807SOL     OW91446  12.102   7.264  12.637
63807SOL    HW191447  12.078   7.246  12.542
63807SOL    HW291448  12.132   7.358  12.647
63808SOL     OW91449  11.645   6.086  11.363
63808SOL    HW191450  11.706   6.166  11.367
63808SOL    HW291451  11.550   6.117  11.370
63809SOL     OW91452  11.331   6.723  12.638
63809SOL    HW191453  11.353   6.662  12.714
63809SOL    HW291454  11.341   6.674  12.552
63810SOL     OW91455  12.519   6.645  12.406
63810SOL    HW191456  12.543   6.582  12.332
63810SOL    HW291457  12.429   6.685  12.388
63811SOL     OW91458  12.474   6.441  11.481
63811SOL    HW191459  12.388   6.410  11.523
63811SOL    HW291460  12.470   6.427  11.382
63812SOL     OW91461  12.424   7.317  12.300
63812SOL    HW191462  12.508   7.322  12.246
63812SOL    HW291463  12.401   7.221  12.318
63813SOL     OW91464  11.255   6.844  12.194
63813SOL    HW191465  11.250   6.843  12.294
63813SOL    HW291466  11.172   6.803  12.156
63814SOL     OW91467  12.898   5.721  11.695
63814SOL    HW191468  12.971   5.704  11.628
63814SOL    HW291469  12.867   5.634  11.733
63815SOL     OW91470  12.560   7.159  11.649
63815SOL    HW191471  12.627   7.171  11.575
63815SOL    HW291472  12.520   7.248  11.672
63816SOL     OW91473  12.452   6.513  11.844
63816SOL    HW191474  12.512   6.432  11.846
63816SOL    HW291475  12.492   6.582  11.784
63817SOL     OW91476  11.844   7.202  11.326
63817SOL    HW191477  11.853   7.212  11.227
63817SOL    HW291478  11.804   7.113  11.347
63818SOL     OW91479  11.435   5.912  11.892
63818SOL    HW191480  11.356   5.963  11.858
63818SOL    HW291481  11.426   5.897  11.990
63819SOL     OW91482  12.366   7.198  11.203
63819SOL    HW191483  12.372   7.105  11.240
63819SOL    HW291484  12.307   7.198  11.123
63820SOL     OW91485  11.994   6.588  12.544
63820SOL    HW191486  12.034   6.587  12.452
63820SOL    HW291487  12.004   6.680  12.584
63821SOL     OW91488  12.088   6.496  11.463
63821SOL    HW191489  12.151   6.534  11.395
63821SOL    HW291490  12.128   6.413  11.502
63822SOL     OW91491  11.544   6.874  12.662
63822SOL    HW191492  11.531   6.967  12.628
63822SOL    HW291493  11.460   6.822  12.649
63823SOL     OW91494  12.211   6.684  11.868
63823SOL    HW191495  12.141   6.637  11.922
63823SOL    HW291496  12.270   6.616  11.825
63824SOL     OW91497  12.186   5.822  12.143
63824SOL    HW191498  12.178   5.786  12.050
63824SOL    HW291499  12.184   5.746  12.208
63825SOL     OW91500  11.762   7.073  11.663
63825SOL    HW191501  11.804   7.015  11.593
63825SOL    HW291502  11.718   7.152  11.619
63826SOL     OW91503  11.427   6.934  11.462
63826SOL    HW191504  11.331   6.935  11.435
63826SOL    HW291505  11.439   6.987  11.546
63827SOL     OW91506  11.247   5.931  11.205
63827SOL    HW191507  11.155   5.903  11.176
63827SOL    HW291508  11.278   6.008  11.149
63828SOL     OW91509  12.612   6.442  12.570
63828SOL    HW191510  12.555   6.494  12.507
63828SOL    HW291511  12.708   6.454  12.546
63829SOL     OW91512  11.244   5.752  11.490
63829SOL    HW191513  11.227   5.835  11.436
63829SOL    HW291514  11.334   5.715  11.468
63830SOL     OW91515  12.355   6.921  11.291
63830SOL    HW191516  12.256   6.910  11.293
63830SOL    HW291517  12.389   6.936  11.384
63831SOL     OW91518  11.785   6.428  12.603
63831SOL    HW191519  11.841   6.509  12.586
63831SOL    HW291520  11.844   6.348  12.606
63832SOL     OW91521  11.562   7.327  12.732
63832SOL    HW191522  11.471   7.368  12.730
63832SOL    HW291523  11.555   7.233  12.764
63833SOL     OW91524  12.397   5.911  11.621
63833SOL    HW191525  12.462   5.837  11.610
63833SOL    HW291526  12.417   5.961  11.705
63834SOL     OW91527  11.766   6.331  11.824
63834SOL    HW191528  11.816   6.416  11.805
63834SOL    HW291529  11.678   6.333  11.776
63835SOL     OW91530  12.031   6.960  11.188
63835SOL    HW191531  11.985   6.975  11.276
63835SOL    HW291532  12.075   7.045  11.158
63836SOL     OW91533  11.833   7.376  12.125
63836SOL    HW191534  11.787   7.464  12.112
63836SOL    HW291535  11.932   7.388  12.118
63837SOL     OW91536  12.031   6.542  12.033
63837SOL    HW191537  12.085   6.473  12.081
63837SOL    HW291538  11.999   6.611  12.099
63838SOL     OW91539  12.255   6.570  11.259
63838SOL    HW191540  12.232   6.623  11.177
63838SOL    HW291541  12.336   6.514  11.240
63839SOL     OW91542  11.251   6.826  11.825
63839SOL    HW191543  11.250   6.779  11.913
63839SOL    HW291544  11.333   6.798  11.774
63840SOL     OW91545  11.600   6.010  11.692
63840SOL    HW191546  11.630   5.938  11.630
63840SOL    HW291547  11.561   5.970  11.775
63841SOL     OW91548  12.877   7.073  12.276
63841SOL    HW191549  12.784   7.048  12.249
63841SOL    HW291550  12.903   7.023  12.358
63842SOL     OW91551  11.489   6.133  12.452
63842SOL    HW191552  11.527   6.074  12.524
63842SOL    HW291553  11.529   6.107  12.364
63843SOL     OW91554  11.984   7.172  11.859
63843SOL    HW191555  12.016   7.182  11.765
63843SOL    HW291556  11.905   7.110  11.861
63844SOL     OW91557  12.596   5.800  12.284
63844SOL    HW191558  12.648   5.735  12.339
63844SOL    HW291559  12.547   5.863  12.345
63845SOL     OW91560  12.173   5.620  12.326
63845SOL    HW191561  12.110   5.548  12.295
63845SOL    HW291562  12.266   5.584  12.326
63846SOL     OW91563  11.942   6.916  11.473
63846SOL    HW191564  11.896   6.829  11.490
63846SOL    HW291565  12.033   6.913  11.514
63847SOL     OW91566  11.790   7.153  12.456
63847SOL    HW191567  11.785   7.235  12.513
63847SOL    HW291568  11.879   7.150  12.411
63848SOL     OW91569  12.524   5.638  11.340
63848SOL    HW191570  12.559   5.597  11.256
63848SOL    HW291571  12.434   5.600  11.360
63849SOL     OW91572  12.472   6.039  11.863
63849SOL    HW191573  12.413   6.119  11.867
63849SOL    HW291574  12.487   6.004  11.956
63850SOL     OW91575  11.211   6.663  11.472
63850SOL    HW191576  11.310   6.652  11.463
63850SOL    HW291577  11.171   6.577  11.504
63851SOL     OW91578  12.047   7.232  11.509
63851SOL    HW191579  11.970   7.197  11.455
63851SOL    HW291580  12.015   7.303  11.571
63852SOL     OW91581  11.402   8.076   0.113
63852SOL    HW191582  11.309   8.074   0.150
63852SOL    HW291583  11.403   8.037   0.021
63853SOL     OW91584  11.191   7.816   0.647
63853SOL    HW191585  11.109   7.859   0.686
63853SOL    HW291586  11.163   7.743   0.584
63854SOL     OW91587  11.741   8.723   1.165
63854SOL    HW191588  11.648   8.716   1.128
63854SOL    HW291589  11.752   8.812   1.209
63855SOL     OW91590  12.727   8.959   0.703
63855SOL    HW191591  12.670   8.943   0.784
63855SOL    HW291592  12.668   8.969   0.623
63856SOL     OW91593  12.307   8.151   0.717
63856SOL    HW191594  12.364   8.229   0.692
63856SOL    HW291595  12.247   8.177   0.793
63857SOL     OW91596  11.940   8.592   1.023
63857SOL    HW191597  11.862   8.609   1.083
63857SOL    HW291598  11.974   8.679   0.987
63858SOL     OW91599  12.022   8.246   1.823
63858SOL    HW191600  12.018   8.322   1.888
63858SOL    HW291601  12.044   8.282   1.732
63859SOL     OW91602  11.857   8.460   0.665
63859SOL    HW191603  11.926   8.444   0.735
63859SOL    HW291604  11.784   8.517   0.703
63860SOL     OW91605  11.858   8.609   1.803
63860SOL    HW191606  11.918   8.688   1.817
63860SOL    HW291607  11.772   8.640   1.762
63861SOL     OW91608  11.507   8.883   1.061
63861SOL    HW191609  11.429   8.852   1.008
63861SOL    HW291610  11.565   8.941   1.004
63862SOL     OW91611  11.610   7.840   1.499
63862SOL    HW191612  11.692   7.784   1.508
63862SOL    HW291613  11.529   7.782   1.503
63863SOL     OW91614  11.403   9.161   0.483
63863SOL    HW191615  11.437   9.238   0.537
63863SOL    HW291616  11.447   9.161   0.393
63864SOL     OW91617  12.299   8.789   1.690
63864SOL    HW191618  12.346   8.789   1.778
63864SOL    HW291619  12.251   8.702   1.679
63865SOL     OW91620  11.402   8.882   0.538
63865SOL    HW191621  11.376   8.978   0.538
63865SOL    HW291622  11.331   8.828   0.583
63866SOL     OW91623  11.412   8.539   0.886
63866SOL    HW191624  11.426   8.455   0.938
63866SOL    HW291625  11.357   8.603   0.941
63867SOL     OW91626  11.792   9.234   1.439
63867SOL    HW191627  11.700   9.217   1.474
63867SOL    HW291628  11.820   9.326   1.465
63868SOL     OW91629  11.778   8.412   0.123
63868SOL    HW191630  11.785   8.496   0.069
63868SOL    HW291631  11.824   8.425   0.211
63869SOL     OW91632  11.294   8.091   0.563
63869SOL    HW191633  11.249   8.003   0.580
63869SOL    HW291634  11.293   8.145   0.647
63870SOL     OW91635  11.199   9.044   0.117
63870SOL    HW191636  11.180   8.948   0.138
63870SOL    HW291637  11.166   9.102   0.192
63871SOL     OW91638  12.861   8.370   0.612
63871SOL    HW191639  12.956   8.341   0.620
63871SOL    HW291640  12.853   8.435   0.537
63872SOL     OW91641  11.285   8.185   1.597
63872SOL    HW191642  11.373   8.172   1.642
63872SOL    HW291643  11.272   8.282   1.575
63873SOL     OW91644  11.785   8.813   0.726
63873SOL    HW191645  11.736   8.726   0.735
63873SOL    HW291646  11.762   8.856   0.639
63874SOL     OW91647  12.465   8.676   1.423
63874SOL    HW191648  12.502   8.603   1.365
63874SOL    HW291649  12.517   8.681   1.508
63875SOL     OW91650  11.981   7.452   0.502
63875SOL    HW191651  12.021   7.543   0.493
63875SOL    HW291652  11.881   7.460   0.508
63876SOL     OW91653  11.369   8.424   1.264
63876SOL    HW191654  11.458   8.379   1.250
63876SOL    HW291655  11.296   8.359   1.245
63877SOL     OW91656  12.359   9.240   1.616
63877SOL    HW191657  12.383   9.300   1.540
63877SOL    HW291658  12.366   9.145   1.586
63878SOL     OW91659  11.489   7.699   1.801
63878SOL    HW191660  11.560   7.770   1.807
63878SOL    HW291661  11.401   7.738   1.829
63879SOL     OW91662  12.638   8.865   0.953
63879SOL    HW191663  12.579   8.871   1.033
63879SOL    HW291664  12.623   8.777   0.907
63880SOL     OW91665  11.770   8.177   0.270
63880SOL    HW191666  11.794   8.246   0.202
63880SOL    HW291667  11.692   8.210   0.324
63881SOL     OW91668  12.453   7.793   0.944
63881SOL    HW191669  12.367   7.743   0.931
63881SOL    HW291670  12.515   7.739   1.000
63882SOL     OW91671  11.979   8.053   1.465
63882SOL    HW191672  11.932   8.050   1.554
63882SOL    HW291673  11.928   7.998   1.399
63883SOL     OW91674  12.566   7.917   1.674
63883SOL    HW191675  12.546   7.960   1.762
63883SOL    HW291676  12.644   7.855   1.683
63884SOL     OW91677  12.145   8.338   1.572
63884SOL    HW191678  12.191   8.254   1.543
63884SOL    HW291679  12.089   8.372   1.497
63885SOL     OW91680  12.163   7.858   1.242
63885SOL    HW191681  12.086   7.892   1.296
63885SOL    HW291682  12.129   7.807   1.163
63886SOL     OW91683  12.213   8.149   0.429
63886SOL    HW191684  12.239   8.145   0.525
63886SOL    HW291685  12.128   8.098   0.415
63887SOL     OW91686  11.248   8.259   0.789
63887SOL    HW191687  11.347   8.247   0.798
63887SOL    HW291688  11.224   8.354   0.810
63888SOL     OW91689  11.302   9.269   1.571
63888SOL    HW191690  11.292   9.254   1.670
63888SOL    HW291691  11.216   9.305   1.535
63889SOL     OW91692  12.037   7.796   0.195
63889SOL    HW191693  12.096   7.859   0.146
63889SOL    HW291694  12.056   7.702   0.166
63890SOL     OW91695  12.534   8.592   0.545
63890SOL    HW191696  12.617   8.563   0.497
63890SOL    HW291697  12.485   8.659   0.489
63891SOL     OW91698  11.722   7.644   0.885
63891SOL    HW191699  11.717   7.639   0.985
63891SOL    HW291700  11.724   7.740   0.856
63892SOL     OW91701  12.180   8.904   0.477
63892SOL    HW191702  12.134   8.976   0.425
63892SOL    HW291703  12.176   8.924   0.575
63893SOL     OW91704  11.523   9.249   0.853
63893SOL    HW191705  11.573   9.163   0.859
63893SOL    HW291706  11.588   9.326   0.850
63894SOL     OW91707  12.399   8.998   1.506
63894SOL    HW191708  12.405   8.921   1.570
63894SOL    HW291709  12.347   8.972   1.426
63895SOL     OW91710  11.493   8.391   0.242
63895SOL    HW191711  11.575   8.430   0.200
63895SOL    HW291712  11.466   8.309   0.193
63896SOL     OW91713  11.633   8.714   1.727
63896SOL    HW191714  11.583   8.715   1.641
63896SOL    HW291715  11.570   8.696   1.803
63897SOL     OW91716  12.283   9.224   0.237
63897SOL    HW191717  12.223   9.162   0.287
63897SOL    HW291718  12.314   9.180   0.152
63898SOL     OW91719  11.374   7.733   1.498
63898SOL    HW191720  11.294   7.793   1.485
63898SOL    HW291721  11.364   7.684   1.584
63899SOL     OW91722  11.636   9.191   0.323
63899SOL    HW191723  11.669   9.230   0.409
63899SOL    HW291724  11.712   9.184   0.258
63900SOL     OW91725  12.572   7.555   0.426
63900SOL    HW191726  12.548   7.518   0.336
63900SOL    HW291727  12.671   7.571   0.430
63901SOL     OW91728  11.421   9.233   1.241
63901SOL    HW191729  11.478   9.168   1.291
63901SOL    HW291730  11.405   9.200   1.148
63902SOL     OW91731  12.112   9.146   0.904
63902SOL    HW191732  12.192   9.089   0.925
63902SOL    HW291733  12.063   9.106   0.827
63903SOL     OW91734  11.554   8.148   0.480
63903SOL    HW191735  11.599   8.058   0.477
63903SOL    HW291736  11.460   8.137   0.513
63904SOL     OW91737  11.786   7.570   0.117
63904SOL    HW191738  11.884   7.548   0.124
63904SOL    HW291739  11.755   7.553   0.024
63905SOL     OW91740  11.953   7.712   1.749
63905SOL    HW191741  12.020   7.651   1.792
63905SOL    HW291742  11.880   7.731   1.814
63906SOL     OW91743  12.060   8.962   1.195
63906SOL    HW191744  12.037   8.937   1.101
63906SOL    HW291745  12.121   8.893   1.234
63907SOL     OW91746  12.523   8.038   1.433
63907SOL    HW191747  12.551   7.995   1.518
63907SOL    HW291748  12.548   8.134   1.434
63908SOL     OW91749  11.975   8.850   0.924
63908SOL    HW191750  12.065   8.864   0.882
63908SOL    HW291751  11.904   8.852   0.853
63909SOL     OW91752  12.094   7.951   0.899
63909SOL    HW191753  12.069   7.942   0.803
63909SOL    HW291754  12.142   7.869   0.930
63910SOL     OW91755  11.711   7.512   0.512
63910SOL    HW191756  11.630   7.513   0.570
63910SOL    HW291757  11.714   7.595   0.457
63911SOL     OW91758  12.606   8.636   0.041
63911SOL    HW191759  12.638   8.560   0.098
63911SOL    HW291760  12.514   8.663   0.071
63912SOL     OW91761  11.469   7.483   0.171
63912SOL    HW191762  11.518   7.567   0.150
63912SOL    HW291763  11.531   7.418   0.216
63913SOL     OW91764  12.107   7.684   0.480
63913SOL    HW191765  12.059   7.725   0.402
63913SOL    HW291766  12.206   7.682   0.461
63914SOL     OW91767  12.248   8.131   1.464
63914SOL    HW191768  12.168   8.070   1.467
63914SOL    HW291769  12.329   8.078   1.440
63915SOL     OW91770  12.399   9.018   0.793
63915SOL    HW191771  12.420   9.092   0.728
63915SOL    HW291772  12.467   9.018   0.866
63916SOL     OW91773  11.631   8.600   0.741
63916SOL    HW191774  11.560   8.573   0.806
63916SOL    HW291775  11.605   8.572   0.648
63917SOL     OW91776  12.443   9.245   0.591
63917SOL    HW191777  12.487   9.309   0.527
63917SOL    HW291778  12.393   9.297   0.661
63918SOL     OW91779  12.204   7.997   0.016
63918SOL    HW191780  12.163   8.079  -0.023
63918SOL    HW291781  12.268   8.023   0.089
63919SOL     OW91782  11.250   8.004   1.386
63919SOL    HW191783  11.342   8.003   1.345
63919SOL    HW291784  11.244   8.078   1.453
63920SOL     OW91785  11.733   7.670   1.147
63920SOL    HW191786  11.771   7.586   1.184
63920SOL    HW291787  11.645   7.689   1.191
63921SOL     OW91788  12.038   7.902   0.642
63921SOL    HW191789  12.006   7.974   0.580
63921SOL    HW291790  12.062   7.821   0.589
63922SOL     OW91791  12.189   7.487   0.753
63922SOL    HW191792  12.117   7.492   0.684
63922SOL    HW291793  12.165   7.418   0.822
63923SOL     OW91794  12.601   8.621   0.867
63923SOL    HW191795  12.546   8.537   0.860
63923SOL    HW291796  12.627   8.650   0.775
63924SOL     OW91797  11.660   8.833   0.174
63924SOL    HW191798  11.573   8.818   0.221
63924SOL    HW291799  11.643   8.859   0.079
63925SOL     OW91800  12.562   8.023   0.078
63925SOL    HW191801  12.508   8.002   0.159
63925SOL    HW291802  12.653   7.982   0.087
63926SOL     OW91803  11.699   7.704   0.328
63926SOL    HW191804  11.726   7.645   0.253
63926SOL    HW291805  11.699   7.799   0.297
63927SOL     OW91806  12.236   8.795   1.340
63927SOL    HW191807  12.156   8.772   1.395
63927SOL    HW291808  12.319   8.769   1.389
63928SOL     OW91809  12.764   9.077   1.625
63928SOL    HW191810  12.791   9.111   1.535
63928SOL    HW291811  12.843   9.039   1.671
63929SOL     OW91812  12.283   8.643   1.100
63929SOL    HW191813  12.243   8.687   1.181
63929SOL    HW291814  12.242   8.680   1.017
63930SOL     OW91815  12.087   7.537   1.402
63930SOL    HW191816  12.112   7.517   1.307
63930SOL    HW291817  12.159   7.593   1.444
63931SOL     OW91818  12.152   8.564   1.719
63931SOL    HW191819  12.053   8.570   1.729
63931SOL    HW291820  12.175   8.484   1.663
63932SOL     OW91821  11.877   8.498   0.368
63932SOL    HW191822  11.863   8.505   0.467
63932SOL    HW291823  11.961   8.447   0.350
63933SOL     OW91824  11.582   8.261   1.251
63933SOL    HW191825  11.668   8.273   1.301
63933SOL    HW291826  11.540   8.174   1.278
63934SOL     OW91827  12.446   7.834   1.262
63934SOL    HW191828  12.467   7.908   1.326
63934SOL    HW291829  12.357   7.851   1.219
63935SOL     OW91830  11.236   9.012   1.331
63935SOL    HW191831  11.190   9.094   1.297
63935SOL    HW291832  11.334   9.031   1.340
63936SOL     OW91833  11.539   8.548   0.501
63936SOL    HW191834  11.532   8.631   0.445
63936SOL    HW291835  11.543   8.468   0.441
63937SOL     OW91836  11.738   7.985   0.865
63937SOL    HW191837  11.750   8.051   0.791
63937SOL    HW291838  11.784   8.019   0.948
63938SOL     OW91839  12.424   8.796   0.388
63938SOL    HW191840  12.474   8.873   0.428
63938SOL    HW291841  12.329   8.798   0.420
63939SOL     OW91842  12.444   8.893   1.142
63939SOL    HW191843  12.491   8.906   1.229
63939SOL    HW291844  12.378   8.819   1.151
63940SOL     OW91845  11.526   8.958   1.329
63940SOL    HW191846  11.505   8.914   1.242
63940SOL    HW291847  11.623   8.984   1.332
63941SOL     OW91848  11.574   8.199   1.598
63941SOL    HW191849  11.642   8.254   1.551
63941SOL    HW291850  11.614   8.111   1.625
63942SOL     OW91851  12.185   7.553   1.770
63942SOL    HW191852  12.191   7.638   1.718
63942SOL    HW291853  12.217   7.477   1.713
63943SOL     OW91854  11.676   7.498   1.740
63943SOL    HW191855  11.634   7.441   1.670
63943SOL    HW291856  11.610   7.567   1.772
63944SOL     OW91857  11.745   8.318   1.029
63944SOL    HW191858  11.789   8.407   1.020
63944SOL    HW291859  11.682   8.318   1.106
63945SOL     OW91860  12.532   8.310   1.045
63945SOL    HW191861  12.457   8.310   0.979
63945SOL    HW291862  12.569   8.218   1.054
63946SOL     OW91863  12.381   7.973   0.275
63946SOL    HW191864  12.394   7.889   0.329
63946SOL    HW291865  12.352   8.047   0.335
63947SOL     OW91866  11.479   7.661   1.231
63947SOL    HW191867  11.456   7.698   1.321
63947SOL    HW291868  11.449   7.566   1.225
63948SOL     OW91869  11.209   8.758   1.282
63948SOL    HW191870  11.262   8.709   1.350
63948SOL    HW291871  11.231   8.856   1.287
63949SOL     OW91872  11.904   8.082   1.064
63949SOL    HW191873  11.963   8.056   0.988
63949SOL    HW291874  11.876   8.178   1.053
63950SOL     OW91875  11.479   7.511   0.618
63950SOL    HW191876  11.468   7.605   0.651
63950SOL    HW291877  11.474   7.448   0.695
63951SOL     OW91878  12.794   7.815   0.374
63951SOL    HW191879  12.796   7.739   0.438
63951SOL    HW291880  12.746   7.892   0.414
63952SOL     OW91881  12.195   8.214   0.966
63952SOL    HW191882  12.210   8.235   1.062
63952SOL    HW291883  12.165   8.119   0.957
63953SOL     OW91884  12.152   9.021   1.700
63953SOL    HW191885  12.132   9.065   1.612
63953SOL    HW291886  12.191   8.930   1.684
63954SOL     OW91887  11.522   8.346   1.804
63954SOL    HW191888  11.598   8.390   1.852
63954SOL    HW291889  11.557   8.299   1.722
63955SOL     OW91890  12.475   8.286   0.042
63955SOL    HW191891  12.509   8.193   0.057
63955SOL    HW291892  12.493   8.313  -0.053
63956SOL     OW91893  12.240   8.781   0.849
63956SOL    HW191894  12.247   8.697   0.794
63956SOL    HW291895  12.302   8.850   0.813
63957SOL     OW91896  11.491   8.258   0.949
63957SOL    HW191897  11.584   8.294   0.954
63957SOL    HW291898  11.485   8.173   1.001
63958SOL     OW91899  11.511   7.957   1.006
63958SOL    HW191900  11.459   7.874   0.989
63958SOL    HW291901  11.588   7.962   0.942
63959SOL     OW91902  12.310   7.828   1.678
63959SOL    HW191903  12.265   7.891   1.742
63959SOL    HW291904  12.403   7.859   1.661
63960SOL     OW91905  12.332   7.655   1.477
63960SOL    HW191906  12.332   7.719   1.554
63960SOL    HW291907  12.360   7.703   1.394
63961SOL     OW91908  11.180   8.774   0.200
63961SOL    HW191909  11.087   8.795   0.169
63961SOL    HW291910  11.190   8.675   0.213
63962SOL     OW91911  11.260   9.249   0.927
63962SOL    HW191912  11.218   9.163   0.900
63962SOL    HW291913  11.354   9.252   0.893
63963SOL     OW91914  11.676   9.016   0.910
63963SOL    HW191915  11.742   9.090   0.919
63963SOL    HW291916  11.720   8.937   0.868
63964SOL     OW91917  12.174   8.244   1.238
63964SOL    HW191918  12.215   8.212   1.324
63964SOL    HW291919  12.078   8.217   1.235
63965SOL     OW91920  11.212   7.992   1.114
63965SOL    HW191921  11.297   7.959   1.073
63965SOL    HW291922  11.225   8.007   1.212
63966SOL     OW91923  11.361   7.968   1.722
63966SOL    HW191924  11.420   7.928   1.652
63966SOL    HW291925  11.303   8.039   1.681
63967SOL     OW91926  12.541   8.398   1.660
63967SOL    HW191927  12.580   8.487   1.680
63967SOL    HW291928  12.551   8.378   1.563
63968SOL     OW91929  11.987   8.020   0.325
63968SOL    HW191930  11.994   7.931   0.279
63968SOL    HW291931  11.893   8.054   0.317
63969SOL     OW91932  11.424   9.012   1.744
63969SOL    HW191933  11.394   9.069   1.820
63969SOL    HW291934  11.417   8.915   1.770
63970SOL     OW91935  11.843   7.912   1.269
63970SOL    HW191936  11.809   7.823   1.239
63970SOL    HW291937  11.869   7.966   1.189
63971SOL     OW91938  12.102   9.126   1.465
63971SOL    HW191939  12.078   9.108   1.370
63971SOL    HW291940  12.132   9.220   1.475
63972SOL     OW91941  11.645   7.948   0.191
63972SOL    HW191942  11.706   8.028   0.195
63972SOL    HW291943  11.550   7.979   0.198
63973SOL     OW91944  11.331   8.585   1.466
63973SOL    HW191945  11.353   8.524   1.542
63973SOL    HW291946  11.341   8.536   1.380
63974SOL     OW91947  12.519   8.507   1.234
63974SOL    HW191948  12.543   8.444   1.160
63974SOL    HW291949  12.429   8.547   1.216
63975SOL     OW91950  12.474   8.303   0.309
63975SOL    HW191951  12.388   8.272   0.351
63975SOL    HW291952  12.470   8.289   0.210
63976SOL     OW91953  12.424   9.179   1.128
63976SOL    HW191954  12.508   9.184   1.074
63976SOL    HW291955  12.401   9.083   1.146
63977SOL     OW91956  11.255   8.706   1.022
63977SOL    HW191957  11.250   8.705   1.122
63977SOL    HW291958  11.172   8.665   0.984
63978SOL     OW91959  11.860   9.110   1.716
63978SOL    HW191960  11.804   9.191   1.725
63978SOL    HW291961  11.912   9.114   1.630
63979SOL     OW91962  12.075   7.534   0.133
63979SOL    HW191963  12.126   7.535   0.047
63979SOL    HW291964  12.131   7.492   0.204
63980SOL     OW91965  12.898   7.583   0.523
63980SOL    HW191966  12.971   7.566   0.456
63980SOL    HW291967  12.867   7.496   0.561
63981SOL     OW91968  12.560   9.021   0.477
63981SOL    HW191969  12.627   9.033   0.403
63981SOL    HW291970  12.520   9.110   0.500
63982SOL     OW91971  11.302   9.242   1.851
63982SOL    HW191972  11.261   9.168   1.904
63982SOL    HW291973  11.366   9.293   1.909
63983SOL     OW91974  12.452   8.375   0.672
63983SOL    HW191975  12.512   8.294   0.674
63983SOL    HW291976  12.492   8.444   0.612
63984SOL     OW91977  12.002   8.721   1.422
63984SOL    HW191978  11.997   8.754   1.517
63984SOL    HW291979  11.916   8.740   1.376
63985SOL     OW91980  11.844   9.064   0.154
63985SOL    HW191981  11.853   9.074   0.055
63985SOL    HW291982  11.804   8.975   0.175
63986SOL     OW91983  11.435   7.774   0.720
63986SOL    HW191984  11.356   7.825   0.686
63986SOL    HW291985  11.426   7.759   0.818
63987SOL     OW91986  12.366   9.060   0.031
63987SOL    HW191987  12.372   8.967   0.068
63987SOL    HW291988  12.307   9.060  -0.049
63988SOL     OW91989  11.994   8.450   1.372
63988SOL    HW191990  12.034   8.449   1.280
63988SOL    HW291991  12.004   8.542   1.412
63989SOL     OW91992  12.088   8.358   0.291
63989SOL    HW191993  12.151   8.396   0.223
63989SOL    HW291994  12.128   8.275   0.330
63990SOL     OW91995  11.544   8.736   1.490
63990SOL    HW191996  11.531   8.829   1.456
63990SOL    HW291997  11.460   8.684   1.477
63991SOL     OW91998  12.211   8.546   0.696
63991SOL    HW191999  12.141   8.499   0.750
63991SOL    HW292000  12.270   8.478   0.653
63992SOL     OW92001  12.186   7.684   0.971
63992SOL    HW192002  12.178   7.648   0.878
63992SOL    HW292003  12.184   7.608   1.036
63993SOL     OW92004  11.762   8.935   0.491
63993SOL    HW192005  11.804   8.877   0.421
63993SOL    HW292006  11.718   9.014   0.447
63994SOL     OW92007  11.427   8.796   0.290
63994SOL    HW192008  11.331   8.797   0.263
63994SOL    HW292009  11.439   8.849   0.374
63995SOL     OW92010  11.277   8.461   1.726
63995SOL    HW192011  11.200   8.428   1.780
63995SOL    HW292012  11.362   8.431   1.768
63996SOL     OW92013  11.844   7.651   1.489
63996SOL    HW192014  11.934   7.635   1.449
63996SOL    HW292015  11.852   7.656   1.588
63997SOL     OW92016  12.612   8.304   1.398
63997SOL    HW192017  12.555   8.356   1.335
63997SOL    HW292018  12.708   8.316   1.374
63998SOL     OW92019  11.244   7.614   0.318
63998SOL    HW192020  11.227   7.697   0.264
63998SOL    HW292021  11.334   7.577   0.296
63999SOL     OW92022  12.355   8.783   0.119
63999SOL    HW192023  12.256   8.772   0.121
63999SOL    HW292024  12.389   8.798   0.212
64000SOL     OW92025  11.785   8.290   1.431
64000SOL    HW192026  11.841   8.371   1.414
64000SOL    HW292027  11.844   8.210   1.434
64001SOL     OW92028  11.888   8.013   1.708
64001SOL    HW192029  11.907   8.078   1.782
64001SOL    HW292030  11.948   7.933   1.717
64002SOL     OW92031  12.622   8.668   1.633
64002SOL    HW192032  12.613   8.658   1.732
64002SOL    HW292033  12.718   8.661   1.607
64003SOL     OW92034  11.562   9.189   1.560
64003SOL    HW192035  11.471   9.230   1.558
64003SOL    HW292036  11.555   9.095   1.592
64004SOL     OW92037  12.397   7.773   0.449
64004SOL    HW192038  12.462   7.699   0.438
64004SOL    HW292039  12.417   7.823   0.533
64005SOL     OW92040  11.766   8.193   0.652
64005SOL    HW192041  11.816   8.278   0.633
64005SOL    HW292042  11.678   8.195   0.604
64006SOL     OW92043  12.031   8.822   0.016
64006SOL    HW192044  11.985   8.837   0.104
64006SOL    HW292045  12.075   8.907  -0.014
64007SOL     OW92046  11.833   9.238   0.953
64007SOL    HW192047  11.787   9.326   0.940
64007SOL    HW292048  11.932   9.250   0.946
64008SOL     OW92049  12.031   8.404   0.861
64008SOL    HW192050  12.085   8.335   0.909
64008SOL    HW292051  11.999   8.473   0.927
64009SOL     OW92052  12.255   8.432   0.087
64009SOL    HW192053  12.232   8.485   0.005
64009SOL    HW292054  12.336   8.376   0.068
64010SOL     OW92055  11.393   8.762   1.844
64010SOL    HW192056  11.328   8.689   1.823
64010SOL    HW292057  11.397   8.776   1.942
64011SOL     OW92058  11.251   8.688   0.653
64011SOL    HW192059  11.250   8.641   0.741
64011SOL    HW292060  11.333   8.660   0.602
64012SOL     OW92061  11.844   8.839   1.624
64012SOL    HW192062  11.766   8.789   1.662
64012SOL    HW292063  11.841   8.934   1.655
64013SOL     OW92064  11.600   7.872   0.520
64013SOL    HW192065  11.630   7.800   0.458
64013SOL    HW292066  11.561   7.832   0.603
64014SOL     OW92067  12.877   8.935   1.104
64014SOL    HW192068  12.784   8.910   1.077
64014SOL    HW292069  12.903   8.885   1.186
64015SOL     OW92070  11.489   7.995   1.280
64015SOL    HW192071  11.527   7.936   1.352
64015SOL    HW292072  11.529   7.969   1.192
64016SOL     OW92073  11.984   9.034   0.687
64016SOL    HW192074  12.016   9.044   0.593
64016SOL    HW292075  11.905   8.972   0.689
64017SOL     OW92076  12.596   7.662   1.112
64017SOL    HW192077  12.648   7.597   1.167
64017SOL    HW292078  12.547   7.725   1.173
64018SOL     OW92079  12.173   7.482   1.154
64018SOL    HW192080  12.110   7.410   1.123
64018SOL    HW292081  12.266   7.446   1.154
64019SOL     OW92082  11.942   8.778   0.301
64019SOL    HW192083  11.896   8.691   0.318
64019SOL    HW292084  12.033   8.775   0.342
64020SOL     OW92085  11.790   9.015   1.284
64020SOL    HW192086  11.785   9.097   1.341
64020SOL    HW292087  11.879   9.012   1.239
64021SOL     OW92088  12.524   7.500   0.168
64021SOL    HW192089  12.559   7.459   0.084
64021SOL    HW292090  12.434   7.462   0.188
64022SOL     OW92091  12.472   7.901   0.691
64022SOL    HW192092  12.413   7.981   0.695
64022SOL    HW292093  12.487   7.866   0.784
64023SOL     OW92094  11.211   8.525   0.300
64023SOL    HW192095  11.310   8.514   0.291
64023SOL    HW292096  11.171   8.439   0.332
64024SOL     OW92097  12.047   9.094   0.337
64024SOL    HW192098  11.970   9.059   0.283
64024SOL    HW292099  12.015   9.165   0.399
64025SOL     OW92100  11.402   8.076   1.975
64025SOL    HW192101  11.309   8.074   2.012
64025SOL    HW292102  11.403   8.037   1.883
64026SOL     OW92103  11.397   7.723   2.858
64026SOL    HW192104  11.432   7.706   2.950
64026SOL    HW292105  11.309   7.678   2.846
64027SOL     OW92106  11.191   7.816   2.509
64027SOL    HW192107  11.109   7.859   2.548
64027SOL    HW292108  11.163   7.743   2.446
64028SOL     OW92109  11.741   8.723   3.027
64028SOL    HW192110  11.648   8.716   2.990
64028SOL    HW292111  11.752   8.812   3.071
64029SOL     OW92112  12.727   8.959   2.565
64029SOL    HW192113  12.670   8.943   2.646
64029SOL    HW292114  12.668   8.969   2.485
64030SOL     OW92115  12.307   8.151   2.579
64030SOL    HW192116  12.364   8.229   2.554
64030SOL    HW292117  12.247   8.177   2.655
64031SOL     OW92118  11.940   8.592   2.885
64031SOL    HW192119  11.862   8.609   2.945
64031SOL    HW292120  11.974   8.679   2.849
64032SOL     OW92121  12.022   8.246   3.685
64032SOL    HW192122  12.018   8.322   3.750
64032SOL    HW292123  12.044   8.282   3.594
64033SOL     OW92124  11.857   8.460   2.527
64033SOL    HW192125  11.926   8.444   2.597
64033SOL    HW292126  11.784   8.517   2.565
64034SOL     OW92127  11.858   8.609   3.665
64034SOL    HW192128  11.918   8.688   3.679
64034SOL    HW292129  11.772   8.640   3.624
64035SOL     OW92130  11.507   8.883   2.923
64035SOL    HW192131  11.429   8.852   2.870
64035SOL    HW292132  11.565   8.941   2.866
64036SOL     OW92133  11.610   7.840   3.361
64036SOL    HW192134  11.692   7.784   3.370
64036SOL    HW292135  11.529   7.782   3.365
64037SOL     OW92136  11.403   9.161   2.345
64037SOL    HW192137  11.437   9.238   2.399
64037SOL    HW292138  11.447   9.161   2.255
64038SOL     OW92139  12.299   8.789   3.552
64038SOL    HW192140  12.346   8.789   3.640
64038SOL    HW292141  12.251   8.702   3.541
64039SOL     OW92142  11.402   8.882   2.400
64039SOL    HW192143  11.376   8.978   2.400
64039SOL    HW292144  11.331   8.828   2.445
64040SOL     OW92145  11.412   8.539   2.748
64040SOL    HW192146  11.426   8.455   2.800
64040SOL    HW292147  11.357   8.603   2.803
64041SOL     OW92148  11.792   9.234   3.301
64041SOL    HW192149  11.700   9.217   3.336
64041SOL    HW292150  11.820   9.326   3.327
64042SOL     OW92151  11.778   8.412   1.985
64042SOL    HW192152  11.785   8.496   1.931
64042SOL    HW292153  11.824   8.425   2.073
64043SOL     OW92154  11.294   8.091   2.425
64043SOL    HW192155  11.249   8.003   2.442
64043SOL    HW292156  11.293   8.145   2.509
64044SOL     OW92157  11.199   9.044   1.979
64044SOL    HW192158  11.180   8.948   2.000
64044SOL    HW292159  11.166   9.102   2.054
64045SOL     OW92160  12.861   8.370   2.474
64045SOL    HW192161  12.956   8.341   2.482
64045SOL    HW292162  12.853   8.435   2.399
64046SOL     OW92163  11.285   8.185   3.459
64046SOL    HW192164  11.373   8.172   3.504
64046SOL    HW292165  11.272   8.282   3.437
64047SOL     OW92166  11.785   8.813   2.588
64047SOL    HW192167  11.736   8.726   2.597
64047SOL    HW292168  11.762   8.856   2.501
64048SOL     OW92169  12.465   8.676   3.285
64048SOL    HW192170  12.502   8.603   3.227
64048SOL    HW292171  12.517   8.681   3.370
64049SOL     OW92172  11.981   7.452   2.364
64049SOL    HW192173  12.021   7.543   2.355
64049SOL    HW292174  11.881   7.460   2.370
64050SOL     OW92175  11.369   8.424   3.126
64050SOL    HW192176  11.458   8.379   3.112
64050SOL    HW292177  11.296   8.359   3.107
64051SOL     OW92178  12.359   9.240   3.478
64051SOL    HW192179  12.383   9.300   3.402
64051SOL    HW292180  12.366   9.145   3.448
64052SOL     OW92181  11.489   7.699   3.663
64052SOL    HW192182  11.560   7.770   3.669
64052SOL    HW292183  11.401   7.738   3.691
64053SOL     OW92184  12.638   8.865   2.815
64053SOL    HW192185  12.579   8.871   2.895
64053SOL    HW292186  12.623   8.777   2.769
64054SOL     OW92187  11.770   8.177   2.132
64054SOL    HW192188  11.794   8.246   2.064
64054SOL    HW292189  11.692   8.210   2.186
64055SOL     OW92190  12.453   7.793   2.806
64055SOL    HW192191  12.367   7.743   2.793
64055SOL    HW292192  12.515   7.739   2.862
64056SOL     OW92193  11.979   8.053   3.327
64056SOL    HW192194  11.932   8.050   3.416
64056SOL    HW292195  11.928   7.998   3.261
64057SOL     OW92196  12.566   7.917   3.536
64057SOL    HW192197  12.546   7.960   3.624
64057SOL    HW292198  12.644   7.855   3.545
64058SOL     OW92199  12.145   8.338   3.434
64058SOL    HW192200  12.191   8.254   3.405
64058SOL    HW292201  12.089   8.372   3.359
64059SOL     OW92202  12.163   7.858   3.104
64059SOL    HW192203  12.086   7.892   3.158
64059SOL    HW292204  12.129   7.807   3.025
64060SOL     OW92205  12.213   8.149   2.291
64060SOL    HW192206  12.239   8.145   2.387
64060SOL    HW292207  12.128   8.098   2.277
64061SOL     OW92208  11.248   8.259   2.651
64061SOL    HW192209  11.347   8.247   2.660
64061SOL    HW292210  11.224   8.354   2.672
64062SOL     OW92211  11.302   9.269   3.433
64062SOL    HW192212  11.292   9.254   3.532
64062SOL    HW292213  11.216   9.305   3.397
64063SOL     OW92214  12.037   7.796   2.057
64063SOL    HW192215  12.096   7.859   2.008
64063SOL    HW292216  12.056   7.702   2.028
64064SOL     OW92217  12.534   8.592   2.407
64064SOL    HW192218  12.617   8.563   2.359
64064SOL    HW292219  12.485   8.659   2.351
64065SOL     OW92220  11.722   7.644   2.747
64065SOL    HW192221  11.717   7.639   2.847
64065SOL    HW292222  11.724   7.740   2.718
64066SOL     OW92223  12.180   8.904   2.339
64066SOL    HW192224  12.134   8.976   2.287
64066SOL    HW292225  12.176   8.924   2.437
64067SOL     OW92226  11.523   9.249   2.715
64067SOL    HW192227  11.573   9.163   2.721
64067SOL    HW292228  11.588   9.326   2.712
64068SOL     OW92229  12.399   8.998   3.368
64068SOL    HW192230  12.405   8.921   3.432
64068SOL    HW292231  12.347   8.972   3.288
64069SOL     OW92232  11.493   8.391   2.104
64069SOL    HW192233  11.575   8.430   2.062
64069SOL    HW292234  11.466   8.309   2.055
64070SOL     OW92235  11.633   8.714   3.589
64070SOL    HW192236  11.583   8.715   3.503
64070SOL    HW292237  11.570   8.696   3.665
64071SOL     OW92238  12.283   9.224   2.099
64071SOL    HW192239  12.223   9.162   2.149
64071SOL    HW292240  12.314   9.180   2.014
64072SOL     OW92241  11.374   7.733   3.360
64072SOL    HW192242  11.294   7.793   3.347
64072SOL    HW292243  11.364   7.684   3.446
64073SOL     OW92244  11.636   9.191   2.185
64073SOL    HW192245  11.669   9.230   2.271
64073SOL    HW292246  11.712   9.184   2.120
64074SOL     OW92247  12.572   7.555   2.288
64074SOL    HW192248  12.548   7.518   2.198
64074SOL    HW292249  12.671   7.571   2.292
64075SOL     OW92250  11.421   9.233   3.103
64075SOL    HW192251  11.478   9.168   3.153
64075SOL    HW292252  11.405   9.200   3.010
64076SOL     OW92253  12.112   9.146   2.766
64076SOL    HW192254  12.192   9.089   2.787
64076SOL    HW292255  12.063   9.106   2.689
64077SOL     OW92256  11.554   8.148   2.342
64077SOL    HW192257  11.599   8.058   2.339
64077SOL    HW292258  11.460   8.137   2.375
64078SOL     OW92259  11.786   7.570   1.979
64078SOL    HW192260  11.884   7.548   1.986
64078SOL    HW292261  11.755   7.553   1.886
64079SOL     OW92262  11.953   7.712   3.611
64079SOL    HW192263  12.020   7.651   3.654
64079SOL    HW292264  11.880   7.731   3.676
64080SOL     OW92265  12.060   8.962   3.057
64080SOL    HW192266  12.037   8.937   2.963
64080SOL    HW292267  12.121   8.893   3.096
64081SOL     OW92268  12.523   8.038   3.295
64081SOL    HW192269  12.551   7.995   3.380
64081SOL    HW292270  12.548   8.134   3.296
64082SOL     OW92271  11.975   8.850   2.786
64082SOL    HW192272  12.065   8.864   2.744
64082SOL    HW292273  11.904   8.852   2.715
64083SOL     OW92274  12.094   7.951   2.761
64083SOL    HW192275  12.069   7.942   2.665
64083SOL    HW292276  12.142   7.869   2.792
64084SOL     OW92277  11.711   7.512   2.374
64084SOL    HW192278  11.630   7.513   2.432
64084SOL    HW292279  11.714   7.595   2.319
64085SOL     OW92280  12.606   8.636   1.903
64085SOL    HW192281  12.638   8.560   1.960
64085SOL    HW292282  12.514   8.663   1.933
64086SOL     OW92283  11.469   7.483   2.033
64086SOL    HW192284  11.518   7.567   2.012
64086SOL    HW292285  11.531   7.418   2.078
64087SOL     OW92286  12.107   7.684   2.342
64087SOL    HW192287  12.059   7.725   2.264
64087SOL    HW292288  12.206   7.682   2.323
64088SOL     OW92289  12.248   8.131   3.326
64088SOL    HW192290  12.168   8.070   3.329
64088SOL    HW292291  12.329   8.078   3.302
64089SOL     OW92292  12.399   9.018   2.655
64089SOL    HW192293  12.420   9.092   2.590
64089SOL    HW292294  12.467   9.018   2.728
64090SOL     OW92295  11.631   8.600   2.603
64090SOL    HW192296  11.560   8.573   2.668
64090SOL    HW292297  11.605   8.572   2.510
64091SOL     OW92298  12.443   9.245   2.453
64091SOL    HW192299  12.487   9.309   2.389
64091SOL    HW292300  12.393   9.297   2.523
64092SOL     OW92301  12.204   7.997   1.878
64092SOL    HW192302  12.163   8.079   1.839
64092SOL    HW292303  12.268   8.023   1.951
64093SOL     OW92304  11.250   8.004   3.248
64093SOL    HW192305  11.342   8.003   3.207
64093SOL    HW292306  11.244   8.078   3.315
64094SOL     OW92307  11.733   7.670   3.009
64094SOL    HW192308  11.771   7.586   3.046
64094SOL    HW292309  11.645   7.689   3.053
64095SOL     OW92310  12.038   7.902   2.504
64095SOL    HW192311  12.006   7.974   2.442
64095SOL    HW292312  12.062   7.821   2.451
64096SOL     OW92313  12.189   7.487   2.615
64096SOL    HW192314  12.117   7.492   2.546
64096SOL    HW292315  12.165   7.418   2.684
64097SOL     OW92316  12.601   8.621   2.729
64097SOL    HW192317  12.546   8.537   2.722
64097SOL    HW292318  12.627   8.650   2.637
64098SOL     OW92319  11.660   8.833   2.036
64098SOL    HW192320  11.573   8.818   2.083
64098SOL    HW292321  11.643   8.859   1.941
64099SOL     OW92322  12.562   8.023   1.940
64099SOL    HW192323  12.508   8.002   2.021
64099SOL    HW292324  12.653   7.982   1.949
64100SOL     OW92325  11.699   7.704   2.190
64100SOL    HW192326  11.726   7.645   2.115
64100SOL    HW292327  11.699   7.799   2.159
64101SOL     OW92328  12.236   8.795   3.202
64101SOL    HW192329  12.156   8.772   3.257
64101SOL    HW292330  12.319   8.769   3.251
64102SOL     OW92331  12.764   9.077   3.487
64102SOL    HW192332  12.791   9.111   3.397
64102SOL    HW292333  12.843   9.039   3.533
64103SOL     OW92334  12.283   8.643   2.962
64103SOL    HW192335  12.243   8.687   3.043
64103SOL    HW292336  12.242   8.680   2.879
64104SOL     OW92337  12.087   7.537   3.264
64104SOL    HW192338  12.112   7.517   3.169
64104SOL    HW292339  12.159   7.593   3.306
64105SOL     OW92340  12.152   8.564   3.581
64105SOL    HW192341  12.053   8.570   3.591
64105SOL    HW292342  12.175   8.484   3.525
64106SOL     OW92343  11.877   8.498   2.230
64106SOL    HW192344  11.863   8.505   2.329
64106SOL    HW292345  11.961   8.447   2.212
64107SOL     OW92346  11.582   8.261   3.113
64107SOL    HW192347  11.668   8.273   3.163
64107SOL    HW292348  11.540   8.174   3.140
64108SOL     OW92349  12.446   7.834   3.124
64108SOL    HW192350  12.467   7.908   3.188
64108SOL    HW292351  12.357   7.851   3.081
64109SOL     OW92352  11.236   9.012   3.193
64109SOL    HW192353  11.190   9.094   3.159
64109SOL    HW292354  11.334   9.031   3.202
64110SOL     OW92355  11.539   8.548   2.363
64110SOL    HW192356  11.532   8.631   2.307
64110SOL    HW292357  11.543   8.468   2.303
64111SOL     OW92358  11.738   7.985   2.727
64111SOL    HW192359  11.750   8.051   2.653
64111SOL    HW292360  11.784   8.019   2.810
64112SOL     OW92361  12.424   8.796   2.250
64112SOL    HW192362  12.474   8.873   2.290
64112SOL    HW292363  12.329   8.798   2.282
64113SOL     OW92364  12.444   8.893   3.004
64113SOL    HW192365  12.491   8.906   3.091
64113SOL    HW292366  12.378   8.819   3.013
64114SOL     OW92367  11.526   8.958   3.191
64114SOL    HW192368  11.505   8.914   3.104
64114SOL    HW292369  11.623   8.984   3.194
64115SOL     OW92370  11.574   8.199   3.460
64115SOL    HW192371  11.642   8.254   3.413
64115SOL    HW292372  11.614   8.111   3.487
64116SOL     OW92373  12.185   7.553   3.632
64116SOL    HW192374  12.191   7.638   3.580
64116SOL    HW292375  12.217   7.477   3.575
64117SOL     OW92376  11.676   7.498   3.602
64117SOL    HW192377  11.634   7.441   3.532
64117SOL    HW292378  11.610   7.567   3.634
64118SOL     OW92379  11.745   8.318   2.891
64118SOL    HW192380  11.789   8.407   2.882
64118SOL    HW292381  11.682   8.318   2.968
64119SOL     OW92382  12.532   8.310   2.907
64119SOL    HW192383  12.457   8.310   2.841
64119SOL    HW292384  12.569   8.218   2.916
64120SOL     OW92385  12.381   7.973   2.137
64120SOL    HW192386  12.394   7.889   2.191
64120SOL    HW292387  12.352   8.047   2.197
64121SOL     OW92388  11.479   7.661   3.093
64121SOL    HW192389  11.456   7.698   3.183
64121SOL    HW292390  11.449   7.566   3.087
64122SOL     OW92391  11.209   8.758   3.144
64122SOL    HW192392  11.262   8.709   3.212
64122SOL    HW292393  11.231   8.856   3.149
64123SOL     OW92394  11.904   8.082   2.926
64123SOL    HW192395  11.963   8.056   2.850
64123SOL    HW292396  11.876   8.178   2.915
64124SOL     OW92397  11.479   7.511   2.480
64124SOL    HW192398  11.468   7.605   2.513
64124SOL    HW292399  11.474   7.448   2.557
64125SOL     OW92400  12.794   7.815   2.236
64125SOL    HW192401  12.796   7.739   2.300
64125SOL    HW292402  12.746   7.892   2.276
64126SOL     OW92403  12.195   8.214   2.828
64126SOL    HW192404  12.210   8.235   2.924
64126SOL    HW292405  12.165   8.119   2.819
64127SOL     OW92406  12.152   9.021   3.562
64127SOL    HW192407  12.132   9.065   3.474
64127SOL    HW292408  12.191   8.930   3.546
64128SOL     OW92409  11.522   8.346   3.666
64128SOL    HW192410  11.598   8.390   3.714
64128SOL    HW292411  11.557   8.299   3.584
64129SOL     OW92412  12.475   8.286   1.904
64129SOL    HW192413  12.509   8.193   1.919
64129SOL    HW292414  12.493   8.313   1.809
64130SOL     OW92415  12.240   8.781   2.711
64130SOL    HW192416  12.247   8.697   2.656
64130SOL    HW292417  12.302   8.850   2.675
64131SOL     OW92418  11.491   8.258   2.811
64131SOL    HW192419  11.584   8.294   2.816
64131SOL    HW292420  11.485   8.173   2.863
64132SOL     OW92421  11.511   7.957   2.868
64132SOL    HW192422  11.459   7.874   2.851
64132SOL    HW292423  11.588   7.962   2.804
64133SOL     OW92424  12.310   7.828   3.540
64133SOL    HW192425  12.265   7.891   3.604
64133SOL    HW292426  12.403   7.859   3.523
64134SOL     OW92427  12.332   7.655   3.339
64134SOL    HW192428  12.332   7.719   3.416
64134SOL    HW292429  12.360   7.703   3.256
64135SOL     OW92430  11.180   8.774   2.062
64135SOL    HW192431  11.087   8.795   2.031
64135SOL    HW292432  11.190   8.675   2.075
64136SOL     OW92433  11.260   9.249   2.789
64136SOL    HW192434  11.218   9.163   2.762
64136SOL    HW292435  11.354   9.252   2.755
64137SOL     OW92436  11.676   9.016   2.772
64137SOL    HW192437  11.742   9.090   2.781
64137SOL    HW292438  11.720   8.937   2.730
64138SOL     OW92439  12.174   8.244   3.100
64138SOL    HW192440  12.215   8.212   3.186
64138SOL    HW292441  12.078   8.217   3.097
64139SOL     OW92442  11.212   7.992   2.976
64139SOL    HW192443  11.297   7.959   2.935
64139SOL    HW292444  11.225   8.007   3.074
64140SOL     OW92445  11.361   7.968   3.584
64140SOL    HW192446  11.420   7.928   3.514
64140SOL    HW292447  11.303   8.039   3.543
64141SOL     OW92448  12.541   8.398   3.522
64141SOL    HW192449  12.580   8.487   3.542
64141SOL    HW292450  12.551   8.378   3.425
64142SOL     OW92451  11.987   8.020   2.187
64142SOL    HW192452  11.994   7.931   2.141
64142SOL    HW292453  11.893   8.054   2.179
64143SOL     OW92454  11.424   9.012   3.606
64143SOL    HW192455  11.394   9.069   3.682
64143SOL    HW292456  11.417   8.915   3.632
64144SOL     OW92457  11.843   7.912   3.131
64144SOL    HW192458  11.809   7.823   3.101
64144SOL    HW292459  11.869   7.966   3.051
64145SOL     OW92460  12.102   9.126   3.327
64145SOL    HW192461  12.078   9.108   3.232
64145SOL    HW292462  12.132   9.220   3.337
64146SOL     OW92463  11.645   7.948   2.053
64146SOL    HW192464  11.706   8.028   2.057
64146SOL    HW292465  11.550   7.979   2.060
64147SOL     OW92466  11.331   8.585   3.328
64147SOL    HW192467  11.353   8.524   3.404
64147SOL    HW292468  11.341   8.536   3.242
64148SOL     OW92469  12.519   8.507   3.096
64148SOL    HW192470  12.543   8.444   3.022
64148SOL    HW292471  12.429   8.547   3.078
64149SOL     OW92472  12.474   8.303   2.171
64149SOL    HW192473  12.388   8.272   2.213
64149SOL    HW292474  12.470   8.289   2.072
64150SOL     OW92475  12.424   9.179   2.990
64150SOL    HW192476  12.508   9.184   2.936
64150SOL    HW292477  12.401   9.083   3.008
64151SOL     OW92478  11.255   8.706   2.884
64151SOL    HW192479  11.250   8.705   2.984
64151SOL    HW292480  11.172   8.665   2.846
64152SOL     OW92481  11.860   9.110   3.578
64152SOL    HW192482  11.804   9.191   3.587
64152SOL    HW292483  11.912   9.114   3.492
64153SOL     OW92484  12.898   7.583   2.385
64153SOL    HW192485  12.971   7.566   2.318
64153SOL    HW292486  12.867   7.496   2.423
64154SOL     OW92487  12.560   9.021   2.339
64154SOL    HW192488  12.627   9.033   2.265
64154SOL    HW292489  12.520   9.110   2.362
64155SOL     OW92490  11.302   9.242   3.713
64155SOL    HW192491  11.261   9.168   3.766
64155SOL    HW292492  11.366   9.293   3.771
64156SOL     OW92493  12.452   8.375   2.534
64156SOL    HW192494  12.512   8.294   2.536
64156SOL    HW292495  12.492   8.444   2.474
64157SOL     OW92496  12.002   8.721   3.284
64157SOL    HW192497  11.997   8.754   3.379
64157SOL    HW292498  11.916   8.740   3.238
64158SOL     OW92499  11.844   9.064   2.016
64158SOL    HW192500  11.853   9.074   1.917
64158SOL    HW292501  11.804   8.975   2.037
64159SOL     OW92502  11.435   7.774   2.582
64159SOL    HW192503  11.356   7.825   2.548
64159SOL    HW292504  11.426   7.759   2.680
64160SOL     OW92505  12.366   9.060   1.893
64160SOL    HW192506  12.372   8.967   1.930
64160SOL    HW292507  12.307   9.060   1.813
64161SOL     OW92508  11.994   8.450   3.234
64161SOL    HW192509  12.034   8.449   3.142
64161SOL    HW292510  12.004   8.542   3.274
64162SOL     OW92511  12.088   8.358   2.153
64162SOL    HW192512  12.151   8.396   2.085
64162SOL    HW292513  12.128   8.275   2.192
64163SOL     OW92514  11.544   8.736   3.352
64163SOL    HW192515  11.531   8.829   3.318
64163SOL    HW292516  11.460   8.684   3.339
64164SOL     OW92517  12.211   8.546   2.558
64164SOL    HW192518  12.141   8.499   2.612
64164SOL    HW292519  12.270   8.478   2.515
64165SOL     OW92520  12.186   7.684   2.833
64165SOL    HW192521  12.178   7.648   2.740
64165SOL    HW292522  12.184   7.608   2.898
64166SOL     OW92523  11.762   8.935   2.353
64166SOL    HW192524  11.804   8.877   2.283
64166SOL    HW292525  11.718   9.014   2.309
64167SOL     OW92526  11.427   8.796   2.152
64167SOL    HW192527  11.331   8.797   2.125
64167SOL    HW292528  11.439   8.849   2.236
64168SOL     OW92529  11.277   8.461   3.588
64168SOL    HW192530  11.200   8.428   3.642
64168SOL    HW292531  11.362   8.431   3.630
64169SOL     OW92532  11.844   7.651   3.351
64169SOL    HW192533  11.934   7.635   3.311
64169SOL    HW292534  11.852   7.656   3.450
64170SOL     OW92535  11.247   7.793   1.895
64170SOL    HW192536  11.155   7.765   1.866
64170SOL    HW292537  11.278   7.870   1.839
64171SOL     OW92538  12.612   8.304   3.260
64171SOL    HW192539  12.555   8.356   3.197
64171SOL    HW292540  12.708   8.316   3.236
64172SOL     OW92541  11.244   7.614   2.180
64172SOL    HW192542  11.227   7.697   2.126
64172SOL    HW292543  11.334   7.577   2.158
64173SOL     OW92544  12.355   8.783   1.981
64173SOL    HW192545  12.256   8.772   1.983
64173SOL    HW292546  12.389   8.798   2.074
64174SOL     OW92547  11.785   8.290   3.293
64174SOL    HW192548  11.841   8.371   3.276
64174SOL    HW292549  11.844   8.210   3.296
64175SOL     OW92550  11.888   8.013   3.570
64175SOL    HW192551  11.907   8.078   3.644
64175SOL    HW292552  11.948   7.933   3.579
64176SOL     OW92553  12.622   8.668   3.495
64176SOL    HW192554  12.613   8.658   3.594
64176SOL    HW292555  12.718   8.661   3.469
64177SOL     OW92556  11.562   9.189   3.422
64177SOL    HW192557  11.471   9.230   3.420
64177SOL    HW292558  11.555   9.095   3.454
64178SOL     OW92559  12.397   7.773   2.311
64178SOL    HW192560  12.462   7.699   2.300
64178SOL    HW292561  12.417   7.823   2.395
64179SOL     OW92562  11.766   8.193   2.514
64179SOL    HW192563  11.816   8.278   2.495
64179SOL    HW292564  11.678   8.195   2.466
64180SOL     OW92565  12.031   8.822   1.878
64180SOL    HW192566  11.985   8.837   1.966
64180SOL    HW292567  12.075   8.907   1.848
64181SOL     OW92568  11.833   9.238   2.815
64181SOL    HW192569  11.787   9.326   2.802
64181SOL    HW292570  11.932   9.250   2.808
64182SOL     OW92571  12.031   8.404   2.723
64182SOL    HW192572  12.085   8.335   2.771
64182SOL    HW292573  11.999   8.473   2.789
64183SOL     OW92574  12.255   8.432   1.949
64183SOL    HW192575  12.232   8.485   1.867
64183SOL    HW292576  12.336   8.376   1.930
64184SOL     OW92577  11.393   8.762   3.706
64184SOL    HW192578  11.328   8.689   3.685
64184SOL    HW292579  11.397   8.776   3.804
64185SOL     OW92580  11.251   8.688   2.515
64185SOL    HW192581  11.250   8.641   2.603
64185SOL    HW292582  11.333   8.660   2.464
64186SOL     OW92583  11.844   8.839   3.486
64186SOL    HW192584  11.766   8.789   3.524
64186SOL    HW292585  11.841   8.934   3.517
64187SOL     OW92586  11.600   7.872   2.382
64187SOL    HW192587  11.630   7.800   2.320
64187SOL    HW292588  11.561   7.832   2.465
64188SOL     OW92589  12.877   8.935   2.966
64188SOL    HW192590  12.784   8.910   2.939
64188SOL    HW292591  12.903   8.885   3.048
64189SOL     OW92592  11.489   7.995   3.142
64189SOL    HW192593  11.527   7.936   3.214
64189SOL    HW292594  11.529   7.969   3.054
64190SOL     OW92595  11.984   9.034   2.549
64190SOL    HW192596  12.016   9.044   2.455
64190SOL    HW292597  11.905   8.972   2.551
64191SOL     OW92598  12.596   7.662   2.974
64191SOL    HW192599  12.648   7.597   3.029
64191SOL    HW292600  12.547   7.725   3.035
64192SOL     OW92601  12.173   7.482   3.016
64192SOL    HW192602  12.110   7.410   2.985
64192SOL    HW292603  12.266   7.446   3.016
64193SOL     OW92604  11.942   8.778   2.163
64193SOL    HW192605  11.896   8.691   2.180
64193SOL    HW292606  12.033   8.775   2.204
64194SOL     OW92607  11.790   9.015   3.146
64194SOL    HW192608  11.785   9.097   3.203
64194SOL    HW292609  11.879   9.012   3.101
64195SOL     OW92610  12.524   7.500   2.030
64195SOL    HW192611  12.559   7.459   1.946
64195SOL    HW292612  12.434   7.462   2.050
64196SOL     OW92613  12.472   7.901   2.553
64196SOL    HW192614  12.413   7.981   2.557
64196SOL    HW292615  12.487   7.866   2.646
64197SOL     OW92616  11.211   8.525   2.162
64197SOL    HW192617  11.310   8.514   2.153
64197SOL    HW292618  11.171   8.439   2.194
64198SOL     OW92619  12.047   9.094   2.199
64198SOL    HW192620  11.970   9.059   2.145
64198SOL    HW292621  12.015   9.165   2.261
64199SOL     OW92622  11.402   8.076   3.837
64199SOL    HW192623  11.309   8.074   3.874
64199SOL    HW292624  11.403   8.037   3.745
64200SOL     OW92625  11.397   7.723   4.720
64200SOL    HW192626  11.432   7.706   4.812
64200SOL    HW292627  11.309   7.678   4.708
64201SOL     OW92628  11.191   7.816   4.371
64201SOL    HW192629  11.109   7.859   4.410
64201SOL    HW292630  11.163   7.743   4.308
64202SOL     OW92631  11.741   8.723   4.889
64202SOL    HW192632  11.648   8.716   4.852
64202SOL    HW292633  11.752   8.812   4.933
64203SOL     OW92634  12.727   8.959   4.427
64203SOL    HW192635  12.670   8.943   4.508
64203SOL    HW292636  12.668   8.969   4.347
64204SOL     OW92637  12.307   8.151   4.441
64204SOL    HW192638  12.364   8.229   4.416
64204SOL    HW292639  12.247   8.177   4.517
64205SOL     OW92640  11.940   8.592   4.747
64205SOL    HW192641  11.862   8.609   4.807
64205SOL    HW292642  11.974   8.679   4.711
64206SOL     OW92643  12.022   8.246   5.547
64206SOL    HW192644  12.018   8.322   5.612
64206SOL    HW292645  12.044   8.282   5.456
64207SOL     OW92646  11.857   8.460   4.389
64207SOL    HW192647  11.926   8.444   4.459
64207SOL    HW292648  11.784   8.517   4.427
64208SOL     OW92649  11.858   8.609   5.527
64208SOL    HW192650  11.918   8.688   5.541
64208SOL    HW292651  11.772   8.640   5.486
64209SOL     OW92652  11.507   8.883   4.785
64209SOL    HW192653  11.429   8.852   4.732
64209SOL    HW292654  11.565   8.941   4.728
64210SOL     OW92655  11.610   7.840   5.223
64210SOL    HW192656  11.692   7.784   5.232
64210SOL    HW292657  11.529   7.782   5.227
64211SOL     OW92658  11.403   9.161   4.207
64211SOL    HW192659  11.437   9.238   4.261
64211SOL    HW292660  11.447   9.161   4.117
64212SOL     OW92661  12.299   8.789   5.414
64212SOL    HW192662  12.346   8.789   5.502
64212SOL    HW292663  12.251   8.702   5.403
64213SOL     OW92664  11.402   8.882   4.262
64213SOL    HW192665  11.376   8.978   4.262
64213SOL    HW292666  11.331   8.828   4.307
64214SOL     OW92667  11.412   8.539   4.610
64214SOL    HW192668  11.426   8.455   4.662
64214SOL    HW292669  11.357   8.603   4.665
64215SOL     OW92670  11.792   9.234   5.163
64215SOL    HW192671  11.700   9.217   5.198
64215SOL    HW292672  11.820   9.326   5.189
64216SOL     OW92673  11.778   8.412   3.847
64216SOL    HW192674  11.785   8.496   3.793
64216SOL    HW292675  11.824   8.425   3.935
64217SOL     OW92676  11.294   8.091   4.287
64217SOL    HW192677  11.249   8.003   4.304
64217SOL    HW292678  11.293   8.145   4.371
64218SOL     OW92679  11.199   9.044   3.841
64218SOL    HW192680  11.180   8.948   3.862
64218SOL    HW292681  11.166   9.102   3.916
64219SOL     OW92682  12.861   8.370   4.336
64219SOL    HW192683  12.956   8.341   4.344
64219SOL    HW292684  12.853   8.435   4.261
64220SOL     OW92685  11.285   8.185   5.321
64220SOL    HW192686  11.373   8.172   5.366
64220SOL    HW292687  11.272   8.282   5.299
64221SOL     OW92688  11.785   8.813   4.450
64221SOL    HW192689  11.736   8.726   4.459
64221SOL    HW292690  11.762   8.856   4.363
64222SOL     OW92691  12.465   8.676   5.147
64222SOL    HW192692  12.502   8.603   5.089
64222SOL    HW292693  12.517   8.681   5.232
64223SOL     OW92694  11.981   7.452   4.226
64223SOL    HW192695  12.021   7.543   4.217
64223SOL    HW292696  11.881   7.460   4.232
64224SOL     OW92697  11.369   8.424   4.988
64224SOL    HW192698  11.458   8.379   4.974
64224SOL    HW292699  11.296   8.359   4.969
64225SOL     OW92700  12.359   9.240   5.340
64225SOL    HW192701  12.383   9.300   5.264
64225SOL    HW292702  12.366   9.145   5.310
64226SOL     OW92703  11.489   7.699   5.525
64226SOL    HW192704  11.560   7.770   5.531
64226SOL    HW292705  11.401   7.738   5.553
64227SOL     OW92706  12.638   8.865   4.677
64227SOL    HW192707  12.579   8.871   4.757
64227SOL    HW292708  12.623   8.777   4.631
64228SOL     OW92709  11.770   8.177   3.994
64228SOL    HW192710  11.794   8.246   3.926
64228SOL    HW292711  11.692   8.210   4.048
64229SOL     OW92712  12.453   7.793   4.668
64229SOL    HW192713  12.367   7.743   4.655
64229SOL    HW292714  12.515   7.739   4.724
64230SOL     OW92715  11.979   8.053   5.189
64230SOL    HW192716  11.932   8.050   5.278
64230SOL    HW292717  11.928   7.998   5.123
64231SOL     OW92718  12.566   7.917   5.398
64231SOL    HW192719  12.546   7.960   5.486
64231SOL    HW292720  12.644   7.855   5.407
64232SOL     OW92721  12.145   8.338   5.296
64232SOL    HW192722  12.191   8.254   5.267
64232SOL    HW292723  12.089   8.372   5.221
64233SOL     OW92724  12.163   7.858   4.966
64233SOL    HW192725  12.086   7.892   5.020
64233SOL    HW292726  12.129   7.807   4.887
64234SOL     OW92727  12.213   8.149   4.153
64234SOL    HW192728  12.239   8.145   4.249
64234SOL    HW292729  12.128   8.098   4.139
64235SOL     OW92730  11.248   8.259   4.513
64235SOL    HW192731  11.347   8.247   4.522
64235SOL    HW292732  11.224   8.354   4.534
64236SOL     OW92733  11.302   9.269   5.295
64236SOL    HW192734  11.292   9.254   5.394
64236SOL    HW292735  11.216   9.305   5.259
64237SOL     OW92736  12.037   7.796   3.919
64237SOL    HW192737  12.096   7.859   3.870
64237SOL    HW292738  12.056   7.702   3.890
64238SOL     OW92739  12.534   8.592   4.269
64238SOL    HW192740  12.617   8.563   4.221
64238SOL    HW292741  12.485   8.659   4.213
64239SOL     OW92742  11.722   7.644   4.609
64239SOL    HW192743  11.717   7.639   4.709
64239SOL    HW292744  11.724   7.740   4.580
64240SOL     OW92745  12.180   8.904   4.201
64240SOL    HW192746  12.134   8.976   4.149
64240SOL    HW292747  12.176   8.924   4.299
64241SOL     OW92748  11.523   9.249   4.577
64241SOL    HW192749  11.573   9.163   4.583
64241SOL    HW292750  11.588   9.326   4.574
64242SOL     OW92751  12.399   8.998   5.230
64242SOL    HW192752  12.405   8.921   5.294
64242SOL    HW292753  12.347   8.972   5.150
64243SOL     OW92754  11.493   8.391   3.966
64243SOL    HW192755  11.575   8.430   3.924
64243SOL    HW292756  11.466   8.309   3.917
64244SOL     OW92757  11.633   8.714   5.451
64244SOL    HW192758  11.583   8.715   5.365
64244SOL    HW292759  11.570   8.696   5.527
64245SOL     OW92760  12.283   9.224   3.961
64245SOL    HW192761  12.223   9.162   4.011
64245SOL    HW292762  12.314   9.180   3.876
64246SOL     OW92763  11.374   7.733   5.222
64246SOL    HW192764  11.294   7.793   5.209
64246SOL    HW292765  11.364   7.684   5.308
64247SOL     OW92766  11.636   9.191   4.047
64247SOL    HW192767  11.669   9.230   4.133
64247SOL    HW292768  11.712   9.184   3.982
64248SOL     OW92769  12.572   7.555   4.150
64248SOL    HW192770  12.548   7.518   4.060
64248SOL    HW292771  12.671   7.571   4.154
64249SOL     OW92772  11.421   9.233   4.965
64249SOL    HW192773  11.478   9.168   5.015
64249SOL    HW292774  11.405   9.200   4.872
64250SOL     OW92775  12.112   9.146   4.628
64250SOL    HW192776  12.192   9.089   4.649
64250SOL    HW292777  12.063   9.106   4.551
64251SOL     OW92778  11.554   8.148   4.204
64251SOL    HW192779  11.599   8.058   4.201
64251SOL    HW292780  11.460   8.137   4.237
64252SOL     OW92781  11.786   7.570   3.841
64252SOL    HW192782  11.884   7.548   3.848
64252SOL    HW292783  11.755   7.553   3.748
64253SOL     OW92784  11.953   7.712   5.473
64253SOL    HW192785  12.020   7.651   5.516
64253SOL    HW292786  11.880   7.731   5.538
64254SOL     OW92787  12.060   8.962   4.919
64254SOL    HW192788  12.037   8.937   4.825
64254SOL    HW292789  12.121   8.893   4.958
64255SOL     OW92790  12.523   8.038   5.157
64255SOL    HW192791  12.551   7.995   5.242
64255SOL    HW292792  12.548   8.134   5.158
64256SOL     OW92793  11.975   8.850   4.648
64256SOL    HW192794  12.065   8.864   4.606
64256SOL    HW292795  11.904   8.852   4.577
64257SOL     OW92796  12.094   7.951   4.623
64257SOL    HW192797  12.069   7.942   4.527
64257SOL    HW292798  12.142   7.869   4.654
64258SOL     OW92799  11.711   7.512   4.236
64258SOL    HW192800  11.630   7.513   4.294
64258SOL    HW292801  11.714   7.595   4.181
64259SOL     OW92802  12.606   8.636   3.765
64259SOL    HW192803  12.638   8.560   3.822
64259SOL    HW292804  12.514   8.663   3.795
64260SOL     OW92805  11.469   7.483   3.895
64260SOL    HW192806  11.518   7.567   3.874
64260SOL    HW292807  11.531   7.418   3.940
64261SOL     OW92808  12.107   7.684   4.204
64261SOL    HW192809  12.059   7.725   4.126
64261SOL    HW292810  12.206   7.682   4.185
64262SOL     OW92811  12.248   8.131   5.188
64262SOL    HW192812  12.168   8.070   5.191
64262SOL    HW292813  12.329   8.078   5.164
64263SOL     OW92814  12.399   9.018   4.517
64263SOL    HW192815  12.420   9.092   4.452
64263SOL    HW292816  12.467   9.018   4.590
64264SOL     OW92817  11.631   8.600   4.465
64264SOL    HW192818  11.560   8.573   4.530
64264SOL    HW292819  11.605   8.572   4.372
64265SOL     OW92820  12.443   9.245   4.315
64265SOL    HW192821  12.487   9.309   4.251
64265SOL    HW292822  12.393   9.297   4.385
64266SOL     OW92823  12.204   7.997   3.740
64266SOL    HW192824  12.163   8.079   3.701
64266SOL    HW292825  12.268   8.023   3.813
64267SOL     OW92826  11.250   8.004   5.110
64267SOL    HW192827  11.342   8.003   5.069
64267SOL    HW292828  11.244   8.078   5.177
64268SOL     OW92829  11.733   7.670   4.871
64268SOL    HW192830  11.771   7.586   4.908
64268SOL    HW292831  11.645   7.689   4.915
64269SOL     OW92832  12.038   7.902   4.366
64269SOL    HW192833  12.006   7.974   4.304
64269SOL    HW292834  12.062   7.821   4.313
64270SOL     OW92835  12.189   7.487   4.477
64270SOL    HW192836  12.117   7.492   4.408
64270SOL    HW292837  12.165   7.418   4.546
64271SOL     OW92838  12.601   8.621   4.591
64271SOL    HW192839  12.546   8.537   4.584
64271SOL    HW292840  12.627   8.650   4.499
64272SOL     OW92841  11.660   8.833   3.898
64272SOL    HW192842  11.573   8.818   3.945
64272SOL    HW292843  11.643   8.859   3.803
64273SOL     OW92844  12.562   8.023   3.802
64273SOL    HW192845  12.508   8.002   3.883
64273SOL    HW292846  12.653   7.982   3.811
64274SOL     OW92847  11.699   7.704   4.052
64274SOL    HW192848  11.726   7.645   3.977
64274SOL    HW292849  11.699   7.799   4.021
64275SOL     OW92850  12.236   8.795   5.064
64275SOL    HW192851  12.156   8.772   5.119
64275SOL    HW292852  12.319   8.769   5.113
64276SOL     OW92853  12.764   9.077   5.349
64276SOL    HW192854  12.791   9.111   5.259
64276SOL    HW292855  12.843   9.039   5.395
64277SOL     OW92856  12.283   8.643   4.824
64277SOL    HW192857  12.243   8.687   4.905
64277SOL    HW292858  12.242   8.680   4.741
64278SOL     OW92859  12.087   7.537   5.126
64278SOL    HW192860  12.112   7.517   5.031
64278SOL    HW292861  12.159   7.593   5.168
64279SOL     OW92862  12.152   8.564   5.443
64279SOL    HW192863  12.053   8.570   5.453
64279SOL    HW292864  12.175   8.484   5.387
64280SOL     OW92865  11.877   8.498   4.092
64280SOL    HW192866  11.863   8.505   4.191
64280SOL    HW292867  11.961   8.447   4.074
64281SOL     OW92868  11.582   8.261   4.975
64281SOL    HW192869  11.668   8.273   5.025
64281SOL    HW292870  11.540   8.174   5.002
64282SOL     OW92871  12.446   7.834   4.986
64282SOL    HW192872  12.467   7.908   5.050
64282SOL    HW292873  12.357   7.851   4.943
64283SOL     OW92874  11.236   9.012   5.055
64283SOL    HW192875  11.190   9.094   5.021
64283SOL    HW292876  11.334   9.031   5.064
64284SOL     OW92877  11.539   8.548   4.225
64284SOL    HW192878  11.532   8.631   4.169
64284SOL    HW292879  11.543   8.468   4.165
64285SOL     OW92880  11.738   7.985   4.589
64285SOL    HW192881  11.750   8.051   4.515
64285SOL    HW292882  11.784   8.019   4.672
64286SOL     OW92883  12.424   8.796   4.112
64286SOL    HW192884  12.474   8.873   4.152
64286SOL    HW292885  12.329   8.798   4.144
64287SOL     OW92886  12.444   8.893   4.866
64287SOL    HW192887  12.491   8.906   4.953
64287SOL    HW292888  12.378   8.819   4.875
64288SOL     OW92889  11.526   8.958   5.053
64288SOL    HW192890  11.505   8.914   4.966
64288SOL    HW292891  11.623   8.984   5.056
64289SOL     OW92892  11.574   8.199   5.322
64289SOL    HW192893  11.642   8.254   5.275
64289SOL    HW292894  11.614   8.111   5.349
64290SOL     OW92895  12.185   7.553   5.494
64290SOL    HW192896  12.191   7.638   5.442
64290SOL    HW292897  12.217   7.477   5.437
64291SOL     OW92898  11.676   7.498   5.464
64291SOL    HW192899  11.634   7.441   5.394
64291SOL    HW292900  11.610   7.567   5.496
64292SOL     OW92901  11.745   8.318   4.753
64292SOL    HW192902  11.789   8.407   4.744
64292SOL    HW292903  11.682   8.318   4.830
64293SOL     OW92904  12.532   8.310   4.769
64293SOL    HW192905  12.457   8.310   4.703
64293SOL    HW292906  12.569   8.218   4.778
64294SOL     OW92907  12.381   7.973   3.999
64294SOL    HW192908  12.394   7.889   4.053
64294SOL    HW292909  12.352   8.047   4.059
64295SOL     OW92910  11.479   7.661   4.955
64295SOL    HW192911  11.456   7.698   5.045
64295SOL    HW292912  11.449   7.566   4.949
64296SOL     OW92913  11.209   8.758   5.006
64296SOL    HW192914  11.262   8.709   5.074
64296SOL    HW292915  11.231   8.856   5.011
64297SOL     OW92916  11.904   8.082   4.788
64297SOL    HW192917  11.963   8.056   4.712
64297SOL    HW292918  11.876   8.178   4.777
64298SOL     OW92919  11.479   7.511   4.342
64298SOL    HW192920  11.468   7.605   4.375
64298SOL    HW292921  11.474   7.448   4.419
64299SOL     OW92922  12.794   7.815   4.098
64299SOL    HW192923  12.796   7.739   4.162
64299SOL    HW292924  12.746   7.892   4.138
64300SOL     OW92925  12.195   8.214   4.690
64300SOL    HW192926  12.210   8.235   4.786
64300SOL    HW292927  12.165   8.119   4.681
64301SOL     OW92928  12.152   9.021   5.424
64301SOL    HW192929  12.132   9.065   5.336
64301SOL    HW292930  12.191   8.930   5.408
64302SOL     OW92931  11.522   8.346   5.528
64302SOL    HW192932  11.598   8.390   5.576
64302SOL    HW292933  11.557   8.299   5.446
64303SOL     OW92934  12.475   8.286   3.766
64303SOL    HW192935  12.509   8.193   3.781
64303SOL    HW292936  12.493   8.313   3.671
64304SOL     OW92937  12.240   8.781   4.573
64304SOL    HW192938  12.247   8.697   4.518
64304SOL    HW292939  12.302   8.850   4.537
64305SOL     OW92940  11.491   8.258   4.673
64305SOL    HW192941  11.584   8.294   4.678
64305SOL    HW292942  11.485   8.173   4.725
64306SOL     OW92943  11.511   7.957   4.730
64306SOL    HW192944  11.459   7.874   4.713
64306SOL    HW292945  11.588   7.962   4.666
64307SOL     OW92946  12.310   7.828   5.402
64307SOL    HW192947  12.265   7.891   5.466
64307SOL    HW292948  12.403   7.859   5.385
64308SOL     OW92949  12.332   7.655   5.201
64308SOL    HW192950  12.332   7.719   5.278
64308SOL    HW292951  12.360   7.703   5.118
64309SOL     OW92952  11.180   8.774   3.924
64309SOL    HW192953  11.087   8.795   3.893
64309SOL    HW292954  11.190   8.675   3.937
64310SOL     OW92955  11.260   9.249   4.651
64310SOL    HW192956  11.218   9.163   4.624
64310SOL    HW292957  11.354   9.252   4.617
64311SOL     OW92958  11.676   9.016   4.634
64311SOL    HW192959  11.742   9.090   4.643
64311SOL    HW292960  11.720   8.937   4.592
64312SOL     OW92961  12.174   8.244   4.962
64312SOL    HW192962  12.215   8.212   5.048
64312SOL    HW292963  12.078   8.217   4.959
64313SOL     OW92964  11.212   7.992   4.838
64313SOL    HW192965  11.297   7.959   4.797
64313SOL    HW292966  11.225   8.007   4.936
64314SOL     OW92967  11.361   7.968   5.446
64314SOL    HW192968  11.420   7.928   5.376
64314SOL    HW292969  11.303   8.039   5.405
64315SOL     OW92970  12.541   8.398   5.384
64315SOL    HW192971  12.580   8.487   5.404
64315SOL    HW292972  12.551   8.378   5.287
64316SOL     OW92973  11.987   8.020   4.049
64316SOL    HW192974  11.994   7.931   4.003
64316SOL    HW292975  11.893   8.054   4.041
64317SOL     OW92976  11.424   9.012   5.468
64317SOL    HW192977  11.394   9.069   5.544
64317SOL    HW292978  11.417   8.915   5.494
64318SOL     OW92979  11.843   7.912   4.993
64318SOL    HW192980  11.809   7.823   4.963
64318SOL    HW292981  11.869   7.966   4.913
64319SOL     OW92982  12.102   9.126   5.189
64319SOL    HW192983  12.078   9.108   5.094
64319SOL    HW292984  12.132   9.220   5.199
64320SOL     OW92985  11.645   7.948   3.915
64320SOL    HW192986  11.706   8.028   3.919
64320SOL    HW292987  11.550   7.979   3.922
64321SOL     OW92988  11.331   8.585   5.190
64321SOL    HW192989  11.353   8.524   5.266
64321SOL    HW292990  11.341   8.536   5.104
64322SOL     OW92991  12.519   8.507   4.958
64322SOL    HW192992  12.543   8.444   4.884
64322SOL    HW292993  12.429   8.547   4.940
64323SOL     OW92994  12.474   8.303   4.033
64323SOL    HW192995  12.388   8.272   4.075
64323SOL    HW292996  12.470   8.289   3.934
64324SOL     OW92997  12.424   9.179   4.852
64324SOL    HW192998  12.508   9.184   4.798
64324SOL    HW292999  12.401   9.083   4.870
64325SOL     OW93000  11.255   8.706   4.746
64325SOL    HW193001  11.250   8.705   4.846
64325SOL    HW293002  11.172   8.665   4.708
64326SOL     OW93003  11.860   9.110   5.440
64326SOL    HW193004  11.804   9.191   5.449
64326SOL    HW293005  11.912   9.114   5.354
64327SOL     OW93006  12.898   7.583   4.247
64327SOL    HW193007  12.971   7.566   4.180
64327SOL    HW293008  12.867   7.496   4.285
64328SOL     OW93009  12.560   9.021   4.201
64328SOL    HW193010  12.627   9.033   4.127
64328SOL    HW293011  12.520   9.110   4.224
64329SOL     OW93012  11.302   9.242   5.575
64329SOL    HW193013  11.261   9.168   5.628
64329SOL    HW293014  11.366   9.293   5.633
64330SOL     OW93015  12.452   8.375   4.396
64330SOL    HW193016  12.512   8.294   4.398
64330SOL    HW293017  12.492   8.444   4.336
64331SOL     OW93018  12.002   8.721   5.146
64331SOL    HW193019  11.997   8.754   5.241
64331SOL    HW293020  11.916   8.740   5.100
64332SOL     OW93021  11.844   9.064   3.878
64332SOL    HW193022  11.853   9.074   3.779
64332SOL    HW293023  11.804   8.975   3.899
64333SOL     OW93024  11.435   7.774   4.444
64333SOL    HW193025  11.356   7.825   4.410
64333SOL    HW293026  11.426   7.759   4.542
64334SOL     OW93027  12.366   9.060   3.755
64334SOL    HW193028  12.372   8.967   3.792
64334SOL    HW293029  12.307   9.060   3.675
64335SOL     OW93030  11.994   8.450   5.096
64335SOL    HW193031  12.034   8.449   5.004
64335SOL    HW293032  12.004   8.542   5.136
64336SOL     OW93033  12.088   8.358   4.015
64336SOL    HW193034  12.151   8.396   3.947
64336SOL    HW293035  12.128   8.275   4.054
64337SOL     OW93036  11.544   8.736   5.214
64337SOL    HW193037  11.531   8.829   5.180
64337SOL    HW293038  11.460   8.684   5.201
64338SOL     OW93039  12.211   8.546   4.420
64338SOL    HW193040  12.141   8.499   4.474
64338SOL    HW293041  12.270   8.478   4.377
64339SOL     OW93042  12.186   7.684   4.695
64339SOL    HW193043  12.178   7.648   4.602
64339SOL    HW293044  12.184   7.608   4.760
64340SOL     OW93045  11.762   8.935   4.215
64340SOL    HW193046  11.804   8.877   4.145
64340SOL    HW293047  11.718   9.014   4.171
64341SOL     OW93048  11.427   8.796   4.014
64341SOL    HW193049  11.331   8.797   3.987
64341SOL    HW293050  11.439   8.849   4.098
64342SOL     OW93051  11.277   8.461   5.450
64342SOL    HW193052  11.200   8.428   5.504
64342SOL    HW293053  11.362   8.431   5.492
64343SOL     OW93054  11.844   7.651   5.213
64343SOL    HW193055  11.934   7.635   5.173
64343SOL    HW293056  11.852   7.656   5.312
64344SOL     OW93057  11.247   7.793   3.757
64344SOL    HW193058  11.155   7.765   3.728
64344SOL    HW293059  11.278   7.870   3.701
64345SOL     OW93060  12.612   8.304   5.122
64345SOL    HW193061  12.555   8.356   5.059
64345SOL    HW293062  12.708   8.316   5.098
64346SOL     OW93063  11.244   7.614   4.042
64346SOL    HW193064  11.227   7.697   3.988
64346SOL    HW293065  11.334   7.577   4.020
64347SOL     OW93066  12.355   8.783   3.843
64347SOL    HW193067  12.256   8.772   3.845
64347SOL    HW293068  12.389   8.798   3.936
64348SOL     OW93069  11.785   8.290   5.155
64348SOL    HW193070  11.841   8.371   5.138
64348SOL    HW293071  11.844   8.210   5.158
64349SOL     OW93072  11.888   8.013   5.432
64349SOL    HW193073  11.907   8.078   5.506
64349SOL    HW293074  11.948   7.933   5.441
64350SOL     OW93075  12.622   8.668   5.357
64350SOL    HW193076  12.613   8.658   5.456
64350SOL    HW293077  12.718   8.661   5.331
64351SOL     OW93078  11.562   9.189   5.284
64351SOL    HW193079  11.471   9.230   5.282
64351SOL    HW293080  11.555   9.095   5.316
64352SOL     OW93081  12.397   7.773   4.173
64352SOL    HW193082  12.462   7.699   4.162
64352SOL    HW293083  12.417   7.823   4.257
64353SOL     OW93084  11.766   8.193   4.376
64353SOL    HW193085  11.816   8.278   4.357
64353SOL    HW293086  11.678   8.195   4.328
64354SOL     OW93087  12.031   8.822   3.740
64354SOL    HW193088  11.985   8.837   3.828
64354SOL    HW293089  12.075   8.907   3.710
64355SOL     OW93090  11.833   9.238   4.677
64355SOL    HW193091  11.787   9.326   4.664
64355SOL    HW293092  11.932   9.250   4.670
64356SOL     OW93093  12.255   8.432   3.811
64356SOL    HW193094  12.232   8.485   3.729
64356SOL    HW293095  12.336   8.376   3.792
64357SOL     OW93096  11.393   8.762   5.568
64357SOL    HW193097  11.328   8.689   5.547
64357SOL    HW293098  11.397   8.776   5.666
64358SOL     OW93099  11.251   8.688   4.377
64358SOL    HW193100  11.250   8.641   4.465
64358SOL    HW293101  11.333   8.660   4.326
64359SOL     OW93102  11.844   8.839   5.348
64359SOL    HW193103  11.766   8.789   5.386
64359SOL    HW293104  11.841   8.934   5.379
64360SOL     OW93105  11.600   7.872   4.244
64360SOL    HW193106  11.630   7.800   4.182
64360SOL    HW293107  11.561   7.832   4.327
64361SOL     OW93108  12.877   8.935   4.828
64361SOL    HW193109  12.784   8.910   4.801
64361SOL    HW293110  12.903   8.885   4.910
64362SOL     OW93111  11.984   9.034   4.411
64362SOL    HW193112  12.016   9.044   4.317
64362SOL    HW293113  11.905   8.972   4.413
64363SOL     OW93114  12.596   7.662   4.836
64363SOL    HW193115  12.648   7.597   4.891
64363SOL    HW293116  12.547   7.725   4.897
64364SOL     OW93117  12.173   7.482   4.878
64364SOL    HW193118  12.110   7.410   4.847
64364SOL    HW293119  12.266   7.446   4.878
64365SOL     OW93120  11.942   8.778   4.025
64365SOL    HW193121  11.896   8.691   4.042
64365SOL    HW293122  12.033   8.775   4.066
64366SOL     OW93123  11.790   9.015   5.008
64366SOL    HW193124  11.785   9.097   5.065
64366SOL    HW293125  11.879   9.012   4.963
64367SOL     OW93126  12.524   7.500   3.892
64367SOL    HW193127  12.559   7.459   3.808
64367SOL    HW293128  12.434   7.462   3.912
64368SOL     OW93129  12.472   7.901   4.415
64368SOL    HW193130  12.413   7.981   4.419
64368SOL    HW293131  12.487   7.866   4.508
64369SOL     OW93132  11.211   8.525   4.024
64369SOL    HW193133  11.310   8.514   4.015
64369SOL    HW293134  11.171   8.439   4.056
64370SOL     OW93135  12.047   9.094   4.061
64370SOL    HW193136  11.970   9.059   4.007
64370SOL    HW293137  12.015   9.165   4.123
64371SOL     OW93138  11.402   8.076   5.699
64371SOL    HW193139  11.309   8.074   5.736
64371SOL    HW293140  11.403   8.037   5.607
64372SOL     OW93141  11.397   7.723   6.582
64372SOL    HW193142  11.432   7.706   6.674
64372SOL    HW293143  11.309   7.678   6.570
64373SOL     OW93144  11.191   7.816   6.233
64373SOL    HW193145  11.109   7.859   6.272
64373SOL    HW293146  11.163   7.743   6.170
64374SOL     OW93147  11.741   8.723   6.751
64374SOL    HW193148  11.648   8.716   6.714
64374SOL    HW293149  11.752   8.812   6.795
64375SOL     OW93150  12.727   8.959   6.289
64375SOL    HW193151  12.670   8.943   6.370
64375SOL    HW293152  12.668   8.969   6.209
64376SOL     OW93153  12.307   8.151   6.303
64376SOL    HW193154  12.364   8.229   6.278
64376SOL    HW293155  12.247   8.177   6.379
64377SOL     OW93156  11.940   8.592   6.609
64377SOL    HW193157  11.862   8.609   6.669
64377SOL    HW293158  11.974   8.679   6.573
64378SOL     OW93159  12.022   8.246   7.409
64378SOL    HW193160  12.018   8.322   7.474
64378SOL    HW293161  12.044   8.282   7.318
64379SOL     OW93162  11.857   8.460   6.251
64379SOL    HW193163  11.926   8.444   6.321
64379SOL    HW293164  11.784   8.517   6.289
64380SOL     OW93165  11.858   8.609   7.389
64380SOL    HW193166  11.918   8.688   7.403
64380SOL    HW293167  11.772   8.640   7.348
64381SOL     OW93168  11.507   8.883   6.647
64381SOL    HW193169  11.429   8.852   6.594
64381SOL    HW293170  11.565   8.941   6.590
64382SOL     OW93171  11.610   7.840   7.085
64382SOL    HW193172  11.692   7.784   7.094
64382SOL    HW293173  11.529   7.782   7.089
64383SOL     OW93174  11.403   9.161   6.069
64383SOL    HW193175  11.437   9.238   6.123
64383SOL    HW293176  11.447   9.161   5.979
64384SOL     OW93177  12.299   8.789   7.276
64384SOL    HW193178  12.346   8.789   7.364
64384SOL    HW293179  12.251   8.702   7.265
64385SOL     OW93180  11.402   8.882   6.124
64385SOL    HW193181  11.376   8.978   6.124
64385SOL    HW293182  11.331   8.828   6.169
64386SOL     OW93183  11.412   8.539   6.472
64386SOL    HW193184  11.426   8.455   6.524
64386SOL    HW293185  11.357   8.603   6.527
64387SOL     OW93186  11.792   9.234   7.025
64387SOL    HW193187  11.700   9.217   7.060
64387SOL    HW293188  11.820   9.326   7.051
64388SOL     OW93189  11.778   8.412   5.709
64388SOL    HW193190  11.785   8.496   5.655
64388SOL    HW293191  11.824   8.425   5.797
64389SOL     OW93192  11.294   8.091   6.149
64389SOL    HW193193  11.249   8.003   6.166
64389SOL    HW293194  11.293   8.145   6.233
64390SOL     OW93195  11.199   9.044   5.703
64390SOL    HW193196  11.180   8.948   5.724
64390SOL    HW293197  11.166   9.102   5.778
64391SOL     OW93198  12.861   8.370   6.198
64391SOL    HW193199  12.956   8.341   6.206
64391SOL    HW293200  12.853   8.435   6.123
64392SOL     OW93201  11.285   8.185   7.183
64392SOL    HW193202  11.373   8.172   7.228
64392SOL    HW293203  11.272   8.282   7.161
64393SOL     OW93204  11.785   8.813   6.312
64393SOL    HW193205  11.736   8.726   6.321
64393SOL    HW293206  11.762   8.856   6.225
64394SOL     OW93207  12.465   8.676   7.009
64394SOL    HW193208  12.502   8.603   6.951
64394SOL    HW293209  12.517   8.681   7.094
64395SOL     OW93210  11.981   7.452   6.088
64395SOL    HW193211  12.021   7.543   6.079
64395SOL    HW293212  11.881   7.460   6.094
64396SOL     OW93213  11.369   8.424   6.850
64396SOL    HW193214  11.458   8.379   6.836
64396SOL    HW293215  11.296   8.359   6.831
64397SOL     OW93216  12.359   9.240   7.202
64397SOL    HW193217  12.383   9.300   7.126
64397SOL    HW293218  12.366   9.145   7.172
64398SOL     OW93219  11.489   7.699   7.387
64398SOL    HW193220  11.560   7.770   7.393
64398SOL    HW293221  11.401   7.738   7.415
64399SOL     OW93222  12.638   8.865   6.539
64399SOL    HW193223  12.579   8.871   6.619
64399SOL    HW293224  12.623   8.777   6.493
64400SOL     OW93225  11.770   8.177   5.856
64400SOL    HW193226  11.794   8.246   5.788
64400SOL    HW293227  11.692   8.210   5.910
64401SOL     OW93228  12.453   7.793   6.530
64401SOL    HW193229  12.367   7.743   6.517
64401SOL    HW293230  12.515   7.739   6.586
64402SOL     OW93231  11.979   8.053   7.051
64402SOL    HW193232  11.932   8.050   7.140
64402SOL    HW293233  11.928   7.998   6.985
64403SOL     OW93234  12.566   7.917   7.260
64403SOL    HW193235  12.546   7.960   7.348
64403SOL    HW293236  12.644   7.855   7.269
64404SOL     OW93237  12.145   8.338   7.158
64404SOL    HW193238  12.191   8.254   7.129
64404SOL    HW293239  12.089   8.372   7.083
64405SOL     OW93240  12.163   7.858   6.828
64405SOL    HW193241  12.086   7.892   6.882
64405SOL    HW293242  12.129   7.807   6.749
64406SOL     OW93243  12.213   8.149   6.015
64406SOL    HW193244  12.239   8.145   6.111
64406SOL    HW293245  12.128   8.098   6.001
64407SOL     OW93246  11.248   8.259   6.375
64407SOL    HW193247  11.347   8.247   6.384
64407SOL    HW293248  11.224   8.354   6.396
64408SOL     OW93249  11.302   9.269   7.157
64408SOL    HW193250  11.292   9.254   7.256
64408SOL    HW293251  11.216   9.305   7.121
64409SOL     OW93252  12.037   7.796   5.781
64409SOL    HW193253  12.096   7.859   5.732
64409SOL    HW293254  12.056   7.702   5.752
64410SOL     OW93255  12.534   8.592   6.131
64410SOL    HW193256  12.617   8.563   6.083
64410SOL    HW293257  12.485   8.659   6.075
64411SOL     OW93258  11.722   7.644   6.471
64411SOL    HW193259  11.717   7.639   6.571
64411SOL    HW293260  11.724   7.740   6.442
64412SOL     OW93261  12.180   8.904   6.063
64412SOL    HW193262  12.134   8.976   6.011
64412SOL    HW293263  12.176   8.924   6.161
64413SOL     OW93264  11.523   9.249   6.439
64413SOL    HW193265  11.573   9.163   6.445
64413SOL    HW293266  11.588   9.326   6.436
64414SOL     OW93267  12.399   8.998   7.092
64414SOL    HW193268  12.405   8.921   7.156
64414SOL    HW293269  12.347   8.972   7.012
64415SOL     OW93270  11.493   8.391   5.828
64415SOL    HW193271  11.575   8.430   5.786
64415SOL    HW293272  11.466   8.309   5.779
64416SOL     OW93273  11.633   8.714   7.313
64416SOL    HW193274  11.583   8.715   7.227
64416SOL    HW293275  11.570   8.696   7.389
64417SOL     OW93276  12.283   9.224   5.823
64417SOL    HW193277  12.223   9.162   5.873
64417SOL    HW293278  12.314   9.180   5.738
64418SOL     OW93279  11.374   7.733   7.084
64418SOL    HW193280  11.294   7.793   7.071
64418SOL    HW293281  11.364   7.684   7.170
64419SOL     OW93282  11.636   9.191   5.909
64419SOL    HW193283  11.669   9.230   5.995
64419SOL    HW293284  11.712   9.184   5.844
64420SOL     OW93285  12.572   7.555   6.012
64420SOL    HW193286  12.548   7.518   5.922
64420SOL    HW293287  12.671   7.571   6.016
64421SOL     OW93288  11.421   9.233   6.827
64421SOL    HW193289  11.478   9.168   6.877
64421SOL    HW293290  11.405   9.200   6.734
64422SOL     OW93291  12.112   9.146   6.490
64422SOL    HW193292  12.192   9.089   6.511
64422SOL    HW293293  12.063   9.106   6.413
64423SOL     OW93294  11.554   8.148   6.066
64423SOL    HW193295  11.599   8.058   6.063
64423SOL    HW293296  11.460   8.137   6.099
64424SOL     OW93297  11.786   7.570   5.703
64424SOL    HW193298  11.884   7.548   5.710
64424SOL    HW293299  11.755   7.553   5.610
64425SOL     OW93300  11.953   7.712   7.335
64425SOL    HW193301  12.020   7.651   7.378
64425SOL    HW293302  11.880   7.731   7.400
64426SOL     OW93303  12.060   8.962   6.781
64426SOL    HW193304  12.037   8.937   6.687
64426SOL    HW293305  12.121   8.893   6.820
64427SOL     OW93306  12.523   8.038   7.019
64427SOL    HW193307  12.551   7.995   7.104
64427SOL    HW293308  12.548   8.134   7.020
64428SOL     OW93309  11.975   8.850   6.510
64428SOL    HW193310  12.065   8.864   6.468
64428SOL    HW293311  11.904   8.852   6.439
64429SOL     OW93312  12.094   7.951   6.485
64429SOL    HW193313  12.069   7.942   6.389
64429SOL    HW293314  12.142   7.869   6.516
64430SOL     OW93315  11.711   7.512   6.098
64430SOL    HW193316  11.630   7.513   6.156
64430SOL    HW293317  11.714   7.595   6.043
64431SOL     OW93318  12.606   8.636   5.627
64431SOL    HW193319  12.638   8.560   5.684
64431SOL    HW293320  12.514   8.663   5.657
64432SOL     OW93321  11.469   7.483   5.757
64432SOL    HW193322  11.518   7.567   5.736
64432SOL    HW293323  11.531   7.418   5.802
64433SOL     OW93324  12.107   7.684   6.066
64433SOL    HW193325  12.059   7.725   5.988
64433SOL    HW293326  12.206   7.682   6.047
64434SOL     OW93327  12.248   8.131   7.050
64434SOL    HW193328  12.168   8.070   7.053
64434SOL    HW293329  12.329   8.078   7.026
64435SOL     OW93330  12.399   9.018   6.379
64435SOL    HW193331  12.420   9.092   6.314
64435SOL    HW293332  12.467   9.018   6.452
64436SOL     OW93333  11.631   8.600   6.327
64436SOL    HW193334  11.560   8.573   6.392
64436SOL    HW293335  11.605   8.572   6.234
64437SOL     OW93336  12.443   9.245   6.177
64437SOL    HW193337  12.487   9.309   6.113
64437SOL    HW293338  12.393   9.297   6.247
64438SOL     OW93339  12.204   7.997   5.602
64438SOL    HW193340  12.163   8.079   5.563
64438SOL    HW293341  12.268   8.023   5.675
64439SOL     OW93342  11.250   8.004   6.972
64439SOL    HW193343  11.342   8.003   6.931
64439SOL    HW293344  11.244   8.078   7.039
64440SOL     OW93345  11.733   7.670   6.733
64440SOL    HW193346  11.771   7.586   6.770
64440SOL    HW293347  11.645   7.689   6.777
64441SOL     OW93348  12.038   7.902   6.228
64441SOL    HW193349  12.006   7.974   6.166
64441SOL    HW293350  12.062   7.821   6.175
64442SOL     OW93351  12.189   7.487   6.339
64442SOL    HW193352  12.117   7.492   6.270
64442SOL    HW293353  12.165   7.418   6.408
64443SOL     OW93354  12.601   8.621   6.453
64443SOL    HW193355  12.546   8.537   6.446
64443SOL    HW293356  12.627   8.650   6.361
64444SOL     OW93357  11.660   8.833   5.760
64444SOL    HW193358  11.573   8.818   5.807
64444SOL    HW293359  11.643   8.859   5.665
64445SOL     OW93360  12.562   8.023   5.664
64445SOL    HW193361  12.508   8.002   5.745
64445SOL    HW293362  12.653   7.982   5.673
64446SOL     OW93363  11.699   7.704   5.914
64446SOL    HW193364  11.726   7.645   5.839
64446SOL    HW293365  11.699   7.799   5.883
64447SOL     OW93366  12.236   8.795   6.926
64447SOL    HW193367  12.156   8.772   6.981
64447SOL    HW293368  12.319   8.769   6.975
64448SOL     OW93369  12.764   9.077   7.211
64448SOL    HW193370  12.791   9.111   7.121
64448SOL    HW293371  12.843   9.039   7.257
64449SOL     OW93372  12.283   8.643   6.686
64449SOL    HW193373  12.243   8.687   6.767
64449SOL    HW293374  12.242   8.680   6.603
64450SOL     OW93375  12.087   7.537   6.988
64450SOL    HW193376  12.112   7.517   6.893
64450SOL    HW293377  12.159   7.593   7.030
64451SOL     OW93378  12.152   8.564   7.305
64451SOL    HW193379  12.053   8.570   7.315
64451SOL    HW293380  12.175   8.484   7.249
64452SOL     OW93381  11.877   8.498   5.954
64452SOL    HW193382  11.863   8.505   6.053
64452SOL    HW293383  11.961   8.447   5.936
64453SOL     OW93384  11.582   8.261   6.837
64453SOL    HW193385  11.668   8.273   6.887
64453SOL    HW293386  11.540   8.174   6.864
64454SOL     OW93387  12.446   7.834   6.848
64454SOL    HW193388  12.467   7.908   6.912
64454SOL    HW293389  12.357   7.851   6.805
64455SOL     OW93390  11.236   9.012   6.917
64455SOL    HW193391  11.190   9.094   6.883
64455SOL    HW293392  11.334   9.031   6.926
64456SOL     OW93393  11.539   8.548   6.087
64456SOL    HW193394  11.532   8.631   6.031
64456SOL    HW293395  11.543   8.468   6.027
64457SOL     OW93396  11.738   7.985   6.451
64457SOL    HW193397  11.750   8.051   6.377
64457SOL    HW293398  11.784   8.019   6.534
64458SOL     OW93399  12.424   8.796   5.974
64458SOL    HW193400  12.474   8.873   6.014
64458SOL    HW293401  12.329   8.798   6.006
64459SOL     OW93402  12.444   8.893   6.728
64459SOL    HW193403  12.491   8.906   6.815
64459SOL    HW293404  12.378   8.819   6.737
64460SOL     OW93405  11.526   8.958   6.915
64460SOL    HW193406  11.505   8.914   6.828
64460SOL    HW293407  11.623   8.984   6.918
64461SOL     OW93408  12.185   7.553   7.356
64461SOL    HW193409  12.191   7.638   7.304
64461SOL    HW293410  12.217   7.477   7.299
64462SOL     OW93411  11.676   7.498   7.326
64462SOL    HW193412  11.634   7.441   7.256
64462SOL    HW293413  11.610   7.567   7.358
64463SOL     OW93414  11.745   8.318   6.615
64463SOL    HW193415  11.789   8.407   6.606
64463SOL    HW293416  11.682   8.318   6.692
64464SOL     OW93417  12.532   8.310   6.631
64464SOL    HW193418  12.457   8.310   6.565
64464SOL    HW293419  12.569   8.218   6.640
64465SOL     OW93420  12.381   7.973   5.861
64465SOL    HW193421  12.394   7.889   5.915
64465SOL    HW293422  12.352   8.047   5.921
64466SOL     OW93423  11.479   7.661   6.817
64466SOL    HW193424  11.456   7.698   6.907
64466SOL    HW293425  11.449   7.566   6.811
64467SOL     OW93426  11.209   8.758   6.868
64467SOL    HW193427  11.262   8.709   6.936
64467SOL    HW293428  11.231   8.856   6.873
64468SOL     OW93429  11.904   8.082   6.650
64468SOL    HW193430  11.963   8.056   6.574
64468SOL    HW293431  11.876   8.178   6.639
64469SOL     OW93432  11.479   7.511   6.204
64469SOL    HW193433  11.468   7.605   6.237
64469SOL    HW293434  11.474   7.448   6.281
64470SOL     OW93435  12.794   7.815   5.960
64470SOL    HW193436  12.796   7.739   6.024
64470SOL    HW293437  12.746   7.892   6.000
64471SOL     OW93438  12.195   8.214   6.552
64471SOL    HW193439  12.210   8.235   6.648
64471SOL    HW293440  12.165   8.119   6.543
64472SOL     OW93441  12.152   9.021   7.286
64472SOL    HW193442  12.132   9.065   7.198
64472SOL    HW293443  12.191   8.930   7.270
64473SOL     OW93444  11.522   8.346   7.390
64473SOL    HW193445  11.598   8.390   7.438
64473SOL    HW293446  11.557   8.299   7.308
64474SOL     OW93447  12.475   8.286   5.628
64474SOL    HW193448  12.509   8.193   5.643
64474SOL    HW293449  12.493   8.313   5.533
64475SOL     OW93450  12.240   8.781   6.435
64475SOL    HW193451  12.247   8.697   6.380
64475SOL    HW293452  12.302   8.850   6.399
64476SOL     OW93453  11.491   8.258   6.535
64476SOL    HW193454  11.584   8.294   6.540
64476SOL    HW293455  11.485   8.173   6.587
64477SOL     OW93456  11.511   7.957   6.592
64477SOL    HW193457  11.459   7.874   6.575
64477SOL    HW293458  11.588   7.962   6.528
64478SOL     OW93459  12.310   7.828   7.264
64478SOL    HW193460  12.265   7.891   7.328
64478SOL    HW293461  12.403   7.859   7.247
64479SOL     OW93462  12.332   7.655   7.063
64479SOL    HW193463  12.332   7.719   7.140
64479SOL    HW293464  12.360   7.703   6.980
64480SOL     OW93465  11.180   8.774   5.786
64480SOL    HW193466  11.087   8.795   5.755
64480SOL    HW293467  11.190   8.675   5.799
64481SOL     OW93468  11.260   9.249   6.513
64481SOL    HW193469  11.218   9.163   6.486
64481SOL    HW293470  11.354   9.252   6.479
64482SOL     OW93471  11.676   9.016   6.496
64482SOL    HW193472  11.742   9.090   6.505
64482SOL    HW293473  11.720   8.937   6.454
64483SOL     OW93474  12.174   8.244   6.824
64483SOL    HW193475  12.215   8.212   6.910
64483SOL    HW293476  12.078   8.217   6.821
64484SOL     OW93477  11.212   7.992   6.700
64484SOL    HW193478  11.297   7.959   6.659
64484SOL    HW293479  11.225   8.007   6.798
64485SOL     OW93480  11.361   7.968   7.308
64485SOL    HW193481  11.420   7.928   7.238
64485SOL    HW293482  11.303   8.039   7.267
64486SOL     OW93483  12.541   8.398   7.246
64486SOL    HW193484  12.580   8.487   7.266
64486SOL    HW293485  12.551   8.378   7.149
64487SOL     OW93486  11.987   8.020   5.911
64487SOL    HW193487  11.994   7.931   5.865
64487SOL    HW293488  11.893   8.054   5.903
64488SOL     OW93489  11.424   9.012   7.330
64488SOL    HW193490  11.394   9.069   7.406
64488SOL    HW293491  11.417   8.915   7.356
64489SOL     OW93492  11.843   7.912   6.855
64489SOL    HW193493  11.809   7.823   6.825
64489SOL    HW293494  11.869   7.966   6.775
64490SOL     OW93495  12.102   9.126   7.051
64490SOL    HW193496  12.078   9.108   6.956
64490SOL    HW293497  12.132   9.220   7.061
64491SOL     OW93498  11.645   7.948   5.777
64491SOL    HW193499  11.706   8.028   5.781
64491SOL    HW293500  11.550   7.979   5.784
64492SOL     OW93501  11.331   8.585   7.052
64492SOL    HW193502  11.353   8.524   7.128
64492SOL    HW293503  11.341   8.536   6.966
64493SOL     OW93504  12.519   8.507   6.820
64493SOL    HW193505  12.543   8.444   6.746
64493SOL    HW293506  12.429   8.547   6.802
64494SOL     OW93507  12.474   8.303   5.895
64494SOL    HW193508  12.388   8.272   5.937
64494SOL    HW293509  12.470   8.289   5.796
64495SOL     OW93510  12.424   9.179   6.714
64495SOL    HW193511  12.508   9.184   6.660
64495SOL    HW293512  12.401   9.083   6.732
64496SOL     OW93513  11.255   8.706   6.608
64496SOL    HW193514  11.250   8.705   6.708
64496SOL    HW293515  11.172   8.665   6.570
64497SOL     OW93516  11.860   9.110   7.302
64497SOL    HW193517  11.804   9.191   7.311
64497SOL    HW293518  11.912   9.114   7.216
64498SOL     OW93519  12.898   7.583   6.109
64498SOL    HW193520  12.971   7.566   6.042
64498SOL    HW293521  12.867   7.496   6.147
64499SOL     OW93522  12.560   9.021   6.063
64499SOL    HW193523  12.627   9.033   5.989
64499SOL    HW293524  12.520   9.110   6.086
64500SOL     OW93525  11.302   9.242   7.437
64500SOL    HW193526  11.261   9.168   7.490
64500SOL    HW293527  11.366   9.293   7.495
64501SOL     OW93528  12.452   8.375   6.258
64501SOL    HW193529  12.512   8.294   6.260
64501SOL    HW293530  12.492   8.444   6.198
64502SOL     OW93531  12.002   8.721   7.008
64502SOL    HW193532  11.997   8.754   7.103
64502SOL    HW293533  11.916   8.740   6.962
64503SOL     OW93534  11.844   9.064   5.740
64503SOL    HW193535  11.853   9.074   5.641
64503SOL    HW293536  11.804   8.975   5.761
64504SOL     OW93537  11.435   7.774   6.306
64504SOL    HW193538  11.356   7.825   6.272
64504SOL    HW293539  11.426   7.759   6.404
64505SOL     OW93540  12.366   9.060   5.617
64505SOL    HW193541  12.372   8.967   5.654
64505SOL    HW293542  12.307   9.060   5.537
64506SOL     OW93543  11.994   8.450   6.958
64506SOL    HW193544  12.034   8.449   6.866
64506SOL    HW293545  12.004   8.542   6.998
64507SOL     OW93546  12.088   8.358   5.877
64507SOL    HW193547  12.151   8.396   5.809
64507SOL    HW293548  12.128   8.275   5.916
64508SOL     OW93549  11.544   8.736   7.076
64508SOL    HW193550  11.531   8.829   7.042
64508SOL    HW293551  11.460   8.684   7.063
64509SOL     OW93552  12.211   8.546   6.282
64509SOL    HW193553  12.141   8.499   6.336
64509SOL    HW293554  12.270   8.478   6.239
64510SOL     OW93555  12.186   7.684   6.557
64510SOL    HW193556  12.178   7.648   6.464
64510SOL    HW293557  12.184   7.608   6.622
64511SOL     OW93558  11.762   8.935   6.077
64511SOL    HW193559  11.804   8.877   6.007
64511SOL    HW293560  11.718   9.014   6.033
64512SOL     OW93561  11.427   8.796   5.876
64512SOL    HW193562  11.331   8.797   5.849
64512SOL    HW293563  11.439   8.849   5.960
64513SOL     OW93564  11.277   8.461   7.312
64513SOL    HW193565  11.200   8.428   7.366
64513SOL    HW293566  11.362   8.431   7.354
64514SOL     OW93567  11.844   7.651   7.075
64514SOL    HW193568  11.934   7.635   7.035
64514SOL    HW293569  11.852   7.656   7.174
64515SOL     OW93570  11.247   7.793   5.619
64515SOL    HW193571  11.155   7.765   5.590
64515SOL    HW293572  11.278   7.870   5.563
64516SOL     OW93573  12.612   8.304   6.984
64516SOL    HW193574  12.555   8.356   6.921
64516SOL    HW293575  12.708   8.316   6.960
64517SOL     OW93576  11.244   7.614   5.904
64517SOL    HW193577  11.227   7.697   5.850
64517SOL    HW293578  11.334   7.577   5.882
64518SOL     OW93579  12.355   8.783   5.705
64518SOL    HW193580  12.256   8.772   5.707
64518SOL    HW293581  12.389   8.798   5.798
64519SOL     OW93582  11.785   8.290   7.017
64519SOL    HW193583  11.841   8.371   7.000
64519SOL    HW293584  11.844   8.210   7.020
64520SOL     OW93585  11.888   8.013   7.294
64520SOL    HW193586  11.907   8.078   7.368
64520SOL    HW293587  11.948   7.933   7.303
64521SOL     OW93588  12.622   8.668   7.219
64521SOL    HW193589  12.613   8.658   7.318
64521SOL    HW293590  12.718   8.661   7.193
64522SOL     OW93591  11.562   9.189   7.146
64522SOL    HW193592  11.471   9.230   7.144
64522SOL    HW293593  11.555   9.095   7.178
64523SOL     OW93594  12.397   7.773   6.035
64523SOL    HW193595  12.462   7.699   6.024
64523SOL    HW293596  12.417   7.823   6.119
64524SOL     OW93597  11.766   8.193   6.238
64524SOL    HW193598  11.816   8.278   6.219
64524SOL    HW293599  11.678   8.195   6.190
64525SOL     OW93600  12.031   8.822   5.602
64525SOL    HW193601  11.985   8.837   5.690
64525SOL    HW293602  12.075   8.907   5.572
64526SOL     OW93603  11.833   9.238   6.539
64526SOL    HW193604  11.787   9.326   6.526
64526SOL    HW293605  11.932   9.250   6.532
64527SOL     OW93606  12.031   8.404   6.447
64527SOL    HW193607  12.085   8.335   6.495
64527SOL    HW293608  11.999   8.473   6.513
64528SOL     OW93609  12.255   8.432   5.673
64528SOL    HW193610  12.232   8.485   5.591
64528SOL    HW293611  12.336   8.376   5.654
64529SOL     OW93612  11.393   8.762   7.430
64529SOL    HW193613  11.328   8.689   7.409
64529SOL    HW293614  11.397   8.776   7.528
64530SOL     OW93615  11.251   8.688   6.239
64530SOL    HW193616  11.250   8.641   6.327
64530SOL    HW293617  11.333   8.660   6.188
64531SOL     OW93618  11.844   8.839   7.210
64531SOL    HW193619  11.766   8.789   7.248
64531SOL    HW293620  11.841   8.934   7.241
64532SOL     OW93621  11.600   7.872   6.106
64532SOL    HW193622  11.630   7.800   6.044
64532SOL    HW293623  11.561   7.832   6.189
64533SOL     OW93624  12.877   8.935   6.690
64533SOL    HW193625  12.784   8.910   6.663
64533SOL    HW293626  12.903   8.885   6.772
64534SOL     OW93627  11.489   7.995   6.866
64534SOL    HW193628  11.527   7.936   6.938
64534SOL    HW293629  11.529   7.969   6.778
64535SOL     OW93630  11.984   9.034   6.273
64535SOL    HW193631  12.016   9.044   6.179
64535SOL    HW293632  11.905   8.972   6.275
64536SOL     OW93633  12.596   7.662   6.698
64536SOL    HW193634  12.648   7.597   6.753
64536SOL    HW293635  12.547   7.725   6.759
64537SOL     OW93636  12.173   7.482   6.740
64537SOL    HW193637  12.110   7.410   6.709
64537SOL    HW293638  12.266   7.446   6.740
64538SOL     OW93639  11.942   8.778   5.887
64538SOL    HW193640  11.896   8.691   5.904
64538SOL    HW293641  12.033   8.775   5.928
64539SOL     OW93642  11.790   9.015   6.870
64539SOL    HW193643  11.785   9.097   6.927
64539SOL    HW293644  11.879   9.012   6.825
64540SOL     OW93645  12.524   7.500   5.754
64540SOL    HW193646  12.559   7.459   5.670
64540SOL    HW293647  12.434   7.462   5.774
64541SOL     OW93648  12.472   7.901   6.277
64541SOL    HW193649  12.413   7.981   6.281
64541SOL    HW293650  12.487   7.866   6.370
64542SOL     OW93651  11.211   8.525   5.886
64542SOL    HW193652  11.310   8.514   5.877
64542SOL    HW293653  11.171   8.439   5.918
64543SOL     OW93654  12.047   9.094   5.923
64543SOL    HW193655  11.970   9.059   5.869
64543SOL    HW293656  12.015   9.165   5.985
64544SOL     OW93657  11.402   8.076   7.561
64544SOL    HW193658  11.309   8.074   7.598
64544SOL    HW293659  11.403   8.037   7.469
64545SOL     OW93660  11.397   7.723   8.444
64545SOL    HW193661  11.432   7.706   8.536
64545SOL    HW293662  11.309   7.678   8.432
64546SOL     OW93663  11.191   7.816   8.095
64546SOL    HW193664  11.109   7.859   8.134
64546SOL    HW293665  11.163   7.743   8.032
64547SOL     OW93666  11.741   8.723   8.613
64547SOL    HW193667  11.648   8.716   8.576
64547SOL    HW293668  11.752   8.812   8.657
64548SOL     OW93669  12.727   8.959   8.151
64548SOL    HW193670  12.670   8.943   8.232
64548SOL    HW293671  12.668   8.969   8.071
64549SOL     OW93672  12.307   8.151   8.165
64549SOL    HW193673  12.364   8.229   8.140
64549SOL    HW293674  12.247   8.177   8.241
64550SOL     OW93675  11.940   8.592   8.471
64550SOL    HW193676  11.862   8.609   8.531
64550SOL    HW293677  11.974   8.679   8.435
64551SOL     OW93678  12.022   8.246   9.271
64551SOL    HW193679  12.018   8.322   9.336
64551SOL    HW293680  12.044   8.282   9.180
64552SOL     OW93681  11.857   8.460   8.113
64552SOL    HW193682  11.926   8.444   8.183
64552SOL    HW293683  11.784   8.517   8.151
64553SOL     OW93684  11.858   8.609   9.251
64553SOL    HW193685  11.918   8.688   9.265
64553SOL    HW293686  11.772   8.640   9.210
64554SOL     OW93687  11.507   8.883   8.509
64554SOL    HW193688  11.429   8.852   8.456
64554SOL    HW293689  11.565   8.941   8.452
64555SOL     OW93690  11.610   7.840   8.947
64555SOL    HW193691  11.692   7.784   8.956
64555SOL    HW293692  11.529   7.782   8.951
64556SOL     OW93693  11.403   9.161   7.931
64556SOL    HW193694  11.437   9.238   7.985
64556SOL    HW293695  11.447   9.161   7.841
64557SOL     OW93696  12.299   8.789   9.138
64557SOL    HW193697  12.346   8.789   9.226
64557SOL    HW293698  12.251   8.702   9.127
64558SOL     OW93699  11.402   8.882   7.986
64558SOL    HW193700  11.376   8.978   7.986
64558SOL    HW293701  11.331   8.828   8.031
64559SOL     OW93702  11.412   8.539   8.334
64559SOL    HW193703  11.426   8.455   8.386
64559SOL    HW293704  11.357   8.603   8.389
64560SOL     OW93705  11.792   9.234   8.887
64560SOL    HW193706  11.700   9.217   8.922
64560SOL    HW293707  11.820   9.326   8.913
64561SOL     OW93708  11.778   8.412   7.571
64561SOL    HW193709  11.785   8.496   7.517
64561SOL    HW293710  11.824   8.425   7.659
64562SOL     OW93711  11.294   8.091   8.011
64562SOL    HW193712  11.249   8.003   8.028
64562SOL    HW293713  11.293   8.145   8.095
64563SOL     OW93714  11.199   9.044   7.565
64563SOL    HW193715  11.180   8.948   7.586
64563SOL    HW293716  11.166   9.102   7.640
64564SOL     OW93717  12.861   8.370   8.060
64564SOL    HW193718  12.956   8.341   8.068
64564SOL    HW293719  12.853   8.435   7.985
64565SOL     OW93720  11.285   8.185   9.045
64565SOL    HW193721  11.373   8.172   9.090
64565SOL    HW293722  11.272   8.282   9.023
64566SOL     OW93723  11.785   8.813   8.174
64566SOL    HW193724  11.736   8.726   8.183
64566SOL    HW293725  11.762   8.856   8.087
64567SOL     OW93726  12.465   8.676   8.871
64567SOL    HW193727  12.502   8.603   8.813
64567SOL    HW293728  12.517   8.681   8.956
64568SOL     OW93729  11.369   8.424   8.712
64568SOL    HW193730  11.458   8.379   8.698
64568SOL    HW293731  11.296   8.359   8.693
64569SOL     OW93732  12.359   9.240   9.064
64569SOL    HW193733  12.383   9.300   8.988
64569SOL    HW293734  12.366   9.145   9.034
64570SOL     OW93735  11.489   7.699   9.249
64570SOL    HW193736  11.560   7.770   9.255
64570SOL    HW293737  11.401   7.738   9.277
64571SOL     OW93738  12.638   8.865   8.401
64571SOL    HW193739  12.579   8.871   8.481
64571SOL    HW293740  12.623   8.777   8.355
64572SOL     OW93741  11.770   8.177   7.718
64572SOL    HW193742  11.794   8.246   7.650
64572SOL    HW293743  11.692   8.210   7.772
64573SOL     OW93744  12.453   7.793   8.392
64573SOL    HW193745  12.367   7.743   8.379
64573SOL    HW293746  12.515   7.739   8.448
64574SOL     OW93747  11.979   8.053   8.913
64574SOL    HW193748  11.932   8.050   9.002
64574SOL    HW293749  11.928   7.998   8.847
64575SOL     OW93750  12.566   7.917   9.122
64575SOL    HW193751  12.546   7.960   9.210
64575SOL    HW293752  12.644   7.855   9.131
64576SOL     OW93753  12.145   8.338   9.020
64576SOL    HW193754  12.191   8.254   8.991
64576SOL    HW293755  12.089   8.372   8.945
64577SOL     OW93756  12.163   7.858   8.690
64577SOL    HW193757  12.086   7.892   8.744
64577SOL    HW293758  12.129   7.807   8.611
64578SOL     OW93759  12.213   8.149   7.877
64578SOL    HW193760  12.239   8.145   7.973
64578SOL    HW293761  12.128   8.098   7.863
64579SOL     OW93762  11.248   8.259   8.237
64579SOL    HW193763  11.347   8.247   8.246
64579SOL    HW293764  11.224   8.354   8.258
64580SOL     OW93765  11.302   9.269   9.019
64580SOL    HW193766  11.292   9.254   9.118
64580SOL    HW293767  11.216   9.305   8.983
64581SOL     OW93768  12.037   7.796   7.643
64581SOL    HW193769  12.096   7.859   7.594
64581SOL    HW293770  12.056   7.702   7.614
64582SOL     OW93771  12.534   8.592   7.993
64582SOL    HW193772  12.617   8.563   7.945
64582SOL    HW293773  12.485   8.659   7.937
64583SOL     OW93774  11.722   7.644   8.333
64583SOL    HW193775  11.717   7.639   8.433
64583SOL    HW293776  11.724   7.740   8.304
64584SOL     OW93777  12.180   8.904   7.925
64584SOL    HW193778  12.134   8.976   7.873
64584SOL    HW293779  12.176   8.924   8.023
64585SOL     OW93780  11.523   9.249   8.301
64585SOL    HW193781  11.573   9.163   8.307
64585SOL    HW293782  11.588   9.326   8.298
64586SOL     OW93783  12.399   8.998   8.954
64586SOL    HW193784  12.405   8.921   9.018
64586SOL    HW293785  12.347   8.972   8.874
64587SOL     OW93786  11.493   8.391   7.690
64587SOL    HW193787  11.575   8.430   7.648
64587SOL    HW293788  11.466   8.309   7.641
64588SOL     OW93789  11.633   8.714   9.175
64588SOL    HW193790  11.583   8.715   9.089
64588SOL    HW293791  11.570   8.696   9.251
64589SOL     OW93792  12.283   9.224   7.685
64589SOL    HW193793  12.223   9.162   7.735
64589SOL    HW293794  12.314   9.180   7.600
64590SOL     OW93795  11.374   7.733   8.946
64590SOL    HW193796  11.294   7.793   8.933
64590SOL    HW293797  11.364   7.684   9.032
64591SOL     OW93798  11.636   9.191   7.771
64591SOL    HW193799  11.669   9.230   7.857
64591SOL    HW293800  11.712   9.184   7.706
64592SOL     OW93801  12.572   7.555   7.874
64592SOL    HW193802  12.548   7.518   7.784
64592SOL    HW293803  12.671   7.571   7.878
64593SOL     OW93804  11.421   9.233   8.689
64593SOL    HW193805  11.478   9.168   8.739
64593SOL    HW293806  11.405   9.200   8.596
64594SOL     OW93807  12.112   9.146   8.352
64594SOL    HW193808  12.192   9.089   8.373
64594SOL    HW293809  12.063   9.106   8.275
64595SOL     OW93810  11.554   8.148   7.928
64595SOL    HW193811  11.599   8.058   7.925
64595SOL    HW293812  11.460   8.137   7.961
64596SOL     OW93813  11.786   7.570   7.565
64596SOL    HW193814  11.884   7.548   7.572
64596SOL    HW293815  11.755   7.553   7.472
64597SOL     OW93816  11.953   7.712   9.197
64597SOL    HW193817  12.020   7.651   9.240
64597SOL    HW293818  11.880   7.731   9.262
64598SOL     OW93819  12.060   8.962   8.643
64598SOL    HW193820  12.037   8.937   8.549
64598SOL    HW293821  12.121   8.893   8.682
64599SOL     OW93822  12.523   8.038   8.881
64599SOL    HW193823  12.551   7.995   8.966
64599SOL    HW293824  12.548   8.134   8.882
64600SOL     OW93825  11.975   8.850   8.372
64600SOL    HW193826  12.065   8.864   8.330
64600SOL    HW293827  11.904   8.852   8.301
64601SOL     OW93828  12.094   7.951   8.347
64601SOL    HW193829  12.069   7.942   8.251
64601SOL    HW293830  12.142   7.869   8.378
64602SOL     OW93831  11.711   7.512   7.960
64602SOL    HW193832  11.630   7.513   8.018
64602SOL    HW293833  11.714   7.595   7.905
64603SOL     OW93834  12.606   8.636   7.489
64603SOL    HW193835  12.638   8.560   7.546
64603SOL    HW293836  12.514   8.663   7.519
64604SOL     OW93837  11.469   7.483   7.619
64604SOL    HW193838  11.518   7.567   7.598
64604SOL    HW293839  11.531   7.418   7.664
64605SOL     OW93840  12.107   7.684   7.928
64605SOL    HW193841  12.059   7.725   7.850
64605SOL    HW293842  12.206   7.682   7.909
64606SOL     OW93843  12.248   8.131   8.912
64606SOL    HW193844  12.168   8.070   8.915
64606SOL    HW293845  12.329   8.078   8.888
64607SOL     OW93846  12.399   9.018   8.241
64607SOL    HW193847  12.420   9.092   8.176
64607SOL    HW293848  12.467   9.018   8.314
64608SOL     OW93849  11.631   8.600   8.189
64608SOL    HW193850  11.560   8.573   8.254
64608SOL    HW293851  11.605   8.572   8.096
64609SOL     OW93852  12.443   9.245   8.039
64609SOL    HW193853  12.487   9.309   7.975
64609SOL    HW293854  12.393   9.297   8.109
64610SOL     OW93855  12.204   7.997   7.464
64610SOL    HW193856  12.163   8.079   7.425
64610SOL    HW293857  12.268   8.023   7.537
64611SOL     OW93858  11.250   8.004   8.834
64611SOL    HW193859  11.342   8.003   8.793
64611SOL    HW293860  11.244   8.078   8.901
64612SOL     OW93861  11.733   7.670   8.595
64612SOL    HW193862  11.771   7.586   8.632
64612SOL    HW293863  11.645   7.689   8.639
64613SOL     OW93864  12.038   7.902   8.090
64613SOL    HW193865  12.006   7.974   8.028
64613SOL    HW293866  12.062   7.821   8.037
64614SOL     OW93867  12.189   7.487   8.201
64614SOL    HW193868  12.117   7.492   8.132
64614SOL    HW293869  12.165   7.418   8.270
64615SOL     OW93870  12.601   8.621   8.315
64615SOL    HW193871  12.546   8.537   8.308
64615SOL    HW293872  12.627   8.650   8.223
64616SOL     OW93873  11.660   8.833   7.622
64616SOL    HW193874  11.573   8.818   7.669
64616SOL    HW293875  11.643   8.859   7.527
64617SOL     OW93876  12.562   8.023   7.526
64617SOL    HW193877  12.508   8.002   7.607
64617SOL    HW293878  12.653   7.982   7.535
64618SOL     OW93879  11.699   7.704   7.776
64618SOL    HW193880  11.726   7.645   7.701
64618SOL    HW293881  11.699   7.799   7.745
64619SOL     OW93882  12.236   8.795   8.788
64619SOL    HW193883  12.156   8.772   8.843
64619SOL    HW293884  12.319   8.769   8.837
64620SOL     OW93885  12.764   9.077   9.073
64620SOL    HW193886  12.791   9.111   8.983
64620SOL    HW293887  12.843   9.039   9.119
64621SOL     OW93888  12.283   8.643   8.548
64621SOL    HW193889  12.243   8.687   8.629
64621SOL    HW293890  12.242   8.680   8.465
64622SOL     OW93891  12.087   7.537   8.850
64622SOL    HW193892  12.112   7.517   8.755
64622SOL    HW293893  12.159   7.593   8.892
64623SOL     OW93894  12.152   8.564   9.167
64623SOL    HW193895  12.053   8.570   9.177
64623SOL    HW293896  12.175   8.484   9.111
64624SOL     OW93897  11.877   8.498   7.816
64624SOL    HW193898  11.863   8.505   7.915
64624SOL    HW293899  11.961   8.447   7.798
64625SOL     OW93900  11.582   8.261   8.699
64625SOL    HW193901  11.668   8.273   8.749
64625SOL    HW293902  11.540   8.174   8.726
64626SOL     OW93903  12.446   7.834   8.710
64626SOL    HW193904  12.467   7.908   8.774
64626SOL    HW293905  12.357   7.851   8.667
64627SOL     OW93906  11.236   9.012   8.779
64627SOL    HW193907  11.190   9.094   8.745
64627SOL    HW293908  11.334   9.031   8.788
64628SOL     OW93909  11.539   8.548   7.949
64628SOL    HW193910  11.532   8.631   7.893
64628SOL    HW293911  11.543   8.468   7.889
64629SOL     OW93912  11.738   7.985   8.313
64629SOL    HW193913  11.750   8.051   8.239
64629SOL    HW293914  11.784   8.019   8.396
64630SOL     OW93915  12.424   8.796   7.836
64630SOL    HW193916  12.474   8.873   7.876
64630SOL    HW293917  12.329   8.798   7.868
64631SOL     OW93918  12.444   8.893   8.590
64631SOL    HW193919  12.491   8.906   8.677
64631SOL    HW293920  12.378   8.819   8.599
64632SOL     OW93921  11.526   8.958   8.777
64632SOL    HW193922  11.505   8.914   8.690
64632SOL    HW293923  11.623   8.984   8.780
64633SOL     OW93924  11.574   8.199   9.046
64633SOL    HW193925  11.642   8.254   8.999
64633SOL    HW293926  11.614   8.111   9.073
64634SOL     OW93927  12.185   7.553   9.218
64634SOL    HW193928  12.191   7.638   9.166
64634SOL    HW293929  12.217   7.477   9.161
64635SOL     OW93930  11.676   7.498   9.188
64635SOL    HW193931  11.634   7.441   9.118
64635SOL    HW293932  11.610   7.567   9.220
64636SOL     OW93933  11.745   8.318   8.477
64636SOL    HW193934  11.789   8.407   8.468
64636SOL    HW293935  11.682   8.318   8.554
64637SOL     OW93936  12.532   8.310   8.493
64637SOL    HW193937  12.457   8.310   8.427
64637SOL    HW293938  12.569   8.218   8.502
64638SOL     OW93939  12.381   7.973   7.723
64638SOL    HW193940  12.394   7.889   7.777
64638SOL    HW293941  12.352   8.047   7.783
64639SOL     OW93942  11.479   7.661   8.679
64639SOL    HW193943  11.456   7.698   8.769
64639SOL    HW293944  11.449   7.566   8.673
64640SOL     OW93945  11.209   8.758   8.730
64640SOL    HW193946  11.262   8.709   8.798
64640SOL    HW293947  11.231   8.856   8.735
64641SOL     OW93948  11.904   8.082   8.512
64641SOL    HW193949  11.963   8.056   8.436
64641SOL    HW293950  11.876   8.178   8.501
64642SOL     OW93951  11.479   7.511   8.066
64642SOL    HW193952  11.468   7.605   8.099
64642SOL    HW293953  11.474   7.448   8.143
64643SOL     OW93954  12.794   7.815   7.822
64643SOL    HW193955  12.796   7.739   7.886
64643SOL    HW293956  12.746   7.892   7.862
64644SOL     OW93957  12.195   8.214   8.414
64644SOL    HW193958  12.210   8.235   8.510
64644SOL    HW293959  12.165   8.119   8.405
64645SOL     OW93960  12.152   9.021   9.148
64645SOL    HW193961  12.132   9.065   9.060
64645SOL    HW293962  12.191   8.930   9.132
64646SOL     OW93963  11.522   8.346   9.252
64646SOL    HW193964  11.598   8.390   9.300
64646SOL    HW293965  11.557   8.299   9.170
64647SOL     OW93966  12.475   8.286   7.490
64647SOL    HW193967  12.509   8.193   7.505
64647SOL    HW293968  12.493   8.313   7.395
64648SOL     OW93969  12.240   8.781   8.297
64648SOL    HW193970  12.247   8.697   8.242
64648SOL    HW293971  12.302   8.850   8.261
64649SOL     OW93972  11.491   8.258   8.397
64649SOL    HW193973  11.584   8.294   8.402
64649SOL    HW293974  11.485   8.173   8.449
64650SOL     OW93975  11.511   7.957   8.454
64650SOL    HW193976  11.459   7.874   8.437
64650SOL    HW293977  11.588   7.962   8.390
64651SOL     OW93978  12.310   7.828   9.126
64651SOL    HW193979  12.265   7.891   9.190
64651SOL    HW293980  12.403   7.859   9.109
64652SOL     OW93981  12.332   7.655   8.925
64652SOL    HW193982  12.332   7.719   9.002
64652SOL    HW293983  12.360   7.703   8.842
64653SOL     OW93984  11.180   8.774   7.648
64653SOL    HW193985  11.087   8.795   7.617
64653SOL    HW293986  11.190   8.675   7.661
64654SOL     OW93987  11.260   9.249   8.375
64654SOL    HW193988  11.218   9.163   8.348
64654SOL    HW293989  11.354   9.252   8.341
64655SOL     OW93990  11.676   9.016   8.358
64655SOL    HW193991  11.742   9.090   8.367
64655SOL    HW293992  11.720   8.937   8.316
64656SOL     OW93993  12.174   8.244   8.686
64656SOL    HW193994  12.215   8.212   8.772
64656SOL    HW293995  12.078   8.217   8.683
64657SOL     OW93996  11.212   7.992   8.562
64657SOL    HW193997  11.297   7.959   8.521
64657SOL    HW293998  11.225   8.007   8.660
64658SOL     OW93999  11.361   7.968   9.170
64658SOL    HW194000  11.420   7.928   9.100
64658SOL    HW294001  11.303   8.039   9.129
64659SOL     OW94002  12.541   8.398   9.108
64659SOL    HW194003  12.580   8.487   9.128
64659SOL    HW294004  12.551   8.378   9.011
64660SOL     OW94005  11.987   8.020   7.773
64660SOL    HW194006  11.994   7.931   7.727
64660SOL    HW294007  11.893   8.054   7.765
64661SOL     OW94008  11.424   9.012   9.192
64661SOL    HW194009  11.394   9.069   9.268
64661SOL    HW294010  11.417   8.915   9.218
64662SOL     OW94011  11.843   7.912   8.717
64662SOL    HW194012  11.809   7.823   8.687
64662SOL    HW294013  11.869   7.966   8.637
64663SOL     OW94014  12.102   9.126   8.913
64663SOL    HW194015  12.078   9.108   8.818
64663SOL    HW294016  12.132   9.220   8.923
64664SOL     OW94017  11.645   7.948   7.639
64664SOL    HW194018  11.706   8.028   7.643
64664SOL    HW294019  11.550   7.979   7.646
64665SOL     OW94020  11.331   8.585   8.914
64665SOL    HW194021  11.353   8.524   8.990
64665SOL    HW294022  11.341   8.536   8.828
64666SOL     OW94023  12.519   8.507   8.682
64666SOL    HW194024  12.543   8.444   8.608
64666SOL    HW294025  12.429   8.547   8.664
64667SOL     OW94026  12.474   8.303   7.757
64667SOL    HW194027  12.388   8.272   7.799
64667SOL    HW294028  12.470   8.289   7.658
64668SOL     OW94029  12.424   9.179   8.576
64668SOL    HW194030  12.508   9.184   8.522
64668SOL    HW294031  12.401   9.083   8.594
64669SOL     OW94032  11.255   8.706   8.470
64669SOL    HW194033  11.250   8.705   8.570
64669SOL    HW294034  11.172   8.665   8.432
64670SOL     OW94035  11.860   9.110   9.164
64670SOL    HW194036  11.804   9.191   9.173
64670SOL    HW294037  11.912   9.114   9.078
64671SOL     OW94038  12.898   7.583   7.971
64671SOL    HW194039  12.971   7.566   7.904
64671SOL    HW294040  12.867   7.496   8.009
64672SOL     OW94041  12.560   9.021   7.925
64672SOL    HW194042  12.627   9.033   7.851
64672SOL    HW294043  12.520   9.110   7.948
64673SOL     OW94044  11.302   9.242   9.299
64673SOL    HW194045  11.261   9.168   9.352
64673SOL    HW294046  11.366   9.293   9.357
64674SOL     OW94047  12.452   8.375   8.120
64674SOL    HW194048  12.512   8.294   8.122
64674SOL    HW294049  12.492   8.444   8.060
64675SOL     OW94050  12.002   8.721   8.870
64675SOL    HW194051  11.997   8.754   8.965
64675SOL    HW294052  11.916   8.740   8.824
64676SOL     OW94053  11.844   9.064   7.602
64676SOL    HW194054  11.853   9.074   7.503
64676SOL    HW294055  11.804   8.975   7.623
64677SOL     OW94056  11.435   7.774   8.168
64677SOL    HW194057  11.356   7.825   8.134
64677SOL    HW294058  11.426   7.759   8.266
64678SOL     OW94059  12.366   9.060   7.479
64678SOL    HW194060  12.372   8.967   7.516
64678SOL    HW294061  12.307   9.060   7.399
64679SOL     OW94062  11.994   8.450   8.820
64679SOL    HW194063  12.034   8.449   8.728
64679SOL    HW294064  12.004   8.542   8.860
64680SOL     OW94065  12.088   8.358   7.739
64680SOL    HW194066  12.151   8.396   7.671
64680SOL    HW294067  12.128   8.275   7.778
64681SOL     OW94068  11.544   8.736   8.938
64681SOL    HW194069  11.531   8.829   8.904
64681SOL    HW294070  11.460   8.684   8.925
64682SOL     OW94071  12.211   8.546   8.144
64682SOL    HW194072  12.141   8.499   8.198
64682SOL    HW294073  12.270   8.478   8.101
64683SOL     OW94074  12.186   7.684   8.419
64683SOL    HW194075  12.178   7.648   8.326
64683SOL    HW294076  12.184   7.608   8.484
64684SOL     OW94077  11.762   8.935   7.939
64684SOL    HW194078  11.804   8.877   7.869
64684SOL    HW294079  11.718   9.014   7.895
64685SOL     OW94080  11.427   8.796   7.738
64685SOL    HW194081  11.331   8.797   7.711
64685SOL    HW294082  11.439   8.849   7.822
64686SOL     OW94083  11.277   8.461   9.174
64686SOL    HW194084  11.200   8.428   9.228
64686SOL    HW294085  11.362   8.431   9.216
64687SOL     OW94086  11.844   7.651   8.937
64687SOL    HW194087  11.934   7.635   8.897
64687SOL    HW294088  11.852   7.656   9.036
64688SOL     OW94089  11.247   7.793   7.481
64688SOL    HW194090  11.155   7.765   7.452
64688SOL    HW294091  11.278   7.870   7.425
64689SOL     OW94092  12.612   8.304   8.846
64689SOL    HW194093  12.555   8.356   8.783
64689SOL    HW294094  12.708   8.316   8.822
64690SOL     OW94095  12.355   8.783   7.567
64690SOL    HW194096  12.256   8.772   7.569
64690SOL    HW294097  12.389   8.798   7.660
64691SOL     OW94098  11.785   8.290   8.879
64691SOL    HW194099  11.841   8.371   8.862
64691SOL    HW294100  11.844   8.210   8.882
64692SOL     OW94101  11.888   8.013   9.156
64692SOL    HW194102  11.907   8.078   9.230
64692SOL    HW294103  11.948   7.933   9.165
64693SOL     OW94104  12.622   8.668   9.081
64693SOL    HW194105  12.613   8.658   9.180
64693SOL    HW294106  12.718   8.661   9.055
64694SOL     OW94107  11.562   9.189   9.008
64694SOL    HW194108  11.471   9.230   9.006
64694SOL    HW294109  11.555   9.095   9.040
64695SOL     OW94110  12.397   7.773   7.897
64695SOL    HW194111  12.462   7.699   7.886
64695SOL    HW294112  12.417   7.823   7.981
64696SOL     OW94113  11.766   8.193   8.100
64696SOL    HW194114  11.816   8.278   8.081
64696SOL    HW294115  11.678   8.195   8.052
64697SOL     OW94116  12.031   8.822   7.464
64697SOL    HW194117  11.985   8.837   7.552
64697SOL    HW294118  12.075   8.907   7.434
64698SOL     OW94119  11.833   9.238   8.401
64698SOL    HW194120  11.787   9.326   8.388
64698SOL    HW294121  11.932   9.250   8.394
64699SOL     OW94122  12.031   8.404   8.309
64699SOL    HW194123  12.085   8.335   8.357
64699SOL    HW294124  11.999   8.473   8.375
64700SOL     OW94125  12.255   8.432   7.535
64700SOL    HW194126  12.232   8.485   7.453
64700SOL    HW294127  12.336   8.376   7.516
64701SOL     OW94128  11.393   8.762   9.292
64701SOL    HW194129  11.328   8.689   9.271
64701SOL    HW294130  11.397   8.776   9.390
64702SOL     OW94131  11.251   8.688   8.101
64702SOL    HW194132  11.250   8.641   8.189
64702SOL    HW294133  11.333   8.660   8.050
64703SOL     OW94134  11.844   8.839   9.072
64703SOL    HW194135  11.766   8.789   9.110
64703SOL    HW294136  11.841   8.934   9.103
64704SOL     OW94137  11.600   7.872   7.968
64704SOL    HW194138  11.630   7.800   7.906
64704SOL    HW294139  11.561   7.832   8.051
64705SOL     OW94140  12.877   8.935   8.552
64705SOL    HW194141  12.784   8.910   8.525
64705SOL    HW294142  12.903   8.885   8.634
64706SOL     OW94143  11.489   7.995   8.728
64706SOL    HW194144  11.527   7.936   8.800
64706SOL    HW294145  11.529   7.969   8.640
64707SOL     OW94146  11.984   9.034   8.135
64707SOL    HW194147  12.016   9.044   8.041
64707SOL    HW294148  11.905   8.972   8.137
64708SOL     OW94149  12.596   7.662   8.560
64708SOL    HW194150  12.648   7.597   8.615
64708SOL    HW294151  12.547   7.725   8.621
64709SOL     OW94152  12.173   7.482   8.602
64709SOL    HW194153  12.110   7.410   8.571
64709SOL    HW294154  12.266   7.446   8.602
64710SOL     OW94155  11.942   8.778   7.749
64710SOL    HW194156  11.896   8.691   7.766
64710SOL    HW294157  12.033   8.775   7.790
64711SOL     OW94158  11.790   9.015   8.732
64711SOL    HW194159  11.785   9.097   8.789
64711SOL    HW294160  11.879   9.012   8.687
64712SOL     OW94161  12.524   7.500   7.616
64712SOL    HW194162  12.559   7.459   7.532
64712SOL    HW294163  12.434   7.462   7.636
64713SOL     OW94164  12.472   7.901   8.139
64713SOL    HW194165  12.413   7.981   8.143
64713SOL    HW294166  12.487   7.866   8.232
64714SOL     OW94167  11.211   8.525   7.748
64714SOL    HW194168  11.310   8.514   7.739
64714SOL    HW294169  11.171   8.439   7.780
64715SOL     OW94170  12.047   9.094   7.785
64715SOL    HW194171  11.970   9.059   7.731
64715SOL    HW294172  12.015   9.165   7.847
64716SOL     OW94173  11.402   8.076   9.423
64716SOL    HW194174  11.309   8.074   9.460
64716SOL    HW294175  11.403   8.037   9.331
64717SOL     OW94176  11.397   7.723  10.306
64717SOL    HW194177  11.432   7.706  10.398
64717SOL    HW294178  11.309   7.678  10.294
64718SOL     OW94179  11.191   7.816   9.957
64718SOL    HW194180  11.109   7.859   9.996
64718SOL    HW294181  11.163   7.743   9.894
64719SOL     OW94182  11.741   8.723  10.475
64719SOL    HW194183  11.648   8.716  10.438
64719SOL    HW294184  11.752   8.812  10.519
64720SOL     OW94185  12.727   8.959  10.013
64720SOL    HW194186  12.670   8.943  10.094
64720SOL    HW294187  12.668   8.969   9.933
64721SOL     OW94188  12.307   8.151  10.027
64721SOL    HW194189  12.364   8.229  10.002
64721SOL    HW294190  12.247   8.177  10.103
64722SOL     OW94191  11.940   8.592  10.333
64722SOL    HW194192  11.862   8.609  10.393
64722SOL    HW294193  11.974   8.679  10.297
64723SOL     OW94194  12.022   8.246  11.133
64723SOL    HW194195  12.018   8.322  11.198
64723SOL    HW294196  12.044   8.282  11.042
64724SOL     OW94197  11.857   8.460   9.975
64724SOL    HW194198  11.926   8.444  10.045
64724SOL    HW294199  11.784   8.517  10.013
64725SOL     OW94200  11.858   8.609  11.113
64725SOL    HW194201  11.918   8.688  11.127
64725SOL    HW294202  11.772   8.640  11.072
64726SOL     OW94203  11.507   8.883  10.371
64726SOL    HW194204  11.429   8.852  10.318
64726SOL    HW294205  11.565   8.941  10.314
64727SOL     OW94206  11.610   7.840  10.809
64727SOL    HW194207  11.692   7.784  10.818
64727SOL    HW294208  11.529   7.782  10.813
64728SOL     OW94209  11.403   9.161   9.793
64728SOL    HW194210  11.437   9.238   9.847
64728SOL    HW294211  11.447   9.161   9.703
64729SOL     OW94212  12.299   8.789  11.000
64729SOL    HW194213  12.346   8.789  11.088
64729SOL    HW294214  12.251   8.702  10.989
64730SOL     OW94215  11.402   8.882   9.848
64730SOL    HW194216  11.376   8.978   9.848
64730SOL    HW294217  11.331   8.828   9.893
64731SOL     OW94218  11.412   8.539  10.196
64731SOL    HW194219  11.426   8.455  10.248
64731SOL    HW294220  11.357   8.603  10.251
64732SOL     OW94221  11.792   9.234  10.749
64732SOL    HW194222  11.700   9.217  10.784
64732SOL    HW294223  11.820   9.326  10.775
64733SOL     OW94224  11.778   8.412   9.433
64733SOL    HW194225  11.785   8.496   9.379
64733SOL    HW294226  11.824   8.425   9.521
64734SOL     OW94227  11.294   8.091   9.873
64734SOL    HW194228  11.249   8.003   9.890
64734SOL    HW294229  11.293   8.145   9.957
64735SOL     OW94230  11.199   9.044   9.427
64735SOL    HW194231  11.180   8.948   9.448
64735SOL    HW294232  11.166   9.102   9.502
64736SOL     OW94233  12.861   8.370   9.922
64736SOL    HW194234  12.956   8.341   9.930
64736SOL    HW294235  12.853   8.435   9.847
64737SOL     OW94236  11.285   8.185  10.907
64737SOL    HW194237  11.373   8.172  10.952
64737SOL    HW294238  11.272   8.282  10.885
64738SOL     OW94239  11.785   8.813  10.036
64738SOL    HW194240  11.736   8.726  10.045
64738SOL    HW294241  11.762   8.856   9.949
64739SOL     OW94242  12.465   8.676  10.733
64739SOL    HW194243  12.502   8.603  10.675
64739SOL    HW294244  12.517   8.681  10.818
64740SOL     OW94245  11.981   7.452   9.812
64740SOL    HW194246  12.021   7.543   9.803
64740SOL    HW294247  11.881   7.460   9.818
64741SOL     OW94248  11.369   8.424  10.574
64741SOL    HW194249  11.458   8.379  10.560
64741SOL    HW294250  11.296   8.359  10.555
64742SOL     OW94251  12.359   9.240  10.926
64742SOL    HW194252  12.383   9.300  10.850
64742SOL    HW294253  12.366   9.145  10.896
64743SOL     OW94254  11.489   7.699  11.111
64743SOL    HW194255  11.560   7.770  11.117
64743SOL    HW294256  11.401   7.738  11.139
64744SOL     OW94257  12.638   8.865  10.263
64744SOL    HW194258  12.579   8.871  10.343
64744SOL    HW294259  12.623   8.777  10.217
64745SOL     OW94260  11.770   8.177   9.580
64745SOL    HW194261  11.794   8.246   9.512
64745SOL    HW294262  11.692   8.210   9.634
64746SOL     OW94263  12.453   7.793  10.254
64746SOL    HW194264  12.367   7.743  10.241
64746SOL    HW294265  12.515   7.739  10.310
64747SOL     OW94266  11.979   8.053  10.775
64747SOL    HW194267  11.932   8.050  10.864
64747SOL    HW294268  11.928   7.998  10.709
64748SOL     OW94269  12.566   7.917  10.984
64748SOL    HW194270  12.546   7.960  11.072
64748SOL    HW294271  12.644   7.855  10.993
64749SOL     OW94272  12.145   8.338  10.882
64749SOL    HW194273  12.191   8.254  10.853
64749SOL    HW294274  12.089   8.372  10.807
64750SOL     OW94275  12.163   7.858  10.552
64750SOL    HW194276  12.086   7.892  10.606
64750SOL    HW294277  12.129   7.807  10.473
64751SOL     OW94278  12.213   8.149   9.739
64751SOL    HW194279  12.239   8.145   9.835
64751SOL    HW294280  12.128   8.098   9.725
64752SOL     OW94281  11.248   8.259  10.099
64752SOL    HW194282  11.347   8.247  10.108
64752SOL    HW294283  11.224   8.354  10.120
64753SOL     OW94284  11.302   9.269  10.881
64753SOL    HW194285  11.292   9.254  10.980
64753SOL    HW294286  11.216   9.305  10.845
64754SOL     OW94287  12.037   7.796   9.505
64754SOL    HW194288  12.096   7.859   9.456
64754SOL    HW294289  12.056   7.702   9.476
64755SOL     OW94290  12.534   8.592   9.855
64755SOL    HW194291  12.617   8.563   9.807
64755SOL    HW294292  12.485   8.659   9.799
64756SOL     OW94293  11.722   7.644  10.195
64756SOL    HW194294  11.717   7.639  10.295
64756SOL    HW294295  11.724   7.740  10.166
64757SOL     OW94296  12.180   8.904   9.787
64757SOL    HW194297  12.134   8.976   9.735
64757SOL    HW294298  12.176   8.924   9.885
64758SOL     OW94299  11.523   9.249  10.163
64758SOL    HW194300  11.573   9.163  10.169
64758SOL    HW294301  11.588   9.326  10.160
64759SOL     OW94302  12.399   8.998  10.816
64759SOL    HW194303  12.405   8.921  10.880
64759SOL    HW294304  12.347   8.972  10.736
64760SOL     OW94305  11.493   8.391   9.552
64760SOL    HW194306  11.575   8.430   9.510
64760SOL    HW294307  11.466   8.309   9.503
64761SOL     OW94308  11.633   8.714  11.037
64761SOL    HW194309  11.583   8.715  10.951
64761SOL    HW294310  11.570   8.696  11.113
64762SOL     OW94311  12.283   9.224   9.547
64762SOL    HW194312  12.223   9.162   9.597
64762SOL    HW294313  12.314   9.180   9.462
64763SOL     OW94314  11.374   7.733  10.808
64763SOL    HW194315  11.294   7.793  10.795
64763SOL    HW294316  11.364   7.684  10.894
64764SOL     OW94317  11.636   9.191   9.633
64764SOL    HW194318  11.669   9.230   9.719
64764SOL    HW294319  11.712   9.184   9.568
64765SOL     OW94320  12.572   7.555   9.736
64765SOL    HW194321  12.548   7.518   9.646
64765SOL    HW294322  12.671   7.571   9.740
64766SOL     OW94323  11.421   9.233  10.551
64766SOL    HW194324  11.478   9.168  10.601
64766SOL    HW294325  11.405   9.200  10.458
64767SOL     OW94326  12.112   9.146  10.214
64767SOL    HW194327  12.192   9.089  10.235
64767SOL    HW294328  12.063   9.106  10.137
64768SOL     OW94329  11.554   8.148   9.790
64768SOL    HW194330  11.599   8.058   9.787
64768SOL    HW294331  11.460   8.137   9.823
64769SOL     OW94332  11.786   7.570   9.427
64769SOL    HW194333  11.884   7.548   9.434
64769SOL    HW294334  11.755   7.553   9.334
64770SOL     OW94335  11.953   7.712  11.059
64770SOL    HW194336  12.020   7.651  11.102
64770SOL    HW294337  11.880   7.731  11.124
64771SOL     OW94338  12.060   8.962  10.505
64771SOL    HW194339  12.037   8.937  10.411
64771SOL    HW294340  12.121   8.893  10.544
64772SOL     OW94341  12.523   8.038  10.743
64772SOL    HW194342  12.551   7.995  10.828
64772SOL    HW294343  12.548   8.134  10.744
64773SOL     OW94344  11.975   8.850  10.234
64773SOL    HW194345  12.065   8.864  10.192
64773SOL    HW294346  11.904   8.852  10.163
64774SOL     OW94347  12.094   7.951  10.209
64774SOL    HW194348  12.069   7.942  10.113
64774SOL    HW294349  12.142   7.869  10.240
64775SOL     OW94350  11.711   7.512   9.822
64775SOL    HW194351  11.630   7.513   9.880
64775SOL    HW294352  11.714   7.595   9.767
64776SOL     OW94353  12.606   8.636   9.351
64776SOL    HW194354  12.638   8.560   9.408
64776SOL    HW294355  12.514   8.663   9.381
64777SOL     OW94356  11.469   7.483   9.481
64777SOL    HW194357  11.518   7.567   9.460
64777SOL    HW294358  11.531   7.418   9.526
64778SOL     OW94359  12.107   7.684   9.790
64778SOL    HW194360  12.059   7.725   9.712
64778SOL    HW294361  12.206   7.682   9.771
64779SOL     OW94362  12.248   8.131  10.774
64779SOL    HW194363  12.168   8.070  10.777
64779SOL    HW294364  12.329   8.078  10.750
64780SOL     OW94365  12.399   9.018  10.103
64780SOL    HW194366  12.420   9.092  10.038
64780SOL    HW294367  12.467   9.018  10.176
64781SOL     OW94368  11.631   8.600  10.051
64781SOL    HW194369  11.560   8.573  10.116
64781SOL    HW294370  11.605   8.572   9.958
64782SOL     OW94371  12.443   9.245   9.901
64782SOL    HW194372  12.487   9.309   9.837
64782SOL    HW294373  12.393   9.297   9.971
64783SOL     OW94374  12.204   7.997   9.326
64783SOL    HW194375  12.163   8.079   9.287
64783SOL    HW294376  12.268   8.023   9.399
64784SOL     OW94377  11.250   8.004  10.696
64784SOL    HW194378  11.342   8.003  10.655
64784SOL    HW294379  11.244   8.078  10.763
64785SOL     OW94380  11.733   7.670  10.457
64785SOL    HW194381  11.771   7.586  10.494
64785SOL    HW294382  11.645   7.689  10.501
64786SOL     OW94383  12.038   7.902   9.952
64786SOL    HW194384  12.006   7.974   9.890
64786SOL    HW294385  12.062   7.821   9.899
64787SOL     OW94386  12.189   7.487  10.063
64787SOL    HW194387  12.117   7.492   9.994
64787SOL    HW294388  12.165   7.418  10.132
64788SOL     OW94389  12.601   8.621  10.177
64788SOL    HW194390  12.546   8.537  10.170
64788SOL    HW294391  12.627   8.650  10.085
64789SOL     OW94392  11.660   8.833   9.484
64789SOL    HW194393  11.573   8.818   9.531
64789SOL    HW294394  11.643   8.859   9.389
64790SOL     OW94395  12.562   8.023   9.388
64790SOL    HW194396  12.508   8.002   9.469
64790SOL    HW294397  12.653   7.982   9.397
64791SOL     OW94398  11.699   7.704   9.638
64791SOL    HW194399  11.726   7.645   9.563
64791SOL    HW294400  11.699   7.799   9.607
64792SOL     OW94401  12.236   8.795  10.650
64792SOL    HW194402  12.156   8.772  10.705
64792SOL    HW294403  12.319   8.769  10.699
64793SOL     OW94404  12.764   9.077  10.935
64793SOL    HW194405  12.791   9.111  10.845
64793SOL    HW294406  12.843   9.039  10.981
64794SOL     OW94407  12.283   8.643  10.410
64794SOL    HW194408  12.243   8.687  10.491
64794SOL    HW294409  12.242   8.680  10.327
64795SOL     OW94410  12.087   7.537  10.712
64795SOL    HW194411  12.112   7.517  10.617
64795SOL    HW294412  12.159   7.593  10.754
64796SOL     OW94413  12.152   8.564  11.029
64796SOL    HW194414  12.053   8.570  11.039
64796SOL    HW294415  12.175   8.484  10.973
64797SOL     OW94416  11.877   8.498   9.678
64797SOL    HW194417  11.863   8.505   9.777
64797SOL    HW294418  11.961   8.447   9.660
64798SOL     OW94419  11.582   8.261  10.561
64798SOL    HW194420  11.668   8.273  10.611
64798SOL    HW294421  11.540   8.174  10.588
64799SOL     OW94422  12.446   7.834  10.572
64799SOL    HW194423  12.467   7.908  10.636
64799SOL    HW294424  12.357   7.851  10.529
64800SOL     OW94425  11.236   9.012  10.641
64800SOL    HW194426  11.190   9.094  10.607
64800SOL    HW294427  11.334   9.031  10.650
64801SOL     OW94428  11.539   8.548   9.811
64801SOL    HW194429  11.532   8.631   9.755
64801SOL    HW294430  11.543   8.468   9.751
64802SOL     OW94431  11.738   7.985  10.175
64802SOL    HW194432  11.750   8.051  10.101
64802SOL    HW294433  11.784   8.019  10.258
64803SOL     OW94434  12.424   8.796   9.698
64803SOL    HW194435  12.474   8.873   9.738
64803SOL    HW294436  12.329   8.798   9.730
64804SOL     OW94437  12.444   8.893  10.452
64804SOL    HW194438  12.491   8.906  10.539
64804SOL    HW294439  12.378   8.819  10.461
64805SOL     OW94440  11.526   8.958  10.639
64805SOL    HW194441  11.505   8.914  10.552
64805SOL    HW294442  11.623   8.984  10.642
64806SOL     OW94443  11.574   8.199  10.908
64806SOL    HW194444  11.642   8.254  10.861
64806SOL    HW294445  11.614   8.111  10.935
64807SOL     OW94446  12.185   7.553  11.080
64807SOL    HW194447  12.191   7.638  11.028
64807SOL    HW294448  12.217   7.477  11.023
64808SOL     OW94449  11.676   7.498  11.050
64808SOL    HW194450  11.634   7.441  10.980
64808SOL    HW294451  11.610   7.567  11.082
64809SOL     OW94452  11.745   8.318  10.339
64809SOL    HW194453  11.789   8.407  10.330
64809SOL    HW294454  11.682   8.318  10.416
64810SOL     OW94455  12.532   8.310  10.355
64810SOL    HW194456  12.457   8.310  10.289
64810SOL    HW294457  12.569   8.218  10.364
64811SOL     OW94458  12.381   7.973   9.585
64811SOL    HW194459  12.394   7.889   9.639
64811SOL    HW294460  12.352   8.047   9.645
64812SOL     OW94461  11.479   7.661  10.541
64812SOL    HW194462  11.456   7.698  10.631
64812SOL    HW294463  11.449   7.566  10.535
64813SOL     OW94464  11.209   8.758  10.592
64813SOL    HW194465  11.262   8.709  10.660
64813SOL    HW294466  11.231   8.856  10.597
64814SOL     OW94467  11.904   8.082  10.374
64814SOL    HW194468  11.963   8.056  10.298
64814SOL    HW294469  11.876   8.178  10.363
64815SOL     OW94470  11.479   7.511   9.928
64815SOL    HW194471  11.468   7.605   9.961
64815SOL    HW294472  11.474   7.448  10.005
64816SOL     OW94473  12.794   7.815   9.684
64816SOL    HW194474  12.796   7.739   9.748
64816SOL    HW294475  12.746   7.892   9.724
64817SOL     OW94476  12.195   8.214  10.276
64817SOL    HW194477  12.210   8.235  10.372
64817SOL    HW294478  12.165   8.119  10.267
64818SOL     OW94479  12.152   9.021  11.010
64818SOL    HW194480  12.132   9.065  10.922
64818SOL    HW294481  12.191   8.930  10.994
64819SOL     OW94482  11.522   8.346  11.114
64819SOL    HW194483  11.598   8.390  11.162
64819SOL    HW294484  11.557   8.299  11.032
64820SOL     OW94485  12.475   8.286   9.352
64820SOL    HW194486  12.509   8.193   9.367
64820SOL    HW294487  12.493   8.313   9.257
64821SOL     OW94488  12.240   8.781  10.159
64821SOL    HW194489  12.247   8.697  10.104
64821SOL    HW294490  12.302   8.850  10.123
64822SOL     OW94491  11.491   8.258  10.259
64822SOL    HW194492  11.584   8.294  10.264
64822SOL    HW294493  11.485   8.173  10.311
64823SOL     OW94494  11.511   7.957  10.316
64823SOL    HW194495  11.459   7.874  10.299
64823SOL    HW294496  11.588   7.962  10.252
64824SOL     OW94497  12.310   7.828  10.988
64824SOL    HW194498  12.265   7.891  11.052
64824SOL    HW294499  12.403   7.859  10.971
64825SOL     OW94500  12.332   7.655  10.787
64825SOL    HW194501  12.332   7.719  10.864
64825SOL    HW294502  12.360   7.703  10.704
64826SOL     OW94503  11.180   8.774   9.510
64826SOL    HW194504  11.087   8.795   9.479
64826SOL    HW294505  11.190   8.675   9.523
64827SOL     OW94506  11.260   9.249  10.237
64827SOL    HW194507  11.218   9.163  10.210
64827SOL    HW294508  11.354   9.252  10.203
64828SOL     OW94509  11.676   9.016  10.220
64828SOL    HW194510  11.742   9.090  10.229
64828SOL    HW294511  11.720   8.937  10.178
64829SOL     OW94512  12.174   8.244  10.548
64829SOL    HW194513  12.215   8.212  10.634
64829SOL    HW294514  12.078   8.217  10.545
64830SOL     OW94515  11.212   7.992  10.424
64830SOL    HW194516  11.297   7.959  10.383
64830SOL    HW294517  11.225   8.007  10.522
64831SOL     OW94518  11.361   7.968  11.032
64831SOL    HW194519  11.420   7.928  10.962
64831SOL    HW294520  11.303   8.039  10.991
64832SOL     OW94521  12.541   8.398  10.970
64832SOL    HW194522  12.580   8.487  10.990
64832SOL    HW294523  12.551   8.378  10.873
64833SOL     OW94524  11.987   8.020   9.635
64833SOL    HW194525  11.994   7.931   9.589
64833SOL    HW294526  11.893   8.054   9.627
64834SOL     OW94527  11.424   9.012  11.054
64834SOL    HW194528  11.394   9.069  11.130
64834SOL    HW294529  11.417   8.915  11.080
64835SOL     OW94530  11.843   7.912  10.579
64835SOL    HW194531  11.809   7.823  10.549
64835SOL    HW294532  11.869   7.966  10.499
64836SOL     OW94533  12.102   9.126  10.775
64836SOL    HW194534  12.078   9.108  10.680
64836SOL    HW294535  12.132   9.220  10.785
64837SOL     OW94536  11.645   7.948   9.501
64837SOL    HW194537  11.706   8.028   9.505
64837SOL    HW294538  11.550   7.979   9.508
64838SOL     OW94539  11.331   8.585  10.776
64838SOL    HW194540  11.353   8.524  10.852
64838SOL    HW294541  11.341   8.536  10.690
64839SOL     OW94542  12.519   8.507  10.544
64839SOL    HW194543  12.543   8.444  10.470
64839SOL    HW294544  12.429   8.547  10.526
64840SOL     OW94545  12.474   8.303   9.619
64840SOL    HW194546  12.388   8.272   9.661
64840SOL    HW294547  12.470   8.289   9.520
64841SOL     OW94548  12.424   9.179  10.438
64841SOL    HW194549  12.508   9.184  10.384
64841SOL    HW294550  12.401   9.083  10.456
64842SOL     OW94551  11.255   8.706  10.332
64842SOL    HW194552  11.250   8.705  10.432
64842SOL    HW294553  11.172   8.665  10.294
64843SOL     OW94554  11.860   9.110  11.026
64843SOL    HW194555  11.804   9.191  11.035
64843SOL    HW294556  11.912   9.114  10.940
64844SOL     OW94557  12.898   7.583   9.833
64844SOL    HW194558  12.971   7.566   9.766
64844SOL    HW294559  12.867   7.496   9.871
64845SOL     OW94560  12.560   9.021   9.787
64845SOL    HW194561  12.627   9.033   9.713
64845SOL    HW294562  12.520   9.110   9.810
64846SOL     OW94563  11.302   9.242  11.161
64846SOL    HW194564  11.261   9.168  11.214
64846SOL    HW294565  11.366   9.293  11.219
64847SOL     OW94566  12.452   8.375   9.982
64847SOL    HW194567  12.512   8.294   9.984
64847SOL    HW294568  12.492   8.444   9.922
64848SOL     OW94569  12.002   8.721  10.732
64848SOL    HW194570  11.997   8.754  10.827
64848SOL    HW294571  11.916   8.740  10.686
64849SOL     OW94572  11.844   9.064   9.464
64849SOL    HW194573  11.853   9.074   9.365
64849SOL    HW294574  11.804   8.975   9.485
64850SOL     OW94575  11.435   7.774  10.030
64850SOL    HW194576  11.356   7.825   9.996
64850SOL    HW294577  11.426   7.759  10.128
64851SOL     OW94578  12.366   9.060   9.341
64851SOL    HW194579  12.372   8.967   9.378
64851SOL    HW294580  12.307   9.060   9.261
64852SOL     OW94581  11.994   8.450  10.682
64852SOL    HW194582  12.034   8.449  10.590
64852SOL    HW294583  12.004   8.542  10.722
64853SOL     OW94584  12.088   8.358   9.601
64853SOL    HW194585  12.151   8.396   9.533
64853SOL    HW294586  12.128   8.275   9.640
64854SOL     OW94587  11.544   8.736  10.800
64854SOL    HW194588  11.531   8.829  10.766
64854SOL    HW294589  11.460   8.684  10.787
64855SOL     OW94590  12.211   8.546  10.006
64855SOL    HW194591  12.141   8.499  10.060
64855SOL    HW294592  12.270   8.478   9.963
64856SOL     OW94593  12.186   7.684  10.281
64856SOL    HW194594  12.178   7.648  10.188
64856SOL    HW294595  12.184   7.608  10.346
64857SOL     OW94596  11.762   8.935   9.801
64857SOL    HW194597  11.804   8.877   9.731
64857SOL    HW294598  11.718   9.014   9.757
64858SOL     OW94599  11.427   8.796   9.600
64858SOL    HW194600  11.331   8.797   9.573
64858SOL    HW294601  11.439   8.849   9.684
64859SOL     OW94602  11.277   8.461  11.036
64859SOL    HW194603  11.200   8.428  11.090
64859SOL    HW294604  11.362   8.431  11.078
64860SOL     OW94605  11.844   7.651  10.799
64860SOL    HW194606  11.934   7.635  10.759
64860SOL    HW294607  11.852   7.656  10.898
64861SOL     OW94608  11.247   7.793   9.343
64861SOL    HW194609  11.155   7.765   9.314
64861SOL    HW294610  11.278   7.870   9.287
64862SOL     OW94611  12.612   8.304  10.708
64862SOL    HW194612  12.555   8.356  10.645
64862SOL    HW294613  12.708   8.316  10.684
64863SOL     OW94614  11.244   7.614   9.628
64863SOL    HW194615  11.227   7.697   9.574
64863SOL    HW294616  11.334   7.577   9.606
64864SOL     OW94617  12.355   8.783   9.429
64864SOL    HW194618  12.256   8.772   9.431
64864SOL    HW294619  12.389   8.798   9.522
64865SOL     OW94620  11.785   8.290  10.741
64865SOL    HW194621  11.841   8.371  10.724
64865SOL    HW294622  11.844   8.210  10.744
64866SOL     OW94623  11.888   8.013  11.018
64866SOL    HW194624  11.907   8.078  11.092
64866SOL    HW294625  11.948   7.933  11.027
64867SOL     OW94626  12.622   8.668  10.943
64867SOL    HW194627  12.613   8.658  11.042
64867SOL    HW294628  12.718   8.661  10.917
64868SOL     OW94629  11.562   9.189  10.870
64868SOL    HW194630  11.471   9.230  10.868
64868SOL    HW294631  11.555   9.095  10.902
64869SOL     OW94632  12.397   7.773   9.759
64869SOL    HW194633  12.462   7.699   9.748
64869SOL    HW294634  12.417   7.823   9.843
64870SOL     OW94635  11.766   8.193   9.962
64870SOL    HW194636  11.816   8.278   9.943
64870SOL    HW294637  11.678   8.195   9.914
64871SOL     OW94638  12.031   8.822   9.326
64871SOL    HW194639  11.985   8.837   9.414
64871SOL    HW294640  12.075   8.907   9.296
64872SOL     OW94641  11.833   9.238  10.263
64872SOL    HW194642  11.787   9.326  10.250
64872SOL    HW294643  11.932   9.250  10.256
64873SOL     OW94644  12.031   8.404  10.171
64873SOL    HW194645  12.085   8.335  10.219
64873SOL    HW294646  11.999   8.473  10.237
64874SOL     OW94647  12.255   8.432   9.397
64874SOL    HW194648  12.232   8.485   9.315
64874SOL    HW294649  12.336   8.376   9.378
64875SOL     OW94650  11.393   8.762  11.154
64875SOL    HW194651  11.328   8.689  11.133
64875SOL    HW294652  11.397   8.776  11.252
64876SOL     OW94653  11.251   8.688   9.963
64876SOL    HW194654  11.250   8.641  10.051
64876SOL    HW294655  11.333   8.660   9.912
64877SOL     OW94656  11.844   8.839  10.934
64877SOL    HW194657  11.766   8.789  10.972
64877SOL    HW294658  11.841   8.934  10.965
64878SOL     OW94659  11.600   7.872   9.830
64878SOL    HW194660  11.630   7.800   9.768
64878SOL    HW294661  11.561   7.832   9.913
64879SOL     OW94662  12.877   8.935  10.414
64879SOL    HW194663  12.784   8.910  10.387
64879SOL    HW294664  12.903   8.885  10.496
64880SOL     OW94665  11.489   7.995  10.590
64880SOL    HW194666  11.527   7.936  10.662
64880SOL    HW294667  11.529   7.969  10.502
64881SOL     OW94668  11.984   9.034   9.997
64881SOL    HW194669  12.016   9.044   9.903
64881SOL    HW294670  11.905   8.972   9.999
64882SOL     OW94671  12.596   7.662  10.422
64882SOL    HW194672  12.648   7.597  10.477
64882SOL    HW294673  12.547   7.725  10.483
64883SOL     OW94674  12.173   7.482  10.464
64883SOL    HW194675  12.110   7.410  10.433
64883SOL    HW294676  12.266   7.446  10.464
64884SOL     OW94677  11.942   8.778   9.611
64884SOL    HW194678  11.896   8.691   9.628
64884SOL    HW294679  12.033   8.775   9.652
64885SOL     OW94680  11.790   9.015  10.594
64885SOL    HW194681  11.785   9.097  10.651
64885SOL    HW294682  11.879   9.012  10.549
64886SOL     OW94683  12.524   7.500   9.478
64886SOL    HW194684  12.559   7.459   9.394
64886SOL    HW294685  12.434   7.462   9.498
64887SOL     OW94686  12.472   7.901  10.001
64887SOL    HW194687  12.413   7.981  10.005
64887SOL    HW294688  12.487   7.866  10.094
64888SOL     OW94689  11.211   8.525   9.610
64888SOL    HW194690  11.310   8.514   9.601
64888SOL    HW294691  11.171   8.439   9.642
64889SOL     OW94692  12.047   9.094   9.647
64889SOL    HW194693  11.970   9.059   9.593
64889SOL    HW294694  12.015   9.165   9.709
64890SOL     OW94695  11.402   8.076  11.285
64890SOL    HW194696  11.309   8.074  11.322
64890SOL    HW294697  11.403   8.037  11.193
64891SOL     OW94698  11.397   7.723  12.168
64891SOL    HW194699  11.432   7.706  12.260
64891SOL    HW294700  11.309   7.678  12.156
64892SOL     OW94701  11.191   7.816  11.819
64892SOL    HW194702  11.109   7.859  11.858
64892SOL    HW294703  11.163   7.743  11.756
64893SOL     OW94704  11.741   8.723  12.337
64893SOL    HW194705  11.648   8.716  12.300
64893SOL    HW294706  11.752   8.812  12.381
64894SOL     OW94707  12.727   8.959  11.875
64894SOL    HW194708  12.670   8.943  11.956
64894SOL    HW294709  12.668   8.969  11.795
64895SOL     OW94710  12.307   8.151  11.889
64895SOL    HW194711  12.364   8.229  11.864
64895SOL    HW294712  12.247   8.177  11.965
64896SOL     OW94713  11.940   8.592  12.195
64896SOL    HW194714  11.862   8.609  12.255
64896SOL    HW294715  11.974   8.679  12.159
64897SOL     OW94716  11.857   8.460  11.837
64897SOL    HW194717  11.926   8.444  11.907
64897SOL    HW294718  11.784   8.517  11.875
64898SOL     OW94719  11.507   8.883  12.233
64898SOL    HW194720  11.429   8.852  12.180
64898SOL    HW294721  11.565   8.941  12.176
64899SOL     OW94722  11.610   7.840  12.671
64899SOL    HW194723  11.692   7.784  12.680
64899SOL    HW294724  11.529   7.782  12.675
64900SOL     OW94725  11.403   9.161  11.655
64900SOL    HW194726  11.437   9.238  11.709
64900SOL    HW294727  11.447   9.161  11.565
64901SOL     OW94728  11.402   8.882  11.710
64901SOL    HW194729  11.376   8.978  11.710
64901SOL    HW294730  11.331   8.828  11.755
64902SOL     OW94731  11.412   8.539  12.058
64902SOL    HW194732  11.426   8.455  12.110
64902SOL    HW294733  11.357   8.603  12.113
64903SOL     OW94734  11.792   9.234  12.611
64903SOL    HW194735  11.700   9.217  12.646
64903SOL    HW294736  11.820   9.326  12.637
64904SOL     OW94737  11.778   8.412  11.295
64904SOL    HW194738  11.785   8.496  11.241
64904SOL    HW294739  11.824   8.425  11.383
64905SOL     OW94740  11.294   8.091  11.735
64905SOL    HW194741  11.249   8.003  11.752
64905SOL    HW294742  11.293   8.145  11.819
64906SOL     OW94743  11.199   9.044  11.289
64906SOL    HW194744  11.180   8.948  11.310
64906SOL    HW294745  11.166   9.102  11.364
64907SOL     OW94746  12.861   8.370  11.784
64907SOL    HW194747  12.956   8.341  11.792
64907SOL    HW294748  12.853   8.435  11.709
64908SOL     OW94749  11.785   8.813  11.898
64908SOL    HW194750  11.736   8.726  11.907
64908SOL    HW294751  11.762   8.856  11.811
64909SOL     OW94752  11.981   7.452  11.674
64909SOL    HW194753  12.021   7.543  11.665
64909SOL    HW294754  11.881   7.460  11.680
64910SOL     OW94755  11.369   8.424  12.436
64910SOL    HW194756  11.458   8.379  12.422
64910SOL    HW294757  11.296   8.359  12.417
64911SOL     OW94758  11.489   7.699  12.973
64911SOL    HW194759  11.560   7.770  12.979
64911SOL    HW294760  11.401   7.738  13.001
64912SOL     OW94761  12.638   8.865  12.125
64912SOL    HW194762  12.579   8.871  12.205
64912SOL    HW294763  12.623   8.777  12.079
64913SOL     OW94764  11.770   8.177  11.442
64913SOL    HW194765  11.794   8.246  11.374
64913SOL    HW294766  11.692   8.210  11.496
64914SOL     OW94767  12.453   7.793  12.116
64914SOL    HW194768  12.367   7.743  12.103
64914SOL    HW294769  12.515   7.739  12.172
64915SOL     OW94770  11.979   8.053  12.637
64915SOL    HW194771  11.932   8.050  12.726
64915SOL    HW294772  11.928   7.998  12.571
64916SOL     OW94773  12.163   7.858  12.414
64916SOL    HW194774  12.086   7.892  12.468
64916SOL    HW294775  12.129   7.807  12.335
64917SOL     OW94776  12.213   8.149  11.601
64917SOL    HW194777  12.239   8.145  11.697
64917SOL    HW294778  12.128   8.098  11.587
64918SOL     OW94779  11.248   8.259  11.961
64918SOL    HW194780  11.347   8.247  11.970
64918SOL    HW294781  11.224   8.354  11.982
64919SOL     OW94782  11.302   9.269  12.743
64919SOL    HW194783  11.292   9.254  12.842
64919SOL    HW294784  11.216   9.305  12.707
64920SOL     OW94785  12.037   7.796  11.367
64920SOL    HW194786  12.096   7.859  11.318
64920SOL    HW294787  12.056   7.702  11.338
64921SOL     OW94788  12.534   8.592  11.717
64921SOL    HW194789  12.617   8.563  11.669
64921SOL    HW294790  12.485   8.659  11.661
64922SOL     OW94791  11.722   7.644  12.057
64922SOL    HW194792  11.717   7.639  12.157
64922SOL    HW294793  11.724   7.740  12.028
64923SOL     OW94794  12.180   8.904  11.649
64923SOL    HW194795  12.134   8.976  11.597
64923SOL    HW294796  12.176   8.924  11.747
64924SOL     OW94797  11.523   9.249  12.025
64924SOL    HW194798  11.573   9.163  12.031
64924SOL    HW294799  11.588   9.326  12.022
64925SOL     OW94800  11.493   8.391  11.414
64925SOL    HW194801  11.575   8.430  11.372
64925SOL    HW294802  11.466   8.309  11.365
64926SOL     OW94803  12.283   9.224  11.409
64926SOL    HW194804  12.223   9.162  11.459
64926SOL    HW294805  12.314   9.180  11.324
64927SOL     OW94806  11.374   7.733  12.670
64927SOL    HW194807  11.294   7.793  12.657
64927SOL    HW294808  11.364   7.684  12.756
64928SOL     OW94809  11.636   9.191  11.495
64928SOL    HW194810  11.669   9.230  11.581
64928SOL    HW294811  11.712   9.184  11.430
64929SOL     OW94812  12.572   7.555  11.598
64929SOL    HW194813  12.548   7.518  11.508
64929SOL    HW294814  12.671   7.571  11.602
64930SOL     OW94815  11.421   9.233  12.413
64930SOL    HW194816  11.478   9.168  12.463
64930SOL    HW294817  11.405   9.200  12.320
64931SOL     OW94818  12.112   9.146  12.076
64931SOL    HW194819  12.192   9.089  12.097
64931SOL    HW294820  12.063   9.106  11.999
64932SOL     OW94821  11.554   8.148  11.652
64932SOL    HW194822  11.599   8.058  11.649
64932SOL    HW294823  11.460   8.137  11.685
64933SOL     OW94824  11.786   7.570  11.289
64933SOL    HW194825  11.884   7.548  11.296
64933SOL    HW294826  11.755   7.553  11.196
64934SOL     OW94827  12.060   8.962  12.367
64934SOL    HW194828  12.037   8.937  12.273
64934SOL    HW294829  12.121   8.893  12.406
64935SOL     OW94830  11.975   8.850  12.096
64935SOL    HW194831  12.065   8.864  12.054
64935SOL    HW294832  11.904   8.852  12.025
64936SOL     OW94833  12.094   7.951  12.071
64936SOL    HW194834  12.069   7.942  11.975
64936SOL    HW294835  12.142   7.869  12.102
64937SOL     OW94836  11.711   7.512  11.684
64937SOL    HW194837  11.630   7.513  11.742
64937SOL    HW294838  11.714   7.595  11.629
64938SOL     OW94839  12.606   8.636  11.213
64938SOL    HW194840  12.638   8.560  11.270
64938SOL    HW294841  12.514   8.663  11.243
64939SOL     OW94842  11.469   7.483  11.343
64939SOL    HW194843  11.518   7.567  11.322
64939SOL    HW294844  11.531   7.418  11.388
64940SOL     OW94845  12.107   7.684  11.652
64940SOL    HW194846  12.059   7.725  11.574
64940SOL    HW294847  12.206   7.682  11.633
64941SOL     OW94848  12.399   9.018  11.965
64941SOL    HW194849  12.420   9.092  11.900
64941SOL    HW294850  12.467   9.018  12.038
64942SOL     OW94851  11.631   8.600  11.913
64942SOL    HW194852  11.560   8.573  11.978
64942SOL    HW294853  11.605   8.572  11.820
64943SOL     OW94854  12.443   9.245  11.763
64943SOL    HW194855  12.487   9.309  11.699
64943SOL    HW294856  12.393   9.297  11.833
64944SOL     OW94857  12.204   7.997  11.188
64944SOL    HW194858  12.163   8.079  11.149
64944SOL    HW294859  12.268   8.023  11.261
64945SOL     OW94860  11.250   8.004  12.558
64945SOL    HW194861  11.342   8.003  12.517
64945SOL    HW294862  11.244   8.078  12.625
64946SOL     OW94863  11.733   7.670  12.319
64946SOL    HW194864  11.771   7.586  12.356
64946SOL    HW294865  11.645   7.689  12.363
64947SOL     OW94866  12.038   7.902  11.814
64947SOL    HW194867  12.006   7.974  11.752
64947SOL    HW294868  12.062   7.821  11.761
64948SOL     OW94869  12.189   7.487  11.925
64948SOL    HW194870  12.117   7.492  11.856
64948SOL    HW294871  12.165   7.418  11.994
64949SOL     OW94872  12.601   8.621  12.039
64949SOL    HW194873  12.546   8.537  12.032
64949SOL    HW294874  12.627   8.650  11.947
64950SOL     OW94875  11.660   8.833  11.346
64950SOL    HW194876  11.573   8.818  11.393
64950SOL    HW294877  11.643   8.859  11.251
64951SOL     OW94878  12.562   8.023  11.250
64951SOL    HW194879  12.508   8.002  11.331
64951SOL    HW294880  12.653   7.982  11.259
64952SOL     OW94881  11.699   7.704  11.500
64952SOL    HW194882  11.726   7.645  11.425
64952SOL    HW294883  11.699   7.799  11.469
64953SOL     OW94884  12.236   8.795  12.512
64953SOL    HW194885  12.156   8.772  12.567
64953SOL    HW294886  12.319   8.769  12.561
64954SOL     OW94887  12.283   8.643  12.272
64954SOL    HW194888  12.243   8.687  12.353
64954SOL    HW294889  12.242   8.680  12.189
64955SOL     OW94890  12.087   7.537  12.574
64955SOL    HW194891  12.112   7.517  12.479
64955SOL    HW294892  12.159   7.593  12.616
64956SOL     OW94893  11.877   8.498  11.540
64956SOL    HW194894  11.863   8.505  11.639
64956SOL    HW294895  11.961   8.447  11.522
64957SOL     OW94896  11.582   8.261  12.423
64957SOL    HW194897  11.668   8.273  12.473
64957SOL    HW294898  11.540   8.174  12.450
64958SOL     OW94899  12.446   7.834  12.434
64958SOL    HW194900  12.467   7.908  12.498
64958SOL    HW294901  12.357   7.851  12.391
64959SOL     OW94902  11.236   9.012  12.503
64959SOL    HW194903  11.190   9.094  12.469
64959SOL    HW294904  11.334   9.031  12.512
64960SOL     OW94905  11.539   8.548  11.673
64960SOL    HW194906  11.532   8.631  11.617
64960SOL    HW294907  11.543   8.468  11.613
64961SOL     OW94908  11.738   7.985  12.037
64961SOL    HW194909  11.750   8.051  11.963
64961SOL    HW294910  11.784   8.019  12.120
64962SOL     OW94911  12.424   8.796  11.560
64962SOL    HW194912  12.474   8.873  11.600
64962SOL    HW294913  12.329   8.798  11.592
64963SOL     OW94914  12.444   8.893  12.314
64963SOL    HW194915  12.491   8.906  12.401
64963SOL    HW294916  12.378   8.819  12.323
64964SOL     OW94917  11.526   8.958  12.501
64964SOL    HW194918  11.505   8.914  12.414
64964SOL    HW294919  11.623   8.984  12.504
64965SOL     OW94920  11.574   8.199  12.770
64965SOL    HW194921  11.642   8.254  12.723
64965SOL    HW294922  11.614   8.111  12.797
64966SOL     OW94923  12.759   8.227  12.842
64966SOL    HW194924  12.667   8.265  12.837
64966SOL    HW294925  12.819   8.274  12.777
64967SOL     OW94926  11.745   8.318  12.201
64967SOL    HW194927  11.789   8.407  12.192
64967SOL    HW294928  11.682   8.318  12.278
64968SOL     OW94929  12.532   8.310  12.217
64968SOL    HW194930  12.457   8.310  12.151
64968SOL    HW294931  12.569   8.218  12.226
64969SOL     OW94932  12.381   7.973  11.447
64969SOL    HW194933  12.394   7.889  11.501
64969SOL    HW294934  12.352   8.047  11.507
64970SOL     OW94935  11.479   7.661  12.403
64970SOL    HW194936  11.456   7.698  12.493
64970SOL    HW294937  11.449   7.566  12.397
64971SOL     OW94938  11.209   8.758  12.454
64971SOL    HW194939  11.262   8.709  12.522
64971SOL    HW294940  11.231   8.856  12.459
64972SOL     OW94941  11.904   8.082  12.236
64972SOL    HW194942  11.963   8.056  12.160
64972SOL    HW294943  11.876   8.178  12.225
64973SOL     OW94944  11.479   7.511  11.790
64973SOL    HW194945  11.468   7.605  11.823
64973SOL    HW294946  11.474   7.448  11.867
64974SOL     OW94947  12.794   7.815  11.546
64974SOL    HW194948  12.796   7.739  11.610
64974SOL    HW294949  12.746   7.892  11.586
64975SOL     OW94950  12.195   8.214  12.138
64975SOL    HW194951  12.210   8.235  12.234
64975SOL    HW294952  12.165   8.119  12.129
64976SOL     OW94953  12.152   9.021  12.872
64976SOL    HW194954  12.132   9.065  12.784
64976SOL    HW294955  12.191   8.930  12.856
64977SOL     OW94956  12.475   8.286  11.214
64977SOL    HW194957  12.509   8.193  11.229
64977SOL    HW294958  12.493   8.313  11.119
64978SOL     OW94959  12.240   8.781  12.021
64978SOL    HW194960  12.247   8.697  11.966
64978SOL    HW294961  12.302   8.850  11.985
64979SOL     OW94962  11.491   8.258  12.121
64979SOL    HW194963  11.584   8.294  12.126
64979SOL    HW294964  11.485   8.173  12.173
64980SOL     OW94965  11.511   7.957  12.178
64980SOL    HW194966  11.459   7.874  12.161
64980SOL    HW294967  11.588   7.962  12.114
64981SOL     OW94968  12.310   7.828  12.850
64981SOL    HW194969  12.265   7.891  12.914
64981SOL    HW294970  12.403   7.859  12.833
64982SOL     OW94971  12.332   7.655  12.649
64982SOL    HW194972  12.332   7.719  12.726
64982SOL    HW294973  12.360   7.703  12.566
64983SOL     OW94974  11.180   8.774  11.372
64983SOL    HW194975  11.087   8.795  11.341
64983SOL    HW294976  11.190   8.675  11.385
64984SOL     OW94977  11.260   9.249  12.099
64984SOL    HW194978  11.218   9.163  12.072
64984SOL    HW294979  11.354   9.252  12.065
64985SOL     OW94980  11.676   9.016  12.082
64985SOL    HW194981  11.742   9.090  12.091
64985SOL    HW294982  11.720   8.937  12.040
64986SOL     OW94983  12.174   8.244  12.410
64986SOL    HW194984  12.215   8.212  12.496
64986SOL    HW294985  12.078   8.217  12.407
64987SOL     OW94986  11.212   7.992  12.286
64987SOL    HW194987  11.297   7.959  12.245
64987SOL    HW294988  11.225   8.007  12.384
64988SOL     OW94989  11.987   8.020  11.497
64988SOL    HW194990  11.994   7.931  11.451
64988SOL    HW294991  11.893   8.054  11.489
64989SOL     OW94992  11.843   7.912  12.441
64989SOL    HW194993  11.809   7.823  12.411
64989SOL    HW294994  11.869   7.966  12.361
64990SOL     OW94995  12.102   9.126  12.637
64990SOL    HW194996  12.078   9.108  12.542
64990SOL    HW294997  12.132   9.220  12.647
64991SOL     OW94998  11.645   7.948  11.363
64991SOL    HW194999  11.706   8.028  11.367
64991SOL    HW295000  11.550   7.979  11.370
64992SOL     OW95001  11.331   8.585  12.638
64992SOL    HW195002  11.353   8.524  12.714
64992SOL    HW295003  11.341   8.536  12.552
64993SOL     OW95004  12.519   8.507  12.406
64993SOL    HW195005  12.543   8.444  12.332
64993SOL    HW295006  12.429   8.547  12.388
64994SOL     OW95007  12.474   8.303  11.481
64994SOL    HW195008  12.388   8.272  11.523
64994SOL    HW295009  12.470   8.289  11.382
64995SOL     OW95010  12.424   9.179  12.300
64995SOL    HW195011  12.508   9.184  12.246
64995SOL    HW295012  12.401   9.083  12.318
64996SOL     OW95013  11.255   8.706  12.194
64996SOL    HW195014  11.250   8.705  12.294
64996SOL    HW295015  11.172   8.665  12.156
64997SOL     OW95016  12.898   7.583  11.695
64997SOL    HW195017  12.971   7.566  11.628
64997SOL    HW295018  12.867   7.496  11.733
64998SOL     OW95019  12.560   9.021  11.649
64998SOL    HW195020  12.627   9.033  11.575
64998SOL    HW295021  12.520   9.110  11.672
64999SOL     OW95022  12.452   8.375  11.844
64999SOL    HW195023  12.512   8.294  11.846
64999SOL    HW295024  12.492   8.444  11.784
65000SOL     OW95025  11.844   9.064  11.326
65000SOL    HW195026  11.853   9.074  11.227
65000SOL    HW295027  11.804   8.975  11.347
65001SOL     OW95028  11.435   7.774  11.892
65001SOL    HW195029  11.356   7.825  11.858
65001SOL    HW295030  11.426   7.759  11.990
65002SOL     OW95031  12.366   9.060  11.203
65002SOL    HW195032  12.372   8.967  11.240
65002SOL    HW295033  12.307   9.060  11.123
65003SOL     OW95034  11.994   8.450  12.544
65003SOL    HW195035  12.034   8.449  12.452
65003SOL    HW295036  12.004   8.542  12.584
65004SOL     OW95037  12.088   8.358  11.463
65004SOL    HW195038  12.151   8.396  11.395
65004SOL    HW295039  12.128   8.275  11.502
65005SOL     OW95040  11.544   8.736  12.662
65005SOL    HW195041  11.531   8.829  12.628
65005SOL    HW295042  11.460   8.684  12.649
65006SOL     OW95043  12.211   8.546  11.868
65006SOL    HW195044  12.141   8.499  11.922
65006SOL    HW295045  12.270   8.478  11.825
65007SOL     OW95046  12.186   7.684  12.143
65007SOL    HW195047  12.178   7.648  12.050
65007SOL    HW295048  12.184   7.608  12.208
65008SOL     OW95049  11.762   8.935  11.663
65008SOL    HW195050  11.804   8.877  11.593
65008SOL    HW295051  11.718   9.014  11.619
65009SOL     OW95052  11.427   8.796  11.462
65009SOL    HW195053  11.331   8.797  11.435
65009SOL    HW295054  11.439   8.849  11.546
65010SOL     OW95055  11.247   7.793  11.205
65010SOL    HW195056  11.155   7.765  11.176
65010SOL    HW295057  11.278   7.870  11.149
65011SOL     OW95058  12.612   8.304  12.570
65011SOL    HW195059  12.555   8.356  12.507
65011SOL    HW295060  12.708   8.316  12.546
65012SOL     OW95061  11.244   7.614  11.490
65012SOL    HW195062  11.227   7.697  11.436
65012SOL    HW295063  11.334   7.577  11.468
65013SOL     OW95064  12.355   8.783  11.291
65013SOL    HW195065  12.256   8.772  11.293
65013SOL    HW295066  12.389   8.798  11.384
65014SOL     OW95067  11.785   8.290  12.603
65014SOL    HW195068  11.841   8.371  12.586
65014SOL    HW295069  11.844   8.210  12.606
65015SOL     OW95070  11.562   9.189  12.732
65015SOL    HW195071  11.471   9.230  12.730
65015SOL    HW295072  11.555   9.095  12.764
65016SOL     OW95073  12.397   7.773  11.621
65016SOL    HW195074  12.462   7.699  11.610
65016SOL    HW295075  12.417   7.823  11.705
65017SOL     OW95076  11.766   8.193  11.824
65017SOL    HW195077  11.816   8.278  11.805
65017SOL    HW295078  11.678   8.195  11.776
65018SOL     OW95079  12.031   8.822  11.188
65018SOL    HW195080  11.985   8.837  11.276
65018SOL    HW295081  12.075   8.907  11.158
65019SOL     OW95082  11.833   9.238  12.125
65019SOL    HW195083  11.787   9.326  12.112
65019SOL    HW295084  11.932   9.250  12.118
65020SOL     OW95085  12.031   8.404  12.033
65020SOL    HW195086  12.085   8.335  12.081
65020SOL    HW295087  11.999   8.473  12.099
65021SOL     OW95088  12.255   8.432  11.259
65021SOL    HW195089  12.232   8.485  11.177
65021SOL    HW295090  12.336   8.376  11.240
65022SOL     OW95091  11.251   8.688  11.825
65022SOL    HW195092  11.250   8.641  11.913
65022SOL    HW295093  11.333   8.660  11.774
65023SOL     OW95094  11.600   7.872  11.692
65023SOL    HW195095  11.630   7.800  11.630
65023SOL    HW295096  11.561   7.832  11.775
65024SOL     OW95097  12.877   8.935  12.276
65024SOL    HW195098  12.784   8.910  12.249
65024SOL    HW295099  12.903   8.885  12.358
65025SOL     OW95100  11.489   7.995  12.452
65025SOL    HW195101  11.527   7.936  12.524
65025SOL    HW295102  11.529   7.969  12.364
65026SOL     OW95103  11.984   9.034  11.859
65026SOL    HW195104  12.016   9.044  11.765
65026SOL    HW295105  11.905   8.972  11.861
65027SOL     OW95106  12.596   7.662  12.284
65027SOL    HW195107  12.648   7.597  12.339
65027SOL    HW295108  12.547   7.725  12.345
65028SOL     OW95109  12.173   7.482  12.326
65028SOL    HW195110  12.110   7.410  12.295
65028SOL    HW295111  12.266   7.446  12.326
65029SOL     OW95112  11.942   8.778  11.473
65029SOL    HW195113  11.896   8.691  11.490
65029SOL    HW295114  12.033   8.775  11.514
65030SOL     OW95115  11.790   9.015  12.456
65030SOL    HW195116  11.785   9.097  12.513
65030SOL    HW295117  11.879   9.012  12.411
65031SOL     OW95118  12.524   7.500  11.340
65031SOL    HW195119  12.559   7.459  11.256
65031SOL    HW295120  12.434   7.462  11.360
65032SOL     OW95121  12.472   7.901  11.863
65032SOL    HW195122  12.413   7.981  11.867
65032SOL    HW295123  12.487   7.866  11.956
65033SOL     OW95124  11.211   8.525  11.472
65033SOL    HW195125  11.310   8.514  11.463
65033SOL    HW295126  11.171   8.439  11.504
65034SOL     OW95127  12.047   9.094  11.509
65034SOL    HW195128  11.970   9.059  11.455
65034SOL    HW295129  12.015   9.165  11.571
65035SOL     OW95130  11.402   9.938   0.113
65035SOL    HW195131  11.309   9.936   0.150
65035SOL    HW295132  11.403   9.899   0.021
65036SOL     OW95133  11.397   9.585   0.996
65036SOL    HW195134  11.432   9.568   1.088
65036SOL    HW295135  11.309   9.540   0.984
65037SOL     OW95136  11.191   9.678   0.647
65037SOL    HW195137  11.109   9.721   0.686
65037SOL    HW295138  11.163   9.605   0.584
65038SOL     OW95139  11.741  10.585   1.165
65038SOL    HW195140  11.648  10.578   1.128
65038SOL    HW295141  11.752  10.674   1.209
65039SOL     OW95142  12.727  10.821   0.703
65039SOL    HW195143  12.670  10.805   0.784
65039SOL    HW295144  12.668  10.831   0.623
65040SOL     OW95145  12.307  10.013   0.717
65040SOL    HW195146  12.364  10.091   0.692
65040SOL    HW295147  12.247  10.039   0.793
65041SOL     OW95148  11.940  10.454   1.023
65041SOL    HW195149  11.862  10.471   1.083
65041SOL    HW295150  11.974  10.541   0.987
65042SOL     OW95151  12.022  10.108   1.823
65042SOL    HW195152  12.018  10.184   1.888
65042SOL    HW295153  12.044  10.144   1.732
65043SOL     OW95154  11.857  10.322   0.665
65043SOL    HW195155  11.926  10.306   0.735
65043SOL    HW295156  11.784  10.379   0.703
65044SOL     OW95157  11.858  10.471   1.803
65044SOL    HW195158  11.918  10.550   1.817
65044SOL    HW295159  11.772  10.502   1.762
65045SOL     OW95160  11.507  10.745   1.061
65045SOL    HW195161  11.429  10.714   1.008
65045SOL    HW295162  11.565  10.803   1.004
65046SOL     OW95163  11.610   9.702   1.499
65046SOL    HW195164  11.692   9.646   1.508
65046SOL    HW295165  11.529   9.644   1.503
65047SOL     OW95166  11.403  11.023   0.483
65047SOL    HW195167  11.437  11.100   0.537
65047SOL    HW295168  11.447  11.023   0.393
65048SOL     OW95169  12.299  10.651   1.690
65048SOL    HW195170  12.346  10.651   1.778
65048SOL    HW295171  12.251  10.564   1.679
65049SOL     OW95172  11.402  10.744   0.538
65049SOL    HW195173  11.376  10.840   0.538
65049SOL    HW295174  11.331  10.690   0.583
65050SOL     OW95175  11.412  10.401   0.886
65050SOL    HW195176  11.426  10.317   0.938
65050SOL    HW295177  11.357  10.465   0.941
65051SOL     OW95178  11.792  11.096   1.439
65051SOL    HW195179  11.700  11.079   1.474
65051SOL    HW295180  11.820  11.188   1.465
65052SOL     OW95181  11.778  10.274   0.123
65052SOL    HW195182  11.785  10.358   0.069
65052SOL    HW295183  11.824  10.287   0.211
65053SOL     OW95184  11.294   9.953   0.563
65053SOL    HW195185  11.249   9.865   0.580
65053SOL    HW295186  11.293  10.007   0.647
65054SOL     OW95187  11.199  10.906   0.117
65054SOL    HW195188  11.180  10.810   0.138
65054SOL    HW295189  11.166  10.964   0.192
65055SOL     OW95190  12.861  10.232   0.612
65055SOL    HW195191  12.956  10.203   0.620
65055SOL    HW295192  12.853  10.297   0.537
65056SOL     OW95193  11.285  10.047   1.597
65056SOL    HW195194  11.373  10.034   1.642
65056SOL    HW295195  11.272  10.144   1.575
65057SOL     OW95196  11.785  10.675   0.726
65057SOL    HW195197  11.736  10.588   0.735
65057SOL    HW295198  11.762  10.718   0.639
65058SOL     OW95199  12.465  10.538   1.423
65058SOL    HW195200  12.502  10.465   1.365
65058SOL    HW295201  12.517  10.543   1.508
65059SOL     OW95202  11.981   9.314   0.502
65059SOL    HW195203  12.021   9.405   0.493
65059SOL    HW295204  11.881   9.322   0.508
65060SOL     OW95205  11.369  10.286   1.264
65060SOL    HW195206  11.458  10.241   1.250
65060SOL    HW295207  11.296  10.221   1.245
65061SOL     OW95208  12.359  11.102   1.616
65061SOL    HW195209  12.383  11.162   1.540
65061SOL    HW295210  12.366  11.007   1.586
65062SOL     OW95211  11.489   9.561   1.801
65062SOL    HW195212  11.560   9.632   1.807
65062SOL    HW295213  11.401   9.600   1.829
65063SOL     OW95214  12.638  10.727   0.953
65063SOL    HW195215  12.579  10.733   1.033
65063SOL    HW295216  12.623  10.639   0.907
65064SOL     OW95217  11.770  10.039   0.270
65064SOL    HW195218  11.794  10.108   0.202
65064SOL    HW295219  11.692  10.072   0.324
65065SOL     OW95220  12.453   9.655   0.944
65065SOL    HW195221  12.367   9.605   0.931
65065SOL    HW295222  12.515   9.601   1.000
65066SOL     OW95223  11.979   9.915   1.465
65066SOL    HW195224  11.932   9.912   1.554
65066SOL    HW295225  11.928   9.860   1.399
65067SOL     OW95226  12.566   9.779   1.674
65067SOL    HW195227  12.546   9.822   1.762
65067SOL    HW295228  12.644   9.717   1.683
65068SOL     OW95229  12.145  10.200   1.572
65068SOL    HW195230  12.191  10.116   1.543
65068SOL    HW295231  12.089  10.234   1.497
65069SOL     OW95232  12.163   9.720   1.242
65069SOL    HW195233  12.086   9.754   1.296
65069SOL    HW295234  12.129   9.669   1.163
65070SOL     OW95235  12.213  10.011   0.429
65070SOL    HW195236  12.239  10.007   0.525
65070SOL    HW295237  12.128   9.960   0.415
65071SOL     OW95238  11.248  10.121   0.789
65071SOL    HW195239  11.347  10.109   0.798
65071SOL    HW295240  11.224  10.216   0.810
65072SOL     OW95241  11.302  11.131   1.571
65072SOL    HW195242  11.292  11.116   1.670
65072SOL    HW295243  11.216  11.167   1.535
65073SOL     OW95244  12.037   9.658   0.195
65073SOL    HW195245  12.096   9.721   0.146
65073SOL    HW295246  12.056   9.564   0.166
65074SOL     OW95247  12.534  10.454   0.545
65074SOL    HW195248  12.617  10.425   0.497
65074SOL    HW295249  12.485  10.521   0.489
65075SOL     OW95250  11.722   9.506   0.885
65075SOL    HW195251  11.717   9.501   0.985
65075SOL    HW295252  11.724   9.602   0.856
65076SOL     OW95253  12.180  10.766   0.477
65076SOL    HW195254  12.134  10.838   0.425
65076SOL    HW295255  12.176  10.786   0.575
65077SOL     OW95256  11.523  11.111   0.853
65077SOL    HW195257  11.573  11.025   0.859
65077SOL    HW295258  11.588  11.188   0.850
65078SOL     OW95259  12.399  10.860   1.506
65078SOL    HW195260  12.405  10.783   1.570
65078SOL    HW295261  12.347  10.834   1.426
65079SOL     OW95262  11.493  10.253   0.242
65079SOL    HW195263  11.575  10.292   0.200
65079SOL    HW295264  11.466  10.171   0.193
65080SOL     OW95265  11.633  10.576   1.727
65080SOL    HW195266  11.583  10.577   1.641
65080SOL    HW295267  11.570  10.558   1.803
65081SOL     OW95268  12.283  11.086   0.237
65081SOL    HW195269  12.223  11.024   0.287
65081SOL    HW295270  12.314  11.042   0.152
65082SOL     OW95271  11.636  11.053   0.323
65082SOL    HW195272  11.669  11.092   0.409
65082SOL    HW295273  11.712  11.046   0.258
65083SOL     OW95274  12.572   9.417   0.426
65083SOL    HW195275  12.548   9.380   0.336
65083SOL    HW295276  12.671   9.433   0.430
65084SOL     OW95277  11.421  11.095   1.241
65084SOL    HW195278  11.478  11.030   1.291
65084SOL    HW295279  11.405  11.062   1.148
65085SOL     OW95280  12.112  11.008   0.904
65085SOL    HW195281  12.192  10.951   0.925
65085SOL    HW295282  12.063  10.968   0.827
65086SOL     OW95283  11.554  10.010   0.480
65086SOL    HW195284  11.599   9.920   0.477
65086SOL    HW295285  11.460   9.999   0.513
65087SOL     OW95286  11.786   9.432   0.117
65087SOL    HW195287  11.884   9.410   0.124
65087SOL    HW295288  11.755   9.415   0.024
65088SOL     OW95289  11.953   9.574   1.749
65088SOL    HW195290  12.020   9.513   1.792
65088SOL    HW295291  11.880   9.593   1.814
65089SOL     OW95292  12.060  10.824   1.195
65089SOL    HW195293  12.037  10.799   1.101
65089SOL    HW295294  12.121  10.755   1.234
65090SOL     OW95295  12.523   9.900   1.433
65090SOL    HW195296  12.551   9.857   1.518
65090SOL    HW295297  12.548   9.996   1.434
65091SOL     OW95298  11.975  10.712   0.924
65091SOL    HW195299  12.065  10.726   0.882
65091SOL    HW295300  11.904  10.714   0.853
65092SOL     OW95301  12.094   9.813   0.899
65092SOL    HW195302  12.069   9.804   0.803
65092SOL    HW295303  12.142   9.731   0.930
65093SOL     OW95304  11.711   9.374   0.512
65093SOL    HW195305  11.630   9.375   0.570
65093SOL    HW295306  11.714   9.457   0.457
65094SOL     OW95307  12.606  10.498   0.041
65094SOL    HW195308  12.638  10.422   0.098
65094SOL    HW295309  12.514  10.525   0.071
65095SOL     OW95310  11.469   9.345   0.171
65095SOL    HW195311  11.518   9.429   0.150
65095SOL    HW295312  11.531   9.280   0.216
65096SOL     OW95313  12.107   9.546   0.480
65096SOL    HW195314  12.059   9.587   0.402
65096SOL    HW295315  12.206   9.544   0.461
65097SOL     OW95316  12.248   9.993   1.464
65097SOL    HW195317  12.168   9.932   1.467
65097SOL    HW295318  12.329   9.940   1.440
65098SOL     OW95319  12.399  10.880   0.793
65098SOL    HW195320  12.420  10.954   0.728
65098SOL    HW295321  12.467  10.880   0.866
65099SOL     OW95322  11.631  10.462   0.741
65099SOL    HW195323  11.560  10.435   0.806
65099SOL    HW295324  11.605  10.434   0.648
65100SOL     OW95325  12.443  11.107   0.591
65100SOL    HW195326  12.487  11.171   0.527
65100SOL    HW295327  12.393  11.159   0.661
65101SOL     OW95328  12.204   9.859   0.016
65101SOL    HW195329  12.163   9.941  -0.023
65101SOL    HW295330  12.268   9.885   0.089
65102SOL     OW95331  11.250   9.866   1.386
65102SOL    HW195332  11.342   9.865   1.345
65102SOL    HW295333  11.244   9.940   1.453
65103SOL     OW95334  11.733   9.532   1.147
65103SOL    HW195335  11.771   9.448   1.184
65103SOL    HW295336  11.645   9.551   1.191
65104SOL     OW95337  12.038   9.764   0.642
65104SOL    HW195338  12.006   9.836   0.580
65104SOL    HW295339  12.062   9.683   0.589
65105SOL     OW95340  12.189   9.349   0.753
65105SOL    HW195341  12.117   9.354   0.684
65105SOL    HW295342  12.165   9.280   0.822
65106SOL     OW95343  12.601  10.483   0.867
65106SOL    HW195344  12.546  10.399   0.860
65106SOL    HW295345  12.627  10.512   0.775
65107SOL     OW95346  11.660  10.695   0.174
65107SOL    HW195347  11.573  10.680   0.221
65107SOL    HW295348  11.643  10.721   0.079
65108SOL     OW95349  12.562   9.885   0.078
65108SOL    HW195350  12.508   9.864   0.159
65108SOL    HW295351  12.653   9.844   0.087
65109SOL     OW95352  11.699   9.566   0.328
65109SOL    HW195353  11.726   9.507   0.253
65109SOL    HW295354  11.699   9.661   0.297
65110SOL     OW95355  12.236  10.657   1.340
65110SOL    HW195356  12.156  10.634   1.395
65110SOL    HW295357  12.319  10.631   1.389
65111SOL     OW95358  12.764  10.939   1.625
65111SOL    HW195359  12.791  10.973   1.535
65111SOL    HW295360  12.843  10.901   1.671
65112SOL     OW95361  12.283  10.505   1.100
65112SOL    HW195362  12.243  10.549   1.181
65112SOL    HW295363  12.242  10.542   1.017
65113SOL     OW95364  12.087   9.399   1.402
65113SOL    HW195365  12.112   9.379   1.307
65113SOL    HW295366  12.159   9.455   1.444
65114SOL     OW95367  12.152  10.426   1.719
65114SOL    HW195368  12.053  10.432   1.729
65114SOL    HW295369  12.175  10.346   1.663
65115SOL     OW95370  11.877  10.360   0.368
65115SOL    HW195371  11.863  10.367   0.467
65115SOL    HW295372  11.961  10.309   0.350
65116SOL     OW95373  11.582  10.123   1.251
65116SOL    HW195374  11.668  10.135   1.301
65116SOL    HW295375  11.540  10.036   1.278
65117SOL     OW95376  12.446   9.696   1.262
65117SOL    HW195377  12.467   9.770   1.326
65117SOL    HW295378  12.357   9.713   1.219
65118SOL     OW95379  11.236  10.874   1.331
65118SOL    HW195380  11.190  10.956   1.297
65118SOL    HW295381  11.334  10.893   1.340
65119SOL     OW95382  11.539  10.410   0.501
65119SOL    HW195383  11.532  10.493   0.445
65119SOL    HW295384  11.543  10.330   0.441
65120SOL     OW95385  11.738   9.847   0.865
65120SOL    HW195386  11.750   9.913   0.791
65120SOL    HW295387  11.784   9.881   0.948
65121SOL     OW95388  12.424  10.658   0.388
65121SOL    HW195389  12.474  10.735   0.428
65121SOL    HW295390  12.329  10.660   0.420
65122SOL     OW95391  12.444  10.755   1.142
65122SOL    HW195392  12.491  10.768   1.229
65122SOL    HW295393  12.378  10.681   1.151
65123SOL     OW95394  11.526  10.820   1.329
65123SOL    HW195395  11.505  10.776   1.242
65123SOL    HW295396  11.623  10.846   1.332
65124SOL     OW95397  11.574  10.061   1.598
65124SOL    HW195398  11.642  10.116   1.551
65124SOL    HW295399  11.614   9.973   1.625
65125SOL     OW95400  12.185   9.415   1.770
65125SOL    HW195401  12.191   9.500   1.718
65125SOL    HW295402  12.217   9.339   1.713
65126SOL     OW95403  11.676   9.360   1.740
65126SOL    HW195404  11.634   9.303   1.670
65126SOL    HW295405  11.610   9.429   1.772
65127SOL     OW95406  11.745  10.180   1.029
65127SOL    HW195407  11.789  10.269   1.020
65127SOL    HW295408  11.682  10.180   1.106
65128SOL     OW95409  12.532  10.172   1.045
65128SOL    HW195410  12.457  10.172   0.979
65128SOL    HW295411  12.569  10.080   1.054
65129SOL     OW95412  12.381   9.835   0.275
65129SOL    HW195413  12.394   9.751   0.329
65129SOL    HW295414  12.352   9.909   0.335
65130SOL     OW95415  11.479   9.523   1.231
65130SOL    HW195416  11.456   9.560   1.321
65130SOL    HW295417  11.449   9.428   1.225
65131SOL     OW95418  11.209  10.620   1.282
65131SOL    HW195419  11.262  10.571   1.350
65131SOL    HW295420  11.231  10.718   1.287
65132SOL     OW95421  11.904   9.944   1.064
65132SOL    HW195422  11.963   9.918   0.988
65132SOL    HW295423  11.876  10.040   1.053
65133SOL     OW95424  11.479   9.373   0.618
65133SOL    HW195425  11.468   9.467   0.651
65133SOL    HW295426  11.474   9.310   0.695
65134SOL     OW95427  12.794   9.677   0.374
65134SOL    HW195428  12.796   9.601   0.438
65134SOL    HW295429  12.746   9.754   0.414
65135SOL     OW95430  12.195  10.076   0.966
65135SOL    HW195431  12.210  10.097   1.062
65135SOL    HW295432  12.165   9.981   0.957
65136SOL     OW95433  12.152  10.883   1.700
65136SOL    HW195434  12.132  10.927   1.612
65136SOL    HW295435  12.191  10.792   1.684
65137SOL     OW95436  11.522  10.208   1.804
65137SOL    HW195437  11.598  10.252   1.852
65137SOL    HW295438  11.557  10.161   1.722
65138SOL     OW95439  12.475  10.148   0.042
65138SOL    HW195440  12.509  10.055   0.057
65138SOL    HW295441  12.493  10.175  -0.053
65139SOL     OW95442  12.240  10.643   0.849
65139SOL    HW195443  12.247  10.559   0.794
65139SOL    HW295444  12.302  10.712   0.813
65140SOL     OW95445  11.491  10.120   0.949
65140SOL    HW195446  11.584  10.156   0.954
65140SOL    HW295447  11.485  10.035   1.001
65141SOL     OW95448  11.511   9.819   1.006
65141SOL    HW195449  11.459   9.736   0.989
65141SOL    HW295450  11.588   9.824   0.942
65142SOL     OW95451  12.310   9.690   1.678
65142SOL    HW195452  12.265   9.753   1.742
65142SOL    HW295453  12.403   9.721   1.661
65143SOL     OW95454  12.332   9.517   1.477
65143SOL    HW195455  12.332   9.581   1.554
65143SOL    HW295456  12.360   9.565   1.394
65144SOL     OW95457  11.180  10.636   0.200
65144SOL    HW195458  11.087  10.657   0.169
65144SOL    HW295459  11.190  10.537   0.213
65145SOL     OW95460  11.260  11.111   0.927
65145SOL    HW195461  11.218  11.025   0.900
65145SOL    HW295462  11.354  11.114   0.893
65146SOL     OW95463  11.676  10.878   0.910
65146SOL    HW195464  11.742  10.952   0.919
65146SOL    HW295465  11.720  10.799   0.868
65147SOL     OW95466  12.174  10.106   1.238
65147SOL    HW195467  12.215  10.074   1.324
65147SOL    HW295468  12.078  10.079   1.235
65148SOL     OW95469  11.212   9.854   1.114
65148SOL    HW195470  11.297   9.821   1.073
65148SOL    HW295471  11.225   9.869   1.212
65149SOL     OW95472  11.361   9.830   1.722
65149SOL    HW195473  11.420   9.790   1.652
65149SOL    HW295474  11.303   9.901   1.681
65150SOL     OW95475  12.541  10.260   1.660
65150SOL    HW195476  12.580  10.349   1.680
65150SOL    HW295477  12.551  10.240   1.563
65151SOL     OW95478  11.987   9.882   0.325
65151SOL    HW195479  11.994   9.793   0.279
65151SOL    HW295480  11.893   9.916   0.317
65152SOL     OW95481  11.424  10.874   1.744
65152SOL    HW195482  11.394  10.931   1.820
65152SOL    HW295483  11.417  10.777   1.770
65153SOL     OW95484  11.843   9.774   1.269
65153SOL    HW195485  11.809   9.685   1.239
65153SOL    HW295486  11.869   9.828   1.189
65154SOL     OW95487  12.102  10.988   1.465
65154SOL    HW195488  12.078  10.970   1.370
65154SOL    HW295489  12.132  11.082   1.475
65155SOL     OW95490  11.645   9.810   0.191
65155SOL    HW195491  11.706   9.890   0.195
65155SOL    HW295492  11.550   9.841   0.198
65156SOL     OW95493  11.331  10.447   1.466
65156SOL    HW195494  11.353  10.386   1.542
65156SOL    HW295495  11.341  10.398   1.380
65157SOL     OW95496  12.519  10.369   1.234
65157SOL    HW195497  12.543  10.306   1.160
65157SOL    HW295498  12.429  10.409   1.216
65158SOL     OW95499  12.474  10.165   0.309
65158SOL    HW195500  12.388  10.134   0.351
65158SOL    HW295501  12.470  10.151   0.210
65159SOL     OW95502  12.424  11.041   1.128
65159SOL    HW195503  12.508  11.046   1.074
65159SOL    HW295504  12.401  10.945   1.146
65160SOL     OW95505  11.255  10.568   1.022
65160SOL    HW195506  11.250  10.567   1.122
65160SOL    HW295507  11.172  10.527   0.984
65161SOL     OW95508  11.860  10.972   1.716
65161SOL    HW195509  11.804  11.053   1.725
65161SOL    HW295510  11.912  10.976   1.630
65162SOL     OW95511  12.075   9.396   0.133
65162SOL    HW195512  12.126   9.397   0.047
65162SOL    HW295513  12.131   9.354   0.204
65163SOL     OW95514  12.898   9.445   0.523
65163SOL    HW195515  12.971   9.428   0.456
65163SOL    HW295516  12.867   9.358   0.561
65164SOL     OW95517  12.560  10.883   0.477
65164SOL    HW195518  12.627  10.895   0.403
65164SOL    HW295519  12.520  10.972   0.500
65165SOL     OW95520  11.302  11.104   1.851
65165SOL    HW195521  11.261  11.030   1.904
65165SOL    HW295522  11.366  11.155   1.909
65166SOL     OW95523  12.452  10.237   0.672
65166SOL    HW195524  12.512  10.156   0.674
65166SOL    HW295525  12.492  10.306   0.612
65167SOL     OW95526  12.002  10.583   1.422
65167SOL    HW195527  11.997  10.616   1.517
65167SOL    HW295528  11.916  10.602   1.376
65168SOL     OW95529  11.844  10.926   0.154
65168SOL    HW195530  11.853  10.936   0.055
65168SOL    HW295531  11.804  10.837   0.175
65169SOL     OW95532  11.435   9.636   0.720
65169SOL    HW195533  11.356   9.687   0.686
65169SOL    HW295534  11.426   9.621   0.818
65170SOL     OW95535  12.366  10.922   0.031
65170SOL    HW195536  12.372  10.829   0.068
65170SOL    HW295537  12.307  10.922  -0.049
65171SOL     OW95538  11.994  10.312   1.372
65171SOL    HW195539  12.034  10.311   1.280
65171SOL    HW295540  12.004  10.404   1.412
65172SOL     OW95541  12.088  10.220   0.291
65172SOL    HW195542  12.151  10.258   0.223
65172SOL    HW295543  12.128  10.137   0.330
65173SOL     OW95544  11.544  10.598   1.490
65173SOL    HW195545  11.531  10.691   1.456
65173SOL    HW295546  11.460  10.546   1.477
65174SOL     OW95547  12.211  10.408   0.696
65174SOL    HW195548  12.141  10.361   0.750
65174SOL    HW295549  12.270  10.340   0.653
65175SOL     OW95550  12.186   9.546   0.971
65175SOL    HW195551  12.178   9.510   0.878
65175SOL    HW295552  12.184   9.470   1.036
65176SOL     OW95553  11.427  10.658   0.290
65176SOL    HW195554  11.331  10.659   0.263
65176SOL    HW295555  11.439  10.711   0.374
65177SOL     OW95556  11.277  10.323   1.726
65177SOL    HW195557  11.200  10.290   1.780
65177SOL    HW295558  11.362  10.293   1.768
65178SOL     OW95559  11.844   9.513   1.489
65178SOL    HW195560  11.934   9.497   1.449
65178SOL    HW295561  11.852   9.518   1.588
65179SOL     OW95562  12.612  10.166   1.398
65179SOL    HW195563  12.555  10.218   1.335
65179SOL    HW295564  12.708  10.178   1.374
65180SOL     OW95565  11.244   9.476   0.318
65180SOL    HW195566  11.227   9.559   0.264
65180SOL    HW295567  11.334   9.439   0.296
65181SOL     OW95568  12.355  10.645   0.119
65181SOL    HW195569  12.256  10.634   0.121
65181SOL    HW295570  12.389  10.660   0.212
65182SOL     OW95571  11.785  10.152   1.431
65182SOL    HW195572  11.841  10.233   1.414
65182SOL    HW295573  11.844  10.072   1.434
65183SOL     OW95574  11.888   9.875   1.708
65183SOL    HW195575  11.907   9.940   1.782
65183SOL    HW295576  11.948   9.795   1.717
65184SOL     OW95577  12.622  10.530   1.633
65184SOL    HW195578  12.613  10.520   1.732
65184SOL    HW295579  12.718  10.523   1.607
65185SOL     OW95580  11.562  11.051   1.560
65185SOL    HW195581  11.471  11.092   1.558
65185SOL    HW295582  11.555  10.957   1.592
65186SOL     OW95583  12.397   9.635   0.449
65186SOL    HW195584  12.462   9.561   0.438
65186SOL    HW295585  12.417   9.685   0.533
65187SOL     OW95586  11.766  10.055   0.652
65187SOL    HW195587  11.816  10.140   0.633
65187SOL    HW295588  11.678  10.057   0.604
65188SOL     OW95589  12.031  10.684   0.016
65188SOL    HW195590  11.985  10.699   0.104
65188SOL    HW295591  12.075  10.769  -0.014
65189SOL     OW95592  11.833  11.100   0.953
65189SOL    HW195593  11.787  11.188   0.940
65189SOL    HW295594  11.932  11.112   0.946
65190SOL     OW95595  12.031  10.266   0.861
65190SOL    HW195596  12.085  10.197   0.909
65190SOL    HW295597  11.999  10.335   0.927
65191SOL     OW95598  12.255  10.294   0.087
65191SOL    HW195599  12.232  10.347   0.005
65191SOL    HW295600  12.336  10.238   0.068
65192SOL     OW95601  11.393  10.624   1.844
65192SOL    HW195602  11.328  10.551   1.823
65192SOL    HW295603  11.397  10.638   1.942
65193SOL     OW95604  11.251  10.550   0.653
65193SOL    HW195605  11.250  10.503   0.741
65193SOL    HW295606  11.333  10.522   0.602
65194SOL     OW95607  11.844  10.701   1.624
65194SOL    HW195608  11.766  10.651   1.662
65194SOL    HW295609  11.841  10.796   1.655
65195SOL     OW95610  11.600   9.734   0.520
65195SOL    HW195611  11.630   9.662   0.458
65195SOL    HW295612  11.561   9.694   0.603
65196SOL     OW95613  12.877  10.797   1.104
65196SOL    HW195614  12.784  10.772   1.077
65196SOL    HW295615  12.903  10.747   1.186
65197SOL     OW95616  11.489   9.857   1.280
65197SOL    HW195617  11.527   9.798   1.352
65197SOL    HW295618  11.529   9.831   1.192
65198SOL     OW95619  11.984  10.896   0.687
65198SOL    HW195620  12.016  10.906   0.593
65198SOL    HW295621  11.905  10.834   0.689
65199SOL     OW95622  12.596   9.524   1.112
65199SOL    HW195623  12.648   9.459   1.167
65199SOL    HW295624  12.547   9.587   1.173
65200SOL     OW95625  12.173   9.344   1.154
65200SOL    HW195626  12.110   9.272   1.123
65200SOL    HW295627  12.266   9.308   1.154
65201SOL     OW95628  11.942  10.640   0.301
65201SOL    HW195629  11.896  10.553   0.318
65201SOL    HW295630  12.033  10.637   0.342
65202SOL     OW95631  11.790  10.877   1.284
65202SOL    HW195632  11.785  10.959   1.341
65202SOL    HW295633  11.879  10.874   1.239
65203SOL     OW95634  12.524   9.362   0.168
65203SOL    HW195635  12.559   9.321   0.084
65203SOL    HW295636  12.434   9.324   0.188
65204SOL     OW95637  12.472   9.763   0.691
65204SOL    HW195638  12.413   9.843   0.695
65204SOL    HW295639  12.487   9.728   0.784
65205SOL     OW95640  11.211  10.387   0.300
65205SOL    HW195641  11.310  10.376   0.291
65205SOL    HW295642  11.171  10.301   0.332
65206SOL     OW95643  12.047  10.956   0.337
65206SOL    HW195644  11.970  10.921   0.283
65206SOL    HW295645  12.015  11.027   0.399
65207SOL     OW95646  11.402   9.938   1.975
65207SOL    HW195647  11.309   9.936   2.012
65207SOL    HW295648  11.403   9.899   1.883
65208SOL     OW95649  11.397   9.585   2.858
65208SOL    HW195650  11.432   9.568   2.950
65208SOL    HW295651  11.309   9.540   2.846
65209SOL     OW95652  11.191   9.678   2.509
65209SOL    HW195653  11.109   9.721   2.548
65209SOL    HW295654  11.163   9.605   2.446
65210SOL     OW95655  11.741  10.585   3.027
65210SOL    HW195656  11.648  10.578   2.990
65210SOL    HW295657  11.752  10.674   3.071
65211SOL     OW95658  12.727  10.821   2.565
65211SOL    HW195659  12.670  10.805   2.646
65211SOL    HW295660  12.668  10.831   2.485
65212SOL     OW95661  12.307  10.013   2.579
65212SOL    HW195662  12.364  10.091   2.554
65212SOL    HW295663  12.247  10.039   2.655
65213SOL     OW95664  11.940  10.454   2.885
65213SOL    HW195665  11.862  10.471   2.945
65213SOL    HW295666  11.974  10.541   2.849
65214SOL     OW95667  12.022  10.108   3.685
65214SOL    HW195668  12.018  10.184   3.750
65214SOL    HW295669  12.044  10.144   3.594
65215SOL     OW95670  11.857  10.322   2.527
65215SOL    HW195671  11.926  10.306   2.597
65215SOL    HW295672  11.784  10.379   2.565
65216SOL     OW95673  11.858  10.471   3.665
65216SOL    HW195674  11.918  10.550   3.679
65216SOL    HW295675  11.772  10.502   3.624
65217SOL     OW95676  11.507  10.745   2.923
65217SOL    HW195677  11.429  10.714   2.870
65217SOL    HW295678  11.565  10.803   2.866
65218SOL     OW95679  11.610   9.702   3.361
65218SOL    HW195680  11.692   9.646   3.370
65218SOL    HW295681  11.529   9.644   3.365
65219SOL     OW95682  11.403  11.023   2.345
65219SOL    HW195683  11.437  11.100   2.399
65219SOL    HW295684  11.447  11.023   2.255
65220SOL     OW95685  12.299  10.651   3.552
65220SOL    HW195686  12.346  10.651   3.640
65220SOL    HW295687  12.251  10.564   3.541
65221SOL     OW95688  11.402  10.744   2.400
65221SOL    HW195689  11.376  10.840   2.400
65221SOL    HW295690  11.331  10.690   2.445
65222SOL     OW95691  11.412  10.401   2.748
65222SOL    HW195692  11.426  10.317   2.800
65222SOL    HW295693  11.357  10.465   2.803
65223SOL     OW95694  11.792  11.096   3.301
65223SOL    HW195695  11.700  11.079   3.336
65223SOL    HW295696  11.820  11.188   3.327
65224SOL     OW95697  11.778  10.274   1.985
65224SOL    HW195698  11.785  10.358   1.931
65224SOL    HW295699  11.824  10.287   2.073
65225SOL     OW95700  11.294   9.953   2.425
65225SOL    HW195701  11.249   9.865   2.442
65225SOL    HW295702  11.293  10.007   2.509
65226SOL     OW95703  11.199  10.906   1.979
65226SOL    HW195704  11.180  10.810   2.000
65226SOL    HW295705  11.166  10.964   2.054
65227SOL     OW95706  12.861  10.232   2.474
65227SOL    HW195707  12.956  10.203   2.482
65227SOL    HW295708  12.853  10.297   2.399
65228SOL     OW95709  11.285  10.047   3.459
65228SOL    HW195710  11.373  10.034   3.504
65228SOL    HW295711  11.272  10.144   3.437
65229SOL     OW95712  11.785  10.675   2.588
65229SOL    HW195713  11.736  10.588   2.597
65229SOL    HW295714  11.762  10.718   2.501
65230SOL     OW95715  12.465  10.538   3.285
65230SOL    HW195716  12.502  10.465   3.227
65230SOL    HW295717  12.517  10.543   3.370
65231SOL     OW95718  11.981   9.314   2.364
65231SOL    HW195719  12.021   9.405   2.355
65231SOL    HW295720  11.881   9.322   2.370
65232SOL     OW95721  11.369  10.286   3.126
65232SOL    HW195722  11.458  10.241   3.112
65232SOL    HW295723  11.296  10.221   3.107
65233SOL     OW95724  12.359  11.102   3.478
65233SOL    HW195725  12.383  11.162   3.402
65233SOL    HW295726  12.366  11.007   3.448
65234SOL     OW95727  11.489   9.561   3.663
65234SOL    HW195728  11.560   9.632   3.669
65234SOL    HW295729  11.401   9.600   3.691
65235SOL     OW95730  12.638  10.727   2.815
65235SOL    HW195731  12.579  10.733   2.895
65235SOL    HW295732  12.623  10.639   2.769
65236SOL     OW95733  11.770  10.039   2.132
65236SOL    HW195734  11.794  10.108   2.064
65236SOL    HW295735  11.692  10.072   2.186
65237SOL     OW95736  12.453   9.655   2.806
65237SOL    HW195737  12.367   9.605   2.793
65237SOL    HW295738  12.515   9.601   2.862
65238SOL     OW95739  11.979   9.915   3.327
65238SOL    HW195740  11.932   9.912   3.416
65238SOL    HW295741  11.928   9.860   3.261
65239SOL     OW95742  12.566   9.779   3.536
65239SOL    HW195743  12.546   9.822   3.624
65239SOL    HW295744  12.644   9.717   3.545
65240SOL     OW95745  12.145  10.200   3.434
65240SOL    HW195746  12.191  10.116   3.405
65240SOL    HW295747  12.089  10.234   3.359
65241SOL     OW95748  12.163   9.720   3.104
65241SOL    HW195749  12.086   9.754   3.158
65241SOL    HW295750  12.129   9.669   3.025
65242SOL     OW95751  12.213  10.011   2.291
65242SOL    HW195752  12.239  10.007   2.387
65242SOL    HW295753  12.128   9.960   2.277
65243SOL     OW95754  11.248  10.121   2.651
65243SOL    HW195755  11.347  10.109   2.660
65243SOL    HW295756  11.224  10.216   2.672
65244SOL     OW95757  11.302  11.131   3.433
65244SOL    HW195758  11.292  11.116   3.532
65244SOL    HW295759  11.216  11.167   3.397
65245SOL     OW95760  12.037   9.658   2.057
65245SOL    HW195761  12.096   9.721   2.008
65245SOL    HW295762  12.056   9.564   2.028
65246SOL     OW95763  12.534  10.454   2.407
65246SOL    HW195764  12.617  10.425   2.359
65246SOL    HW295765  12.485  10.521   2.351
65247SOL     OW95766  11.722   9.506   2.747
65247SOL    HW195767  11.717   9.501   2.847
65247SOL    HW295768  11.724   9.602   2.718
65248SOL     OW95769  12.180  10.766   2.339
65248SOL    HW195770  12.134  10.838   2.287
65248SOL    HW295771  12.176  10.786   2.437
65249SOL     OW95772  11.523  11.111   2.715
65249SOL    HW195773  11.573  11.025   2.721
65249SOL    HW295774  11.588  11.188   2.712
65250SOL     OW95775  12.399  10.860   3.368
65250SOL    HW195776  12.405  10.783   3.432
65250SOL    HW295777  12.347  10.834   3.288
65251SOL     OW95778  11.493  10.253   2.104
65251SOL    HW195779  11.575  10.292   2.062
65251SOL    HW295780  11.466  10.171   2.055
65252SOL     OW95781  11.633  10.576   3.589
65252SOL    HW195782  11.583  10.577   3.503
65252SOL    HW295783  11.570  10.558   3.665
65253SOL     OW95784  12.283  11.086   2.099
65253SOL    HW195785  12.223  11.024   2.149
65253SOL    HW295786  12.314  11.042   2.014
65254SOL     OW95787  11.374   9.595   3.360
65254SOL    HW195788  11.294   9.655   3.347
65254SOL    HW295789  11.364   9.546   3.446
65255SOL     OW95790  11.636  11.053   2.185
65255SOL    HW195791  11.669  11.092   2.271
65255SOL    HW295792  11.712  11.046   2.120
65256SOL     OW95793  12.572   9.417   2.288
65256SOL    HW195794  12.548   9.380   2.198
65256SOL    HW295795  12.671   9.433   2.292
65257SOL     OW95796  11.421  11.095   3.103
65257SOL    HW195797  11.478  11.030   3.153
65257SOL    HW295798  11.405  11.062   3.010
65258SOL     OW95799  12.112  11.008   2.766
65258SOL    HW195800  12.192  10.951   2.787
65258SOL    HW295801  12.063  10.968   2.689
65259SOL     OW95802  11.554  10.010   2.342
65259SOL    HW195803  11.599   9.920   2.339
65259SOL    HW295804  11.460   9.999   2.375
65260SOL     OW95805  11.786   9.432   1.979
65260SOL    HW195806  11.884   9.410   1.986
65260SOL    HW295807  11.755   9.415   1.886
65261SOL     OW95808  11.953   9.574   3.611
65261SOL    HW195809  12.020   9.513   3.654
65261SOL    HW295810  11.880   9.593   3.676
65262SOL     OW95811  12.060  10.824   3.057
65262SOL    HW195812  12.037  10.799   2.963
65262SOL    HW295813  12.121  10.755   3.096
65263SOL     OW95814  12.523   9.900   3.295
65263SOL    HW195815  12.551   9.857   3.380
65263SOL    HW295816  12.548   9.996   3.296
65264SOL     OW95817  11.975  10.712   2.786
65264SOL    HW195818  12.065  10.726   2.744
65264SOL    HW295819  11.904  10.714   2.715
65265SOL     OW95820  12.094   9.813   2.761
65265SOL    HW195821  12.069   9.804   2.665
65265SOL    HW295822  12.142   9.731   2.792
65266SOL     OW95823  11.711   9.374   2.374
65266SOL    HW195824  11.630   9.375   2.432
65266SOL    HW295825  11.714   9.457   2.319
65267SOL     OW95826  12.606  10.498   1.903
65267SOL    HW195827  12.638  10.422   1.960
65267SOL    HW295828  12.514  10.525   1.933
65268SOL     OW95829  11.469   9.345   2.033
65268SOL    HW195830  11.518   9.429   2.012
65268SOL    HW295831  11.531   9.280   2.078
65269SOL     OW95832  12.107   9.546   2.342
65269SOL    HW195833  12.059   9.587   2.264
65269SOL    HW295834  12.206   9.544   2.323
65270SOL     OW95835  12.248   9.993   3.326
65270SOL    HW195836  12.168   9.932   3.329
65270SOL    HW295837  12.329   9.940   3.302
65271SOL     OW95838  12.399  10.880   2.655
65271SOL    HW195839  12.420  10.954   2.590
65271SOL    HW295840  12.467  10.880   2.728
65272SOL     OW95841  11.631  10.462   2.603
65272SOL    HW195842  11.560  10.435   2.668
65272SOL    HW295843  11.605  10.434   2.510
65273SOL     OW95844  12.443  11.107   2.453
65273SOL    HW195845  12.487  11.171   2.389
65273SOL    HW295846  12.393  11.159   2.523
65274SOL     OW95847  12.204   9.859   1.878
65274SOL    HW195848  12.163   9.941   1.839
65274SOL    HW295849  12.268   9.885   1.951
65275SOL     OW95850  11.250   9.866   3.248
65275SOL    HW195851  11.342   9.865   3.207
65275SOL    HW295852  11.244   9.940   3.315
65276SOL     OW95853  11.733   9.532   3.009
65276SOL    HW195854  11.771   9.448   3.046
65276SOL    HW295855  11.645   9.551   3.053
65277SOL     OW95856  12.038   9.764   2.504
65277SOL    HW195857  12.006   9.836   2.442
65277SOL    HW295858  12.062   9.683   2.451
65278SOL     OW95859  12.189   9.349   2.615
65278SOL    HW195860  12.117   9.354   2.546
65278SOL    HW295861  12.165   9.280   2.684
65279SOL     OW95862  12.601  10.483   2.729
65279SOL    HW195863  12.546  10.399   2.722
65279SOL    HW295864  12.627  10.512   2.637
65280SOL     OW95865  11.660  10.695   2.036
65280SOL    HW195866  11.573  10.680   2.083
65280SOL    HW295867  11.643  10.721   1.941
65281SOL     OW95868  12.562   9.885   1.940
65281SOL    HW195869  12.508   9.864   2.021
65281SOL    HW295870  12.653   9.844   1.949
65282SOL     OW95871  11.699   9.566   2.190
65282SOL    HW195872  11.726   9.507   2.115
65282SOL    HW295873  11.699   9.661   2.159
65283SOL     OW95874  12.236  10.657   3.202
65283SOL    HW195875  12.156  10.634   3.257
65283SOL    HW295876  12.319  10.631   3.251
65284SOL     OW95877  12.764  10.939   3.487
65284SOL    HW195878  12.791  10.973   3.397
65284SOL    HW295879  12.843  10.901   3.533
65285SOL     OW95880  12.283  10.505   2.962
65285SOL    HW195881  12.243  10.549   3.043
65285SOL    HW295882  12.242  10.542   2.879
65286SOL     OW95883  12.087   9.399   3.264
65286SOL    HW195884  12.112   9.379   3.169
65286SOL    HW295885  12.159   9.455   3.306
65287SOL     OW95886  12.152  10.426   3.581
65287SOL    HW195887  12.053  10.432   3.591
65287SOL    HW295888  12.175  10.346   3.525
65288SOL     OW95889  11.877  10.360   2.230
65288SOL    HW195890  11.863  10.367   2.329
65288SOL    HW295891  11.961  10.309   2.212
65289SOL     OW95892  11.582  10.123   3.113
65289SOL    HW195893  11.668  10.135   3.163
65289SOL    HW295894  11.540  10.036   3.140
65290SOL     OW95895  12.446   9.696   3.124
65290SOL    HW195896  12.467   9.770   3.188
65290SOL    HW295897  12.357   9.713   3.081
65291SOL     OW95898  11.236  10.874   3.193
65291SOL    HW195899  11.190  10.956   3.159
65291SOL    HW295900  11.334  10.893   3.202
65292SOL     OW95901  11.539  10.410   2.363
65292SOL    HW195902  11.532  10.493   2.307
65292SOL    HW295903  11.543  10.330   2.303
65293SOL     OW95904  11.738   9.847   2.727
65293SOL    HW195905  11.750   9.913   2.653
65293SOL    HW295906  11.784   9.881   2.810
65294SOL     OW95907  12.424  10.658   2.250
65294SOL    HW195908  12.474  10.735   2.290
65294SOL    HW295909  12.329  10.660   2.282
65295SOL     OW95910  12.444  10.755   3.004
65295SOL    HW195911  12.491  10.768   3.091
65295SOL    HW295912  12.378  10.681   3.013
65296SOL     OW95913  11.526  10.820   3.191
65296SOL    HW195914  11.505  10.776   3.104
65296SOL    HW295915  11.623  10.846   3.194
65297SOL     OW95916  11.574  10.061   3.460
65297SOL    HW195917  11.642  10.116   3.413
65297SOL    HW295918  11.614   9.973   3.487
65298SOL     OW95919  12.185   9.415   3.632
65298SOL    HW195920  12.191   9.500   3.580
65298SOL    HW295921  12.217   9.339   3.575
65299SOL     OW95922  11.676   9.360   3.602
65299SOL    HW195923  11.634   9.303   3.532
65299SOL    HW295924  11.610   9.429   3.634
65300SOL     OW95925  11.745  10.180   2.891
65300SOL    HW195926  11.789  10.269   2.882
65300SOL    HW295927  11.682  10.180   2.968
65301SOL     OW95928  12.532  10.172   2.907
65301SOL    HW195929  12.457  10.172   2.841
65301SOL    HW295930  12.569  10.080   2.916
65302SOL     OW95931  12.381   9.835   2.137
65302SOL    HW195932  12.394   9.751   2.191
65302SOL    HW295933  12.352   9.909   2.197
65303SOL     OW95934  11.479   9.523   3.093
65303SOL    HW195935  11.456   9.560   3.183
65303SOL    HW295936  11.449   9.428   3.087
65304SOL     OW95937  11.209  10.620   3.144
65304SOL    HW195938  11.262  10.571   3.212
65304SOL    HW295939  11.231  10.718   3.149
65305SOL     OW95940  11.904   9.944   2.926
65305SOL    HW195941  11.963   9.918   2.850
65305SOL    HW295942  11.876  10.040   2.915
65306SOL     OW95943  11.479   9.373   2.480
65306SOL    HW195944  11.468   9.467   2.513
65306SOL    HW295945  11.474   9.310   2.557
65307SOL     OW95946  12.794   9.677   2.236
65307SOL    HW195947  12.796   9.601   2.300
65307SOL    HW295948  12.746   9.754   2.276
65308SOL     OW95949  12.195  10.076   2.828
65308SOL    HW195950  12.210  10.097   2.924
65308SOL    HW295951  12.165   9.981   2.819
65309SOL     OW95952  12.152  10.883   3.562
65309SOL    HW195953  12.132  10.927   3.474
65309SOL    HW295954  12.191  10.792   3.546
65310SOL     OW95955  11.522  10.208   3.666
65310SOL    HW195956  11.598  10.252   3.714
65310SOL    HW295957  11.557  10.161   3.584
65311SOL     OW95958  12.475  10.148   1.904
65311SOL    HW195959  12.509  10.055   1.919
65311SOL    HW295960  12.493  10.175   1.809
65312SOL     OW95961  12.240  10.643   2.711
65312SOL    HW195962  12.247  10.559   2.656
65312SOL    HW295963  12.302  10.712   2.675
65313SOL     OW95964  11.491  10.120   2.811
65313SOL    HW195965  11.584  10.156   2.816
65313SOL    HW295966  11.485  10.035   2.863
65314SOL     OW95967  11.511   9.819   2.868
65314SOL    HW195968  11.459   9.736   2.851
65314SOL    HW295969  11.588   9.824   2.804
65315SOL     OW95970  12.310   9.690   3.540
65315SOL    HW195971  12.265   9.753   3.604
65315SOL    HW295972  12.403   9.721   3.523
65316SOL     OW95973  12.332   9.517   3.339
65316SOL    HW195974  12.332   9.581   3.416
65316SOL    HW295975  12.360   9.565   3.256
65317SOL     OW95976  11.180  10.636   2.062
65317SOL    HW195977  11.087  10.657   2.031
65317SOL    HW295978  11.190  10.537   2.075
65318SOL     OW95979  11.260  11.111   2.789
65318SOL    HW195980  11.218  11.025   2.762
65318SOL    HW295981  11.354  11.114   2.755
65319SOL     OW95982  11.676  10.878   2.772
65319SOL    HW195983  11.742  10.952   2.781
65319SOL    HW295984  11.720  10.799   2.730
65320SOL     OW95985  12.174  10.106   3.100
65320SOL    HW195986  12.215  10.074   3.186
65320SOL    HW295987  12.078  10.079   3.097
65321SOL     OW95988  11.212   9.854   2.976
65321SOL    HW195989  11.297   9.821   2.935
65321SOL    HW295990  11.225   9.869   3.074
65322SOL     OW95991  11.361   9.830   3.584
65322SOL    HW195992  11.420   9.790   3.514
65322SOL    HW295993  11.303   9.901   3.543
65323SOL     OW95994  12.541  10.260   3.522
65323SOL    HW195995  12.580  10.349   3.542
65323SOL    HW295996  12.551  10.240   3.425
65324SOL     OW95997  11.987   9.882   2.187
65324SOL    HW195998  11.994   9.793   2.141
65324SOL    HW295999  11.893   9.916   2.179
65325SOL     OW96000  11.424  10.874   3.606
65325SOL    HW196001  11.394  10.931   3.682
65325SOL    HW296002  11.417  10.777   3.632
65326SOL     OW96003  11.843   9.774   3.131
65326SOL    HW196004  11.809   9.685   3.101
65326SOL    HW296005  11.869   9.828   3.051
65327SOL     OW96006  12.102  10.988   3.327
65327SOL    HW196007  12.078  10.970   3.232
65327SOL    HW296008  12.132  11.082   3.337
65328SOL     OW96009  11.645   9.810   2.053
65328SOL    HW196010  11.706   9.890   2.057
65328SOL    HW296011  11.550   9.841   2.060
65329SOL     OW96012  11.331  10.447   3.328
65329SOL    HW196013  11.353  10.386   3.404
65329SOL    HW296014  11.341  10.398   3.242
65330SOL     OW96015  12.519  10.369   3.096
65330SOL    HW196016  12.543  10.306   3.022
65330SOL    HW296017  12.429  10.409   3.078
65331SOL     OW96018  12.474  10.165   2.171
65331SOL    HW196019  12.388  10.134   2.213
65331SOL    HW296020  12.470  10.151   2.072
65332SOL     OW96021  12.424  11.041   2.990
65332SOL    HW196022  12.508  11.046   2.936
65332SOL    HW296023  12.401  10.945   3.008
65333SOL     OW96024  11.255  10.568   2.884
65333SOL    HW196025  11.250  10.567   2.984
65333SOL    HW296026  11.172  10.527   2.846
65334SOL     OW96027  11.860  10.972   3.578
65334SOL    HW196028  11.804  11.053   3.587
65334SOL    HW296029  11.912  10.976   3.492
65335SOL     OW96030  12.898   9.445   2.385
65335SOL    HW196031  12.971   9.428   2.318
65335SOL    HW296032  12.867   9.358   2.423
65336SOL     OW96033  12.560  10.883   2.339
65336SOL    HW196034  12.627  10.895   2.265
65336SOL    HW296035  12.520  10.972   2.362
65337SOL     OW96036  11.302  11.104   3.713
65337SOL    HW196037  11.261  11.030   3.766
65337SOL    HW296038  11.366  11.155   3.771
65338SOL     OW96039  12.452  10.237   2.534
65338SOL    HW196040  12.512  10.156   2.536
65338SOL    HW296041  12.492  10.306   2.474
65339SOL     OW96042  12.002  10.583   3.284
65339SOL    HW196043  11.997  10.616   3.379
65339SOL    HW296044  11.916  10.602   3.238
65340SOL     OW96045  11.844  10.926   2.016
65340SOL    HW196046  11.853  10.936   1.917
65340SOL    HW296047  11.804  10.837   2.037
65341SOL     OW96048  11.435   9.636   2.582
65341SOL    HW196049  11.356   9.687   2.548
65341SOL    HW296050  11.426   9.621   2.680
65342SOL     OW96051  12.366  10.922   1.893
65342SOL    HW196052  12.372  10.829   1.930
65342SOL    HW296053  12.307  10.922   1.813
65343SOL     OW96054  11.994  10.312   3.234
65343SOL    HW196055  12.034  10.311   3.142
65343SOL    HW296056  12.004  10.404   3.274
65344SOL     OW96057  12.088  10.220   2.153
65344SOL    HW196058  12.151  10.258   2.085
65344SOL    HW296059  12.128  10.137   2.192
65345SOL     OW96060  11.544  10.598   3.352
65345SOL    HW196061  11.531  10.691   3.318
65345SOL    HW296062  11.460  10.546   3.339
65346SOL     OW96063  12.211  10.408   2.558
65346SOL    HW196064  12.141  10.361   2.612
65346SOL    HW296065  12.270  10.340   2.515
65347SOL     OW96066  12.186   9.546   2.833
65347SOL    HW196067  12.178   9.510   2.740
65347SOL    HW296068  12.184   9.470   2.898
65348SOL     OW96069  11.762  10.797   2.353
65348SOL    HW196070  11.804  10.739   2.283
65348SOL    HW296071  11.718  10.876   2.309
65349SOL     OW96072  11.427  10.658   2.152
65349SOL    HW196073  11.331  10.659   2.125
65349SOL    HW296074  11.439  10.711   2.236
65350SOL     OW96075  11.277  10.323   3.588
65350SOL    HW196076  11.200  10.290   3.642
65350SOL    HW296077  11.362  10.293   3.630
65351SOL     OW96078  11.844   9.513   3.351
65351SOL    HW196079  11.934   9.497   3.311
65351SOL    HW296080  11.852   9.518   3.450
65352SOL     OW96081  11.247   9.655   1.895
65352SOL    HW196082  11.155   9.627   1.866
65352SOL    HW296083  11.278   9.732   1.839
65353SOL     OW96084  12.612  10.166   3.260
65353SOL    HW196085  12.555  10.218   3.197
65353SOL    HW296086  12.708  10.178   3.236
65354SOL     OW96087  11.244   9.476   2.180
65354SOL    HW196088  11.227   9.559   2.126
65354SOL    HW296089  11.334   9.439   2.158
65355SOL     OW96090  12.355  10.645   1.981
65355SOL    HW196091  12.256  10.634   1.983
65355SOL    HW296092  12.389  10.660   2.074
65356SOL     OW96093  11.785  10.152   3.293
65356SOL    HW196094  11.841  10.233   3.276
65356SOL    HW296095  11.844  10.072   3.296
65357SOL     OW96096  11.888   9.875   3.570
65357SOL    HW196097  11.907   9.940   3.644
65357SOL    HW296098  11.948   9.795   3.579
65358SOL     OW96099  12.622  10.530   3.495
65358SOL    HW196100  12.613  10.520   3.594
65358SOL    HW296101  12.718  10.523   3.469
65359SOL     OW96102  11.562  11.051   3.422
65359SOL    HW196103  11.471  11.092   3.420
65359SOL    HW296104  11.555  10.957   3.454
65360SOL     OW96105  12.397   9.635   2.311
65360SOL    HW196106  12.462   9.561   2.300
65360SOL    HW296107  12.417   9.685   2.395
65361SOL     OW96108  11.766  10.055   2.514
65361SOL    HW196109  11.816  10.140   2.495
65361SOL    HW296110  11.678  10.057   2.466
65362SOL     OW96111  12.031  10.684   1.878
65362SOL    HW196112  11.985  10.699   1.966
65362SOL    HW296113  12.075  10.769   1.848
65363SOL     OW96114  11.833  11.100   2.815
65363SOL    HW196115  11.787  11.188   2.802
65363SOL    HW296116  11.932  11.112   2.808
65364SOL     OW96117  12.031  10.266   2.723
65364SOL    HW196118  12.085  10.197   2.771
65364SOL    HW296119  11.999  10.335   2.789
65365SOL     OW96120  12.255  10.294   1.949
65365SOL    HW196121  12.232  10.347   1.867
65365SOL    HW296122  12.336  10.238   1.930
65366SOL     OW96123  11.393  10.624   3.706
65366SOL    HW196124  11.328  10.551   3.685
65366SOL    HW296125  11.397  10.638   3.804
65367SOL     OW96126  11.251  10.550   2.515
65367SOL    HW196127  11.250  10.503   2.603
65367SOL    HW296128  11.333  10.522   2.464
65368SOL     OW96129  11.844  10.701   3.486
65368SOL    HW196130  11.766  10.651   3.524
65368SOL    HW296131  11.841  10.796   3.517
65369SOL     OW96132  11.600   9.734   2.382
65369SOL    HW196133  11.630   9.662   2.320
65369SOL    HW296134  11.561   9.694   2.465
65370SOL     OW96135  12.877  10.797   2.966
65370SOL    HW196136  12.784  10.772   2.939
65370SOL    HW296137  12.903  10.747   3.048
65371SOL     OW96138  11.489   9.857   3.142
65371SOL    HW196139  11.527   9.798   3.214
65371SOL    HW296140  11.529   9.831   3.054
65372SOL     OW96141  11.984  10.896   2.549
65372SOL    HW196142  12.016  10.906   2.455
65372SOL    HW296143  11.905  10.834   2.551
65373SOL     OW96144  12.596   9.524   2.974
65373SOL    HW196145  12.648   9.459   3.029
65373SOL    HW296146  12.547   9.587   3.035
65374SOL     OW96147  12.173   9.344   3.016
65374SOL    HW196148  12.110   9.272   2.985
65374SOL    HW296149  12.266   9.308   3.016
65375SOL     OW96150  11.942  10.640   2.163
65375SOL    HW196151  11.896  10.553   2.180
65375SOL    HW296152  12.033  10.637   2.204
65376SOL     OW96153  11.790  10.877   3.146
65376SOL    HW196154  11.785  10.959   3.203
65376SOL    HW296155  11.879  10.874   3.101
65377SOL     OW96156  12.524   9.362   2.030
65377SOL    HW196157  12.559   9.321   1.946
65377SOL    HW296158  12.434   9.324   2.050
65378SOL     OW96159  12.472   9.763   2.553
65378SOL    HW196160  12.413   9.843   2.557
65378SOL    HW296161  12.487   9.728   2.646
65379SOL     OW96162  11.211  10.387   2.162
65379SOL    HW196163  11.310  10.376   2.153
65379SOL    HW296164  11.171  10.301   2.194
65380SOL     OW96165  12.047  10.956   2.199
65380SOL    HW196166  11.970  10.921   2.145
65380SOL    HW296167  12.015  11.027   2.261
65381SOL     OW96168  11.402   9.938   3.837
65381SOL    HW196169  11.309   9.936   3.874
65381SOL    HW296170  11.403   9.899   3.745
65382SOL     OW96171  11.397   9.585   4.720
65382SOL    HW196172  11.432   9.568   4.812
65382SOL    HW296173  11.309   9.540   4.708
65383SOL     OW96174  11.191   9.678   4.371
65383SOL    HW196175  11.109   9.721   4.410
65383SOL    HW296176  11.163   9.605   4.308
65384SOL     OW96177  11.741  10.585   4.889
65384SOL    HW196178  11.648  10.578   4.852
65384SOL    HW296179  11.752  10.674   4.933
65385SOL     OW96180  12.727  10.821   4.427
65385SOL    HW196181  12.670  10.805   4.508
65385SOL    HW296182  12.668  10.831   4.347
65386SOL     OW96183  12.307  10.013   4.441
65386SOL    HW196184  12.364  10.091   4.416
65386SOL    HW296185  12.247  10.039   4.517
65387SOL     OW96186  11.940  10.454   4.747
65387SOL    HW196187  11.862  10.471   4.807
65387SOL    HW296188  11.974  10.541   4.711
65388SOL     OW96189  12.022  10.108   5.547
65388SOL    HW196190  12.018  10.184   5.612
65388SOL    HW296191  12.044  10.144   5.456
65389SOL     OW96192  11.857  10.322   4.389
65389SOL    HW196193  11.926  10.306   4.459
65389SOL    HW296194  11.784  10.379   4.427
65390SOL     OW96195  11.858  10.471   5.527
65390SOL    HW196196  11.918  10.550   5.541
65390SOL    HW296197  11.772  10.502   5.486
65391SOL     OW96198  11.507  10.745   4.785
65391SOL    HW196199  11.429  10.714   4.732
65391SOL    HW296200  11.565  10.803   4.728
65392SOL     OW96201  11.610   9.702   5.223
65392SOL    HW196202  11.692   9.646   5.232
65392SOL    HW296203  11.529   9.644   5.227
65393SOL     OW96204  11.403  11.023   4.207
65393SOL    HW196205  11.437  11.100   4.261
65393SOL    HW296206  11.447  11.023   4.117
65394SOL     OW96207  12.299  10.651   5.414
65394SOL    HW196208  12.346  10.651   5.502
65394SOL    HW296209  12.251  10.564   5.403
65395SOL     OW96210  11.402  10.744   4.262
65395SOL    HW196211  11.376  10.840   4.262
65395SOL    HW296212  11.331  10.690   4.307
65396SOL     OW96213  11.412  10.401   4.610
65396SOL    HW196214  11.426  10.317   4.662
65396SOL    HW296215  11.357  10.465   4.665
65397SOL     OW96216  11.792  11.096   5.163
65397SOL    HW196217  11.700  11.079   5.198
65397SOL    HW296218  11.820  11.188   5.189
65398SOL     OW96219  11.778  10.274   3.847
65398SOL    HW196220  11.785  10.358   3.793
65398SOL    HW296221  11.824  10.287   3.935
65399SOL     OW96222  11.294   9.953   4.287
65399SOL    HW196223  11.249   9.865   4.304
65399SOL    HW296224  11.293  10.007   4.371
65400SOL     OW96225  11.199  10.906   3.841
65400SOL    HW196226  11.180  10.810   3.862
65400SOL    HW296227  11.166  10.964   3.916
65401SOL     OW96228  12.861  10.232   4.336
65401SOL    HW196229  12.956  10.203   4.344
65401SOL    HW296230  12.853  10.297   4.261
65402SOL     OW96231  11.285  10.047   5.321
65402SOL    HW196232  11.373  10.034   5.366
65402SOL    HW296233  11.272  10.144   5.299
65403SOL     OW96234  11.785  10.675   4.450
65403SOL    HW196235  11.736  10.588   4.459
65403SOL    HW296236  11.762  10.718   4.363
65404SOL     OW96237  12.465  10.538   5.147
65404SOL    HW196238  12.502  10.465   5.089
65404SOL    HW296239  12.517  10.543   5.232
65405SOL     OW96240  11.981   9.314   4.226
65405SOL    HW196241  12.021   9.405   4.217
65405SOL    HW296242  11.881   9.322   4.232
65406SOL     OW96243  11.369  10.286   4.988
65406SOL    HW196244  11.458  10.241   4.974
65406SOL    HW296245  11.296  10.221   4.969
65407SOL     OW96246  12.359  11.102   5.340
65407SOL    HW196247  12.383  11.162   5.264
65407SOL    HW296248  12.366  11.007   5.310
65408SOL     OW96249  11.489   9.561   5.525
65408SOL    HW196250  11.560   9.632   5.531
65408SOL    HW296251  11.401   9.600   5.553
65409SOL     OW96252  12.638  10.727   4.677
65409SOL    HW196253  12.579  10.733   4.757
65409SOL    HW296254  12.623  10.639   4.631
65410SOL     OW96255  11.770  10.039   3.994
65410SOL    HW196256  11.794  10.108   3.926
65410SOL    HW296257  11.692  10.072   4.048
65411SOL     OW96258  12.453   9.655   4.668
65411SOL    HW196259  12.367   9.605   4.655
65411SOL    HW296260  12.515   9.601   4.724
65412SOL     OW96261  11.979   9.915   5.189
65412SOL    HW196262  11.932   9.912   5.278
65412SOL    HW296263  11.928   9.860   5.123
65413SOL     OW96264  12.566   9.779   5.398
65413SOL    HW196265  12.546   9.822   5.486
65413SOL    HW296266  12.644   9.717   5.407
65414SOL     OW96267  12.145  10.200   5.296
65414SOL    HW196268  12.191  10.116   5.267
65414SOL    HW296269  12.089  10.234   5.221
65415SOL     OW96270  12.163   9.720   4.966
65415SOL    HW196271  12.086   9.754   5.020
65415SOL    HW296272  12.129   9.669   4.887
65416SOL     OW96273  12.213  10.011   4.153
65416SOL    HW196274  12.239  10.007   4.249
65416SOL    HW296275  12.128   9.960   4.139
65417SOL     OW96276  11.248  10.121   4.513
65417SOL    HW196277  11.347  10.109   4.522
65417SOL    HW296278  11.224  10.216   4.534
65418SOL     OW96279  11.302  11.131   5.295
65418SOL    HW196280  11.292  11.116   5.394
65418SOL    HW296281  11.216  11.167   5.259
65419SOL     OW96282  12.037   9.658   3.919
65419SOL    HW196283  12.096   9.721   3.870
65419SOL    HW296284  12.056   9.564   3.890
65420SOL     OW96285  12.534  10.454   4.269
65420SOL    HW196286  12.617  10.425   4.221
65420SOL    HW296287  12.485  10.521   4.213
65421SOL     OW96288  11.722   9.506   4.609
65421SOL    HW196289  11.717   9.501   4.709
65421SOL    HW296290  11.724   9.602   4.580
65422SOL     OW96291  12.180  10.766   4.201
65422SOL    HW196292  12.134  10.838   4.149
65422SOL    HW296293  12.176  10.786   4.299
65423SOL     OW96294  11.523  11.111   4.577
65423SOL    HW196295  11.573  11.025   4.583
65423SOL    HW296296  11.588  11.188   4.574
65424SOL     OW96297  12.399  10.860   5.230
65424SOL    HW196298  12.405  10.783   5.294
65424SOL    HW296299  12.347  10.834   5.150
65425SOL     OW96300  11.493  10.253   3.966
65425SOL    HW196301  11.575  10.292   3.924
65425SOL    HW296302  11.466  10.171   3.917
65426SOL     OW96303  11.633  10.576   5.451
65426SOL    HW196304  11.583  10.577   5.365
65426SOL    HW296305  11.570  10.558   5.527
65427SOL     OW96306  12.283  11.086   3.961
65427SOL    HW196307  12.223  11.024   4.011
65427SOL    HW296308  12.314  11.042   3.876
65428SOL     OW96309  11.374   9.595   5.222
65428SOL    HW196310  11.294   9.655   5.209
65428SOL    HW296311  11.364   9.546   5.308
65429SOL     OW96312  11.636  11.053   4.047
65429SOL    HW196313  11.669  11.092   4.133
65429SOL    HW296314  11.712  11.046   3.982
65430SOL     OW96315  12.572   9.417   4.150
65430SOL    HW196316  12.548   9.380   4.060
65430SOL    HW296317  12.671   9.433   4.154
65431SOL     OW96318  11.421  11.095   4.965
65431SOL    HW196319  11.478  11.030   5.015
65431SOL    HW296320  11.405  11.062   4.872
65432SOL     OW96321  12.112  11.008   4.628
65432SOL    HW196322  12.192  10.951   4.649
65432SOL    HW296323  12.063  10.968   4.551
65433SOL     OW96324  11.554  10.010   4.204
65433SOL    HW196325  11.599   9.920   4.201
65433SOL    HW296326  11.460   9.999   4.237
65434SOL     OW96327  11.786   9.432   3.841
65434SOL    HW196328  11.884   9.410   3.848
65434SOL    HW296329  11.755   9.415   3.748
65435SOL     OW96330  11.953   9.574   5.473
65435SOL    HW196331  12.020   9.513   5.516
65435SOL    HW296332  11.880   9.593   5.538
65436SOL     OW96333  12.060  10.824   4.919
65436SOL    HW196334  12.037  10.799   4.825
65436SOL    HW296335  12.121  10.755   4.958
65437SOL     OW96336  12.523   9.900   5.157
65437SOL    HW196337  12.551   9.857   5.242
65437SOL    HW296338  12.548   9.996   5.158
65438SOL     OW96339  11.975  10.712   4.648
65438SOL    HW196340  12.065  10.726   4.606
65438SOL    HW296341  11.904  10.714   4.577
65439SOL     OW96342  12.094   9.813   4.623
65439SOL    HW196343  12.069   9.804   4.527
65439SOL    HW296344  12.142   9.731   4.654
65440SOL     OW96345  11.711   9.374   4.236
65440SOL    HW196346  11.630   9.375   4.294
65440SOL    HW296347  11.714   9.457   4.181
65441SOL     OW96348  12.606  10.498   3.765
65441SOL    HW196349  12.638  10.422   3.822
65441SOL    HW296350  12.514  10.525   3.795
65442SOL     OW96351  11.469   9.345   3.895
65442SOL    HW196352  11.518   9.429   3.874
65442SOL    HW296353  11.531   9.280   3.940
65443SOL     OW96354  12.107   9.546   4.204
65443SOL    HW196355  12.059   9.587   4.126
65443SOL    HW296356  12.206   9.544   4.185
65444SOL     OW96357  12.248   9.993   5.188
65444SOL    HW196358  12.168   9.932   5.191
65444SOL    HW296359  12.329   9.940   5.164
65445SOL     OW96360  12.399  10.880   4.517
65445SOL    HW196361  12.420  10.954   4.452
65445SOL    HW296362  12.467  10.880   4.590
65446SOL     OW96363  11.631  10.462   4.465
65446SOL    HW196364  11.560  10.435   4.530
65446SOL    HW296365  11.605  10.434   4.372
65447SOL     OW96366  12.443  11.107   4.315
65447SOL    HW196367  12.487  11.171   4.251
65447SOL    HW296368  12.393  11.159   4.385
65448SOL     OW96369  12.204   9.859   3.740
65448SOL    HW196370  12.163   9.941   3.701
65448SOL    HW296371  12.268   9.885   3.813
65449SOL     OW96372  11.250   9.866   5.110
65449SOL    HW196373  11.342   9.865   5.069
65449SOL    HW296374  11.244   9.940   5.177
65450SOL     OW96375  11.733   9.532   4.871
65450SOL    HW196376  11.771   9.448   4.908
65450SOL    HW296377  11.645   9.551   4.915
65451SOL     OW96378  12.038   9.764   4.366
65451SOL    HW196379  12.006   9.836   4.304
65451SOL    HW296380  12.062   9.683   4.313
65452SOL     OW96381  12.189   9.349   4.477
65452SOL    HW196382  12.117   9.354   4.408
65452SOL    HW296383  12.165   9.280   4.546
65453SOL     OW96384  12.601  10.483   4.591
65453SOL    HW196385  12.546  10.399   4.584
65453SOL    HW296386  12.627  10.512   4.499
65454SOL     OW96387  11.660  10.695   3.898
65454SOL    HW196388  11.573  10.680   3.945
65454SOL    HW296389  11.643  10.721   3.803
65455SOL     OW96390  12.562   9.885   3.802
65455SOL    HW196391  12.508   9.864   3.883
65455SOL    HW296392  12.653   9.844   3.811
65456SOL     OW96393  11.699   9.566   4.052
65456SOL    HW196394  11.726   9.507   3.977
65456SOL    HW296395  11.699   9.661   4.021
65457SOL     OW96396  12.236  10.657   5.064
65457SOL    HW196397  12.156  10.634   5.119
65457SOL    HW296398  12.319  10.631   5.113
65458SOL     OW96399  12.764  10.939   5.349
65458SOL    HW196400  12.791  10.973   5.259
65458SOL    HW296401  12.843  10.901   5.395
65459SOL     OW96402  12.283  10.505   4.824
65459SOL    HW196403  12.243  10.549   4.905
65459SOL    HW296404  12.242  10.542   4.741
65460SOL     OW96405  12.087   9.399   5.126
65460SOL    HW196406  12.112   9.379   5.031
65460SOL    HW296407  12.159   9.455   5.168
65461SOL     OW96408  12.152  10.426   5.443
65461SOL    HW196409  12.053  10.432   5.453
65461SOL    HW296410  12.175  10.346   5.387
65462SOL     OW96411  11.877  10.360   4.092
65462SOL    HW196412  11.863  10.367   4.191
65462SOL    HW296413  11.961  10.309   4.074
65463SOL     OW96414  11.582  10.123   4.975
65463SOL    HW196415  11.668  10.135   5.025
65463SOL    HW296416  11.540  10.036   5.002
65464SOL     OW96417  12.446   9.696   4.986
65464SOL    HW196418  12.467   9.770   5.050
65464SOL    HW296419  12.357   9.713   4.943
65465SOL     OW96420  11.236  10.874   5.055
65465SOL    HW196421  11.190  10.956   5.021
65465SOL    HW296422  11.334  10.893   5.064
65466SOL     OW96423  11.539  10.410   4.225
65466SOL    HW196424  11.532  10.493   4.169
65466SOL    HW296425  11.543  10.330   4.165
65467SOL     OW96426  11.738   9.847   4.589
65467SOL    HW196427  11.750   9.913   4.515
65467SOL    HW296428  11.784   9.881   4.672
65468SOL     OW96429  12.424  10.658   4.112
65468SOL    HW196430  12.474  10.735   4.152
65468SOL    HW296431  12.329  10.660   4.144
65469SOL     OW96432  12.444  10.755   4.866
65469SOL    HW196433  12.491  10.768   4.953
65469SOL    HW296434  12.378  10.681   4.875
65470SOL     OW96435  11.526  10.820   5.053
65470SOL    HW196436  11.505  10.776   4.966
65470SOL    HW296437  11.623  10.846   5.056
65471SOL     OW96438  11.574  10.061   5.322
65471SOL    HW196439  11.642  10.116   5.275
65471SOL    HW296440  11.614   9.973   5.349
65472SOL     OW96441  12.185   9.415   5.494
65472SOL    HW196442  12.191   9.500   5.442
65472SOL    HW296443  12.217   9.339   5.437
65473SOL     OW96444  11.676   9.360   5.464
65473SOL    HW196445  11.634   9.303   5.394
65473SOL    HW296446  11.610   9.429   5.496
65474SOL     OW96447  11.745  10.180   4.753
65474SOL    HW196448  11.789  10.269   4.744
65474SOL    HW296449  11.682  10.180   4.830
65475SOL     OW96450  12.532  10.172   4.769
65475SOL    HW196451  12.457  10.172   4.703
65475SOL    HW296452  12.569  10.080   4.778
65476SOL     OW96453  12.381   9.835   3.999
65476SOL    HW196454  12.394   9.751   4.053
65476SOL    HW296455  12.352   9.909   4.059
65477SOL     OW96456  11.479   9.523   4.955
65477SOL    HW196457  11.456   9.560   5.045
65477SOL    HW296458  11.449   9.428   4.949
65478SOL     OW96459  11.209  10.620   5.006
65478SOL    HW196460  11.262  10.571   5.074
65478SOL    HW296461  11.231  10.718   5.011
65479SOL     OW96462  11.904   9.944   4.788
65479SOL    HW196463  11.963   9.918   4.712
65479SOL    HW296464  11.876  10.040   4.777
65480SOL     OW96465  11.479   9.373   4.342
65480SOL    HW196466  11.468   9.467   4.375
65480SOL    HW296467  11.474   9.310   4.419
65481SOL     OW96468  12.794   9.677   4.098
65481SOL    HW196469  12.796   9.601   4.162
65481SOL    HW296470  12.746   9.754   4.138
65482SOL     OW96471  12.195  10.076   4.690
65482SOL    HW196472  12.210  10.097   4.786
65482SOL    HW296473  12.165   9.981   4.681
65483SOL     OW96474  12.152  10.883   5.424
65483SOL    HW196475  12.132  10.927   5.336
65483SOL    HW296476  12.191  10.792   5.408
65484SOL     OW96477  11.522  10.208   5.528
65484SOL    HW196478  11.598  10.252   5.576
65484SOL    HW296479  11.557  10.161   5.446
65485SOL     OW96480  12.475  10.148   3.766
65485SOL    HW196481  12.509  10.055   3.781
65485SOL    HW296482  12.493  10.175   3.671
65486SOL     OW96483  12.240  10.643   4.573
65486SOL    HW196484  12.247  10.559   4.518
65486SOL    HW296485  12.302  10.712   4.537
65487SOL     OW96486  11.491  10.120   4.673
65487SOL    HW196487  11.584  10.156   4.678
65487SOL    HW296488  11.485  10.035   4.725
65488SOL     OW96489  11.511   9.819   4.730
65488SOL    HW196490  11.459   9.736   4.713
65488SOL    HW296491  11.588   9.824   4.666
65489SOL     OW96492  12.310   9.690   5.402
65489SOL    HW196493  12.265   9.753   5.466
65489SOL    HW296494  12.403   9.721   5.385
65490SOL     OW96495  12.332   9.517   5.201
65490SOL    HW196496  12.332   9.581   5.278
65490SOL    HW296497  12.360   9.565   5.118
65491SOL     OW96498  11.180  10.636   3.924
65491SOL    HW196499  11.087  10.657   3.893
65491SOL    HW296500  11.190  10.537   3.937
65492SOL     OW96501  11.260  11.111   4.651
65492SOL    HW196502  11.218  11.025   4.624
65492SOL    HW296503  11.354  11.114   4.617
65493SOL     OW96504  11.676  10.878   4.634
65493SOL    HW196505  11.742  10.952   4.643
65493SOL    HW296506  11.720  10.799   4.592
65494SOL     OW96507  12.174  10.106   4.962
65494SOL    HW196508  12.215  10.074   5.048
65494SOL    HW296509  12.078  10.079   4.959
65495SOL     OW96510  11.212   9.854   4.838
65495SOL    HW196511  11.297   9.821   4.797
65495SOL    HW296512  11.225   9.869   4.936
65496SOL     OW96513  11.361   9.830   5.446
65496SOL    HW196514  11.420   9.790   5.376
65496SOL    HW296515  11.303   9.901   5.405
65497SOL     OW96516  12.541  10.260   5.384
65497SOL    HW196517  12.580  10.349   5.404
65497SOL    HW296518  12.551  10.240   5.287
65498SOL     OW96519  11.987   9.882   4.049
65498SOL    HW196520  11.994   9.793   4.003
65498SOL    HW296521  11.893   9.916   4.041
65499SOL     OW96522  11.424  10.874   5.468
65499SOL    HW196523  11.394  10.931   5.544
65499SOL    HW296524  11.417  10.777   5.494
65500SOL     OW96525  11.843   9.774   4.993
65500SOL    HW196526  11.809   9.685   4.963
65500SOL    HW296527  11.869   9.828   4.913
65501SOL     OW96528  12.102  10.988   5.189
65501SOL    HW196529  12.078  10.970   5.094
65501SOL    HW296530  12.132  11.082   5.199
65502SOL     OW96531  11.645   9.810   3.915
65502SOL    HW196532  11.706   9.890   3.919
65502SOL    HW296533  11.550   9.841   3.922
65503SOL     OW96534  11.331  10.447   5.190
65503SOL    HW196535  11.353  10.386   5.266
65503SOL    HW296536  11.341  10.398   5.104
65504SOL     OW96537  12.519  10.369   4.958
65504SOL    HW196538  12.543  10.306   4.884
65504SOL    HW296539  12.429  10.409   4.940
65505SOL     OW96540  12.474  10.165   4.033
65505SOL    HW196541  12.388  10.134   4.075
65505SOL    HW296542  12.470  10.151   3.934
65506SOL     OW96543  12.424  11.041   4.852
65506SOL    HW196544  12.508  11.046   4.798
65506SOL    HW296545  12.401  10.945   4.870
65507SOL     OW96546  11.255  10.568   4.746
65507SOL    HW196547  11.250  10.567   4.846
65507SOL    HW296548  11.172  10.527   4.708
65508SOL     OW96549  11.860  10.972   5.440
65508SOL    HW196550  11.804  11.053   5.449
65508SOL    HW296551  11.912  10.976   5.354
65509SOL     OW96552  12.898   9.445   4.247
65509SOL    HW196553  12.971   9.428   4.180
65509SOL    HW296554  12.867   9.358   4.285
65510SOL     OW96555  12.560  10.883   4.201
65510SOL    HW196556  12.627  10.895   4.127
65510SOL    HW296557  12.520  10.972   4.224
65511SOL     OW96558  11.302  11.104   5.575
65511SOL    HW196559  11.261  11.030   5.628
65511SOL    HW296560  11.366  11.155   5.633
65512SOL     OW96561  12.452  10.237   4.396
65512SOL    HW196562  12.512  10.156   4.398
65512SOL    HW296563  12.492  10.306   4.336
65513SOL     OW96564  12.002  10.583   5.146
65513SOL    HW196565  11.997  10.616   5.241
65513SOL    HW296566  11.916  10.602   5.100
65514SOL     OW96567  11.844  10.926   3.878
65514SOL    HW196568  11.853  10.936   3.779
65514SOL    HW296569  11.804  10.837   3.899
65515SOL     OW96570  11.435   9.636   4.444
65515SOL    HW196571  11.356   9.687   4.410
65515SOL    HW296572  11.426   9.621   4.542
65516SOL     OW96573  12.366  10.922   3.755
65516SOL    HW196574  12.372  10.829   3.792
65516SOL    HW296575  12.307  10.922   3.675
65517SOL     OW96576  11.994  10.312   5.096
65517SOL    HW196577  12.034  10.311   5.004
65517SOL    HW296578  12.004  10.404   5.136
65518SOL     OW96579  12.088  10.220   4.015
65518SOL    HW196580  12.151  10.258   3.947
65518SOL    HW296581  12.128  10.137   4.054
65519SOL     OW96582  11.544  10.598   5.214
65519SOL    HW196583  11.531  10.691   5.180
65519SOL    HW296584  11.460  10.546   5.201
65520SOL     OW96585  12.211  10.408   4.420
65520SOL    HW196586  12.141  10.361   4.474
65520SOL    HW296587  12.270  10.340   4.377
65521SOL     OW96588  12.186   9.546   4.695
65521SOL    HW196589  12.178   9.510   4.602
65521SOL    HW296590  12.184   9.470   4.760
65522SOL     OW96591  11.762  10.797   4.215
65522SOL    HW196592  11.804  10.739   4.145
65522SOL    HW296593  11.718  10.876   4.171
65523SOL     OW96594  11.427  10.658   4.014
65523SOL    HW196595  11.331  10.659   3.987
65523SOL    HW296596  11.439  10.711   4.098
65524SOL     OW96597  11.277  10.323   5.450
65524SOL    HW196598  11.200  10.290   5.504
65524SOL    HW296599  11.362  10.293   5.492
65525SOL     OW96600  11.844   9.513   5.213
65525SOL    HW196601  11.934   9.497   5.173
65525SOL    HW296602  11.852   9.518   5.312
65526SOL     OW96603  11.247   9.655   3.757
65526SOL    HW196604  11.155   9.627   3.728
65526SOL    HW296605  11.278   9.732   3.701
65527SOL     OW96606  12.612  10.166   5.122
65527SOL    HW196607  12.555  10.218   5.059
65527SOL    HW296608  12.708  10.178   5.098
65528SOL     OW96609  11.244   9.476   4.042
65528SOL    HW196610  11.227   9.559   3.988
65528SOL    HW296611  11.334   9.439   4.020
65529SOL     OW96612  12.355  10.645   3.843
65529SOL    HW196613  12.256  10.634   3.845
65529SOL    HW296614  12.389  10.660   3.936
65530SOL     OW96615  11.785  10.152   5.155
65530SOL    HW196616  11.841  10.233   5.138
65530SOL    HW296617  11.844  10.072   5.158
65531SOL     OW96618  11.888   9.875   5.432
65531SOL    HW196619  11.907   9.940   5.506
65531SOL    HW296620  11.948   9.795   5.441
65532SOL     OW96621  12.622  10.530   5.357
65532SOL    HW196622  12.613  10.520   5.456
65532SOL    HW296623  12.718  10.523   5.331
65533SOL     OW96624  11.562  11.051   5.284
65533SOL    HW196625  11.471  11.092   5.282
65533SOL    HW296626  11.555  10.957   5.316
65534SOL     OW96627  12.397   9.635   4.173
65534SOL    HW196628  12.462   9.561   4.162
65534SOL    HW296629  12.417   9.685   4.257
65535SOL     OW96630  11.766  10.055   4.376
65535SOL    HW196631  11.816  10.140   4.357
65535SOL    HW296632  11.678  10.057   4.328
65536SOL     OW96633  12.031  10.684   3.740
65536SOL    HW196634  11.985  10.699   3.828
65536SOL    HW296635  12.075  10.769   3.710
65537SOL     OW96636  11.833  11.100   4.677
65537SOL    HW196637  11.787  11.188   4.664
65537SOL    HW296638  11.932  11.112   4.670
65538SOL     OW96639  12.031  10.266   4.585
65538SOL    HW196640  12.085  10.197   4.633
65538SOL    HW296641  11.999  10.335   4.651
65539SOL     OW96642  12.255  10.294   3.811
65539SOL    HW196643  12.232  10.347   3.729
65539SOL    HW296644  12.336  10.238   3.792
65540SOL     OW96645  11.393  10.624   5.568
65540SOL    HW196646  11.328  10.551   5.547
65540SOL    HW296647  11.397  10.638   5.666
65541SOL     OW96648  11.251  10.550   4.377
65541SOL    HW196649  11.250  10.503   4.465
65541SOL    HW296650  11.333  10.522   4.326
65542SOL     OW96651  11.844  10.701   5.348
65542SOL    HW196652  11.766  10.651   5.386
65542SOL    HW296653  11.841  10.796   5.379
65543SOL     OW96654  11.600   9.734   4.244
65543SOL    HW196655  11.630   9.662   4.182
65543SOL    HW296656  11.561   9.694   4.327
65544SOL     OW96657  12.877  10.797   4.828
65544SOL    HW196658  12.784  10.772   4.801
65544SOL    HW296659  12.903  10.747   4.910
65545SOL     OW96660  11.489   9.857   5.004
65545SOL    HW196661  11.527   9.798   5.076
65545SOL    HW296662  11.529   9.831   4.916
65546SOL     OW96663  11.984  10.896   4.411
65546SOL    HW196664  12.016  10.906   4.317
65546SOL    HW296665  11.905  10.834   4.413
65547SOL     OW96666  12.596   9.524   4.836
65547SOL    HW196667  12.648   9.459   4.891
65547SOL    HW296668  12.547   9.587   4.897
65548SOL     OW96669  12.173   9.344   4.878
65548SOL    HW196670  12.110   9.272   4.847
65548SOL    HW296671  12.266   9.308   4.878
65549SOL     OW96672  11.942  10.640   4.025
65549SOL    HW196673  11.896  10.553   4.042
65549SOL    HW296674  12.033  10.637   4.066
65550SOL     OW96675  11.790  10.877   5.008
65550SOL    HW196676  11.785  10.959   5.065
65550SOL    HW296677  11.879  10.874   4.963
65551SOL     OW96678  12.524   9.362   3.892
65551SOL    HW196679  12.559   9.321   3.808
65551SOL    HW296680  12.434   9.324   3.912
65552SOL     OW96681  12.472   9.763   4.415
65552SOL    HW196682  12.413   9.843   4.419
65552SOL    HW296683  12.487   9.728   4.508
65553SOL     OW96684  11.211  10.387   4.024
65553SOL    HW196685  11.310  10.376   4.015
65553SOL    HW296686  11.171  10.301   4.056
65554SOL     OW96687  12.047  10.956   4.061
65554SOL    HW196688  11.970  10.921   4.007
65554SOL    HW296689  12.015  11.027   4.123
65555SOL     OW96690  11.402   9.938   5.699
65555SOL    HW196691  11.309   9.936   5.736
65555SOL    HW296692  11.403   9.899   5.607
65556SOL     OW96693  11.397   9.585   6.582
65556SOL    HW196694  11.432   9.568   6.674
65556SOL    HW296695  11.309   9.540   6.570
65557SOL     OW96696  11.191   9.678   6.233
65557SOL    HW196697  11.109   9.721   6.272
65557SOL    HW296698  11.163   9.605   6.170
65558SOL     OW96699  11.741  10.585   6.751
65558SOL    HW196700  11.648  10.578   6.714
65558SOL    HW296701  11.752  10.674   6.795
65559SOL     OW96702  12.727  10.821   6.289
65559SOL    HW196703  12.670  10.805   6.370
65559SOL    HW296704  12.668  10.831   6.209
65560SOL     OW96705  12.307  10.013   6.303
65560SOL    HW196706  12.364  10.091   6.278
65560SOL    HW296707  12.247  10.039   6.379
65561SOL     OW96708  11.940  10.454   6.609
65561SOL    HW196709  11.862  10.471   6.669
65561SOL    HW296710  11.974  10.541   6.573
65562SOL     OW96711  12.022  10.108   7.409
65562SOL    HW196712  12.018  10.184   7.474
65562SOL    HW296713  12.044  10.144   7.318
65563SOL     OW96714  11.857  10.322   6.251
65563SOL    HW196715  11.926  10.306   6.321
65563SOL    HW296716  11.784  10.379   6.289
65564SOL     OW96717  11.858  10.471   7.389
65564SOL    HW196718  11.918  10.550   7.403
65564SOL    HW296719  11.772  10.502   7.348
65565SOL     OW96720  11.507  10.745   6.647
65565SOL    HW196721  11.429  10.714   6.594
65565SOL    HW296722  11.565  10.803   6.590
65566SOL     OW96723  11.610   9.702   7.085
65566SOL    HW196724  11.692   9.646   7.094
65566SOL    HW296725  11.529   9.644   7.089
65567SOL     OW96726  11.403  11.023   6.069
65567SOL    HW196727  11.437  11.100   6.123
65567SOL    HW296728  11.447  11.023   5.979
65568SOL     OW96729  12.299  10.651   7.276
65568SOL    HW196730  12.346  10.651   7.364
65568SOL    HW296731  12.251  10.564   7.265
65569SOL     OW96732  11.402  10.744   6.124
65569SOL    HW196733  11.376  10.840   6.124
65569SOL    HW296734  11.331  10.690   6.169
65570SOL     OW96735  11.412  10.401   6.472
65570SOL    HW196736  11.426  10.317   6.524
65570SOL    HW296737  11.357  10.465   6.527
65571SOL     OW96738  11.792  11.096   7.025
65571SOL    HW196739  11.700  11.079   7.060
65571SOL    HW296740  11.820  11.188   7.051
65572SOL     OW96741  11.778  10.274   5.709
65572SOL    HW196742  11.785  10.358   5.655
65572SOL    HW296743  11.824  10.287   5.797
65573SOL     OW96744  11.294   9.953   6.149
65573SOL    HW196745  11.249   9.865   6.166
65573SOL    HW296746  11.293  10.007   6.233
65574SOL     OW96747  11.199  10.906   5.703
65574SOL    HW196748  11.180  10.810   5.724
65574SOL    HW296749  11.166  10.964   5.778
65575SOL     OW96750  12.861  10.232   6.198
65575SOL    HW196751  12.956  10.203   6.206
65575SOL    HW296752  12.853  10.297   6.123
65576SOL     OW96753  11.285  10.047   7.183
65576SOL    HW196754  11.373  10.034   7.228
65576SOL    HW296755  11.272  10.144   7.161
65577SOL     OW96756  11.785  10.675   6.312
65577SOL    HW196757  11.736  10.588   6.321
65577SOL    HW296758  11.762  10.718   6.225
65578SOL     OW96759  12.465  10.538   7.009
65578SOL    HW196760  12.502  10.465   6.951
65578SOL    HW296761  12.517  10.543   7.094
65579SOL     OW96762  11.981   9.314   6.088
65579SOL    HW196763  12.021   9.405   6.079
65579SOL    HW296764  11.881   9.322   6.094
65580SOL     OW96765  11.369  10.286   6.850
65580SOL    HW196766  11.458  10.241   6.836
65580SOL    HW296767  11.296  10.221   6.831
65581SOL     OW96768  12.359  11.102   7.202
65581SOL    HW196769  12.383  11.162   7.126
65581SOL    HW296770  12.366  11.007   7.172
65582SOL     OW96771  11.489   9.561   7.387
65582SOL    HW196772  11.560   9.632   7.393
65582SOL    HW296773  11.401   9.600   7.415
65583SOL     OW96774  12.638  10.727   6.539
65583SOL    HW196775  12.579  10.733   6.619
65583SOL    HW296776  12.623  10.639   6.493
65584SOL     OW96777  11.770  10.039   5.856
65584SOL    HW196778  11.794  10.108   5.788
65584SOL    HW296779  11.692  10.072   5.910
65585SOL     OW96780  12.453   9.655   6.530
65585SOL    HW196781  12.367   9.605   6.517
65585SOL    HW296782  12.515   9.601   6.586
65586SOL     OW96783  11.979   9.915   7.051
65586SOL    HW196784  11.932   9.912   7.140
65586SOL    HW296785  11.928   9.860   6.985
65587SOL     OW96786  12.566   9.779   7.260
65587SOL    HW196787  12.546   9.822   7.348
65587SOL    HW296788  12.644   9.717   7.269
65588SOL     OW96789  12.145  10.200   7.158
65588SOL    HW196790  12.191  10.116   7.129
65588SOL    HW296791  12.089  10.234   7.083
65589SOL     OW96792  12.163   9.720   6.828
65589SOL    HW196793  12.086   9.754   6.882
65589SOL    HW296794  12.129   9.669   6.749
65590SOL     OW96795  12.213  10.011   6.015
65590SOL    HW196796  12.239  10.007   6.111
65590SOL    HW296797  12.128   9.960   6.001
65591SOL     OW96798  11.248  10.121   6.375
65591SOL    HW196799  11.347  10.109   6.384
65591SOL    HW296800  11.224  10.216   6.396
65592SOL     OW96801  11.302  11.131   7.157
65592SOL    HW196802  11.292  11.116   7.256
65592SOL    HW296803  11.216  11.167   7.121
65593SOL     OW96804  12.037   9.658   5.781
65593SOL    HW196805  12.096   9.721   5.732
65593SOL    HW296806  12.056   9.564   5.752
65594SOL     OW96807  12.534  10.454   6.131
65594SOL    HW196808  12.617  10.425   6.083
65594SOL    HW296809  12.485  10.521   6.075
65595SOL     OW96810  11.722   9.506   6.471
65595SOL    HW196811  11.717   9.501   6.571
65595SOL    HW296812  11.724   9.602   6.442
65596SOL     OW96813  12.180  10.766   6.063
65596SOL    HW196814  12.134  10.838   6.011
65596SOL    HW296815  12.176  10.786   6.161
65597SOL     OW96816  11.523  11.111   6.439
65597SOL    HW196817  11.573  11.025   6.445
65597SOL    HW296818  11.588  11.188   6.436
65598SOL     OW96819  12.399  10.860   7.092
65598SOL    HW196820  12.405  10.783   7.156
65598SOL    HW296821  12.347  10.834   7.012
65599SOL     OW96822  11.493  10.253   5.828
65599SOL    HW196823  11.575  10.292   5.786
65599SOL    HW296824  11.466  10.171   5.779
65600SOL     OW96825  11.633  10.576   7.313
65600SOL    HW196826  11.583  10.577   7.227
65600SOL    HW296827  11.570  10.558   7.389
65601SOL     OW96828  12.283  11.086   5.823
65601SOL    HW196829  12.223  11.024   5.873
65601SOL    HW296830  12.314  11.042   5.738
65602SOL     OW96831  11.374   9.595   7.084
65602SOL    HW196832  11.294   9.655   7.071
65602SOL    HW296833  11.364   9.546   7.170
65603SOL     OW96834  11.636  11.053   5.909
65603SOL    HW196835  11.669  11.092   5.995
65603SOL    HW296836  11.712  11.046   5.844
65604SOL     OW96837  12.572   9.417   6.012
65604SOL    HW196838  12.548   9.380   5.922
65604SOL    HW296839  12.671   9.433   6.016
65605SOL     OW96840  11.421  11.095   6.827
65605SOL    HW196841  11.478  11.030   6.877
65605SOL    HW296842  11.405  11.062   6.734
65606SOL     OW96843  12.112  11.008   6.490
65606SOL    HW196844  12.192  10.951   6.511
65606SOL    HW296845  12.063  10.968   6.413
65607SOL     OW96846  11.554  10.010   6.066
65607SOL    HW196847  11.599   9.920   6.063
65607SOL    HW296848  11.460   9.999   6.099
65608SOL     OW96849  11.786   9.432   5.703
65608SOL    HW196850  11.884   9.410   5.710
65608SOL    HW296851  11.755   9.415   5.610
65609SOL     OW96852  11.953   9.574   7.335
65609SOL    HW196853  12.020   9.513   7.378
65609SOL    HW296854  11.880   9.593   7.400
65610SOL     OW96855  12.060  10.824   6.781
65610SOL    HW196856  12.037  10.799   6.687
65610SOL    HW296857  12.121  10.755   6.820
65611SOL     OW96858  12.523   9.900   7.019
65611SOL    HW196859  12.551   9.857   7.104
65611SOL    HW296860  12.548   9.996   7.020
65612SOL     OW96861  11.975  10.712   6.510
65612SOL    HW196862  12.065  10.726   6.468
65612SOL    HW296863  11.904  10.714   6.439
65613SOL     OW96864  12.094   9.813   6.485
65613SOL    HW196865  12.069   9.804   6.389
65613SOL    HW296866  12.142   9.731   6.516
65614SOL     OW96867  11.711   9.374   6.098
65614SOL    HW196868  11.630   9.375   6.156
65614SOL    HW296869  11.714   9.457   6.043
65615SOL     OW96870  12.606  10.498   5.627
65615SOL    HW196871  12.638  10.422   5.684
65615SOL    HW296872  12.514  10.525   5.657
65616SOL     OW96873  11.469   9.345   5.757
65616SOL    HW196874  11.518   9.429   5.736
65616SOL    HW296875  11.531   9.280   5.802
65617SOL     OW96876  12.107   9.546   6.066
65617SOL    HW196877  12.059   9.587   5.988
65617SOL    HW296878  12.206   9.544   6.047
65618SOL     OW96879  12.248   9.993   7.050
65618SOL    HW196880  12.168   9.932   7.053
65618SOL    HW296881  12.329   9.940   7.026
65619SOL     OW96882  12.399  10.880   6.379
65619SOL    HW196883  12.420  10.954   6.314
65619SOL    HW296884  12.467  10.880   6.452
65620SOL     OW96885  11.631  10.462   6.327
65620SOL    HW196886  11.560  10.435   6.392
65620SOL    HW296887  11.605  10.434   6.234
65621SOL     OW96888  12.443  11.107   6.177
65621SOL    HW196889  12.487  11.171   6.113
65621SOL    HW296890  12.393  11.159   6.247
65622SOL     OW96891  12.204   9.859   5.602
65622SOL    HW196892  12.163   9.941   5.563
65622SOL    HW296893  12.268   9.885   5.675
65623SOL     OW96894  11.250   9.866   6.972
65623SOL    HW196895  11.342   9.865   6.931
65623SOL    HW296896  11.244   9.940   7.039
65624SOL     OW96897  11.733   9.532   6.733
65624SOL    HW196898  11.771   9.448   6.770
65624SOL    HW296899  11.645   9.551   6.777
65625SOL     OW96900  12.038   9.764   6.228
65625SOL    HW196901  12.006   9.836   6.166
65625SOL    HW296902  12.062   9.683   6.175
65626SOL     OW96903  12.189   9.349   6.339
65626SOL    HW196904  12.117   9.354   6.270
65626SOL    HW296905  12.165   9.280   6.408
65627SOL     OW96906  12.601  10.483   6.453
65627SOL    HW196907  12.546  10.399   6.446
65627SOL    HW296908  12.627  10.512   6.361
65628SOL     OW96909  11.660  10.695   5.760
65628SOL    HW196910  11.573  10.680   5.807
65628SOL    HW296911  11.643  10.721   5.665
65629SOL     OW96912  12.562   9.885   5.664
65629SOL    HW196913  12.508   9.864   5.745
65629SOL    HW296914  12.653   9.844   5.673
65630SOL     OW96915  11.699   9.566   5.914
65630SOL    HW196916  11.726   9.507   5.839
65630SOL    HW296917  11.699   9.661   5.883
65631SOL     OW96918  12.236  10.657   6.926
65631SOL    HW196919  12.156  10.634   6.981
65631SOL    HW296920  12.319  10.631   6.975
65632SOL     OW96921  12.764  10.939   7.211
65632SOL    HW196922  12.791  10.973   7.121
65632SOL    HW296923  12.843  10.901   7.257
65633SOL     OW96924  12.283  10.505   6.686
65633SOL    HW196925  12.243  10.549   6.767
65633SOL    HW296926  12.242  10.542   6.603
65634SOL     OW96927  12.087   9.399   6.988
65634SOL    HW196928  12.112   9.379   6.893
65634SOL    HW296929  12.159   9.455   7.030
65635SOL     OW96930  12.152  10.426   7.305
65635SOL    HW196931  12.053  10.432   7.315
65635SOL    HW296932  12.175  10.346   7.249
65636SOL     OW96933  11.877  10.360   5.954
65636SOL    HW196934  11.863  10.367   6.053
65636SOL    HW296935  11.961  10.309   5.936
65637SOL     OW96936  11.582  10.123   6.837
65637SOL    HW196937  11.668  10.135   6.887
65637SOL    HW296938  11.540  10.036   6.864
65638SOL     OW96939  12.446   9.696   6.848
65638SOL    HW196940  12.467   9.770   6.912
65638SOL    HW296941  12.357   9.713   6.805
65639SOL     OW96942  11.236  10.874   6.917
65639SOL    HW196943  11.190  10.956   6.883
65639SOL    HW296944  11.334  10.893   6.926
65640SOL     OW96945  11.539  10.410   6.087
65640SOL    HW196946  11.532  10.493   6.031
65640SOL    HW296947  11.543  10.330   6.027
65641SOL     OW96948  11.738   9.847   6.451
65641SOL    HW196949  11.750   9.913   6.377
65641SOL    HW296950  11.784   9.881   6.534
65642SOL     OW96951  12.424  10.658   5.974
65642SOL    HW196952  12.474  10.735   6.014
65642SOL    HW296953  12.329  10.660   6.006
65643SOL     OW96954  12.444  10.755   6.728
65643SOL    HW196955  12.491  10.768   6.815
65643SOL    HW296956  12.378  10.681   6.737
65644SOL     OW96957  11.526  10.820   6.915
65644SOL    HW196958  11.505  10.776   6.828
65644SOL    HW296959  11.623  10.846   6.918
65645SOL     OW96960  11.574  10.061   7.184
65645SOL    HW196961  11.642  10.116   7.137
65645SOL    HW296962  11.614   9.973   7.211
65646SOL     OW96963  12.185   9.415   7.356
65646SOL    HW196964  12.191   9.500   7.304
65646SOL    HW296965  12.217   9.339   7.299
65647SOL     OW96966  11.676   9.360   7.326
65647SOL    HW196967  11.634   9.303   7.256
65647SOL    HW296968  11.610   9.429   7.358
65648SOL     OW96969  11.745  10.180   6.615
65648SOL    HW196970  11.789  10.269   6.606
65648SOL    HW296971  11.682  10.180   6.692
65649SOL     OW96972  12.532  10.172   6.631
65649SOL    HW196973  12.457  10.172   6.565
65649SOL    HW296974  12.569  10.080   6.640
65650SOL     OW96975  12.381   9.835   5.861
65650SOL    HW196976  12.394   9.751   5.915
65650SOL    HW296977  12.352   9.909   5.921
65651SOL     OW96978  11.479   9.523   6.817
65651SOL    HW196979  11.456   9.560   6.907
65651SOL    HW296980  11.449   9.428   6.811
65652SOL     OW96981  11.209  10.620   6.868
65652SOL    HW196982  11.262  10.571   6.936
65652SOL    HW296983  11.231  10.718   6.873
65653SOL     OW96984  11.904   9.944   6.650
65653SOL    HW196985  11.963   9.918   6.574
65653SOL    HW296986  11.876  10.040   6.639
65654SOL     OW96987  11.479   9.373   6.204
65654SOL    HW196988  11.468   9.467   6.237
65654SOL    HW296989  11.474   9.310   6.281
65655SOL     OW96990  12.794   9.677   5.960
65655SOL    HW196991  12.796   9.601   6.024
65655SOL    HW296992  12.746   9.754   6.000
65656SOL     OW96993  12.195  10.076   6.552
65656SOL    HW196994  12.210  10.097   6.648
65656SOL    HW296995  12.165   9.981   6.543
65657SOL     OW96996  12.152  10.883   7.286
65657SOL    HW196997  12.132  10.927   7.198
65657SOL    HW296998  12.191  10.792   7.270
65658SOL     OW96999  11.522  10.208   7.390
65658SOL    HW197000  11.598  10.252   7.438
65658SOL    HW297001  11.557  10.161   7.308
65659SOL     OW97002  12.475  10.148   5.628
65659SOL    HW197003  12.509  10.055   5.643
65659SOL    HW297004  12.493  10.175   5.533
65660SOL     OW97005  12.240  10.643   6.435
65660SOL    HW197006  12.247  10.559   6.380
65660SOL    HW297007  12.302  10.712   6.399
65661SOL     OW97008  11.491  10.120   6.535
65661SOL    HW197009  11.584  10.156   6.540
65661SOL    HW297010  11.485  10.035   6.587
65662SOL     OW97011  11.511   9.819   6.592
65662SOL    HW197012  11.459   9.736   6.575
65662SOL    HW297013  11.588   9.824   6.528
65663SOL     OW97014  12.310   9.690   7.264
65663SOL    HW197015  12.265   9.753   7.328
65663SOL    HW297016  12.403   9.721   7.247
65664SOL     OW97017  12.332   9.517   7.063
65664SOL    HW197018  12.332   9.581   7.140
65664SOL    HW297019  12.360   9.565   6.980
65665SOL     OW97020  11.180  10.636   5.786
65665SOL    HW197021  11.087  10.657   5.755
65665SOL    HW297022  11.190  10.537   5.799
65666SOL     OW97023  11.260  11.111   6.513
65666SOL    HW197024  11.218  11.025   6.486
65666SOL    HW297025  11.354  11.114   6.479
65667SOL     OW97026  11.676  10.878   6.496
65667SOL    HW197027  11.742  10.952   6.505
65667SOL    HW297028  11.720  10.799   6.454
65668SOL     OW97029  12.174  10.106   6.824
65668SOL    HW197030  12.215  10.074   6.910
65668SOL    HW297031  12.078  10.079   6.821
65669SOL     OW97032  11.212   9.854   6.700
65669SOL    HW197033  11.297   9.821   6.659
65669SOL    HW297034  11.225   9.869   6.798
65670SOL     OW97035  11.361   9.830   7.308
65670SOL    HW197036  11.420   9.790   7.238
65670SOL    HW297037  11.303   9.901   7.267
65671SOL     OW97038  12.541  10.260   7.246
65671SOL    HW197039  12.580  10.349   7.266
65671SOL    HW297040  12.551  10.240   7.149
65672SOL     OW97041  11.987   9.882   5.911
65672SOL    HW197042  11.994   9.793   5.865
65672SOL    HW297043  11.893   9.916   5.903
65673SOL     OW97044  11.424  10.874   7.330
65673SOL    HW197045  11.394  10.931   7.406
65673SOL    HW297046  11.417  10.777   7.356
65674SOL     OW97047  11.843   9.774   6.855
65674SOL    HW197048  11.809   9.685   6.825
65674SOL    HW297049  11.869   9.828   6.775
65675SOL     OW97050  12.102  10.988   7.051
65675SOL    HW197051  12.078  10.970   6.956
65675SOL    HW297052  12.132  11.082   7.061
65676SOL     OW97053  11.645   9.810   5.777
65676SOL    HW197054  11.706   9.890   5.781
65676SOL    HW297055  11.550   9.841   5.784
65677SOL     OW97056  11.331  10.447   7.052
65677SOL    HW197057  11.353  10.386   7.128
65677SOL    HW297058  11.341  10.398   6.966
65678SOL     OW97059  12.519  10.369   6.820
65678SOL    HW197060  12.543  10.306   6.746
65678SOL    HW297061  12.429  10.409   6.802
65679SOL     OW97062  12.474  10.165   5.895
65679SOL    HW197063  12.388  10.134   5.937
65679SOL    HW297064  12.470  10.151   5.796
65680SOL     OW97065  12.424  11.041   6.714
65680SOL    HW197066  12.508  11.046   6.660
65680SOL    HW297067  12.401  10.945   6.732
65681SOL     OW97068  11.255  10.568   6.608
65681SOL    HW197069  11.250  10.567   6.708
65681SOL    HW297070  11.172  10.527   6.570
65682SOL     OW97071  11.860  10.972   7.302
65682SOL    HW197072  11.804  11.053   7.311
65682SOL    HW297073  11.912  10.976   7.216
65683SOL     OW97074  12.898   9.445   6.109
65683SOL    HW197075  12.971   9.428   6.042
65683SOL    HW297076  12.867   9.358   6.147
65684SOL     OW97077  12.560  10.883   6.063
65684SOL    HW197078  12.627  10.895   5.989
65684SOL    HW297079  12.520  10.972   6.086
65685SOL     OW97080  11.302  11.104   7.437
65685SOL    HW197081  11.261  11.030   7.490
65685SOL    HW297082  11.366  11.155   7.495
65686SOL     OW97083  12.452  10.237   6.258
65686SOL    HW197084  12.512  10.156   6.260
65686SOL    HW297085  12.492  10.306   6.198
65687SOL     OW97086  12.002  10.583   7.008
65687SOL    HW197087  11.997  10.616   7.103
65687SOL    HW297088  11.916  10.602   6.962
65688SOL     OW97089  11.844  10.926   5.740
65688SOL    HW197090  11.853  10.936   5.641
65688SOL    HW297091  11.804  10.837   5.761
65689SOL     OW97092  11.435   9.636   6.306
65689SOL    HW197093  11.356   9.687   6.272
65689SOL    HW297094  11.426   9.621   6.404
65690SOL     OW97095  12.366  10.922   5.617
65690SOL    HW197096  12.372  10.829   5.654
65690SOL    HW297097  12.307  10.922   5.537
65691SOL     OW97098  11.994  10.312   6.958
65691SOL    HW197099  12.034  10.311   6.866
65691SOL    HW297100  12.004  10.404   6.998
65692SOL     OW97101  12.088  10.220   5.877
65692SOL    HW197102  12.151  10.258   5.809
65692SOL    HW297103  12.128  10.137   5.916
65693SOL     OW97104  11.544  10.598   7.076
65693SOL    HW197105  11.531  10.691   7.042
65693SOL    HW297106  11.460  10.546   7.063
65694SOL     OW97107  12.211  10.408   6.282
65694SOL    HW197108  12.141  10.361   6.336
65694SOL    HW297109  12.270  10.340   6.239
65695SOL     OW97110  12.186   9.546   6.557
65695SOL    HW197111  12.178   9.510   6.464
65695SOL    HW297112  12.184   9.470   6.622
65696SOL     OW97113  11.762  10.797   6.077
65696SOL    HW197114  11.804  10.739   6.007
65696SOL    HW297115  11.718  10.876   6.033
65697SOL     OW97116  11.427  10.658   5.876
65697SOL    HW197117  11.331  10.659   5.849
65697SOL    HW297118  11.439  10.711   5.960
65698SOL     OW97119  11.277  10.323   7.312
65698SOL    HW197120  11.200  10.290   7.366
65698SOL    HW297121  11.362  10.293   7.354
65699SOL     OW97122  11.844   9.513   7.075
65699SOL    HW197123  11.934   9.497   7.035
65699SOL    HW297124  11.852   9.518   7.174
65700SOL     OW97125  11.247   9.655   5.619
65700SOL    HW197126  11.155   9.627   5.590
65700SOL    HW297127  11.278   9.732   5.563
65701SOL     OW97128  12.612  10.166   6.984
65701SOL    HW197129  12.555  10.218   6.921
65701SOL    HW297130  12.708  10.178   6.960
65702SOL     OW97131  11.244   9.476   5.904
65702SOL    HW197132  11.227   9.559   5.850
65702SOL    HW297133  11.334   9.439   5.882
65703SOL     OW97134  12.355  10.645   5.705
65703SOL    HW197135  12.256  10.634   5.707
65703SOL    HW297136  12.389  10.660   5.798
65704SOL     OW97137  11.785  10.152   7.017
65704SOL    HW197138  11.841  10.233   7.000
65704SOL    HW297139  11.844  10.072   7.020
65705SOL     OW97140  11.888   9.875   7.294
65705SOL    HW197141  11.907   9.940   7.368
65705SOL    HW297142  11.948   9.795   7.303
65706SOL     OW97143  12.622  10.530   7.219
65706SOL    HW197144  12.613  10.520   7.318
65706SOL    HW297145  12.718  10.523   7.193
65707SOL     OW97146  11.562  11.051   7.146
65707SOL    HW197147  11.471  11.092   7.144
65707SOL    HW297148  11.555  10.957   7.178
65708SOL     OW97149  12.397   9.635   6.035
65708SOL    HW197150  12.462   9.561   6.024
65708SOL    HW297151  12.417   9.685   6.119
65709SOL     OW97152  11.766  10.055   6.238
65709SOL    HW197153  11.816  10.140   6.219
65709SOL    HW297154  11.678  10.057   6.190
65710SOL     OW97155  12.031  10.684   5.602
65710SOL    HW197156  11.985  10.699   5.690
65710SOL    HW297157  12.075  10.769   5.572
65711SOL     OW97158  11.833  11.100   6.539
65711SOL    HW197159  11.787  11.188   6.526
65711SOL    HW297160  11.932  11.112   6.532
65712SOL     OW97161  12.031  10.266   6.447
65712SOL    HW197162  12.085  10.197   6.495
65712SOL    HW297163  11.999  10.335   6.513
65713SOL     OW97164  12.255  10.294   5.673
65713SOL    HW197165  12.232  10.347   5.591
65713SOL    HW297166  12.336  10.238   5.654
65714SOL     OW97167  11.393  10.624   7.430
65714SOL    HW197168  11.328  10.551   7.409
65714SOL    HW297169  11.397  10.638   7.528
65715SOL     OW97170  11.251  10.550   6.239
65715SOL    HW197171  11.250  10.503   6.327
65715SOL    HW297172  11.333  10.522   6.188
65716SOL     OW97173  11.844  10.701   7.210
65716SOL    HW197174  11.766  10.651   7.248
65716SOL    HW297175  11.841  10.796   7.241
65717SOL     OW97176  11.600   9.734   6.106
65717SOL    HW197177  11.630   9.662   6.044
65717SOL    HW297178  11.561   9.694   6.189
65718SOL     OW97179  12.877  10.797   6.690
65718SOL    HW197180  12.784  10.772   6.663
65718SOL    HW297181  12.903  10.747   6.772
65719SOL     OW97182  11.489   9.857   6.866
65719SOL    HW197183  11.527   9.798   6.938
65719SOL    HW297184  11.529   9.831   6.778
65720SOL     OW97185  11.984  10.896   6.273
65720SOL    HW197186  12.016  10.906   6.179
65720SOL    HW297187  11.905  10.834   6.275
65721SOL     OW97188  12.596   9.524   6.698
65721SOL    HW197189  12.648   9.459   6.753
65721SOL    HW297190  12.547   9.587   6.759
65722SOL     OW97191  12.173   9.344   6.740
65722SOL    HW197192  12.110   9.272   6.709
65722SOL    HW297193  12.266   9.308   6.740
65723SOL     OW97194  11.942  10.640   5.887
65723SOL    HW197195  11.896  10.553   5.904
65723SOL    HW297196  12.033  10.637   5.928
65724SOL     OW97197  11.790  10.877   6.870
65724SOL    HW197198  11.785  10.959   6.927
65724SOL    HW297199  11.879  10.874   6.825
65725SOL     OW97200  12.524   9.362   5.754
65725SOL    HW197201  12.559   9.321   5.670
65725SOL    HW297202  12.434   9.324   5.774
65726SOL     OW97203  12.472   9.763   6.277
65726SOL    HW197204  12.413   9.843   6.281
65726SOL    HW297205  12.487   9.728   6.370
65727SOL     OW97206  11.211  10.387   5.886
65727SOL    HW197207  11.310  10.376   5.877
65727SOL    HW297208  11.171  10.301   5.918
65728SOL     OW97209  12.047  10.956   5.923
65728SOL    HW197210  11.970  10.921   5.869
65728SOL    HW297211  12.015  11.027   5.985
65729SOL     OW97212  11.402   9.938   7.561
65729SOL    HW197213  11.309   9.936   7.598
65729SOL    HW297214  11.403   9.899   7.469
65730SOL     OW97215  11.397   9.585   8.444
65730SOL    HW197216  11.432   9.568   8.536
65730SOL    HW297217  11.309   9.540   8.432
65731SOL     OW97218  11.191   9.678   8.095
65731SOL    HW197219  11.109   9.721   8.134
65731SOL    HW297220  11.163   9.605   8.032
65732SOL     OW97221  11.741  10.585   8.613
65732SOL    HW197222  11.648  10.578   8.576
65732SOL    HW297223  11.752  10.674   8.657
65733SOL     OW97224  12.727  10.821   8.151
65733SOL    HW197225  12.670  10.805   8.232
65733SOL    HW297226  12.668  10.831   8.071
65734SOL     OW97227  12.307  10.013   8.165
65734SOL    HW197228  12.364  10.091   8.140
65734SOL    HW297229  12.247  10.039   8.241
65735SOL     OW97230  11.940  10.454   8.471
65735SOL    HW197231  11.862  10.471   8.531
65735SOL    HW297232  11.974  10.541   8.435
65736SOL     OW97233  12.022  10.108   9.271
65736SOL    HW197234  12.018  10.184   9.336
65736SOL    HW297235  12.044  10.144   9.180
65737SOL     OW97236  11.857  10.322   8.113
65737SOL    HW197237  11.926  10.306   8.183
65737SOL    HW297238  11.784  10.379   8.151
65738SOL     OW97239  11.858  10.471   9.251
65738SOL    HW197240  11.918  10.550   9.265
65738SOL    HW297241  11.772  10.502   9.210
65739SOL     OW97242  11.507  10.745   8.509
65739SOL    HW197243  11.429  10.714   8.456
65739SOL    HW297244  11.565  10.803   8.452
65740SOL     OW97245  11.610   9.702   8.947
65740SOL    HW197246  11.692   9.646   8.956
65740SOL    HW297247  11.529   9.644   8.951
65741SOL     OW97248  12.299  10.651   9.138
65741SOL    HW197249  12.346  10.651   9.226
65741SOL    HW297250  12.251  10.564   9.127
65742SOL     OW97251  11.402  10.744   7.986
65742SOL    HW197252  11.376  10.840   7.986
65742SOL    HW297253  11.331  10.690   8.031
65743SOL     OW97254  11.412  10.401   8.334
65743SOL    HW197255  11.426  10.317   8.386
65743SOL    HW297256  11.357  10.465   8.389
65744SOL     OW97257  11.792  11.096   8.887
65744SOL    HW197258  11.700  11.079   8.922
65744SOL    HW297259  11.820  11.188   8.913
65745SOL     OW97260  11.778  10.274   7.571
65745SOL    HW197261  11.785  10.358   7.517
65745SOL    HW297262  11.824  10.287   7.659
65746SOL     OW97263  11.294   9.953   8.011
65746SOL    HW197264  11.249   9.865   8.028
65746SOL    HW297265  11.293  10.007   8.095
65747SOL     OW97266  11.199  10.906   7.565
65747SOL    HW197267  11.180  10.810   7.586
65747SOL    HW297268  11.166  10.964   7.640
65748SOL     OW97269  12.861  10.232   8.060
65748SOL    HW197270  12.956  10.203   8.068
65748SOL    HW297271  12.853  10.297   7.985
65749SOL     OW97272  11.285  10.047   9.045
65749SOL    HW197273  11.373  10.034   9.090
65749SOL    HW297274  11.272  10.144   9.023
65750SOL     OW97275  11.785  10.675   8.174
65750SOL    HW197276  11.736  10.588   8.183
65750SOL    HW297277  11.762  10.718   8.087
65751SOL     OW97278  12.465  10.538   8.871
65751SOL    HW197279  12.502  10.465   8.813
65751SOL    HW297280  12.517  10.543   8.956
65752SOL     OW97281  11.981   9.314   7.950
65752SOL    HW197282  12.021   9.405   7.941
65752SOL    HW297283  11.881   9.322   7.956
65753SOL     OW97284  11.369  10.286   8.712
65753SOL    HW197285  11.458  10.241   8.698
65753SOL    HW297286  11.296  10.221   8.693
65754SOL     OW97287  12.359  11.102   9.064
65754SOL    HW197288  12.383  11.162   8.988
65754SOL    HW297289  12.366  11.007   9.034
65755SOL     OW97290  11.489   9.561   9.249
65755SOL    HW197291  11.560   9.632   9.255
65755SOL    HW297292  11.401   9.600   9.277
65756SOL     OW97293  12.638  10.727   8.401
65756SOL    HW197294  12.579  10.733   8.481
65756SOL    HW297295  12.623  10.639   8.355
65757SOL     OW97296  11.770  10.039   7.718
65757SOL    HW197297  11.794  10.108   7.650
65757SOL    HW297298  11.692  10.072   7.772
65758SOL     OW97299  12.453   9.655   8.392
65758SOL    HW197300  12.367   9.605   8.379
65758SOL    HW297301  12.515   9.601   8.448
65759SOL     OW97302  11.979   9.915   8.913
65759SOL    HW197303  11.932   9.912   9.002
65759SOL    HW297304  11.928   9.860   8.847
65760SOL     OW97305  12.566   9.779   9.122
65760SOL    HW197306  12.546   9.822   9.210
65760SOL    HW297307  12.644   9.717   9.131
65761SOL     OW97308  12.145  10.200   9.020
65761SOL    HW197309  12.191  10.116   8.991
65761SOL    HW297310  12.089  10.234   8.945
65762SOL     OW97311  12.163   9.720   8.690
65762SOL    HW197312  12.086   9.754   8.744
65762SOL    HW297313  12.129   9.669   8.611
65763SOL     OW97314  12.213  10.011   7.877
65763SOL    HW197315  12.239  10.007   7.973
65763SOL    HW297316  12.128   9.960   7.863
65764SOL     OW97317  11.248  10.121   8.237
65764SOL    HW197318  11.347  10.109   8.246
65764SOL    HW297319  11.224  10.216   8.258
65765SOL     OW97320  11.302  11.131   9.019
65765SOL    HW197321  11.292  11.116   9.118
65765SOL    HW297322  11.216  11.167   8.983
65766SOL     OW97323  12.037   9.658   7.643
65766SOL    HW197324  12.096   9.721   7.594
65766SOL    HW297325  12.056   9.564   7.614
65767SOL     OW97326  12.534  10.454   7.993
65767SOL    HW197327  12.617  10.425   7.945
65767SOL    HW297328  12.485  10.521   7.937
65768SOL     OW97329  11.722   9.506   8.333
65768SOL    HW197330  11.717   9.501   8.433
65768SOL    HW297331  11.724   9.602   8.304
65769SOL     OW97332  12.180  10.766   7.925
65769SOL    HW197333  12.134  10.838   7.873
65769SOL    HW297334  12.176  10.786   8.023
65770SOL     OW97335  11.523  11.111   8.301
65770SOL    HW197336  11.573  11.025   8.307
65770SOL    HW297337  11.588  11.188   8.298
65771SOL     OW97338  12.399  10.860   8.954
65771SOL    HW197339  12.405  10.783   9.018
65771SOL    HW297340  12.347  10.834   8.874
65772SOL     OW97341  11.493  10.253   7.690
65772SOL    HW197342  11.575  10.292   7.648
65772SOL    HW297343  11.466  10.171   7.641
65773SOL     OW97344  11.633  10.576   9.175
65773SOL    HW197345  11.583  10.577   9.089
65773SOL    HW297346  11.570  10.558   9.251
65774SOL     OW97347  12.283  11.086   7.685
65774SOL    HW197348  12.223  11.024   7.735
65774SOL    HW297349  12.314  11.042   7.600
65775SOL     OW97350  11.374   9.595   8.946
65775SOL    HW197351  11.294   9.655   8.933
65775SOL    HW297352  11.364   9.546   9.032
65776SOL     OW97353  11.636  11.053   7.771
65776SOL    HW197354  11.669  11.092   7.857
65776SOL    HW297355  11.712  11.046   7.706
65777SOL     OW97356  12.572   9.417   7.874
65777SOL    HW197357  12.548   9.380   7.784
65777SOL    HW297358  12.671   9.433   7.878
65778SOL     OW97359  11.421  11.095   8.689
65778SOL    HW197360  11.478  11.030   8.739
65778SOL    HW297361  11.405  11.062   8.596
65779SOL     OW97362  12.112  11.008   8.352
65779SOL    HW197363  12.192  10.951   8.373
65779SOL    HW297364  12.063  10.968   8.275
65780SOL     OW97365  11.554  10.010   7.928
65780SOL    HW197366  11.599   9.920   7.925
65780SOL    HW297367  11.460   9.999   7.961
65781SOL     OW97368  11.786   9.432   7.565
65781SOL    HW197369  11.884   9.410   7.572
65781SOL    HW297370  11.755   9.415   7.472
65782SOL     OW97371  11.953   9.574   9.197
65782SOL    HW197372  12.020   9.513   9.240
65782SOL    HW297373  11.880   9.593   9.262
65783SOL     OW97374  12.060  10.824   8.643
65783SOL    HW197375  12.037  10.799   8.549
65783SOL    HW297376  12.121  10.755   8.682
65784SOL     OW97377  12.523   9.900   8.881
65784SOL    HW197378  12.551   9.857   8.966
65784SOL    HW297379  12.548   9.996   8.882
65785SOL     OW97380  11.975  10.712   8.372
65785SOL    HW197381  12.065  10.726   8.330
65785SOL    HW297382  11.904  10.714   8.301
65786SOL     OW97383  12.094   9.813   8.347
65786SOL    HW197384  12.069   9.804   8.251
65786SOL    HW297385  12.142   9.731   8.378
65787SOL     OW97386  11.711   9.374   7.960
65787SOL    HW197387  11.630   9.375   8.018
65787SOL    HW297388  11.714   9.457   7.905
65788SOL     OW97389  12.606  10.498   7.489
65788SOL    HW197390  12.638  10.422   7.546
65788SOL    HW297391  12.514  10.525   7.519
65789SOL     OW97392  11.469   9.345   7.619
65789SOL    HW197393  11.518   9.429   7.598
65789SOL    HW297394  11.531   9.280   7.664
65790SOL     OW97395  12.107   9.546   7.928
65790SOL    HW197396  12.059   9.587   7.850
65790SOL    HW297397  12.206   9.544   7.909
65791SOL     OW97398  12.248   9.993   8.912
65791SOL    HW197399  12.168   9.932   8.915
65791SOL    HW297400  12.329   9.940   8.888
65792SOL     OW97401  12.399  10.880   8.241
65792SOL    HW197402  12.420  10.954   8.176
65792SOL    HW297403  12.467  10.880   8.314
65793SOL     OW97404  11.631  10.462   8.189
65793SOL    HW197405  11.560  10.435   8.254
65793SOL    HW297406  11.605  10.434   8.096
65794SOL     OW97407  12.443  11.107   8.039
65794SOL    HW197408  12.487  11.171   7.975
65794SOL    HW297409  12.393  11.159   8.109
65795SOL     OW97410  12.204   9.859   7.464
65795SOL    HW197411  12.163   9.941   7.425
65795SOL    HW297412  12.268   9.885   7.537
65796SOL     OW97413  11.250   9.866   8.834
65796SOL    HW197414  11.342   9.865   8.793
65796SOL    HW297415  11.244   9.940   8.901
65797SOL     OW97416  11.733   9.532   8.595
65797SOL    HW197417  11.771   9.448   8.632
65797SOL    HW297418  11.645   9.551   8.639
65798SOL     OW97419  12.038   9.764   8.090
65798SOL    HW197420  12.006   9.836   8.028
65798SOL    HW297421  12.062   9.683   8.037
65799SOL     OW97422  12.189   9.349   8.201
65799SOL    HW197423  12.117   9.354   8.132
65799SOL    HW297424  12.165   9.280   8.270
65800SOL     OW97425  12.601  10.483   8.315
65800SOL    HW197426  12.546  10.399   8.308
65800SOL    HW297427  12.627  10.512   8.223
65801SOL     OW97428  11.660  10.695   7.622
65801SOL    HW197429  11.573  10.680   7.669
65801SOL    HW297430  11.643  10.721   7.527
65802SOL     OW97431  12.562   9.885   7.526
65802SOL    HW197432  12.508   9.864   7.607
65802SOL    HW297433  12.653   9.844   7.535
65803SOL     OW97434  11.699   9.566   7.776
65803SOL    HW197435  11.726   9.507   7.701
65803SOL    HW297436  11.699   9.661   7.745
65804SOL     OW97437  12.236  10.657   8.788
65804SOL    HW197438  12.156  10.634   8.843
65804SOL    HW297439  12.319  10.631   8.837
65805SOL     OW97440  12.764  10.939   9.073
65805SOL    HW197441  12.791  10.973   8.983
65805SOL    HW297442  12.843  10.901   9.119
65806SOL     OW97443  12.283  10.505   8.548
65806SOL    HW197444  12.243  10.549   8.629
65806SOL    HW297445  12.242  10.542   8.465
65807SOL     OW97446  12.087   9.399   8.850
65807SOL    HW197447  12.112   9.379   8.755
65807SOL    HW297448  12.159   9.455   8.892
65808SOL     OW97449  12.152  10.426   9.167
65808SOL    HW197450  12.053  10.432   9.177
65808SOL    HW297451  12.175  10.346   9.111
65809SOL     OW97452  11.877  10.360   7.816
65809SOL    HW197453  11.863  10.367   7.915
65809SOL    HW297454  11.961  10.309   7.798
65810SOL     OW97455  11.582  10.123   8.699
65810SOL    HW197456  11.668  10.135   8.749
65810SOL    HW297457  11.540  10.036   8.726
65811SOL     OW97458  12.446   9.696   8.710
65811SOL    HW197459  12.467   9.770   8.774
65811SOL    HW297460  12.357   9.713   8.667
65812SOL     OW97461  11.236  10.874   8.779
65812SOL    HW197462  11.190  10.956   8.745
65812SOL    HW297463  11.334  10.893   8.788
65813SOL     OW97464  11.539  10.410   7.949
65813SOL    HW197465  11.532  10.493   7.893
65813SOL    HW297466  11.543  10.330   7.889
65814SOL     OW97467  11.738   9.847   8.313
65814SOL    HW197468  11.750   9.913   8.239
65814SOL    HW297469  11.784   9.881   8.396
65815SOL     OW97470  12.424  10.658   7.836
65815SOL    HW197471  12.474  10.735   7.876
65815SOL    HW297472  12.329  10.660   7.868
65816SOL     OW97473  12.444  10.755   8.590
65816SOL    HW197474  12.491  10.768   8.677
65816SOL    HW297475  12.378  10.681   8.599
65817SOL     OW97476  11.526  10.820   8.777
65817SOL    HW197477  11.505  10.776   8.690
65817SOL    HW297478  11.623  10.846   8.780
65818SOL     OW97479  11.574  10.061   9.046
65818SOL    HW197480  11.642  10.116   8.999
65818SOL    HW297481  11.614   9.973   9.073
65819SOL     OW97482  12.185   9.415   9.218
65819SOL    HW197483  12.191   9.500   9.166
65819SOL    HW297484  12.217   9.339   9.161
65820SOL     OW97485  11.676   9.360   9.188
65820SOL    HW197486  11.634   9.303   9.118
65820SOL    HW297487  11.610   9.429   9.220
65821SOL     OW97488  11.745  10.180   8.477
65821SOL    HW197489  11.789  10.269   8.468
65821SOL    HW297490  11.682  10.180   8.554
65822SOL     OW97491  12.532  10.172   8.493
65822SOL    HW197492  12.457  10.172   8.427
65822SOL    HW297493  12.569  10.080   8.502
65823SOL     OW97494  12.381   9.835   7.723
65823SOL    HW197495  12.394   9.751   7.777
65823SOL    HW297496  12.352   9.909   7.783
65824SOL     OW97497  11.479   9.523   8.679
65824SOL    HW197498  11.456   9.560   8.769
65824SOL    HW297499  11.449   9.428   8.673
65825SOL     OW97500  11.209  10.620   8.730
65825SOL    HW197501  11.262  10.571   8.798
65825SOL    HW297502  11.231  10.718   8.735
65826SOL     OW97503  11.904   9.944   8.512
65826SOL    HW197504  11.963   9.918   8.436
65826SOL    HW297505  11.876  10.040   8.501
65827SOL     OW97506  11.479   9.373   8.066
65827SOL    HW197507  11.468   9.467   8.099
65827SOL    HW297508  11.474   9.310   8.143
65828SOL     OW97509  12.794   9.677   7.822
65828SOL    HW197510  12.796   9.601   7.886
65828SOL    HW297511  12.746   9.754   7.862
65829SOL     OW97512  12.195  10.076   8.414
65829SOL    HW197513  12.210  10.097   8.510
65829SOL    HW297514  12.165   9.981   8.405
65830SOL     OW97515  12.152  10.883   9.148
65830SOL    HW197516  12.132  10.927   9.060
65830SOL    HW297517  12.191  10.792   9.132
65831SOL     OW97518  11.522  10.208   9.252
65831SOL    HW197519  11.598  10.252   9.300
65831SOL    HW297520  11.557  10.161   9.170
65832SOL     OW97521  12.475  10.148   7.490
65832SOL    HW197522  12.509  10.055   7.505
65832SOL    HW297523  12.493  10.175   7.395
65833SOL     OW97524  12.240  10.643   8.297
65833SOL    HW197525  12.247  10.559   8.242
65833SOL    HW297526  12.302  10.712   8.261
65834SOL     OW97527  11.491  10.120   8.397
65834SOL    HW197528  11.584  10.156   8.402
65834SOL    HW297529  11.485  10.035   8.449
65835SOL     OW97530  11.511   9.819   8.454
65835SOL    HW197531  11.459   9.736   8.437
65835SOL    HW297532  11.588   9.824   8.390
65836SOL     OW97533  12.310   9.690   9.126
65836SOL    HW197534  12.265   9.753   9.190
65836SOL    HW297535  12.403   9.721   9.109
65837SOL     OW97536  12.332   9.517   8.925
65837SOL    HW197537  12.332   9.581   9.002
65837SOL    HW297538  12.360   9.565   8.842
65838SOL     OW97539  11.180  10.636   7.648
65838SOL    HW197540  11.087  10.657   7.617
65838SOL    HW297541  11.190  10.537   7.661
65839SOL     OW97542  11.260  11.111   8.375
65839SOL    HW197543  11.218  11.025   8.348
65839SOL    HW297544  11.354  11.114   8.341
65840SOL     OW97545  11.676  10.878   8.358
65840SOL    HW197546  11.742  10.952   8.367
65840SOL    HW297547  11.720  10.799   8.316
65841SOL     OW97548  12.174  10.106   8.686
65841SOL    HW197549  12.215  10.074   8.772
65841SOL    HW297550  12.078  10.079   8.683
65842SOL     OW97551  11.212   9.854   8.562
65842SOL    HW197552  11.297   9.821   8.521
65842SOL    HW297553  11.225   9.869   8.660
65843SOL     OW97554  11.361   9.830   9.170
65843SOL    HW197555  11.420   9.790   9.100
65843SOL    HW297556  11.303   9.901   9.129
65844SOL     OW97557  12.541  10.260   9.108
65844SOL    HW197558  12.580  10.349   9.128
65844SOL    HW297559  12.551  10.240   9.011
65845SOL     OW97560  11.987   9.882   7.773
65845SOL    HW197561  11.994   9.793   7.727
65845SOL    HW297562  11.893   9.916   7.765
65846SOL     OW97563  11.424  10.874   9.192
65846SOL    HW197564  11.394  10.931   9.268
65846SOL    HW297565  11.417  10.777   9.218
65847SOL     OW97566  11.843   9.774   8.717
65847SOL    HW197567  11.809   9.685   8.687
65847SOL    HW297568  11.869   9.828   8.637
65848SOL     OW97569  12.102  10.988   8.913
65848SOL    HW197570  12.078  10.970   8.818
65848SOL    HW297571  12.132  11.082   8.923
65849SOL     OW97572  11.645   9.810   7.639
65849SOL    HW197573  11.706   9.890   7.643
65849SOL    HW297574  11.550   9.841   7.646
65850SOL     OW97575  11.331  10.447   8.914
65850SOL    HW197576  11.353  10.386   8.990
65850SOL    HW297577  11.341  10.398   8.828
65851SOL     OW97578  12.519  10.369   8.682
65851SOL    HW197579  12.543  10.306   8.608
65851SOL    HW297580  12.429  10.409   8.664
65852SOL     OW97581  12.474  10.165   7.757
65852SOL    HW197582  12.388  10.134   7.799
65852SOL    HW297583  12.470  10.151   7.658
65853SOL     OW97584  12.424  11.041   8.576
65853SOL    HW197585  12.508  11.046   8.522
65853SOL    HW297586  12.401  10.945   8.594
65854SOL     OW97587  11.255  10.568   8.470
65854SOL    HW197588  11.250  10.567   8.570
65854SOL    HW297589  11.172  10.527   8.432
65855SOL     OW97590  11.860  10.972   9.164
65855SOL    HW197591  11.804  11.053   9.173
65855SOL    HW297592  11.912  10.976   9.078
65856SOL     OW97593  12.898   9.445   7.971
65856SOL    HW197594  12.971   9.428   7.904
65856SOL    HW297595  12.867   9.358   8.009
65857SOL     OW97596  12.560  10.883   7.925
65857SOL    HW197597  12.627  10.895   7.851
65857SOL    HW297598  12.520  10.972   7.948
65858SOL     OW97599  11.302  11.104   9.299
65858SOL    HW197600  11.261  11.030   9.352
65858SOL    HW297601  11.366  11.155   9.357
65859SOL     OW97602  12.452  10.237   8.120
65859SOL    HW197603  12.512  10.156   8.122
65859SOL    HW297604  12.492  10.306   8.060
65860SOL     OW97605  12.002  10.583   8.870
65860SOL    HW197606  11.997  10.616   8.965
65860SOL    HW297607  11.916  10.602   8.824
65861SOL     OW97608  11.844  10.926   7.602
65861SOL    HW197609  11.853  10.936   7.503
65861SOL    HW297610  11.804  10.837   7.623
65862SOL     OW97611  11.435   9.636   8.168
65862SOL    HW197612  11.356   9.687   8.134
65862SOL    HW297613  11.426   9.621   8.266
65863SOL     OW97614  12.366  10.922   7.479
65863SOL    HW197615  12.372  10.829   7.516
65863SOL    HW297616  12.307  10.922   7.399
65864SOL     OW97617  11.994  10.312   8.820
65864SOL    HW197618  12.034  10.311   8.728
65864SOL    HW297619  12.004  10.404   8.860
65865SOL     OW97620  12.088  10.220   7.739
65865SOL    HW197621  12.151  10.258   7.671
65865SOL    HW297622  12.128  10.137   7.778
65866SOL     OW97623  11.544  10.598   8.938
65866SOL    HW197624  11.531  10.691   8.904
65866SOL    HW297625  11.460  10.546   8.925
65867SOL     OW97626  12.211  10.408   8.144
65867SOL    HW197627  12.141  10.361   8.198
65867SOL    HW297628  12.270  10.340   8.101
65868SOL     OW97629  12.186   9.546   8.419
65868SOL    HW197630  12.178   9.510   8.326
65868SOL    HW297631  12.184   9.470   8.484
65869SOL     OW97632  11.762  10.797   7.939
65869SOL    HW197633  11.804  10.739   7.869
65869SOL    HW297634  11.718  10.876   7.895
65870SOL     OW97635  11.427  10.658   7.738
65870SOL    HW197636  11.331  10.659   7.711
65870SOL    HW297637  11.439  10.711   7.822
65871SOL     OW97638  11.277  10.323   9.174
65871SOL    HW197639  11.200  10.290   9.228
65871SOL    HW297640  11.362  10.293   9.216
65872SOL     OW97641  11.844   9.513   8.937
65872SOL    HW197642  11.934   9.497   8.897
65872SOL    HW297643  11.852   9.518   9.036
65873SOL     OW97644  11.247   9.655   7.481
65873SOL    HW197645  11.155   9.627   7.452
65873SOL    HW297646  11.278   9.732   7.425
65874SOL     OW97647  12.612  10.166   8.846
65874SOL    HW197648  12.555  10.218   8.783
65874SOL    HW297649  12.708  10.178   8.822
65875SOL     OW97650  11.244   9.476   7.766
65875SOL    HW197651  11.227   9.559   7.712
65875SOL    HW297652  11.334   9.439   7.744
65876SOL     OW97653  12.355  10.645   7.567
65876SOL    HW197654  12.256  10.634   7.569
65876SOL    HW297655  12.389  10.660   7.660
65877SOL     OW97656  11.785  10.152   8.879
65877SOL    HW197657  11.841  10.233   8.862
65877SOL    HW297658  11.844  10.072   8.882
65878SOL     OW97659  11.888   9.875   9.156
65878SOL    HW197660  11.907   9.940   9.230
65878SOL    HW297661  11.948   9.795   9.165
65879SOL     OW97662  12.622  10.530   9.081
65879SOL    HW197663  12.613  10.520   9.180
65879SOL    HW297664  12.718  10.523   9.055
65880SOL     OW97665  11.562  11.051   9.008
65880SOL    HW197666  11.471  11.092   9.006
65880SOL    HW297667  11.555  10.957   9.040
65881SOL     OW97668  12.397   9.635   7.897
65881SOL    HW197669  12.462   9.561   7.886
65881SOL    HW297670  12.417   9.685   7.981
65882SOL     OW97671  11.766  10.055   8.100
65882SOL    HW197672  11.816  10.140   8.081
65882SOL    HW297673  11.678  10.057   8.052
65883SOL     OW97674  12.031  10.684   7.464
65883SOL    HW197675  11.985  10.699   7.552
65883SOL    HW297676  12.075  10.769   7.434
65884SOL     OW97677  11.833  11.100   8.401
65884SOL    HW197678  11.787  11.188   8.388
65884SOL    HW297679  11.932  11.112   8.394
65885SOL     OW97680  12.031  10.266   8.309
65885SOL    HW197681  12.085  10.197   8.357
65885SOL    HW297682  11.999  10.335   8.375
65886SOL     OW97683  12.255  10.294   7.535
65886SOL    HW197684  12.232  10.347   7.453
65886SOL    HW297685  12.336  10.238   7.516
65887SOL     OW97686  11.393  10.624   9.292
65887SOL    HW197687  11.328  10.551   9.271
65887SOL    HW297688  11.397  10.638   9.390
65888SOL     OW97689  11.251  10.550   8.101
65888SOL    HW197690  11.250  10.503   8.189
65888SOL    HW297691  11.333  10.522   8.050
65889SOL     OW97692  11.844  10.701   9.072
65889SOL    HW197693  11.766  10.651   9.110
65889SOL    HW297694  11.841  10.796   9.103
65890SOL     OW97695  11.600   9.734   7.968
65890SOL    HW197696  11.630   9.662   7.906
65890SOL    HW297697  11.561   9.694   8.051
65891SOL     OW97698  12.877  10.797   8.552
65891SOL    HW197699  12.784  10.772   8.525
65891SOL    HW297700  12.903  10.747   8.634
65892SOL     OW97701  11.489   9.857   8.728
65892SOL    HW197702  11.527   9.798   8.800
65892SOL    HW297703  11.529   9.831   8.640
65893SOL     OW97704  11.984  10.896   8.135
65893SOL    HW197705  12.016  10.906   8.041
65893SOL    HW297706  11.905  10.834   8.137
65894SOL     OW97707  12.596   9.524   8.560
65894SOL    HW197708  12.648   9.459   8.615
65894SOL    HW297709  12.547   9.587   8.621
65895SOL     OW97710  12.173   9.344   8.602
65895SOL    HW197711  12.110   9.272   8.571
65895SOL    HW297712  12.266   9.308   8.602
65896SOL     OW97713  11.942  10.640   7.749
65896SOL    HW197714  11.896  10.553   7.766
65896SOL    HW297715  12.033  10.637   7.790
65897SOL     OW97716  11.790  10.877   8.732
65897SOL    HW197717  11.785  10.959   8.789
65897SOL    HW297718  11.879  10.874   8.687
65898SOL     OW97719  12.524   9.362   7.616
65898SOL    HW197720  12.559   9.321   7.532
65898SOL    HW297721  12.434   9.324   7.636
65899SOL     OW97722  12.472   9.763   8.139
65899SOL    HW197723  12.413   9.843   8.143
65899SOL    HW297724  12.487   9.728   8.232
65900SOL     OW97725  11.211  10.387   7.748
65900SOL    HW197726  11.310  10.376   7.739
65900SOL    HW297727  11.171  10.301   7.780
65901SOL     OW97728  12.047  10.956   7.785
65901SOL    HW197729  11.970  10.921   7.731
65901SOL    HW297730  12.015  11.027   7.847
65902SOL     OW97731  11.402   9.938   9.423
65902SOL    HW197732  11.309   9.936   9.460
65902SOL    HW297733  11.403   9.899   9.331
65903SOL     OW97734  11.397   9.585  10.306
65903SOL    HW197735  11.432   9.568  10.398
65903SOL    HW297736  11.309   9.540  10.294
65904SOL     OW97737  11.191   9.678   9.957
65904SOL    HW197738  11.109   9.721   9.996
65904SOL    HW297739  11.163   9.605   9.894
65905SOL     OW97740  11.741  10.585  10.475
65905SOL    HW197741  11.648  10.578  10.438
65905SOL    HW297742  11.752  10.674  10.519
65906SOL     OW97743  12.727  10.821  10.013
65906SOL    HW197744  12.670  10.805  10.094
65906SOL    HW297745  12.668  10.831   9.933
65907SOL     OW97746  12.307  10.013  10.027
65907SOL    HW197747  12.364  10.091  10.002
65907SOL    HW297748  12.247  10.039  10.103
65908SOL     OW97749  11.940  10.454  10.333
65908SOL    HW197750  11.862  10.471  10.393
65908SOL    HW297751  11.974  10.541  10.297
65909SOL     OW97752  12.022  10.108  11.133
65909SOL    HW197753  12.018  10.184  11.198
65909SOL    HW297754  12.044  10.144  11.042
65910SOL     OW97755  11.857  10.322   9.975
65910SOL    HW197756  11.926  10.306  10.045
65910SOL    HW297757  11.784  10.379  10.013
65911SOL     OW97758  11.858  10.471  11.113
65911SOL    HW197759  11.918  10.550  11.127
65911SOL    HW297760  11.772  10.502  11.072
65912SOL     OW97761  11.507  10.745  10.371
65912SOL    HW197762  11.429  10.714  10.318
65912SOL    HW297763  11.565  10.803  10.314
65913SOL     OW97764  11.610   9.702  10.809
65913SOL    HW197765  11.692   9.646  10.818
65913SOL    HW297766  11.529   9.644  10.813
65914SOL     OW97767  11.403  11.023   9.793
65914SOL    HW197768  11.437  11.100   9.847
65914SOL    HW297769  11.447  11.023   9.703
65915SOL     OW97770  12.299  10.651  11.000
65915SOL    HW197771  12.346  10.651  11.088
65915SOL    HW297772  12.251  10.564  10.989
65916SOL     OW97773  11.402  10.744   9.848
65916SOL    HW197774  11.376  10.840   9.848
65916SOL    HW297775  11.331  10.690   9.893
65917SOL     OW97776  11.412  10.401  10.196
65917SOL    HW197777  11.426  10.317  10.248
65917SOL    HW297778  11.357  10.465  10.251
65918SOL     OW97779  11.792  11.096  10.749
65918SOL    HW197780  11.700  11.079  10.784
65918SOL    HW297781  11.820  11.188  10.775
65919SOL     OW97782  11.778  10.274   9.433
65919SOL    HW197783  11.785  10.358   9.379
65919SOL    HW297784  11.824  10.287   9.521
65920SOL     OW97785  11.294   9.953   9.873
65920SOL    HW197786  11.249   9.865   9.890
65920SOL    HW297787  11.293  10.007   9.957
65921SOL     OW97788  11.199  10.906   9.427
65921SOL    HW197789  11.180  10.810   9.448
65921SOL    HW297790  11.166  10.964   9.502
65922SOL     OW97791  12.861  10.232   9.922
65922SOL    HW197792  12.956  10.203   9.930
65922SOL    HW297793  12.853  10.297   9.847
65923SOL     OW97794  11.285  10.047  10.907
65923SOL    HW197795  11.373  10.034  10.952
65923SOL    HW297796  11.272  10.144  10.885
65924SOL     OW97797  11.785  10.675  10.036
65924SOL    HW197798  11.736  10.588  10.045
65924SOL    HW297799  11.762  10.718   9.949
65925SOL     OW97800  12.465  10.538  10.733
65925SOL    HW197801  12.502  10.465  10.675
65925SOL    HW297802  12.517  10.543  10.818
65926SOL     OW97803  11.981   9.314   9.812
65926SOL    HW197804  12.021   9.405   9.803
65926SOL    HW297805  11.881   9.322   9.818
65927SOL     OW97806  11.369  10.286  10.574
65927SOL    HW197807  11.458  10.241  10.560
65927SOL    HW297808  11.296  10.221  10.555
65928SOL     OW97809  12.359  11.102  10.926
65928SOL    HW197810  12.383  11.162  10.850
65928SOL    HW297811  12.366  11.007  10.896
65929SOL     OW97812  11.489   9.561  11.111
65929SOL    HW197813  11.560   9.632  11.117
65929SOL    HW297814  11.401   9.600  11.139
65930SOL     OW97815  11.770  10.039   9.580
65930SOL    HW197816  11.794  10.108   9.512
65930SOL    HW297817  11.692  10.072   9.634
65931SOL     OW97818  12.453   9.655  10.254
65931SOL    HW197819  12.367   9.605  10.241
65931SOL    HW297820  12.515   9.601  10.310
65932SOL     OW97821  11.979   9.915  10.775
65932SOL    HW197822  11.932   9.912  10.864
65932SOL    HW297823  11.928   9.860  10.709
65933SOL     OW97824  12.566   9.779  10.984
65933SOL    HW197825  12.546   9.822  11.072
65933SOL    HW297826  12.644   9.717  10.993
65934SOL     OW97827  12.145  10.200  10.882
65934SOL    HW197828  12.191  10.116  10.853
65934SOL    HW297829  12.089  10.234  10.807
65935SOL     OW97830  12.163   9.720  10.552
65935SOL    HW197831  12.086   9.754  10.606
65935SOL    HW297832  12.129   9.669  10.473
65936SOL     OW97833  12.213  10.011   9.739
65936SOL    HW197834  12.239  10.007   9.835
65936SOL    HW297835  12.128   9.960   9.725
65937SOL     OW97836  11.248  10.121  10.099
65937SOL    HW197837  11.347  10.109  10.108
65937SOL    HW297838  11.224  10.216  10.120
65938SOL     OW97839  11.302  11.131  10.881
65938SOL    HW197840  11.292  11.116  10.980
65938SOL    HW297841  11.216  11.167  10.845
65939SOL     OW97842  12.037   9.658   9.505
65939SOL    HW197843  12.096   9.721   9.456
65939SOL    HW297844  12.056   9.564   9.476
65940SOL     OW97845  12.534  10.454   9.855
65940SOL    HW197846  12.617  10.425   9.807
65940SOL    HW297847  12.485  10.521   9.799
65941SOL     OW97848  11.722   9.506  10.195
65941SOL    HW197849  11.717   9.501  10.295
65941SOL    HW297850  11.724   9.602  10.166
65942SOL     OW97851  12.180  10.766   9.787
65942SOL    HW197852  12.134  10.838   9.735
65942SOL    HW297853  12.176  10.786   9.885
65943SOL     OW97854  11.523  11.111  10.163
65943SOL    HW197855  11.573  11.025  10.169
65943SOL    HW297856  11.588  11.188  10.160
65944SOL     OW97857  12.399  10.860  10.816
65944SOL    HW197858  12.405  10.783  10.880
65944SOL    HW297859  12.347  10.834  10.736
65945SOL     OW97860  11.493  10.253   9.552
65945SOL    HW197861  11.575  10.292   9.510
65945SOL    HW297862  11.466  10.171   9.503
65946SOL     OW97863  11.633  10.576  11.037
65946SOL    HW197864  11.583  10.577  10.951
65946SOL    HW297865  11.570  10.558  11.113
65947SOL     OW97866  12.283  11.086   9.547
65947SOL    HW197867  12.223  11.024   9.597
65947SOL    HW297868  12.314  11.042   9.462
65948SOL     OW97869  11.374   9.595  10.808
65948SOL    HW197870  11.294   9.655  10.795
65948SOL    HW297871  11.364   9.546  10.894
65949SOL     OW97872  11.636  11.053   9.633
65949SOL    HW197873  11.669  11.092   9.719
65949SOL    HW297874  11.712  11.046   9.568
65950SOL     OW97875  12.572   9.417   9.736
65950SOL    HW197876  12.548   9.380   9.646
65950SOL    HW297877  12.671   9.433   9.740
65951SOL     OW97878  11.421  11.095  10.551
65951SOL    HW197879  11.478  11.030  10.601
65951SOL    HW297880  11.405  11.062  10.458
65952SOL     OW97881  12.112  11.008  10.214
65952SOL    HW197882  12.192  10.951  10.235
65952SOL    HW297883  12.063  10.968  10.137
65953SOL     OW97884  11.554  10.010   9.790
65953SOL    HW197885  11.599   9.920   9.787
65953SOL    HW297886  11.460   9.999   9.823
65954SOL     OW97887  11.786   9.432   9.427
65954SOL    HW197888  11.884   9.410   9.434
65954SOL    HW297889  11.755   9.415   9.334
65955SOL     OW97890  11.953   9.574  11.059
65955SOL    HW197891  12.020   9.513  11.102
65955SOL    HW297892  11.880   9.593  11.124
65956SOL     OW97893  12.060  10.824  10.505
65956SOL    HW197894  12.037  10.799  10.411
65956SOL    HW297895  12.121  10.755  10.544
65957SOL     OW97896  12.523   9.900  10.743
65957SOL    HW197897  12.551   9.857  10.828
65957SOL    HW297898  12.548   9.996  10.744
65958SOL     OW97899  11.975  10.712  10.234
65958SOL    HW197900  12.065  10.726  10.192
65958SOL    HW297901  11.904  10.714  10.163
65959SOL     OW97902  12.094   9.813  10.209
65959SOL    HW197903  12.069   9.804  10.113
65959SOL    HW297904  12.142   9.731  10.240
65960SOL     OW97905  11.711   9.374   9.822
65960SOL    HW197906  11.630   9.375   9.880
65960SOL    HW297907  11.714   9.457   9.767
65961SOL     OW97908  12.606  10.498   9.351
65961SOL    HW197909  12.638  10.422   9.408
65961SOL    HW297910  12.514  10.525   9.381
65962SOL     OW97911  11.469   9.345   9.481
65962SOL    HW197912  11.518   9.429   9.460
65962SOL    HW297913  11.531   9.280   9.526
65963SOL     OW97914  12.107   9.546   9.790
65963SOL    HW197915  12.059   9.587   9.712
65963SOL    HW297916  12.206   9.544   9.771
65964SOL     OW97917  12.248   9.993  10.774
65964SOL    HW197918  12.168   9.932  10.777
65964SOL    HW297919  12.329   9.940  10.750
65965SOL     OW97920  12.399  10.880  10.103
65965SOL    HW197921  12.420  10.954  10.038
65965SOL    HW297922  12.467  10.880  10.176
65966SOL     OW97923  11.631  10.462  10.051
65966SOL    HW197924  11.560  10.435  10.116
65966SOL    HW297925  11.605  10.434   9.958
65967SOL     OW97926  12.443  11.107   9.901
65967SOL    HW197927  12.487  11.171   9.837
65967SOL    HW297928  12.393  11.159   9.971
65968SOL     OW97929  12.204   9.859   9.326
65968SOL    HW197930  12.163   9.941   9.287
65968SOL    HW297931  12.268   9.885   9.399
65969SOL     OW97932  11.250   9.866  10.696
65969SOL    HW197933  11.342   9.865  10.655
65969SOL    HW297934  11.244   9.940  10.763
65970SOL     OW97935  11.733   9.532  10.457
65970SOL    HW197936  11.771   9.448  10.494
65970SOL    HW297937  11.645   9.551  10.501
65971SOL     OW97938  12.038   9.764   9.952
65971SOL    HW197939  12.006   9.836   9.890
65971SOL    HW297940  12.062   9.683   9.899
65972SOL     OW97941  12.189   9.349  10.063
65972SOL    HW197942  12.117   9.354   9.994
65972SOL    HW297943  12.165   9.280  10.132
65973SOL     OW97944  12.601  10.483  10.177
65973SOL    HW197945  12.546  10.399  10.170
65973SOL    HW297946  12.627  10.512  10.085
65974SOL     OW97947  11.660  10.695   9.484
65974SOL    HW197948  11.573  10.680   9.531
65974SOL    HW297949  11.643  10.721   9.389
65975SOL     OW97950  12.562   9.885   9.388
65975SOL    HW197951  12.508   9.864   9.469
65975SOL    HW297952  12.653   9.844   9.397
65976SOL     OW97953  11.699   9.566   9.638
65976SOL    HW197954  11.726   9.507   9.563
65976SOL    HW297955  11.699   9.661   9.607
65977SOL     OW97956  12.236  10.657  10.650
65977SOL    HW197957  12.156  10.634  10.705
65977SOL    HW297958  12.319  10.631  10.699
65978SOL     OW97959  12.764  10.939  10.935
65978SOL    HW197960  12.791  10.973  10.845
65978SOL    HW297961  12.843  10.901  10.981
65979SOL     OW97962  12.283  10.505  10.410
65979SOL    HW197963  12.243  10.549  10.491
65979SOL    HW297964  12.242  10.542  10.327
65980SOL     OW97965  12.087   9.399  10.712
65980SOL    HW197966  12.112   9.379  10.617
65980SOL    HW297967  12.159   9.455  10.754
65981SOL     OW97968  12.152  10.426  11.029
65981SOL    HW197969  12.053  10.432  11.039
65981SOL    HW297970  12.175  10.346  10.973
65982SOL     OW97971  11.877  10.360   9.678
65982SOL    HW197972  11.863  10.367   9.777
65982SOL    HW297973  11.961  10.309   9.660
65983SOL     OW97974  11.582  10.123  10.561
65983SOL    HW197975  11.668  10.135  10.611
65983SOL    HW297976  11.540  10.036  10.588
65984SOL     OW97977  12.446   9.696  10.572
65984SOL    HW197978  12.467   9.770  10.636
65984SOL    HW297979  12.357   9.713  10.529
65985SOL     OW97980  11.236  10.874  10.641
65985SOL    HW197981  11.190  10.956  10.607
65985SOL    HW297982  11.334  10.893  10.650
65986SOL     OW97983  11.539  10.410   9.811
65986SOL    HW197984  11.532  10.493   9.755
65986SOL    HW297985  11.543  10.330   9.751
65987SOL     OW97986  11.738   9.847  10.175
65987SOL    HW197987  11.750   9.913  10.101
65987SOL    HW297988  11.784   9.881  10.258
65988SOL     OW97989  12.424  10.658   9.698
65988SOL    HW197990  12.474  10.735   9.738
65988SOL    HW297991  12.329  10.660   9.730
65989SOL     OW97992  12.444  10.755  10.452
65989SOL    HW197993  12.491  10.768  10.539
65989SOL    HW297994  12.378  10.681  10.461
65990SOL     OW97995  11.526  10.820  10.639
65990SOL    HW197996  11.505  10.776  10.552
65990SOL    HW297997  11.623  10.846  10.642
65991SOL     OW97998  11.574  10.061  10.908
65991SOL    HW197999  11.642  10.116  10.861
65991SOL    HW298000  11.614   9.973  10.935
65992SOL     OW98001  12.185   9.415  11.080
65992SOL    HW198002  12.191   9.500  11.028
65992SOL    HW298003  12.217   9.339  11.023
65993SOL     OW98004  11.676   9.360  11.050
65993SOL    HW198005  11.634   9.303  10.980
65993SOL    HW298006  11.610   9.429  11.082
65994SOL     OW98007  11.745  10.180  10.339
65994SOL    HW198008  11.789  10.269  10.330
65994SOL    HW298009  11.682  10.180  10.416
65995SOL     OW98010  12.532  10.172  10.355
65995SOL    HW198011  12.457  10.172  10.289
65995SOL    HW298012  12.569  10.080  10.364
65996SOL     OW98013  12.381   9.835   9.585
65996SOL    HW198014  12.394   9.751   9.639
65996SOL    HW298015  12.352   9.909   9.645
65997SOL     OW98016  11.479   9.523  10.541
65997SOL    HW198017  11.456   9.560  10.631
65997SOL    HW298018  11.449   9.428  10.535
65998SOL     OW98019  11.209  10.620  10.592
65998SOL    HW198020  11.262  10.571  10.660
65998SOL    HW298021  11.231  10.718  10.597
65999SOL     OW98022  11.904   9.944  10.374
65999SOL    HW198023  11.963   9.918  10.298
65999SOL    HW298024  11.876  10.040  10.363
66000SOL     OW98025  11.479   9.373   9.928
66000SOL    HW198026  11.468   9.467   9.961
66000SOL    HW298027  11.474   9.310  10.005
66001SOL     OW98028  12.794   9.677   9.684
66001SOL    HW198029  12.796   9.601   9.748
66001SOL    HW298030  12.746   9.754   9.724
66002SOL     OW98031  12.195  10.076  10.276
66002SOL    HW198032  12.210  10.097  10.372
66002SOL    HW298033  12.165   9.981  10.267
66003SOL     OW98034  12.152  10.883  11.010
66003SOL    HW198035  12.132  10.927  10.922
66003SOL    HW298036  12.191  10.792  10.994
66004SOL     OW98037  11.522  10.208  11.114
66004SOL    HW198038  11.598  10.252  11.162
66004SOL    HW298039  11.557  10.161  11.032
66005SOL     OW98040  12.475  10.148   9.352
66005SOL    HW198041  12.509  10.055   9.367
66005SOL    HW298042  12.493  10.175   9.257
66006SOL     OW98043  12.240  10.643  10.159
66006SOL    HW198044  12.247  10.559  10.104
66006SOL    HW298045  12.302  10.712  10.123
66007SOL     OW98046  11.491  10.120  10.259
66007SOL    HW198047  11.584  10.156  10.264
66007SOL    HW298048  11.485  10.035  10.311
66008SOL     OW98049  11.511   9.819  10.316
66008SOL    HW198050  11.459   9.736  10.299
66008SOL    HW298051  11.588   9.824  10.252
66009SOL     OW98052  12.310   9.690  10.988
66009SOL    HW198053  12.265   9.753  11.052
66009SOL    HW298054  12.403   9.721  10.971
66010SOL     OW98055  12.332   9.517  10.787
66010SOL    HW198056  12.332   9.581  10.864
66010SOL    HW298057  12.360   9.565  10.704
66011SOL     OW98058  11.180  10.636   9.510
66011SOL    HW198059  11.087  10.657   9.479
66011SOL    HW298060  11.190  10.537   9.523
66012SOL     OW98061  11.260  11.111  10.237
66012SOL    HW198062  11.218  11.025  10.210
66012SOL    HW298063  11.354  11.114  10.203
66013SOL     OW98064  11.676  10.878  10.220
66013SOL    HW198065  11.742  10.952  10.229
66013SOL    HW298066  11.720  10.799  10.178
66014SOL     OW98067  12.174  10.106  10.548
66014SOL    HW198068  12.215  10.074  10.634
66014SOL    HW298069  12.078  10.079  10.545
66015SOL     OW98070  11.212   9.854  10.424
66015SOL    HW198071  11.297   9.821  10.383
66015SOL    HW298072  11.225   9.869  10.522
66016SOL     OW98073  11.361   9.830  11.032
66016SOL    HW198074  11.420   9.790  10.962
66016SOL    HW298075  11.303   9.901  10.991
66017SOL     OW98076  12.541  10.260  10.970
66017SOL    HW198077  12.580  10.349  10.990
66017SOL    HW298078  12.551  10.240  10.873
66018SOL     OW98079  11.987   9.882   9.635
66018SOL    HW198080  11.994   9.793   9.589
66018SOL    HW298081  11.893   9.916   9.627
66019SOL     OW98082  11.424  10.874  11.054
66019SOL    HW198083  11.394  10.931  11.130
66019SOL    HW298084  11.417  10.777  11.080
66020SOL     OW98085  11.843   9.774  10.579
66020SOL    HW198086  11.809   9.685  10.549
66020SOL    HW298087  11.869   9.828  10.499
66021SOL     OW98088  12.102  10.988  10.775
66021SOL    HW198089  12.078  10.970  10.680
66021SOL    HW298090  12.132  11.082  10.785
66022SOL     OW98091  11.645   9.810   9.501
66022SOL    HW198092  11.706   9.890   9.505
66022SOL    HW298093  11.550   9.841   9.508
66023SOL     OW98094  11.331  10.447  10.776
66023SOL    HW198095  11.353  10.386  10.852
66023SOL    HW298096  11.341  10.398  10.690
66024SOL     OW98097  12.519  10.369  10.544
66024SOL    HW198098  12.543  10.306  10.470
66024SOL    HW298099  12.429  10.409  10.526
66025SOL     OW98100  12.474  10.165   9.619
66025SOL    HW198101  12.388  10.134   9.661
66025SOL    HW298102  12.470  10.151   9.520
66026SOL     OW98103  12.424  11.041  10.438
66026SOL    HW198104  12.508  11.046  10.384
66026SOL    HW298105  12.401  10.945  10.456
66027SOL     OW98106  11.255  10.568  10.332
66027SOL    HW198107  11.250  10.567  10.432
66027SOL    HW298108  11.172  10.527  10.294
66028SOL     OW98109  11.860  10.972  11.026
66028SOL    HW198110  11.804  11.053  11.035
66028SOL    HW298111  11.912  10.976  10.940
66029SOL     OW98112  12.898   9.445   9.833
66029SOL    HW198113  12.971   9.428   9.766
66029SOL    HW298114  12.867   9.358   9.871
66030SOL     OW98115  12.560  10.883   9.787
66030SOL    HW198116  12.627  10.895   9.713
66030SOL    HW298117  12.520  10.972   9.810
66031SOL     OW98118  11.302  11.104  11.161
66031SOL    HW198119  11.261  11.030  11.214
66031SOL    HW298120  11.366  11.155  11.219
66032SOL     OW98121  12.452  10.237   9.982
66032SOL    HW198122  12.512  10.156   9.984
66032SOL    HW298123  12.492  10.306   9.922
66033SOL     OW98124  12.002  10.583  10.732
66033SOL    HW198125  11.997  10.616  10.827
66033SOL    HW298126  11.916  10.602  10.686
66034SOL     OW98127  11.844  10.926   9.464
66034SOL    HW198128  11.853  10.936   9.365
66034SOL    HW298129  11.804  10.837   9.485
66035SOL     OW98130  11.435   9.636  10.030
66035SOL    HW198131  11.356   9.687   9.996
66035SOL    HW298132  11.426   9.621  10.128
66036SOL     OW98133  12.366  10.922   9.341
66036SOL    HW198134  12.372  10.829   9.378
66036SOL    HW298135  12.307  10.922   9.261
66037SOL     OW98136  11.994  10.312  10.682
66037SOL    HW198137  12.034  10.311  10.590
66037SOL    HW298138  12.004  10.404  10.722
66038SOL     OW98139  12.088  10.220   9.601
66038SOL    HW198140  12.151  10.258   9.533
66038SOL    HW298141  12.128  10.137   9.640
66039SOL     OW98142  11.544  10.598  10.800
66039SOL    HW198143  11.531  10.691  10.766
66039SOL    HW298144  11.460  10.546  10.787
66040SOL     OW98145  12.211  10.408  10.006
66040SOL    HW198146  12.141  10.361  10.060
66040SOL    HW298147  12.270  10.340   9.963
66041SOL     OW98148  12.186   9.546  10.281
66041SOL    HW198149  12.178   9.510  10.188
66041SOL    HW298150  12.184   9.470  10.346
66042SOL     OW98151  11.762  10.797   9.801
66042SOL    HW198152  11.804  10.739   9.731
66042SOL    HW298153  11.718  10.876   9.757
66043SOL     OW98154  11.427  10.658   9.600
66043SOL    HW198155  11.331  10.659   9.573
66043SOL    HW298156  11.439  10.711   9.684
66044SOL     OW98157  11.277  10.323  11.036
66044SOL    HW198158  11.200  10.290  11.090
66044SOL    HW298159  11.362  10.293  11.078
66045SOL     OW98160  11.844   9.513  10.799
66045SOL    HW198161  11.934   9.497  10.759
66045SOL    HW298162  11.852   9.518  10.898
66046SOL     OW98163  11.247   9.655   9.343
66046SOL    HW198164  11.155   9.627   9.314
66046SOL    HW298165  11.278   9.732   9.287
66047SOL     OW98166  12.612  10.166  10.708
66047SOL    HW198167  12.555  10.218  10.645
66047SOL    HW298168  12.708  10.178  10.684
66048SOL     OW98169  11.244   9.476   9.628
66048SOL    HW198170  11.227   9.559   9.574
66048SOL    HW298171  11.334   9.439   9.606
66049SOL     OW98172  12.355  10.645   9.429
66049SOL    HW198173  12.256  10.634   9.431
66049SOL    HW298174  12.389  10.660   9.522
66050SOL     OW98175  11.785  10.152  10.741
66050SOL    HW198176  11.841  10.233  10.724
66050SOL    HW298177  11.844  10.072  10.744
66051SOL     OW98178  11.888   9.875  11.018
66051SOL    HW198179  11.907   9.940  11.092
66051SOL    HW298180  11.948   9.795  11.027
66052SOL     OW98181  12.622  10.530  10.943
66052SOL    HW198182  12.613  10.520  11.042
66052SOL    HW298183  12.718  10.523  10.917
66053SOL     OW98184  11.562  11.051  10.870
66053SOL    HW198185  11.471  11.092  10.868
66053SOL    HW298186  11.555  10.957  10.902
66054SOL     OW98187  12.397   9.635   9.759
66054SOL    HW198188  12.462   9.561   9.748
66054SOL    HW298189  12.417   9.685   9.843
66055SOL     OW98190  11.766  10.055   9.962
66055SOL    HW198191  11.816  10.140   9.943
66055SOL    HW298192  11.678  10.057   9.914
66056SOL     OW98193  12.031  10.684   9.326
66056SOL    HW198194  11.985  10.699   9.414
66056SOL    HW298195  12.075  10.769   9.296
66057SOL     OW98196  11.833  11.100  10.263
66057SOL    HW198197  11.787  11.188  10.250
66057SOL    HW298198  11.932  11.112  10.256
66058SOL     OW98199  12.031  10.266  10.171
66058SOL    HW198200  12.085  10.197  10.219
66058SOL    HW298201  11.999  10.335  10.237
66059SOL     OW98202  12.255  10.294   9.397
66059SOL    HW198203  12.232  10.347   9.315
66059SOL    HW298204  12.336  10.238   9.378
66060SOL     OW98205  11.393  10.624  11.154
66060SOL    HW198206  11.328  10.551  11.133
66060SOL    HW298207  11.397  10.638  11.252
66061SOL     OW98208  11.251  10.550   9.963
66061SOL    HW198209  11.250  10.503  10.051
66061SOL    HW298210  11.333  10.522   9.912
66062SOL     OW98211  11.844  10.701  10.934
66062SOL    HW198212  11.766  10.651  10.972
66062SOL    HW298213  11.841  10.796  10.965
66063SOL     OW98214  11.600   9.734   9.830
66063SOL    HW198215  11.630   9.662   9.768
66063SOL    HW298216  11.561   9.694   9.913
66064SOL     OW98217  12.877  10.797  10.414
66064SOL    HW198218  12.784  10.772  10.387
66064SOL    HW298219  12.903  10.747  10.496
66065SOL     OW98220  11.489   9.857  10.590
66065SOL    HW198221  11.527   9.798  10.662
66065SOL    HW298222  11.529   9.831  10.502
66066SOL     OW98223  11.984  10.896   9.997
66066SOL    HW198224  12.016  10.906   9.903
66066SOL    HW298225  11.905  10.834   9.999
66067SOL     OW98226  12.596   9.524  10.422
66067SOL    HW198227  12.648   9.459  10.477
66067SOL    HW298228  12.547   9.587  10.483
66068SOL     OW98229  12.173   9.344  10.464
66068SOL    HW198230  12.110   9.272  10.433
66068SOL    HW298231  12.266   9.308  10.464
66069SOL     OW98232  11.942  10.640   9.611
66069SOL    HW198233  11.896  10.553   9.628
66069SOL    HW298234  12.033  10.637   9.652
66070SOL     OW98235  11.790  10.877  10.594
66070SOL    HW198236  11.785  10.959  10.651
66070SOL    HW298237  11.879  10.874  10.549
66071SOL     OW98238  12.524   9.362   9.478
66071SOL    HW198239  12.559   9.321   9.394
66071SOL    HW298240  12.434   9.324   9.498
66072SOL     OW98241  12.472   9.763  10.001
66072SOL    HW198242  12.413   9.843  10.005
66072SOL    HW298243  12.487   9.728  10.094
66073SOL     OW98244  11.211  10.387   9.610
66073SOL    HW198245  11.310  10.376   9.601
66073SOL    HW298246  11.171  10.301   9.642
66074SOL     OW98247  12.047  10.956   9.647
66074SOL    HW198248  11.970  10.921   9.593
66074SOL    HW298249  12.015  11.027   9.709
66075SOL     OW98250  11.402   9.938  11.285
66075SOL    HW198251  11.309   9.936  11.322
66075SOL    HW298252  11.403   9.899  11.193
66076SOL     OW98253  11.397   9.585  12.168
66076SOL    HW198254  11.432   9.568  12.260
66076SOL    HW298255  11.309   9.540  12.156
66077SOL     OW98256  11.191   9.678  11.819
66077SOL    HW198257  11.109   9.721  11.858
66077SOL    HW298258  11.163   9.605  11.756
66078SOL     OW98259  11.741  10.585  12.337
66078SOL    HW198260  11.648  10.578  12.300
66078SOL    HW298261  11.752  10.674  12.381
66079SOL     OW98262  12.727  10.821  11.875
66079SOL    HW198263  12.670  10.805  11.956
66079SOL    HW298264  12.668  10.831  11.795
66080SOL     OW98265  12.307  10.013  11.889
66080SOL    HW198266  12.364  10.091  11.864
66080SOL    HW298267  12.247  10.039  11.965
66081SOL     OW98268  11.940  10.454  12.195
66081SOL    HW198269  11.862  10.471  12.255
66081SOL    HW298270  11.974  10.541  12.159
66082SOL     OW98271  11.857  10.322  11.837
66082SOL    HW198272  11.926  10.306  11.907
66082SOL    HW298273  11.784  10.379  11.875
66083SOL     OW98274  11.507  10.745  12.233
66083SOL    HW198275  11.429  10.714  12.180
66083SOL    HW298276  11.565  10.803  12.176
66084SOL     OW98277  11.610   9.702  12.671
66084SOL    HW198278  11.692   9.646  12.680
66084SOL    HW298279  11.529   9.644  12.675
66085SOL     OW98280  11.403  11.023  11.655
66085SOL    HW198281  11.437  11.100  11.709
66085SOL    HW298282  11.447  11.023  11.565
66086SOL     OW98283  11.402  10.744  11.710
66086SOL    HW198284  11.376  10.840  11.710
66086SOL    HW298285  11.331  10.690  11.755
66087SOL     OW98286  11.412  10.401  12.058
66087SOL    HW198287  11.426  10.317  12.110
66087SOL    HW298288  11.357  10.465  12.113
66088SOL     OW98289  11.792  11.096  12.611
66088SOL    HW198290  11.700  11.079  12.646
66088SOL    HW298291  11.820  11.188  12.637
66089SOL     OW98292  11.778  10.274  11.295
66089SOL    HW198293  11.785  10.358  11.241
66089SOL    HW298294  11.824  10.287  11.383
66090SOL     OW98295  11.294   9.953  11.735
66090SOL    HW198296  11.249   9.865  11.752
66090SOL    HW298297  11.293  10.007  11.819
66091SOL     OW98298  11.199  10.906  11.289
66091SOL    HW198299  11.180  10.810  11.310
66091SOL    HW298300  11.166  10.964  11.364
66092SOL     OW98301  12.861  10.232  11.784
66092SOL    HW198302  12.956  10.203  11.792
66092SOL    HW298303  12.853  10.297  11.709
66093SOL     OW98304  11.785  10.675  11.898
66093SOL    HW198305  11.736  10.588  11.907
66093SOL    HW298306  11.762  10.718  11.811
66094SOL     OW98307  11.981   9.314  11.674
66094SOL    HW198308  12.021   9.405  11.665
66094SOL    HW298309  11.881   9.322  11.680
66095SOL     OW98310  11.369  10.286  12.436
66095SOL    HW198311  11.458  10.241  12.422
66095SOL    HW298312  11.296  10.221  12.417
66096SOL     OW98313  11.489   9.561  12.973
66096SOL    HW198314  11.560   9.632  12.979
66096SOL    HW298315  11.401   9.600  13.001
66097SOL     OW98316  12.638  10.727  12.125
66097SOL    HW198317  12.579  10.733  12.205
66097SOL    HW298318  12.623  10.639  12.079
66098SOL     OW98319  11.770  10.039  11.442
66098SOL    HW198320  11.794  10.108  11.374
66098SOL    HW298321  11.692  10.072  11.496
66099SOL     OW98322  12.453   9.655  12.116
66099SOL    HW198323  12.367   9.605  12.103
66099SOL    HW298324  12.515   9.601  12.172
66100SOL     OW98325  11.979   9.915  12.637
66100SOL    HW198326  11.932   9.912  12.726
66100SOL    HW298327  11.928   9.860  12.571
66101SOL     OW98328  12.163   9.720  12.414
66101SOL    HW198329  12.086   9.754  12.468
66101SOL    HW298330  12.129   9.669  12.335
66102SOL     OW98331  12.213  10.011  11.601
66102SOL    HW198332  12.239  10.007  11.697
66102SOL    HW298333  12.128   9.960  11.587
66103SOL     OW98334  11.248  10.121  11.961
66103SOL    HW198335  11.347  10.109  11.970
66103SOL    HW298336  11.224  10.216  11.982
66104SOL     OW98337  11.302  11.131  12.743
66104SOL    HW198338  11.292  11.116  12.842
66104SOL    HW298339  11.216  11.167  12.707
66105SOL     OW98340  12.037   9.658  11.367
66105SOL    HW198341  12.096   9.721  11.318
66105SOL    HW298342  12.056   9.564  11.338
66106SOL     OW98343  12.534  10.454  11.717
66106SOL    HW198344  12.617  10.425  11.669
66106SOL    HW298345  12.485  10.521  11.661
66107SOL     OW98346  11.722   9.506  12.057
66107SOL    HW198347  11.717   9.501  12.157
66107SOL    HW298348  11.724   9.602  12.028
66108SOL     OW98349  12.180  10.766  11.649
66108SOL    HW198350  12.134  10.838  11.597
66108SOL    HW298351  12.176  10.786  11.747
66109SOL     OW98352  11.523  11.111  12.025
66109SOL    HW198353  11.573  11.025  12.031
66109SOL    HW298354  11.588  11.188  12.022
66110SOL     OW98355  11.493  10.253  11.414
66110SOL    HW198356  11.575  10.292  11.372
66110SOL    HW298357  11.466  10.171  11.365
66111SOL     OW98358  12.283  11.086  11.409
66111SOL    HW198359  12.223  11.024  11.459
66111SOL    HW298360  12.314  11.042  11.324
66112SOL     OW98361  11.374   9.595  12.670
66112SOL    HW198362  11.294   9.655  12.657
66112SOL    HW298363  11.364   9.546  12.756
66113SOL     OW98364  11.636  11.053  11.495
66113SOL    HW198365  11.669  11.092  11.581
66113SOL    HW298366  11.712  11.046  11.430
66114SOL     OW98367  12.572   9.417  11.598
66114SOL    HW198368  12.548   9.380  11.508
66114SOL    HW298369  12.671   9.433  11.602
66115SOL     OW98370  11.421  11.095  12.413
66115SOL    HW198371  11.478  11.030  12.463
66115SOL    HW298372  11.405  11.062  12.320
66116SOL     OW98373  12.112  11.008  12.076
66116SOL    HW198374  12.192  10.951  12.097
66116SOL    HW298375  12.063  10.968  11.999
66117SOL     OW98376  11.554  10.010  11.652
66117SOL    HW198377  11.599   9.920  11.649
66117SOL    HW298378  11.460   9.999  11.685
66118SOL     OW98379  11.786   9.432  11.289
66118SOL    HW198380  11.884   9.410  11.296
66118SOL    HW298381  11.755   9.415  11.196
66119SOL     OW98382  12.060  10.824  12.367
66119SOL    HW198383  12.037  10.799  12.273
66119SOL    HW298384  12.121  10.755  12.406
66120SOL     OW98385  11.975  10.712  12.096
66120SOL    HW198386  12.065  10.726  12.054
66120SOL    HW298387  11.904  10.714  12.025
66121SOL     OW98388  12.094   9.813  12.071
66121SOL    HW198389  12.069   9.804  11.975
66121SOL    HW298390  12.142   9.731  12.102
66122SOL     OW98391  11.711   9.374  11.684
66122SOL    HW198392  11.630   9.375  11.742
66122SOL    HW298393  11.714   9.457  11.629
66123SOL     OW98394  12.606  10.498  11.213
66123SOL    HW198395  12.638  10.422  11.270
66123SOL    HW298396  12.514  10.525  11.243
66124SOL     OW98397  11.469   9.345  11.343
66124SOL    HW198398  11.518   9.429  11.322
66124SOL    HW298399  11.531   9.280  11.388
66125SOL     OW98400  12.107   9.546  11.652
66125SOL    HW198401  12.059   9.587  11.574
66125SOL    HW298402  12.206   9.544  11.633
66126SOL     OW98403  12.399  10.880  11.965
66126SOL    HW198404  12.420  10.954  11.900
66126SOL    HW298405  12.467  10.880  12.038
66127SOL     OW98406  11.631  10.462  11.913
66127SOL    HW198407  11.560  10.435  11.978
66127SOL    HW298408  11.605  10.434  11.820
66128SOL     OW98409  12.443  11.107  11.763
66128SOL    HW198410  12.487  11.171  11.699
66128SOL    HW298411  12.393  11.159  11.833
66129SOL     OW98412  12.204   9.859  11.188
66129SOL    HW198413  12.163   9.941  11.149
66129SOL    HW298414  12.268   9.885  11.261
66130SOL     OW98415  11.250   9.866  12.558
66130SOL    HW198416  11.342   9.865  12.517
66130SOL    HW298417  11.244   9.940  12.625
66131SOL     OW98418  11.733   9.532  12.319
66131SOL    HW198419  11.771   9.448  12.356
66131SOL    HW298420  11.645   9.551  12.363
66132SOL     OW98421  12.038   9.764  11.814
66132SOL    HW198422  12.006   9.836  11.752
66132SOL    HW298423  12.062   9.683  11.761
66133SOL     OW98424  12.189   9.349  11.925
66133SOL    HW198425  12.117   9.354  11.856
66133SOL    HW298426  12.165   9.280  11.994
66134SOL     OW98427  12.601  10.483  12.039
66134SOL    HW198428  12.546  10.399  12.032
66134SOL    HW298429  12.627  10.512  11.947
66135SOL     OW98430  11.660  10.695  11.346
66135SOL    HW198431  11.573  10.680  11.393
66135SOL    HW298432  11.643  10.721  11.251
66136SOL     OW98433  12.562   9.885  11.250
66136SOL    HW198434  12.508   9.864  11.331
66136SOL    HW298435  12.653   9.844  11.259
66137SOL     OW98436  11.699   9.566  11.500
66137SOL    HW198437  11.726   9.507  11.425
66137SOL    HW298438  11.699   9.661  11.469
66138SOL     OW98439  12.236  10.657  12.512
66138SOL    HW198440  12.156  10.634  12.567
66138SOL    HW298441  12.319  10.631  12.561
66139SOL     OW98442  12.283  10.505  12.272
66139SOL    HW198443  12.243  10.549  12.353
66139SOL    HW298444  12.242  10.542  12.189
66140SOL     OW98445  12.087   9.399  12.574
66140SOL    HW198446  12.112   9.379  12.479
66140SOL    HW298447  12.159   9.455  12.616
66141SOL     OW98448  11.877  10.360  11.540
66141SOL    HW198449  11.863  10.367  11.639
66141SOL    HW298450  11.961  10.309  11.522
66142SOL     OW98451  11.582  10.123  12.423
66142SOL    HW198452  11.668  10.135  12.473
66142SOL    HW298453  11.540  10.036  12.450
66143SOL     OW98454  12.446   9.696  12.434
66143SOL    HW198455  12.467   9.770  12.498
66143SOL    HW298456  12.357   9.713  12.391
66144SOL     OW98457  11.236  10.874  12.503
66144SOL    HW198458  11.190  10.956  12.469
66144SOL    HW298459  11.334  10.893  12.512
66145SOL     OW98460  11.539  10.410  11.673
66145SOL    HW198461  11.532  10.493  11.617
66145SOL    HW298462  11.543  10.330  11.613
66146SOL     OW98463  11.738   9.847  12.037
66146SOL    HW198464  11.750   9.913  11.963
66146SOL    HW298465  11.784   9.881  12.120
66147SOL     OW98466  12.424  10.658  11.560
66147SOL    HW198467  12.474  10.735  11.600
66147SOL    HW298468  12.329  10.660  11.592
66148SOL     OW98469  12.444  10.755  12.314
66148SOL    HW198470  12.491  10.768  12.401
66148SOL    HW298471  12.378  10.681  12.323
66149SOL     OW98472  11.526  10.820  12.501
66149SOL    HW198473  11.505  10.776  12.414
66149SOL    HW298474  11.623  10.846  12.504
66150SOL     OW98475  11.574  10.061  12.770
66150SOL    HW198476  11.642  10.116  12.723
66150SOL    HW298477  11.614   9.973  12.797
66151SOL     OW98478  12.759  10.089  12.842
66151SOL    HW198479  12.667  10.127  12.837
66151SOL    HW298480  12.819  10.136  12.777
66152SOL     OW98481  11.745  10.180  12.201
66152SOL    HW198482  11.789  10.269  12.192
66152SOL    HW298483  11.682  10.180  12.278
66153SOL     OW98484  12.532  10.172  12.217
66153SOL    HW198485  12.457  10.172  12.151
66153SOL    HW298486  12.569  10.080  12.226
66154SOL     OW98487  12.381   9.835  11.447
66154SOL    HW198488  12.394   9.751  11.501
66154SOL    HW298489  12.352   9.909  11.507
66155SOL     OW98490  11.479   9.523  12.403
66155SOL    HW198491  11.456   9.560  12.493
66155SOL    HW298492  11.449   9.428  12.397
66156SOL     OW98493  11.209  10.620  12.454
66156SOL    HW198494  11.262  10.571  12.522
66156SOL    HW298495  11.231  10.718  12.459
66157SOL     OW98496  11.904   9.944  12.236
66157SOL    HW198497  11.963   9.918  12.160
66157SOL    HW298498  11.876  10.040  12.225
66158SOL     OW98499  11.479   9.373  11.790
66158SOL    HW198500  11.468   9.467  11.823
66158SOL    HW298501  11.474   9.310  11.867
66159SOL     OW98502  12.794   9.677  11.546
66159SOL    HW198503  12.796   9.601  11.610
66159SOL    HW298504  12.746   9.754  11.586
66160SOL     OW98505  12.195  10.076  12.138
66160SOL    HW198506  12.210  10.097  12.234
66160SOL    HW298507  12.165   9.981  12.129
66161SOL     OW98508  12.152  10.883  12.872
66161SOL    HW198509  12.132  10.927  12.784
66161SOL    HW298510  12.191  10.792  12.856
66162SOL     OW98511  12.475  10.148  11.214
66162SOL    HW198512  12.509  10.055  11.229
66162SOL    HW298513  12.493  10.175  11.119
66163SOL     OW98514  12.240  10.643  12.021
66163SOL    HW198515  12.247  10.559  11.966
66163SOL    HW298516  12.302  10.712  11.985
66164SOL     OW98517  11.511   9.819  12.178
66164SOL    HW198518  11.459   9.736  12.161
66164SOL    HW298519  11.588   9.824  12.114
66165SOL     OW98520  12.310   9.690  12.850
66165SOL    HW198521  12.265   9.753  12.914
66165SOL    HW298522  12.403   9.721  12.833
66166SOL     OW98523  12.332   9.517  12.649
66166SOL    HW198524  12.332   9.581  12.726
66166SOL    HW298525  12.360   9.565  12.566
66167SOL     OW98526  11.180  10.636  11.372
66167SOL    HW198527  11.087  10.657  11.341
66167SOL    HW298528  11.190  10.537  11.385
66168SOL     OW98529  11.260  11.111  12.099
66168SOL    HW198530  11.218  11.025  12.072
66168SOL    HW298531  11.354  11.114  12.065
66169SOL     OW98532  11.676  10.878  12.082
66169SOL    HW198533  11.742  10.952  12.091
66169SOL    HW298534  11.720  10.799  12.040
66170SOL     OW98535  12.174  10.106  12.410
66170SOL    HW198536  12.215  10.074  12.496
66170SOL    HW298537  12.078  10.079  12.407
66171SOL     OW98538  11.212   9.854  12.286
66171SOL    HW198539  11.297   9.821  12.245
66171SOL    HW298540  11.225   9.869  12.384
66172SOL     OW98541  11.987   9.882  11.497
66172SOL    HW198542  11.994   9.793  11.451
66172SOL    HW298543  11.893   9.916  11.489
66173SOL     OW98544  11.843   9.774  12.441
66173SOL    HW198545  11.809   9.685  12.411
66173SOL    HW298546  11.869   9.828  12.361
66174SOL     OW98547  12.102  10.988  12.637
66174SOL    HW198548  12.078  10.970  12.542
66174SOL    HW298549  12.132  11.082  12.647
66175SOL     OW98550  11.645   9.810  11.363
66175SOL    HW198551  11.706   9.890  11.367
66175SOL    HW298552  11.550   9.841  11.370
66176SOL     OW98553  11.331  10.447  12.638
66176SOL    HW198554  11.353  10.386  12.714
66176SOL    HW298555  11.341  10.398  12.552
66177SOL     OW98556  12.519  10.369  12.406
66177SOL    HW198557  12.543  10.306  12.332
66177SOL    HW298558  12.429  10.409  12.388
66178SOL     OW98559  12.474  10.165  11.481
66178SOL    HW198560  12.388  10.134  11.523
66178SOL    HW298561  12.470  10.151  11.382
66179SOL     OW98562  12.424  11.041  12.300
66179SOL    HW198563  12.508  11.046  12.246
66179SOL    HW298564  12.401  10.945  12.318
66180SOL     OW98565  11.255  10.568  12.194
66180SOL    HW198566  11.250  10.567  12.294
66180SOL    HW298567  11.172  10.527  12.156
66181SOL     OW98568  12.898   9.445  11.695
66181SOL    HW198569  12.971   9.428  11.628
66181SOL    HW298570  12.867   9.358  11.733
66182SOL     OW98571  12.560  10.883  11.649
66182SOL    HW198572  12.627  10.895  11.575
66182SOL    HW298573  12.520  10.972  11.672
66183SOL     OW98574  12.452  10.237  11.844
66183SOL    HW198575  12.512  10.156  11.846
66183SOL    HW298576  12.492  10.306  11.784
66184SOL     OW98577  11.844  10.926  11.326
66184SOL    HW198578  11.853  10.936  11.227
66184SOL    HW298579  11.804  10.837  11.347
66185SOL     OW98580  11.435   9.636  11.892
66185SOL    HW198581  11.356   9.687  11.858
66185SOL    HW298582  11.426   9.621  11.990
66186SOL     OW98583  12.366  10.922  11.203
66186SOL    HW198584  12.372  10.829  11.240
66186SOL    HW298585  12.307  10.922  11.123
66187SOL     OW98586  11.994  10.312  12.544
66187SOL    HW198587  12.034  10.311  12.452
66187SOL    HW298588  12.004  10.404  12.584
66188SOL     OW98589  12.088  10.220  11.463
66188SOL    HW198590  12.151  10.258  11.395
66188SOL    HW298591  12.128  10.137  11.502
66189SOL     OW98592  11.544  10.598  12.662
66189SOL    HW198593  11.531  10.691  12.628
66189SOL    HW298594  11.460  10.546  12.649
66190SOL     OW98595  12.211  10.408  11.868
66190SOL    HW198596  12.141  10.361  11.922
66190SOL    HW298597  12.270  10.340  11.825
66191SOL     OW98598  12.186   9.546  12.143
66191SOL    HW198599  12.178   9.510  12.050
66191SOL    HW298600  12.184   9.470  12.208
66192SOL     OW98601  11.762  10.797  11.663
66192SOL    HW198602  11.804  10.739  11.593
66192SOL    HW298603  11.718  10.876  11.619
66193SOL     OW98604  11.427  10.658  11.462
66193SOL    HW198605  11.331  10.659  11.435
66193SOL    HW298606  11.439  10.711  11.546
66194SOL     OW98607  11.247   9.655  11.205
66194SOL    HW198608  11.155   9.627  11.176
66194SOL    HW298609  11.278   9.732  11.149
66195SOL     OW98610  12.612  10.166  12.570
66195SOL    HW198611  12.555  10.218  12.507
66195SOL    HW298612  12.708  10.178  12.546
66196SOL     OW98613  11.244   9.476  11.490
66196SOL    HW198614  11.227   9.559  11.436
66196SOL    HW298615  11.334   9.439  11.468
66197SOL     OW98616  12.355  10.645  11.291
66197SOL    HW198617  12.256  10.634  11.293
66197SOL    HW298618  12.389  10.660  11.384
66198SOL     OW98619  11.785  10.152  12.603
66198SOL    HW198620  11.841  10.233  12.586
66198SOL    HW298621  11.844  10.072  12.606
66199SOL     OW98622  11.562  11.051  12.732
66199SOL    HW198623  11.471  11.092  12.730
66199SOL    HW298624  11.555  10.957  12.764
66200SOL     OW98625  12.397   9.635  11.621
66200SOL    HW198626  12.462   9.561  11.610
66200SOL    HW298627  12.417   9.685  11.705
66201SOL     OW98628  11.766  10.055  11.824
66201SOL    HW198629  11.816  10.140  11.805
66201SOL    HW298630  11.678  10.057  11.776
66202SOL     OW98631  12.031  10.684  11.188
66202SOL    HW198632  11.985  10.699  11.276
66202SOL    HW298633  12.075  10.769  11.158
66203SOL     OW98634  11.833  11.100  12.125
66203SOL    HW198635  11.787  11.188  12.112
66203SOL    HW298636  11.932  11.112  12.118
66204SOL     OW98637  12.031  10.266  12.033
66204SOL    HW198638  12.085  10.197  12.081
66204SOL    HW298639  11.999  10.335  12.099
66205SOL     OW98640  12.255  10.294  11.259
66205SOL    HW198641  12.232  10.347  11.177
66205SOL    HW298642  12.336  10.238  11.240
66206SOL     OW98643  11.251  10.550  11.825
66206SOL    HW198644  11.250  10.503  11.913
66206SOL    HW298645  11.333  10.522  11.774
66207SOL     OW98646  11.600   9.734  11.692
66207SOL    HW198647  11.630   9.662  11.630
66207SOL    HW298648  11.561   9.694  11.775
66208SOL     OW98649  12.877  10.797  12.276
66208SOL    HW198650  12.784  10.772  12.249
66208SOL    HW298651  12.903  10.747  12.358
66209SOL     OW98652  11.489   9.857  12.452
66209SOL    HW198653  11.527   9.798  12.524
66209SOL    HW298654  11.529   9.831  12.364
66210SOL     OW98655  11.984  10.896  11.859
66210SOL    HW198656  12.016  10.906  11.765
66210SOL    HW298657  11.905  10.834  11.861
66211SOL     OW98658  12.596   9.524  12.284
66211SOL    HW198659  12.648   9.459  12.339
66211SOL    HW298660  12.547   9.587  12.345
66212SOL     OW98661  12.173   9.344  12.326
66212SOL    HW198662  12.110   9.272  12.295
66212SOL    HW298663  12.266   9.308  12.326
66213SOL     OW98664  11.942  10.640  11.473
66213SOL    HW198665  11.896  10.553  11.490
66213SOL    HW298666  12.033  10.637  11.514
66214SOL     OW98667  11.790  10.877  12.456
66214SOL    HW198668  11.785  10.959  12.513
66214SOL    HW298669  11.879  10.874  12.411
66215SOL     OW98670  12.524   9.362  11.340
66215SOL    HW198671  12.559   9.321  11.256
66215SOL    HW298672  12.434   9.324  11.360
66216SOL     OW98673  12.472   9.763  11.863
66216SOL    HW198674  12.413   9.843  11.867
66216SOL    HW298675  12.487   9.728  11.956
66217SOL     OW98676  11.211  10.387  11.472
66217SOL    HW198677  11.310  10.376  11.463
66217SOL    HW298678  11.171  10.301  11.504
66218SOL     OW98679  12.047  10.956  11.509
66218SOL    HW198680  11.970  10.921  11.455
66218SOL    HW298681  12.015  11.027  11.571
66219SOL     OW98682  11.402  11.800   0.113
66219SOL    HW198683  11.309  11.798   0.150
66219SOL    HW298684  11.403  11.761   0.021
66220SOL     OW98685  11.397  11.447   0.996
66220SOL    HW198686  11.432  11.430   1.088
66220SOL    HW298687  11.309  11.402   0.984
66221SOL     OW98688  11.191  11.540   0.647
66221SOL    HW198689  11.109  11.583   0.686
66221SOL    HW298690  11.163  11.467   0.584
66222SOL     OW98691  11.741  12.447   1.165
66222SOL    HW198692  11.648  12.440   1.128
66222SOL    HW298693  11.752  12.536   1.209
66223SOL     OW98694  12.727  12.683   0.703
66223SOL    HW198695  12.670  12.667   0.784
66223SOL    HW298696  12.668  12.693   0.623
66224SOL     OW98697  12.307  11.875   0.717
66224SOL    HW198698  12.364  11.953   0.692
66224SOL    HW298699  12.247  11.901   0.793
66225SOL     OW98700  11.940  12.316   1.023
66225SOL    HW198701  11.862  12.333   1.083
66225SOL    HW298702  11.974  12.403   0.987
66226SOL     OW98703  12.022  11.970   1.823
66226SOL    HW198704  12.018  12.046   1.888
66226SOL    HW298705  12.044  12.006   1.732
66227SOL     OW98706  11.857  12.184   0.665
66227SOL    HW198707  11.926  12.168   0.735
66227SOL    HW298708  11.784  12.241   0.703
66228SOL     OW98709  11.858  12.333   1.803
66228SOL    HW198710  11.918  12.412   1.817
66228SOL    HW298711  11.772  12.364   1.762
66229SOL     OW98712  11.507  12.607   1.061
66229SOL    HW198713  11.429  12.576   1.008
66229SOL    HW298714  11.565  12.665   1.004
66230SOL     OW98715  11.610  11.564   1.499
66230SOL    HW198716  11.692  11.508   1.508
66230SOL    HW298717  11.529  11.506   1.503
66231SOL     OW98718  11.403  12.885   0.483
66231SOL    HW198719  11.437  12.962   0.537
66231SOL    HW298720  11.447  12.885   0.393
66232SOL     OW98721  12.299  12.513   1.690
66232SOL    HW198722  12.346  12.513   1.778
66232SOL    HW298723  12.251  12.426   1.679
66233SOL     OW98724  11.402  12.606   0.538
66233SOL    HW198725  11.376  12.702   0.538
66233SOL    HW298726  11.331  12.552   0.583
66234SOL     OW98727  11.412  12.263   0.886
66234SOL    HW198728  11.426  12.179   0.938
66234SOL    HW298729  11.357  12.327   0.941
66235SOL     OW98730  11.778  12.136   0.123
66235SOL    HW198731  11.785  12.220   0.069
66235SOL    HW298732  11.824  12.149   0.211
66236SOL     OW98733  11.294  11.815   0.563
66236SOL    HW198734  11.249  11.727   0.580
66236SOL    HW298735  11.293  11.869   0.647
66237SOL     OW98736  11.199  12.768   0.117
66237SOL    HW198737  11.180  12.672   0.138
66237SOL    HW298738  11.166  12.826   0.192
66238SOL     OW98739  12.861  12.094   0.612
66238SOL    HW198740  12.956  12.065   0.620
66238SOL    HW298741  12.853  12.159   0.537
66239SOL     OW98742  11.285  11.909   1.597
66239SOL    HW198743  11.373  11.896   1.642
66239SOL    HW298744  11.272  12.006   1.575
66240SOL     OW98745  11.785  12.537   0.726
66240SOL    HW198746  11.736  12.450   0.735
66240SOL    HW298747  11.762  12.580   0.639
66241SOL     OW98748  12.465  12.400   1.423
66241SOL    HW198749  12.502  12.327   1.365
66241SOL    HW298750  12.517  12.405   1.508
66242SOL     OW98751  11.981  11.176   0.502
66242SOL    HW198752  12.021  11.267   0.493
66242SOL    HW298753  11.881  11.184   0.508
66243SOL     OW98754  11.369  12.148   1.264
66243SOL    HW198755  11.458  12.103   1.250
66243SOL    HW298756  11.296  12.083   1.245
66244SOL     OW98757  11.489  11.423   1.801
66244SOL    HW198758  11.560  11.494   1.807
66244SOL    HW298759  11.401  11.462   1.829
66245SOL     OW98760  12.638  12.589   0.953
66245SOL    HW198761  12.579  12.595   1.033
66245SOL    HW298762  12.623  12.501   0.907
66246SOL     OW98763  11.770  11.901   0.270
66246SOL    HW198764  11.794  11.970   0.202
66246SOL    HW298765  11.692  11.934   0.324
66247SOL     OW98766  12.453  11.517   0.944
66247SOL    HW198767  12.367  11.467   0.931
66247SOL    HW298768  12.515  11.463   1.000
66248SOL     OW98769  11.979  11.777   1.465
66248SOL    HW198770  11.932  11.774   1.554
66248SOL    HW298771  11.928  11.722   1.399
66249SOL     OW98772  12.566  11.641   1.674
66249SOL    HW198773  12.546  11.684   1.762
66249SOL    HW298774  12.644  11.579   1.683
66250SOL     OW98775  12.145  12.062   1.572
66250SOL    HW198776  12.191  11.978   1.543
66250SOL    HW298777  12.089  12.096   1.497
66251SOL     OW98778  12.163  11.582   1.242
66251SOL    HW198779  12.086  11.616   1.296
66251SOL    HW298780  12.129  11.531   1.163
66252SOL     OW98781  12.213  11.873   0.429
66252SOL    HW198782  12.239  11.869   0.525
66252SOL    HW298783  12.128  11.822   0.415
66253SOL     OW98784  11.248  11.983   0.789
66253SOL    HW198785  11.347  11.971   0.798
66253SOL    HW298786  11.224  12.078   0.810
66254SOL     OW98787  12.037  11.520   0.195
66254SOL    HW198788  12.096  11.583   0.146
66254SOL    HW298789  12.056  11.426   0.166
66255SOL     OW98790  12.534  12.316   0.545
66255SOL    HW198791  12.617  12.287   0.497
66255SOL    HW298792  12.485  12.383   0.489
66256SOL     OW98793  11.722  11.368   0.885
66256SOL    HW198794  11.717  11.363   0.985
66256SOL    HW298795  11.724  11.464   0.856
66257SOL     OW98796  12.180  12.628   0.477
66257SOL    HW198797  12.134  12.700   0.425
66257SOL    HW298798  12.176  12.648   0.575
66258SOL     OW98799  12.399  12.722   1.506
66258SOL    HW198800  12.405  12.645   1.570
66258SOL    HW298801  12.347  12.696   1.426
66259SOL     OW98802  11.493  12.115   0.242
66259SOL    HW198803  11.575  12.154   0.200
66259SOL    HW298804  11.466  12.033   0.193
66260SOL     OW98805  11.633  12.438   1.727
66260SOL    HW198806  11.583  12.439   1.641
66260SOL    HW298807  11.570  12.420   1.803
66261SOL     OW98808  12.283  12.948   0.237
66261SOL    HW198809  12.223  12.886   0.287
66261SOL    HW298810  12.314  12.904   0.152
66262SOL     OW98811  11.374  11.457   1.498
66262SOL    HW198812  11.294  11.517   1.485
66262SOL    HW298813  11.364  11.408   1.584
66263SOL     OW98814  12.572  11.279   0.426
66263SOL    HW198815  12.548  11.242   0.336
66263SOL    HW298816  12.671  11.295   0.430
66264SOL     OW98817  11.554  11.872   0.480
66264SOL    HW198818  11.599  11.782   0.477
66264SOL    HW298819  11.460  11.861   0.513
66265SOL     OW98820  11.786  11.294   0.117
66265SOL    HW198821  11.884  11.272   0.124
66265SOL    HW298822  11.755  11.277   0.024
66266SOL     OW98823  11.953  11.436   1.749
66266SOL    HW198824  12.020  11.375   1.792
66266SOL    HW298825  11.880  11.455   1.814
66267SOL     OW98826  12.523  11.762   1.433
66267SOL    HW198827  12.551  11.719   1.518
66267SOL    HW298828  12.548  11.858   1.434
66268SOL     OW98829  11.975  12.574   0.924
66268SOL    HW198830  12.065  12.588   0.882
66268SOL    HW298831  11.904  12.576   0.853
66269SOL     OW98832  12.094  11.675   0.899
66269SOL    HW198833  12.069  11.666   0.803
66269SOL    HW298834  12.142  11.593   0.930
66270SOL     OW98835  11.711  11.236   0.512
66270SOL    HW198836  11.630  11.237   0.570
66270SOL    HW298837  11.714  11.319   0.457
66271SOL     OW98838  12.606  12.360   0.041
66271SOL    HW198839  12.638  12.284   0.098
66271SOL    HW298840  12.514  12.387   0.071
66272SOL     OW98841  11.469  11.207   0.171
66272SOL    HW198842  11.518  11.291   0.150
66272SOL    HW298843  11.531  11.142   0.216
66273SOL     OW98844  12.107  11.408   0.480
66273SOL    HW198845  12.059  11.449   0.402
66273SOL    HW298846  12.206  11.406   0.461
66274SOL     OW98847  12.248  11.855   1.464
66274SOL    HW198848  12.168  11.794   1.467
66274SOL    HW298849  12.329  11.802   1.440
66275SOL     OW98850  12.399  12.742   0.793
66275SOL    HW198851  12.420  12.816   0.728
66275SOL    HW298852  12.467  12.742   0.866
66276SOL     OW98853  11.631  12.324   0.741
66276SOL    HW198854  11.560  12.297   0.806
66276SOL    HW298855  11.605  12.296   0.648
66277SOL     OW98856  12.204  11.721   0.016
66277SOL    HW198857  12.163  11.803  -0.023
66277SOL    HW298858  12.268  11.747   0.089
66278SOL     OW98859  11.250  11.728   1.386
66278SOL    HW198860  11.342  11.727   1.345
66278SOL    HW298861  11.244  11.802   1.453
66279SOL     OW98862  11.733  11.394   1.147
66279SOL    HW198863  11.771  11.310   1.184
66279SOL    HW298864  11.645  11.413   1.191
66280SOL     OW98865  12.038  11.626   0.642
66280SOL    HW198866  12.006  11.698   0.580
66280SOL    HW298867  12.062  11.545   0.589
66281SOL     OW98868  12.189  11.211   0.753
66281SOL    HW198869  12.117  11.216   0.684
66281SOL    HW298870  12.165  11.142   0.822
66282SOL     OW98871  12.601  12.345   0.867
66282SOL    HW198872  12.546  12.261   0.860
66282SOL    HW298873  12.627  12.374   0.775
66283SOL     OW98874  11.660  12.557   0.174
66283SOL    HW198875  11.573  12.542   0.221
66283SOL    HW298876  11.643  12.583   0.079
66284SOL     OW98877  12.562  11.747   0.078
66284SOL    HW198878  12.508  11.726   0.159
66284SOL    HW298879  12.653  11.706   0.087
66285SOL     OW98880  11.699  11.428   0.328
66285SOL    HW198881  11.726  11.369   0.253
66285SOL    HW298882  11.699  11.523   0.297
66286SOL     OW98883  12.236  12.519   1.340
66286SOL    HW198884  12.156  12.496   1.395
66286SOL    HW298885  12.319  12.493   1.389
66287SOL     OW98886  12.283  12.367   1.100
66287SOL    HW198887  12.243  12.411   1.181
66287SOL    HW298888  12.242  12.404   1.017
66288SOL     OW98889  12.087  11.261   1.402
66288SOL    HW198890  12.112  11.241   1.307
66288SOL    HW298891  12.159  11.317   1.444
66289SOL     OW98892  12.152  12.288   1.719
66289SOL    HW198893  12.053  12.294   1.729
66289SOL    HW298894  12.175  12.208   1.663
66290SOL     OW98895  11.877  12.222   0.368
66290SOL    HW198896  11.863  12.229   0.467
66290SOL    HW298897  11.961  12.171   0.350
66291SOL     OW98898  11.582  11.985   1.251
66291SOL    HW198899  11.668  11.997   1.301
66291SOL    HW298900  11.540  11.898   1.278
66292SOL     OW98901  12.446  11.558   1.262
66292SOL    HW198902  12.467  11.632   1.326
66292SOL    HW298903  12.357  11.575   1.219
66293SOL     OW98904  11.539  12.272   0.501
66293SOL    HW198905  11.532  12.355   0.445
66293SOL    HW298906  11.543  12.192   0.441
66294SOL     OW98907  11.738  11.709   0.865
66294SOL    HW198908  11.750  11.775   0.791
66294SOL    HW298909  11.784  11.743   0.948
66295SOL     OW98910  12.424  12.520   0.388
66295SOL    HW198911  12.474  12.597   0.428
66295SOL    HW298912  12.329  12.522   0.420
66296SOL     OW98913  12.444  12.617   1.142
66296SOL    HW198914  12.491  12.630   1.229
66296SOL    HW298915  12.378  12.543   1.151
66297SOL     OW98916  11.526  12.682   1.329
66297SOL    HW198917  11.505  12.638   1.242
66297SOL    HW298918  11.623  12.708   1.332
66298SOL     OW98919  11.574  11.923   1.598
66298SOL    HW198920  11.642  11.978   1.551
66298SOL    HW298921  11.614  11.835   1.625
66299SOL     OW98922  11.676  11.222   1.740
66299SOL    HW198923  11.634  11.165   1.670
66299SOL    HW298924  11.610  11.291   1.772
66300SOL     OW98925  11.745  12.042   1.029
66300SOL    HW198926  11.789  12.131   1.020
66300SOL    HW298927  11.682  12.042   1.106
66301SOL     OW98928  12.532  12.034   1.045
66301SOL    HW198929  12.457  12.034   0.979
66301SOL    HW298930  12.569  11.942   1.054
66302SOL     OW98931  12.381  11.697   0.275
66302SOL    HW198932  12.394  11.613   0.329
66302SOL    HW298933  12.352  11.771   0.335
66303SOL     OW98934  11.479  11.385   1.231
66303SOL    HW198935  11.456  11.422   1.321
66303SOL    HW298936  11.449  11.290   1.225
66304SOL     OW98937  11.209  12.482   1.282
66304SOL    HW198938  11.262  12.433   1.350
66304SOL    HW298939  11.231  12.580   1.287
66305SOL     OW98940  11.904  11.806   1.064
66305SOL    HW198941  11.963  11.780   0.988
66305SOL    HW298942  11.876  11.902   1.053
66306SOL     OW98943  11.479  11.235   0.618
66306SOL    HW198944  11.468  11.329   0.651
66306SOL    HW298945  11.474  11.172   0.695
66307SOL     OW98946  12.794  11.539   0.374
66307SOL    HW198947  12.796  11.463   0.438
66307SOL    HW298948  12.746  11.616   0.414
66308SOL     OW98949  12.195  11.938   0.966
66308SOL    HW198950  12.210  11.959   1.062
66308SOL    HW298951  12.165  11.843   0.957
66309SOL     OW98952  11.522  12.070   1.804
66309SOL    HW198953  11.598  12.114   1.852
66309SOL    HW298954  11.557  12.023   1.722
66310SOL     OW98955  12.475  12.010   0.042
66310SOL    HW198956  12.509  11.917   0.057
66310SOL    HW298957  12.493  12.037  -0.053
66311SOL     OW98958  12.240  12.505   0.849
66311SOL    HW198959  12.247  12.421   0.794
66311SOL    HW298960  12.302  12.574   0.813
66312SOL     OW98961  11.491  11.982   0.949
66312SOL    HW198962  11.584  12.018   0.954
66312SOL    HW298963  11.485  11.897   1.001
66313SOL     OW98964  11.511  11.681   1.006
66313SOL    HW198965  11.459  11.598   0.989
66313SOL    HW298966  11.588  11.686   0.942
66314SOL     OW98967  12.310  11.552   1.678
66314SOL    HW198968  12.265  11.615   1.742
66314SOL    HW298969  12.403  11.583   1.661
66315SOL     OW98970  12.332  11.379   1.477
66315SOL    HW198971  12.332  11.443   1.554
66315SOL    HW298972  12.360  11.427   1.394
66316SOL     OW98973  11.180  12.498   0.200
66316SOL    HW198974  11.087  12.519   0.169
66316SOL    HW298975  11.190  12.399   0.213
66317SOL     OW98976  12.174  11.968   1.238
66317SOL    HW198977  12.215  11.936   1.324
66317SOL    HW298978  12.078  11.941   1.235
66318SOL     OW98979  11.212  11.716   1.114
66318SOL    HW198980  11.297  11.683   1.073
66318SOL    HW298981  11.225  11.731   1.212
66319SOL     OW98982  11.361  11.692   1.722
66319SOL    HW198983  11.420  11.652   1.652
66319SOL    HW298984  11.303  11.763   1.681
66320SOL     OW98985  12.541  12.122   1.660
66320SOL    HW198986  12.580  12.211   1.680
66320SOL    HW298987  12.551  12.102   1.563
66321SOL     OW98988  11.987  11.744   0.325
66321SOL    HW198989  11.994  11.655   0.279
66321SOL    HW298990  11.893  11.778   0.317
66322SOL     OW98991  11.424  12.736   1.744
66322SOL    HW198992  11.394  12.793   1.820
66322SOL    HW298993  11.417  12.639   1.770
66323SOL     OW98994  11.843  11.636   1.269
66323SOL    HW198995  11.809  11.547   1.239
66323SOL    HW298996  11.869  11.690   1.189
66324SOL     OW98997  11.645  11.672   0.191
66324SOL    HW198998  11.706  11.752   0.195
66324SOL    HW298999  11.550  11.703   0.198
66325SOL     OW99000  11.331  12.309   1.466
66325SOL    HW199001  11.353  12.248   1.542
66325SOL    HW299002  11.341  12.260   1.380
66326SOL     OW99003  12.519  12.231   1.234
66326SOL    HW199004  12.543  12.168   1.160
66326SOL    HW299005  12.429  12.271   1.216
66327SOL     OW99006  12.474  12.027   0.309
66327SOL    HW199007  12.388  11.996   0.351
66327SOL    HW299008  12.470  12.013   0.210
66328SOL     OW99009  11.255  12.430   1.022
66328SOL    HW199010  11.250  12.429   1.122
66328SOL    HW299011  11.172  12.389   0.984
66329SOL     OW99012  12.075  11.258   0.133
66329SOL    HW199013  12.126  11.259   0.047
66329SOL    HW299014  12.131  11.216   0.204
66330SOL     OW99015  12.898  11.307   0.523
66330SOL    HW199016  12.971  11.290   0.456
66330SOL    HW299017  12.867  11.220   0.561
66331SOL     OW99018  12.452  12.099   0.672
66331SOL    HW199019  12.512  12.018   0.674
66331SOL    HW299020  12.492  12.168   0.612
66332SOL     OW99021  12.002  12.445   1.422
66332SOL    HW199022  11.997  12.478   1.517
66332SOL    HW299023  11.916  12.464   1.376
66333SOL     OW99024  11.435  11.498   0.720
66333SOL    HW199025  11.356  11.549   0.686
66333SOL    HW299026  11.426  11.483   0.818
66334SOL     OW99027  12.366  12.784   0.031
66334SOL    HW199028  12.372  12.691   0.068
66334SOL    HW299029  12.307  12.784  -0.049
66335SOL     OW99030  11.994  12.174   1.372
66335SOL    HW199031  12.034  12.173   1.280
66335SOL    HW299032  12.004  12.266   1.412
66336SOL     OW99033  12.088  12.082   0.291
66336SOL    HW199034  12.151  12.120   0.223
66336SOL    HW299035  12.128  11.999   0.330
66337SOL     OW99036  11.544  12.460   1.490
66337SOL    HW199037  11.531  12.553   1.456
66337SOL    HW299038  11.460  12.408   1.477
66338SOL     OW99039  12.211  12.270   0.696
66338SOL    HW199040  12.141  12.223   0.750
66338SOL    HW299041  12.270  12.202   0.653
66339SOL     OW99042  12.186  11.408   0.971
66339SOL    HW199043  12.178  11.372   0.878
66339SOL    HW299044  12.184  11.332   1.036
66340SOL     OW99045  11.427  12.520   0.290
66340SOL    HW199046  11.331  12.521   0.263
66340SOL    HW299047  11.439  12.573   0.374
66341SOL     OW99048  11.277  12.185   1.726
66341SOL    HW199049  11.200  12.152   1.780
66341SOL    HW299050  11.362  12.155   1.768
66342SOL     OW99051  11.844  11.375   1.489
66342SOL    HW199052  11.934  11.359   1.449
66342SOL    HW299053  11.852  11.380   1.588
66343SOL     OW99054  12.612  12.028   1.398
66343SOL    HW199055  12.555  12.080   1.335
66343SOL    HW299056  12.708  12.040   1.374
66344SOL     OW99057  11.244  11.338   0.318
66344SOL    HW199058  11.227  11.421   0.264
66344SOL    HW299059  11.334  11.301   0.296
66345SOL     OW99060  12.355  12.507   0.119
66345SOL    HW199061  12.256  12.496   0.121
66345SOL    HW299062  12.389  12.522   0.212
66346SOL     OW99063  11.785  12.014   1.431
66346SOL    HW199064  11.841  12.095   1.414
66346SOL    HW299065  11.844  11.934   1.434
66347SOL     OW99066  11.888  11.737   1.708
66347SOL    HW199067  11.907  11.802   1.782
66347SOL    HW299068  11.948  11.657   1.717
66348SOL     OW99069  12.622  12.392   1.633
66348SOL    HW199070  12.613  12.382   1.732
66348SOL    HW299071  12.718  12.385   1.607
66349SOL     OW99072  12.397  11.497   0.449
66349SOL    HW199073  12.462  11.423   0.438
66349SOL    HW299074  12.417  11.547   0.533
66350SOL     OW99075  11.766  11.917   0.652
66350SOL    HW199076  11.816  12.002   0.633
66350SOL    HW299077  11.678  11.919   0.604
66351SOL     OW99078  12.031  12.546   0.016
66351SOL    HW199079  11.985  12.561   0.104
66351SOL    HW299080  12.075  12.631  -0.014
66352SOL     OW99081  12.031  12.128   0.861
66352SOL    HW199082  12.085  12.059   0.909
66352SOL    HW299083  11.999  12.197   0.927
66353SOL     OW99084  12.255  12.156   0.087
66353SOL    HW199085  12.232  12.209   0.005
66353SOL    HW299086  12.336  12.100   0.068
66354SOL     OW99087  11.393  12.486   1.844
66354SOL    HW199088  11.328  12.413   1.823
66354SOL    HW299089  11.397  12.500   1.942
66355SOL     OW99090  11.251  12.412   0.653
66355SOL    HW199091  11.250  12.365   0.741
66355SOL    HW299092  11.333  12.384   0.602
66356SOL     OW99093  11.844  12.563   1.624
66356SOL    HW199094  11.766  12.513   1.662
66356SOL    HW299095  11.841  12.658   1.655
66357SOL     OW99096  11.600  11.596   0.520
66357SOL    HW199097  11.630  11.524   0.458
66357SOL    HW299098  11.561  11.556   0.603
66358SOL     OW99099  12.877  12.659   1.104
66358SOL    HW199100  12.784  12.634   1.077
66358SOL    HW299101  12.903  12.609   1.186
66359SOL     OW99102  11.489  11.719   1.280
66359SOL    HW199103  11.527  11.660   1.352
66359SOL    HW299104  11.529  11.693   1.192
66360SOL     OW99105  12.596  11.386   1.112
66360SOL    HW199106  12.648  11.321   1.167
66360SOL    HW299107  12.547  11.449   1.173
66361SOL     OW99108  12.173  11.206   1.154
66361SOL    HW199109  12.110  11.134   1.123
66361SOL    HW299110  12.266  11.170   1.154
66362SOL     OW99111  11.942  12.502   0.301
66362SOL    HW199112  11.896  12.415   0.318
66362SOL    HW299113  12.033  12.499   0.342
66363SOL     OW99114  11.790  12.739   1.284
66363SOL    HW199115  11.785  12.821   1.341
66363SOL    HW299116  11.879  12.736   1.239
66364SOL     OW99117  12.524  11.224   0.168
66364SOL    HW199118  12.559  11.183   0.084
66364SOL    HW299119  12.434  11.186   0.188
66365SOL     OW99120  12.472  11.625   0.691
66365SOL    HW199121  12.413  11.705   0.695
66365SOL    HW299122  12.487  11.590   0.784
66366SOL     OW99123  11.211  12.249   0.300
66366SOL    HW199124  11.310  12.238   0.291
66366SOL    HW299125  11.171  12.163   0.332
66367SOL     OW99126  11.402  11.800   1.975
66367SOL    HW199127  11.309  11.798   2.012
66367SOL    HW299128  11.403  11.761   1.883
66368SOL     OW99129  11.397  11.447   2.858
66368SOL    HW199130  11.432  11.430   2.950
66368SOL    HW299131  11.309  11.402   2.846
66369SOL     OW99132  11.191  11.540   2.509
66369SOL    HW199133  11.109  11.583   2.548
66369SOL    HW299134  11.163  11.467   2.446
66370SOL     OW99135  11.741  12.447   3.027
66370SOL    HW199136  11.648  12.440   2.990
66370SOL    HW299137  11.752  12.536   3.071
66371SOL     OW99138  12.727  12.683   2.565
66371SOL    HW199139  12.670  12.667   2.646
66371SOL    HW299140  12.668  12.693   2.485
66372SOL     OW99141  12.307  11.875   2.579
66372SOL    HW199142  12.364  11.953   2.554
66372SOL    HW299143  12.247  11.901   2.655
66373SOL     OW99144  11.940  12.316   2.885
66373SOL    HW199145  11.862  12.333   2.945
66373SOL    HW299146  11.974  12.403   2.849
66374SOL     OW99147  11.857  12.184   2.527
66374SOL    HW199148  11.926  12.168   2.597
66374SOL    HW299149  11.784  12.241   2.565
66375SOL     OW99150  11.858  12.333   3.665
66375SOL    HW199151  11.918  12.412   3.679
66375SOL    HW299152  11.772  12.364   3.624
66376SOL     OW99153  11.507  12.607   2.923
66376SOL    HW199154  11.429  12.576   2.870
66376SOL    HW299155  11.565  12.665   2.866
66377SOL     OW99156  11.610  11.564   3.361
66377SOL    HW199157  11.692  11.508   3.370
66377SOL    HW299158  11.529  11.506   3.365
66378SOL     OW99159  11.403  12.885   2.345
66378SOL    HW199160  11.437  12.962   2.399
66378SOL    HW299161  11.447  12.885   2.255
66379SOL     OW99162  12.299  12.513   3.552
66379SOL    HW199163  12.346  12.513   3.640
66379SOL    HW299164  12.251  12.426   3.541
66380SOL     OW99165  11.402  12.606   2.400
66380SOL    HW199166  11.376  12.702   2.400
66380SOL    HW299167  11.331  12.552   2.445
66381SOL     OW99168  11.412  12.263   2.748
66381SOL    HW199169  11.426  12.179   2.800
66381SOL    HW299170  11.357  12.327   2.803
66382SOL     OW99171  11.778  12.136   1.985
66382SOL    HW199172  11.785  12.220   1.931
66382SOL    HW299173  11.824  12.149   2.073
66383SOL     OW99174  11.294  11.815   2.425
66383SOL    HW199175  11.249  11.727   2.442
66383SOL    HW299176  11.293  11.869   2.509
66384SOL     OW99177  11.199  12.768   1.979
66384SOL    HW199178  11.180  12.672   2.000
66384SOL    HW299179  11.166  12.826   2.054
66385SOL     OW99180  12.861  12.094   2.474
66385SOL    HW199181  12.956  12.065   2.482
66385SOL    HW299182  12.853  12.159   2.399
66386SOL     OW99183  11.285  11.909   3.459
66386SOL    HW199184  11.373  11.896   3.504
66386SOL    HW299185  11.272  12.006   3.437
66387SOL     OW99186  11.785  12.537   2.588
66387SOL    HW199187  11.736  12.450   2.597
66387SOL    HW299188  11.762  12.580   2.501
66388SOL     OW99189  12.465  12.400   3.285
66388SOL    HW199190  12.502  12.327   3.227
66388SOL    HW299191  12.517  12.405   3.370
66389SOL     OW99192  11.369  12.148   3.126
66389SOL    HW199193  11.458  12.103   3.112
66389SOL    HW299194  11.296  12.083   3.107
66390SOL     OW99195  11.489  11.423   3.663
66390SOL    HW199196  11.560  11.494   3.669
66390SOL    HW299197  11.401  11.462   3.691
66391SOL     OW99198  12.638  12.589   2.815
66391SOL    HW199199  12.579  12.595   2.895
66391SOL    HW299200  12.623  12.501   2.769
66392SOL     OW99201  11.770  11.901   2.132
66392SOL    HW199202  11.794  11.970   2.064
66392SOL    HW299203  11.692  11.934   2.186
66393SOL     OW99204  12.453  11.517   2.806
66393SOL    HW199205  12.367  11.467   2.793
66393SOL    HW299206  12.515  11.463   2.862
66394SOL     OW99207  11.979  11.777   3.327
66394SOL    HW199208  11.932  11.774   3.416
66394SOL    HW299209  11.928  11.722   3.261
66395SOL     OW99210  12.566  11.641   3.536
66395SOL    HW199211  12.546  11.684   3.624
66395SOL    HW299212  12.644  11.579   3.545
66396SOL     OW99213  12.145  12.062   3.434
66396SOL    HW199214  12.191  11.978   3.405
66396SOL    HW299215  12.089  12.096   3.359
66397SOL     OW99216  12.163  11.582   3.104
66397SOL    HW199217  12.086  11.616   3.158
66397SOL    HW299218  12.129  11.531   3.025
66398SOL     OW99219  12.213  11.873   2.291
66398SOL    HW199220  12.239  11.869   2.387
66398SOL    HW299221  12.128  11.822   2.277
66399SOL     OW99222  11.248  11.983   2.651
66399SOL    HW199223  11.347  11.971   2.660
66399SOL    HW299224  11.224  12.078   2.672
66400SOL     OW99225  12.037  11.520   2.057
66400SOL    HW199226  12.096  11.583   2.008
66400SOL    HW299227  12.056  11.426   2.028
66401SOL     OW99228  12.534  12.316   2.407
66401SOL    HW199229  12.617  12.287   2.359
66401SOL    HW299230  12.485  12.383   2.351
66402SOL     OW99231  11.722  11.368   2.747
66402SOL    HW199232  11.717  11.363   2.847
66402SOL    HW299233  11.724  11.464   2.718
66403SOL     OW99234  12.180  12.628   2.339
66403SOL    HW199235  12.134  12.700   2.287
66403SOL    HW299236  12.176  12.648   2.437
66404SOL     OW99237  12.399  12.722   3.368
66404SOL    HW199238  12.405  12.645   3.432
66404SOL    HW299239  12.347  12.696   3.288
66405SOL     OW99240  11.493  12.115   2.104
66405SOL    HW199241  11.575  12.154   2.062
66405SOL    HW299242  11.466  12.033   2.055
66406SOL     OW99243  11.633  12.438   3.589
66406SOL    HW199244  11.583  12.439   3.503
66406SOL    HW299245  11.570  12.420   3.665
66407SOL     OW99246  12.283  12.948   2.099
66407SOL    HW199247  12.223  12.886   2.149
66407SOL    HW299248  12.314  12.904   2.014
66408SOL     OW99249  11.374  11.457   3.360
66408SOL    HW199250  11.294  11.517   3.347
66408SOL    HW299251  11.364  11.408   3.446
66409SOL     OW99252  12.572  11.279   2.288
66409SOL    HW199253  12.548  11.242   2.198
66409SOL    HW299254  12.671  11.295   2.292
66410SOL     OW99255  11.554  11.872   2.342
66410SOL    HW199256  11.599  11.782   2.339
66410SOL    HW299257  11.460  11.861   2.375
66411SOL     OW99258  11.786  11.294   1.979
66411SOL    HW199259  11.884  11.272   1.986
66411SOL    HW299260  11.755  11.277   1.886
66412SOL     OW99261  11.953  11.436   3.611
66412SOL    HW199262  12.020  11.375   3.654
66412SOL    HW299263  11.880  11.455   3.676
66413SOL     OW99264  12.523  11.762   3.295
66413SOL    HW199265  12.551  11.719   3.380
66413SOL    HW299266  12.548  11.858   3.296
66414SOL     OW99267  11.975  12.574   2.786
66414SOL    HW199268  12.065  12.588   2.744
66414SOL    HW299269  11.904  12.576   2.715
66415SOL     OW99270  12.094  11.675   2.761
66415SOL    HW199271  12.069  11.666   2.665
66415SOL    HW299272  12.142  11.593   2.792
66416SOL     OW99273  11.711  11.236   2.374
66416SOL    HW199274  11.630  11.237   2.432
66416SOL    HW299275  11.714  11.319   2.319
66417SOL     OW99276  12.606  12.360   1.903
66417SOL    HW199277  12.638  12.284   1.960
66417SOL    HW299278  12.514  12.387   1.933
66418SOL     OW99279  11.469  11.207   2.033
66418SOL    HW199280  11.518  11.291   2.012
66418SOL    HW299281  11.531  11.142   2.078
66419SOL     OW99282  12.107  11.408   2.342
66419SOL    HW199283  12.059  11.449   2.264
66419SOL    HW299284  12.206  11.406   2.323
66420SOL     OW99285  12.248  11.855   3.326
66420SOL    HW199286  12.168  11.794   3.329
66420SOL    HW299287  12.329  11.802   3.302
66421SOL     OW99288  12.399  12.742   2.655
66421SOL    HW199289  12.420  12.816   2.590
66421SOL    HW299290  12.467  12.742   2.728
66422SOL     OW99291  11.631  12.324   2.603
66422SOL    HW199292  11.560  12.297   2.668
66422SOL    HW299293  11.605  12.296   2.510
66423SOL     OW99294  12.204  11.721   1.878
66423SOL    HW199295  12.163  11.803   1.839
66423SOL    HW299296  12.268  11.747   1.951
66424SOL     OW99297  11.250  11.728   3.248
66424SOL    HW199298  11.342  11.727   3.207
66424SOL    HW299299  11.244  11.802   3.315
66425SOL     OW99300  11.733  11.394   3.009
66425SOL    HW199301  11.771  11.310   3.046
66425SOL    HW299302  11.645  11.413   3.053
66426SOL     OW99303  12.038  11.626   2.504
66426SOL    HW199304  12.006  11.698   2.442
66426SOL    HW299305  12.062  11.545   2.451
66427SOL     OW99306  12.189  11.211   2.615
66427SOL    HW199307  12.117  11.216   2.546
66427SOL    HW299308  12.165  11.142   2.684
66428SOL     OW99309  12.601  12.345   2.729
66428SOL    HW199310  12.546  12.261   2.722
66428SOL    HW299311  12.627  12.374   2.637
66429SOL     OW99312  11.660  12.557   2.036
66429SOL    HW199313  11.573  12.542   2.083
66429SOL    HW299314  11.643  12.583   1.941
66430SOL     OW99315  12.562  11.747   1.940
66430SOL    HW199316  12.508  11.726   2.021
66430SOL    HW299317  12.653  11.706   1.949
66431SOL     OW99318  11.699  11.428   2.190
66431SOL    HW199319  11.726  11.369   2.115
66431SOL    HW299320  11.699  11.523   2.159
66432SOL     OW99321  12.236  12.519   3.202
66432SOL    HW199322  12.156  12.496   3.257
66432SOL    HW299323  12.319  12.493   3.251
66433SOL     OW99324  12.283  12.367   2.962
66433SOL    HW199325  12.243  12.411   3.043
66433SOL    HW299326  12.242  12.404   2.879
66434SOL     OW99327  12.087  11.261   3.264
66434SOL    HW199328  12.112  11.241   3.169
66434SOL    HW299329  12.159  11.317   3.306
66435SOL     OW99330  12.152  12.288   3.581
66435SOL    HW199331  12.053  12.294   3.591
66435SOL    HW299332  12.175  12.208   3.525
66436SOL     OW99333  11.877  12.222   2.230
66436SOL    HW199334  11.863  12.229   2.329
66436SOL    HW299335  11.961  12.171   2.212
66437SOL     OW99336  11.582  11.985   3.113
66437SOL    HW199337  11.668  11.997   3.163
66437SOL    HW299338  11.540  11.898   3.140
66438SOL     OW99339  12.446  11.558   3.124
66438SOL    HW199340  12.467  11.632   3.188
66438SOL    HW299341  12.357  11.575   3.081
66439SOL     OW99342  11.539  12.272   2.363
66439SOL    HW199343  11.532  12.355   2.307
66439SOL    HW299344  11.543  12.192   2.303
66440SOL     OW99345  11.738  11.709   2.727
66440SOL    HW199346  11.750  11.775   2.653
66440SOL    HW299347  11.784  11.743   2.810
66441SOL     OW99348  12.424  12.520   2.250
66441SOL    HW199349  12.474  12.597   2.290
66441SOL    HW299350  12.329  12.522   2.282
66442SOL     OW99351  12.444  12.617   3.004
66442SOL    HW199352  12.491  12.630   3.091
66442SOL    HW299353  12.378  12.543   3.013
66443SOL     OW99354  11.526  12.682   3.191
66443SOL    HW199355  11.505  12.638   3.104
66443SOL    HW299356  11.623  12.708   3.194
66444SOL     OW99357  11.574  11.923   3.460
66444SOL    HW199358  11.642  11.978   3.413
66444SOL    HW299359  11.614  11.835   3.487
66445SOL     OW99360  12.185  11.277   3.632
66445SOL    HW199361  12.191  11.362   3.580
66445SOL    HW299362  12.217  11.201   3.575
66446SOL     OW99363  11.676  11.222   3.602
66446SOL    HW199364  11.634  11.165   3.532
66446SOL    HW299365  11.610  11.291   3.634
66447SOL     OW99366  11.745  12.042   2.891
66447SOL    HW199367  11.789  12.131   2.882
66447SOL    HW299368  11.682  12.042   2.968
66448SOL     OW99369  12.532  12.034   2.907
66448SOL    HW199370  12.457  12.034   2.841
66448SOL    HW299371  12.569  11.942   2.916
66449SOL     OW99372  12.381  11.697   2.137
66449SOL    HW199373  12.394  11.613   2.191
66449SOL    HW299374  12.352  11.771   2.197
66450SOL     OW99375  11.479  11.385   3.093
66450SOL    HW199376  11.456  11.422   3.183
66450SOL    HW299377  11.449  11.290   3.087
66451SOL     OW99378  11.209  12.482   3.144
66451SOL    HW199379  11.262  12.433   3.212
66451SOL    HW299380  11.231  12.580   3.149
66452SOL     OW99381  11.904  11.806   2.926
66452SOL    HW199382  11.963  11.780   2.850
66452SOL    HW299383  11.876  11.902   2.915
66453SOL     OW99384  11.479  11.235   2.480
66453SOL    HW199385  11.468  11.329   2.513
66453SOL    HW299386  11.474  11.172   2.557
66454SOL     OW99387  12.794  11.539   2.236
66454SOL    HW199388  12.796  11.463   2.300
66454SOL    HW299389  12.746  11.616   2.276
66455SOL     OW99390  12.195  11.938   2.828
66455SOL    HW199391  12.210  11.959   2.924
66455SOL    HW299392  12.165  11.843   2.819
66456SOL     OW99393  11.522  12.070   3.666
66456SOL    HW199394  11.598  12.114   3.714
66456SOL    HW299395  11.557  12.023   3.584
66457SOL     OW99396  12.475  12.010   1.904
66457SOL    HW199397  12.509  11.917   1.919
66457SOL    HW299398  12.493  12.037   1.809
66458SOL     OW99399  12.240  12.505   2.711
66458SOL    HW199400  12.247  12.421   2.656
66458SOL    HW299401  12.302  12.574   2.675
66459SOL     OW99402  11.491  11.982   2.811
66459SOL    HW199403  11.584  12.018   2.816
66459SOL    HW299404  11.485  11.897   2.863
66460SOL     OW99405  11.511  11.681   2.868
66460SOL    HW199406  11.459  11.598   2.851
66460SOL    HW299407  11.588  11.686   2.804
66461SOL     OW99408  12.310  11.552   3.540
66461SOL    HW199409  12.265  11.615   3.604
66461SOL    HW299410  12.403  11.583   3.523
66462SOL     OW99411  12.332  11.379   3.339
66462SOL    HW199412  12.332  11.443   3.416
66462SOL    HW299413  12.360  11.427   3.256
66463SOL     OW99414  11.180  12.498   2.062
66463SOL    HW199415  11.087  12.519   2.031
66463SOL    HW299416  11.190  12.399   2.075
66464SOL     OW99417  12.174  11.968   3.100
66464SOL    HW199418  12.215  11.936   3.186
66464SOL    HW299419  12.078  11.941   3.097
66465SOL     OW99420  11.212  11.716   2.976
66465SOL    HW199421  11.297  11.683   2.935
66465SOL    HW299422  11.225  11.731   3.074
66466SOL     OW99423  11.361  11.692   3.584
66466SOL    HW199424  11.420  11.652   3.514
66466SOL    HW299425  11.303  11.763   3.543
66467SOL     OW99426  12.541  12.122   3.522
66467SOL    HW199427  12.580  12.211   3.542
66467SOL    HW299428  12.551  12.102   3.425
66468SOL     OW99429  11.987  11.744   2.187
66468SOL    HW199430  11.994  11.655   2.141
66468SOL    HW299431  11.893  11.778   2.179
66469SOL     OW99432  11.424  12.736   3.606
66469SOL    HW199433  11.394  12.793   3.682
66469SOL    HW299434  11.417  12.639   3.632
66470SOL     OW99435  11.843  11.636   3.131
66470SOL    HW199436  11.809  11.547   3.101
66470SOL    HW299437  11.869  11.690   3.051
66471SOL     OW99438  11.645  11.672   2.053
66471SOL    HW199439  11.706  11.752   2.057
66471SOL    HW299440  11.550  11.703   2.060
66472SOL     OW99441  11.331  12.309   3.328
66472SOL    HW199442  11.353  12.248   3.404
66472SOL    HW299443  11.341  12.260   3.242
66473SOL     OW99444  12.519  12.231   3.096
66473SOL    HW199445  12.543  12.168   3.022
66473SOL    HW299446  12.429  12.271   3.078
66474SOL     OW99447  12.474  12.027   2.171
66474SOL    HW199448  12.388  11.996   2.213
66474SOL    HW299449  12.470  12.013   2.072
66475SOL     OW99450  11.255  12.430   2.884
66475SOL    HW199451  11.250  12.429   2.984
66475SOL    HW299452  11.172  12.389   2.846
66476SOL     OW99453  12.898  11.307   2.385
66476SOL    HW199454  12.971  11.290   2.318
66476SOL    HW299455  12.867  11.220   2.423
66477SOL     OW99456  12.452  12.099   2.534
66477SOL    HW199457  12.512  12.018   2.536
66477SOL    HW299458  12.492  12.168   2.474
66478SOL     OW99459  12.002  12.445   3.284
66478SOL    HW199460  11.997  12.478   3.379
66478SOL    HW299461  11.916  12.464   3.238
66479SOL     OW99462  11.435  11.498   2.582
66479SOL    HW199463  11.356  11.549   2.548
66479SOL    HW299464  11.426  11.483   2.680
66480SOL     OW99465  11.994  12.174   3.234
66480SOL    HW199466  12.034  12.173   3.142
66480SOL    HW299467  12.004  12.266   3.274
66481SOL     OW99468  12.088  12.082   2.153
66481SOL    HW199469  12.151  12.120   2.085
66481SOL    HW299470  12.128  11.999   2.192
66482SOL     OW99471  11.544  12.460   3.352
66482SOL    HW199472  11.531  12.553   3.318
66482SOL    HW299473  11.460  12.408   3.339
66483SOL     OW99474  12.211  12.270   2.558
66483SOL    HW199475  12.141  12.223   2.612
66483SOL    HW299476  12.270  12.202   2.515
66484SOL     OW99477  12.186  11.408   2.833
66484SOL    HW199478  12.178  11.372   2.740
66484SOL    HW299479  12.184  11.332   2.898
66485SOL     OW99480  11.427  12.520   2.152
66485SOL    HW199481  11.331  12.521   2.125
66485SOL    HW299482  11.439  12.573   2.236
66486SOL     OW99483  11.277  12.185   3.588
66486SOL    HW199484  11.200  12.152   3.642
66486SOL    HW299485  11.362  12.155   3.630
66487SOL     OW99486  11.844  11.375   3.351
66487SOL    HW199487  11.934  11.359   3.311
66487SOL    HW299488  11.852  11.380   3.450
66488SOL     OW99489  11.247  11.517   1.895
66488SOL    HW199490  11.155  11.489   1.866
66488SOL    HW299491  11.278  11.594   1.839
66489SOL     OW99492  12.612  12.028   3.260
66489SOL    HW199493  12.555  12.080   3.197
66489SOL    HW299494  12.708  12.040   3.236
66490SOL     OW99495  11.244  11.338   2.180
66490SOL    HW199496  11.227  11.421   2.126
66490SOL    HW299497  11.334  11.301   2.158
66491SOL     OW99498  12.355  12.507   1.981
66491SOL    HW199499  12.256  12.496   1.983
66491SOL    HW299500  12.389  12.522   2.074
66492SOL     OW99501  11.785  12.014   3.293
66492SOL    HW199502  11.841  12.095   3.276
66492SOL    HW299503  11.844  11.934   3.296
66493SOL     OW99504  11.888  11.737   3.570
66493SOL    HW199505  11.907  11.802   3.644
66493SOL    HW299506  11.948  11.657   3.579
66494SOL     OW99507  12.622  12.392   3.495
66494SOL    HW199508  12.613  12.382   3.594
66494SOL    HW299509  12.718  12.385   3.469
66495SOL     OW99510  12.397  11.497   2.311
66495SOL    HW199511  12.462  11.423   2.300
66495SOL    HW299512  12.417  11.547   2.395
66496SOL     OW99513  11.766  11.917   2.514
66496SOL    HW199514  11.816  12.002   2.495
66496SOL    HW299515  11.678  11.919   2.466
66497SOL     OW99516  12.031  12.546   1.878
66497SOL    HW199517  11.985  12.561   1.966
66497SOL    HW299518  12.075  12.631   1.848
66498SOL     OW99519  12.031  12.128   2.723
66498SOL    HW199520  12.085  12.059   2.771
66498SOL    HW299521  11.999  12.197   2.789
66499SOL     OW99522  12.255  12.156   1.949
66499SOL    HW199523  12.232  12.209   1.867
66499SOL    HW299524  12.336  12.100   1.930
66500SOL     OW99525  11.393  12.486   3.706
66500SOL    HW199526  11.328  12.413   3.685
66500SOL    HW299527  11.397  12.500   3.804
66501SOL     OW99528  11.251  12.412   2.515
66501SOL    HW199529  11.250  12.365   2.603
66501SOL    HW299530  11.333  12.384   2.464
66502SOL     OW99531  11.844  12.563   3.486
66502SOL    HW199532  11.766  12.513   3.524
66502SOL    HW299533  11.841  12.658   3.517
66503SOL     OW99534  11.600  11.596   2.382
66503SOL    HW199535  11.630  11.524   2.320
66503SOL    HW299536  11.561  11.556   2.465
66504SOL     OW99537  12.877  12.659   2.966
66504SOL    HW199538  12.784  12.634   2.939
66504SOL    HW299539  12.903  12.609   3.048
66505SOL     OW99540  11.489  11.719   3.142
66505SOL    HW199541  11.527  11.660   3.214
66505SOL    HW299542  11.529  11.693   3.054
66506SOL     OW99543  12.596  11.386   2.974
66506SOL    HW199544  12.648  11.321   3.029
66506SOL    HW299545  12.547  11.449   3.035
66507SOL     OW99546  12.173  11.206   3.016
66507SOL    HW199547  12.110  11.134   2.985
66507SOL    HW299548  12.266  11.170   3.016
66508SOL     OW99549  11.942  12.502   2.163
66508SOL    HW199550  11.896  12.415   2.180
66508SOL    HW299551  12.033  12.499   2.204
66509SOL     OW99552  11.790  12.739   3.146
66509SOL    HW199553  11.785  12.821   3.203
66509SOL    HW299554  11.879  12.736   3.101
66510SOL     OW99555  12.524  11.224   2.030
66510SOL    HW199556  12.559  11.183   1.946
66510SOL    HW299557  12.434  11.186   2.050
66511SOL     OW99558  12.472  11.625   2.553
66511SOL    HW199559  12.413  11.705   2.557
66511SOL    HW299560  12.487  11.590   2.646
66512SOL     OW99561  11.211  12.249   2.162
66512SOL    HW199562  11.310  12.238   2.153
66512SOL    HW299563  11.171  12.163   2.194
66513SOL     OW99564  11.402  11.800   3.837
66513SOL    HW199565  11.309  11.798   3.874
66513SOL    HW299566  11.403  11.761   3.745
66514SOL     OW99567  11.397  11.447   4.720
66514SOL    HW199568  11.432  11.430   4.812
66514SOL    HW299569  11.309  11.402   4.708
66515SOL     OW99570  11.191  11.540   4.371
66515SOL    HW199571  11.109  11.583   4.410
66515SOL    HW299572  11.163  11.467   4.308
66516SOL     OW99573  11.741  12.447   4.889
66516SOL    HW199574  11.648  12.440   4.852
66516SOL    HW299575  11.752  12.536   4.933
66517SOL     OW99576  12.727  12.683   4.427
66517SOL    HW199577  12.670  12.667   4.508
66517SOL    HW299578  12.668  12.693   4.347
66518SOL     OW99579  12.307  11.875   4.441
66518SOL    HW199580  12.364  11.953   4.416
66518SOL    HW299581  12.247  11.901   4.517
66519SOL     OW99582  11.940  12.316   4.747
66519SOL    HW199583  11.862  12.333   4.807
66519SOL    HW299584  11.974  12.403   4.711
66520SOL     OW99585  12.022  11.970   5.547
66520SOL    HW199586  12.018  12.046   5.612
66520SOL    HW299587  12.044  12.006   5.456
66521SOL     OW99588  11.857  12.184   4.389
66521SOL    HW199589  11.926  12.168   4.459
66521SOL    HW299590  11.784  12.241   4.427
66522SOL     OW99591  11.858  12.333   5.527
66522SOL    HW199592  11.918  12.412   5.541
66522SOL    HW299593  11.772  12.364   5.486
66523SOL     OW99594  11.507  12.607   4.785
66523SOL    HW199595  11.429  12.576   4.732
66523SOL    HW299596  11.565  12.665   4.728
66524SOL     OW99597  11.610  11.564   5.223
66524SOL    HW199598  11.692  11.508   5.232
66524SOL    HW299599  11.529  11.506   5.227
66525SOL     OW99600  11.403  12.885   4.207
66525SOL    HW199601  11.437  12.962   4.261
66525SOL    HW299602  11.447  12.885   4.117
66526SOL     OW99603  12.299  12.513   5.414
66526SOL    HW199604  12.346  12.513   5.502
66526SOL    HW299605  12.251  12.426   5.403
66527SOL     OW99606  11.402  12.606   4.262
66527SOL    HW199607  11.376  12.702   4.262
66527SOL    HW299608  11.331  12.552   4.307
66528SOL     OW99609  11.412  12.263   4.610
66528SOL    HW199610  11.426  12.179   4.662
66528SOL    HW299611  11.357  12.327   4.665
66529SOL     OW99612  11.778  12.136   3.847
66529SOL    HW199613  11.785  12.220   3.793
66529SOL    HW299614  11.824  12.149   3.935
66530SOL     OW99615  11.294  11.815   4.287
66530SOL    HW199616  11.249  11.727   4.304
66530SOL    HW299617  11.293  11.869   4.371
66531SOL     OW99618  11.199  12.768   3.841
66531SOL    HW199619  11.180  12.672   3.862
66531SOL    HW299620  11.166  12.826   3.916
66532SOL     OW99621  12.861  12.094   4.336
66532SOL    HW199622  12.956  12.065   4.344
66532SOL    HW299623  12.853  12.159   4.261
66533SOL     OW99624  11.285  11.909   5.321
66533SOL    HW199625  11.373  11.896   5.366
66533SOL    HW299626  11.272  12.006   5.299
66534SOL     OW99627  11.785  12.537   4.450
66534SOL    HW199628  11.736  12.450   4.459
66534SOL    HW299629  11.762  12.580   4.363
66535SOL     OW99630  12.465  12.400   5.147
66535SOL    HW199631  12.502  12.327   5.089
66535SOL    HW299632  12.517  12.405   5.232
66536SOL     OW99633  11.981  11.176   4.226
66536SOL    HW199634  12.021  11.267   4.217
66536SOL    HW299635  11.881  11.184   4.232
66537SOL     OW99636  11.369  12.148   4.988
66537SOL    HW199637  11.458  12.103   4.974
66537SOL    HW299638  11.296  12.083   4.969
66538SOL     OW99639  11.489  11.423   5.525
66538SOL    HW199640  11.560  11.494   5.531
66538SOL    HW299641  11.401  11.462   5.553
66539SOL     OW99642  12.638  12.589   4.677
66539SOL    HW199643  12.579  12.595   4.757
66539SOL    HW299644  12.623  12.501   4.631
66540SOL     OW99645  11.770  11.901   3.994
66540SOL    HW199646  11.794  11.970   3.926
66540SOL    HW299647  11.692  11.934   4.048
66541SOL     OW99648  12.453  11.517   4.668
66541SOL    HW199649  12.367  11.467   4.655
66541SOL    HW299650  12.515  11.463   4.724
66542SOL     OW99651  11.979  11.777   5.189
66542SOL    HW199652  11.932  11.774   5.278
66542SOL    HW299653  11.928  11.722   5.123
66543SOL     OW99654  12.566  11.641   5.398
66543SOL    HW199655  12.546  11.684   5.486
66543SOL    HW299656  12.644  11.579   5.407
66544SOL     OW99657  12.145  12.062   5.296
66544SOL    HW199658  12.191  11.978   5.267
66544SOL    HW299659  12.089  12.096   5.221
66545SOL     OW99660  12.163  11.582   4.966
66545SOL    HW199661  12.086  11.616   5.020
66545SOL    HW299662  12.129  11.531   4.887
66546SOL     OW99663  12.213  11.873   4.153
66546SOL    HW199664  12.239  11.869   4.249
66546SOL    HW299665  12.128  11.822   4.139
66547SOL     OW99666  11.248  11.983   4.513
66547SOL    HW199667  11.347  11.971   4.522
66547SOL    HW299668  11.224  12.078   4.534
66548SOL     OW99669  12.037  11.520   3.919
66548SOL    HW199670  12.096  11.583   3.870
66548SOL    HW299671  12.056  11.426   3.890
66549SOL     OW99672  12.534  12.316   4.269
66549SOL    HW199673  12.617  12.287   4.221
66549SOL    HW299674  12.485  12.383   4.213
66550SOL     OW99675  11.722  11.368   4.609
66550SOL    HW199676  11.717  11.363   4.709
66550SOL    HW299677  11.724  11.464   4.580
66551SOL     OW99678  12.180  12.628   4.201
66551SOL    HW199679  12.134  12.700   4.149
66551SOL    HW299680  12.176  12.648   4.299
66552SOL     OW99681  12.399  12.722   5.230
66552SOL    HW199682  12.405  12.645   5.294
66552SOL    HW299683  12.347  12.696   5.150
66553SOL     OW99684  11.493  12.115   3.966
66553SOL    HW199685  11.575  12.154   3.924
66553SOL    HW299686  11.466  12.033   3.917
66554SOL     OW99687  11.633  12.438   5.451
66554SOL    HW199688  11.583  12.439   5.365
66554SOL    HW299689  11.570  12.420   5.527
66555SOL     OW99690  12.283  12.948   3.961
66555SOL    HW199691  12.223  12.886   4.011
66555SOL    HW299692  12.314  12.904   3.876
66556SOL     OW99693  11.374  11.457   5.222
66556SOL    HW199694  11.294  11.517   5.209
66556SOL    HW299695  11.364  11.408   5.308
66557SOL     OW99696  12.572  11.279   4.150
66557SOL    HW199697  12.548  11.242   4.060
66557SOL    HW299698  12.671  11.295   4.154
66558SOL     OW99699  11.554  11.872   4.204
66558SOL    HW199700  11.599  11.782   4.201
66558SOL    HW299701  11.460  11.861   4.237
66559SOL     OW99702  11.786  11.294   3.841
66559SOL    HW199703  11.884  11.272   3.848
66559SOL    HW299704  11.755  11.277   3.748
66560SOL     OW99705  11.953  11.436   5.473
66560SOL    HW199706  12.020  11.375   5.516
66560SOL    HW299707  11.880  11.455   5.538
66561SOL     OW99708  12.523  11.762   5.157
66561SOL    HW199709  12.551  11.719   5.242
66561SOL    HW299710  12.548  11.858   5.158
66562SOL     OW99711  11.975  12.574   4.648
66562SOL    HW199712  12.065  12.588   4.606
66562SOL    HW299713  11.904  12.576   4.577
66563SOL     OW99714  12.094  11.675   4.623
66563SOL    HW199715  12.069  11.666   4.527
66563SOL    HW299716  12.142  11.593   4.654
66564SOL     OW99717  11.711  11.236   4.236
66564SOL    HW199718  11.630  11.237   4.294
66564SOL    HW299719  11.714  11.319   4.181
66565SOL     OW99720  12.606  12.360   3.765
66565SOL    HW199721  12.638  12.284   3.822
66565SOL    HW299722  12.514  12.387   3.795
66566SOL     OW99723  11.469  11.207   3.895
66566SOL    HW199724  11.518  11.291   3.874
66566SOL    HW299725  11.531  11.142   3.940
66567SOL     OW99726  12.107  11.408   4.204
66567SOL    HW199727  12.059  11.449   4.126
66567SOL    HW299728  12.206  11.406   4.185
66568SOL     OW99729  12.248  11.855   5.188
66568SOL    HW199730  12.168  11.794   5.191
66568SOL    HW299731  12.329  11.802   5.164
66569SOL     OW99732  12.399  12.742   4.517
66569SOL    HW199733  12.420  12.816   4.452
66569SOL    HW299734  12.467  12.742   4.590
66570SOL     OW99735  11.631  12.324   4.465
66570SOL    HW199736  11.560  12.297   4.530
66570SOL    HW299737  11.605  12.296   4.372
66571SOL     OW99738  12.204  11.721   3.740
66571SOL    HW199739  12.163  11.803   3.701
66571SOL    HW299740  12.268  11.747   3.813
66572SOL     OW99741  11.250  11.728   5.110
66572SOL    HW199742  11.342  11.727   5.069
66572SOL    HW299743  11.244  11.802   5.177
66573SOL     OW99744  11.733  11.394   4.871
66573SOL    HW199745  11.771  11.310   4.908
66573SOL    HW299746  11.645  11.413   4.915
66574SOL     OW99747  12.038  11.626   4.366
66574SOL    HW199748  12.006  11.698   4.304
66574SOL    HW299749  12.062  11.545   4.313
66575SOL     OW99750  12.189  11.211   4.477
66575SOL    HW199751  12.117  11.216   4.408
66575SOL    HW299752  12.165  11.142   4.546
66576SOL     OW99753  12.601  12.345   4.591
66576SOL    HW199754  12.546  12.261   4.584
66576SOL    HW299755  12.627  12.374   4.499
66577SOL     OW99756  11.660  12.557   3.898
66577SOL    HW199757  11.573  12.542   3.945
66577SOL    HW299758  11.643  12.583   3.803
66578SOL     OW99759  12.562  11.747   3.802
66578SOL    HW199760  12.508  11.726   3.883
66578SOL    HW299761  12.653  11.706   3.811
66579SOL     OW99762  11.699  11.428   4.052
66579SOL    HW199763  11.726  11.369   3.977
66579SOL    HW299764  11.699  11.523   4.021
66580SOL     OW99765  12.236  12.519   5.064
66580SOL    HW199766  12.156  12.496   5.119
66580SOL    HW299767  12.319  12.493   5.113
66581SOL     OW99768  12.283  12.367   4.824
66581SOL    HW199769  12.243  12.411   4.905
66581SOL    HW299770  12.242  12.404   4.741
66582SOL     OW99771  12.087  11.261   5.126
66582SOL    HW199772  12.112  11.241   5.031
66582SOL    HW299773  12.159  11.317   5.168
66583SOL     OW99774  12.152  12.288   5.443
66583SOL    HW199775  12.053  12.294   5.453
66583SOL    HW299776  12.175  12.208   5.387
66584SOL     OW99777  11.877  12.222   4.092
66584SOL    HW199778  11.863  12.229   4.191
66584SOL    HW299779  11.961  12.171   4.074
66585SOL     OW99780  11.582  11.985   4.975
66585SOL    HW199781  11.668  11.997   5.025
66585SOL    HW299782  11.540  11.898   5.002
66586SOL     OW99783  12.446  11.558   4.986
66586SOL    HW199784  12.467  11.632   5.050
66586SOL    HW299785  12.357  11.575   4.943
66587SOL     OW99786  11.539  12.272   4.225
66587SOL    HW199787  11.532  12.355   4.169
66587SOL    HW299788  11.543  12.192   4.165
66588SOL     OW99789  11.738  11.709   4.589
66588SOL    HW199790  11.750  11.775   4.515
66588SOL    HW299791  11.784  11.743   4.672
66589SOL     OW99792  12.424  12.520   4.112
66589SOL    HW199793  12.474  12.597   4.152
66589SOL    HW299794  12.329  12.522   4.144
66590SOL     OW99795  12.444  12.617   4.866
66590SOL    HW199796  12.491  12.630   4.953
66590SOL    HW299797  12.378  12.543   4.875
66591SOL     OW99798  11.526  12.682   5.053
66591SOL    HW199799  11.505  12.638   4.966
66591SOL    HW299800  11.623  12.708   5.056
66592SOL     OW99801  11.574  11.923   5.322
66592SOL    HW199802  11.642  11.978   5.275
66592SOL    HW299803  11.614  11.835   5.349
66593SOL     OW99804  12.185  11.277   5.494
66593SOL    HW199805  12.191  11.362   5.442
66593SOL    HW299806  12.217  11.201   5.437
66594SOL     OW99807  11.676  11.222   5.464
66594SOL    HW199808  11.634  11.165   5.394
66594SOL    HW299809  11.610  11.291   5.496
66595SOL     OW99810  11.745  12.042   4.753
66595SOL    HW199811  11.789  12.131   4.744
66595SOL    HW299812  11.682  12.042   4.830
66596SOL     OW99813  12.532  12.034   4.769
66596SOL    HW199814  12.457  12.034   4.703
66596SOL    HW299815  12.569  11.942   4.778
66597SOL     OW99816  12.381  11.697   3.999
66597SOL    HW199817  12.394  11.613   4.053
66597SOL    HW299818  12.352  11.771   4.059
66598SOL     OW99819  11.479  11.385   4.955
66598SOL    HW199820  11.456  11.422   5.045
66598SOL    HW299821  11.449  11.290   4.949
66599SOL     OW99822  11.209  12.482   5.006
66599SOL    HW199823  11.262  12.433   5.074
66599SOL    HW299824  11.231  12.580   5.011
66600SOL     OW99825  11.904  11.806   4.788
66600SOL    HW199826  11.963  11.780   4.712
66600SOL    HW299827  11.876  11.902   4.777
66601SOL     OW99828  11.479  11.235   4.342
66601SOL    HW199829  11.468  11.329   4.375
66601SOL    HW299830  11.474  11.172   4.419
66602SOL     OW99831  12.794  11.539   4.098
66602SOL    HW199832  12.796  11.463   4.162
66602SOL    HW299833  12.746  11.616   4.138
66603SOL     OW99834  12.195  11.938   4.690
66603SOL    HW199835  12.210  11.959   4.786
66603SOL    HW299836  12.165  11.843   4.681
66604SOL     OW99837  11.522  12.070   5.528
66604SOL    HW199838  11.598  12.114   5.576
66604SOL    HW299839  11.557  12.023   5.446
66605SOL     OW99840  12.475  12.010   3.766
66605SOL    HW199841  12.509  11.917   3.781
66605SOL    HW299842  12.493  12.037   3.671
66606SOL     OW99843  12.240  12.505   4.573
66606SOL    HW199844  12.247  12.421   4.518
66606SOL    HW299845  12.302  12.574   4.537
66607SOL     OW99846  11.491  11.982   4.673
66607SOL    HW199847  11.584  12.018   4.678
66607SOL    HW299848  11.485  11.897   4.725
66608SOL     OW99849  11.511  11.681   4.730
66608SOL    HW199850  11.459  11.598   4.713
66608SOL    HW299851  11.588  11.686   4.666
66609SOL     OW99852  12.310  11.552   5.402
66609SOL    HW199853  12.265  11.615   5.466
66609SOL    HW299854  12.403  11.583   5.385
66610SOL     OW99855  12.332  11.379   5.201
66610SOL    HW199856  12.332  11.443   5.278
66610SOL    HW299857  12.360  11.427   5.118
66611SOL     OW99858  11.180  12.498   3.924
66611SOL    HW199859  11.087  12.519   3.893
66611SOL    HW299860  11.190  12.399   3.937
66612SOL     OW99861  12.174  11.968   4.962
66612SOL    HW199862  12.215  11.936   5.048
66612SOL    HW299863  12.078  11.941   4.959
66613SOL     OW99864  11.212  11.716   4.838
66613SOL    HW199865  11.297  11.683   4.797
66613SOL    HW299866  11.225  11.731   4.936
66614SOL     OW99867  11.361  11.692   5.446
66614SOL    HW199868  11.420  11.652   5.376
66614SOL    HW299869  11.303  11.763   5.405
66615SOL     OW99870  12.541  12.122   5.384
66615SOL    HW199871  12.580  12.211   5.404
66615SOL    HW299872  12.551  12.102   5.287
66616SOL     OW99873  11.987  11.744   4.049
66616SOL    HW199874  11.994  11.655   4.003
66616SOL    HW299875  11.893  11.778   4.041
66617SOL     OW99876  11.424  12.736   5.468
66617SOL    HW199877  11.394  12.793   5.544
66617SOL    HW299878  11.417  12.639   5.494
66618SOL     OW99879  11.843  11.636   4.993
66618SOL    HW199880  11.809  11.547   4.963
66618SOL    HW299881  11.869  11.690   4.913
66619SOL     OW99882  11.645  11.672   3.915
66619SOL    HW199883  11.706  11.752   3.919
66619SOL    HW299884  11.550  11.703   3.922
66620SOL     OW99885  11.331  12.309   5.190
66620SOL    HW199886  11.353  12.248   5.266
66620SOL    HW299887  11.341  12.260   5.104
66621SOL     OW99888  12.519  12.231   4.958
66621SOL    HW199889  12.543  12.168   4.884
66621SOL    HW299890  12.429  12.271   4.940
66622SOL     OW99891  12.474  12.027   4.033
66622SOL    HW199892  12.388  11.996   4.075
66622SOL    HW299893  12.470  12.013   3.934
66623SOL     OW99894  11.255  12.430   4.746
66623SOL    HW199895  11.250  12.429   4.846
66623SOL    HW299896  11.172  12.389   4.708
66624SOL     OW99897  12.898  11.307   4.247
66624SOL    HW199898  12.971  11.290   4.180
66624SOL    HW299899  12.867  11.220   4.285
66625SOL     OW99900  12.452  12.099   4.396
66625SOL    HW199901  12.512  12.018   4.398
66625SOL    HW299902  12.492  12.168   4.336
66626SOL     OW99903  12.002  12.445   5.146
66626SOL    HW199904  11.997  12.478   5.241
66626SOL    HW299905  11.916  12.464   5.100
66627SOL     OW99906  11.435  11.498   4.444
66627SOL    HW199907  11.356  11.549   4.410
66627SOL    HW299908  11.426  11.483   4.542
66628SOL     OW99909  11.994  12.174   5.096
66628SOL    HW199910  12.034  12.173   5.004
66628SOL    HW299911  12.004  12.266   5.136
66629SOL     OW99912  12.088  12.082   4.015
66629SOL    HW199913  12.151  12.120   3.947
66629SOL    HW299914  12.128  11.999   4.054
66630SOL     OW99915  11.544  12.460   5.214
66630SOL    HW199916  11.531  12.553   5.180
66630SOL    HW299917  11.460  12.408   5.201
66631SOL     OW99918  12.211  12.270   4.420
66631SOL    HW199919  12.141  12.223   4.474
66631SOL    HW299920  12.270  12.202   4.377
66632SOL     OW99921  12.186  11.408   4.695
66632SOL    HW199922  12.178  11.372   4.602
66632SOL    HW299923  12.184  11.332   4.760
66633SOL     OW99924  11.427  12.520   4.014
66633SOL    HW199925  11.331  12.521   3.987
66633SOL    HW299926  11.439  12.573   4.098
66634SOL     OW99927  11.277  12.185   5.450
66634SOL    HW199928  11.200  12.152   5.504
66634SOL    HW299929  11.362  12.155   5.492
66635SOL     OW99930  11.844  11.375   5.213
66635SOL    HW199931  11.934  11.359   5.173
66635SOL    HW299932  11.852  11.380   5.312
66636SOL     OW99933  11.247  11.517   3.757
66636SOL    HW199934  11.155  11.489   3.728
66636SOL    HW299935  11.278  11.594   3.701
66637SOL     OW99936  12.612  12.028   5.122
66637SOL    HW199937  12.555  12.080   5.059
66637SOL    HW299938  12.708  12.040   5.098
66638SOL     OW99939  11.244  11.338   4.042
66638SOL    HW199940  11.227  11.421   3.988
66638SOL    HW299941  11.334  11.301   4.020
66639SOL     OW99942  12.355  12.507   3.843
66639SOL    HW199943  12.256  12.496   3.845
66639SOL    HW299944  12.389  12.522   3.936
66640SOL     OW99945  11.785  12.014   5.155
66640SOL    HW199946  11.841  12.095   5.138
66640SOL    HW299947  11.844  11.934   5.158
66641SOL     OW99948  11.888  11.737   5.432
66641SOL    HW199949  11.907  11.802   5.506
66641SOL    HW299950  11.948  11.657   5.441
66642SOL     OW99951  12.622  12.392   5.357
66642SOL    HW199952  12.613  12.382   5.456
66642SOL    HW299953  12.718  12.385   5.331
66643SOL     OW99954  12.397  11.497   4.173
66643SOL    HW199955  12.462  11.423   4.162
66643SOL    HW299956  12.417  11.547   4.257
66644SOL     OW99957  11.766  11.917   4.376
66644SOL    HW199958  11.816  12.002   4.357
66644SOL    HW299959  11.678  11.919   4.328
66645SOL     OW99960  12.031  12.546   3.740
66645SOL    HW199961  11.985  12.561   3.828
66645SOL    HW299962  12.075  12.631   3.710
66646SOL     OW99963  12.031  12.128   4.585
66646SOL    HW199964  12.085  12.059   4.633
66646SOL    HW299965  11.999  12.197   4.651
66647SOL     OW99966  12.255  12.156   3.811
66647SOL    HW199967  12.232  12.209   3.729
66647SOL    HW299968  12.336  12.100   3.792
66648SOL     OW99969  11.393  12.486   5.568
66648SOL    HW199970  11.328  12.413   5.547
66648SOL    HW299971  11.397  12.500   5.666
66649SOL     OW99972  11.251  12.412   4.377
66649SOL    HW199973  11.250  12.365   4.465
66649SOL    HW299974  11.333  12.384   4.326
66650SOL     OW99975  11.844  12.563   5.348
66650SOL    HW199976  11.766  12.513   5.386
66650SOL    HW299977  11.841  12.658   5.379
66651SOL     OW99978  11.600  11.596   4.244
66651SOL    HW199979  11.630  11.524   4.182
66651SOL    HW299980  11.561  11.556   4.327
66652SOL     OW99981  12.877  12.659   4.828
66652SOL    HW199982  12.784  12.634   4.801
66652SOL    HW299983  12.903  12.609   4.910
66653SOL     OW99984  11.489  11.719   5.004
66653SOL    HW199985  11.527  11.660   5.076
66653SOL    HW299986  11.529  11.693   4.916
66654SOL     OW99987  12.596  11.386   4.836
66654SOL    HW199988  12.648  11.321   4.891
66654SOL    HW299989  12.547  11.449   4.897
66655SOL     OW99990  12.173  11.206   4.878
66655SOL    HW199991  12.110  11.134   4.847
66655SOL    HW299992  12.266  11.170   4.878
66656SOL     OW99993  11.942  12.502   4.025
66656SOL    HW199994  11.896  12.415   4.042
66656SOL    HW299995  12.033  12.499   4.066
66657SOL     OW99996  11.790  12.739   5.008
66657SOL    HW199997  11.785  12.821   5.065
66657SOL    HW299998  11.879  12.736   4.963
66658SOL     OW99999  12.524  11.224   3.892
66658SOL    HW1    0  12.559  11.183   3.808
66658SOL    HW2    1  12.434  11.186   3.912
66659SOL     OW    2  12.472  11.625   4.415
66659SOL    HW1    3  12.413  11.705   4.419
66659SOL    HW2    4  12.487  11.590   4.508
66660SOL     OW    5  11.211  12.249   4.024
66660SOL    HW1    6  11.310  12.238   4.015
66660SOL    HW2    7  11.171  12.163   4.056
66661SOL     OW    8  11.402  11.800   5.699
66661SOL    HW1    9  11.309  11.798   5.736
66661SOL    HW2   10  11.403  11.761   5.607
66662SOL     OW   11  11.397  11.447   6.582
66662SOL    HW1   12  11.432  11.430   6.674
66662SOL    HW2   13  11.309  11.402   6.570
66663SOL     OW   14  11.191  11.540   6.233
66663SOL    HW1   15  11.109  11.583   6.272
66663SOL    HW2   16  11.163  11.467   6.170
66664SOL     OW   17  11.741  12.447   6.751
66664SOL    HW1   18  11.648  12.440   6.714
66664SOL    HW2   19  11.752  12.536   6.795
66665SOL     OW   20  12.727  12.683   6.289
66665SOL    HW1   21  12.670  12.667   6.370
66665SOL    HW2   22  12.668  12.693   6.209
66666SOL     OW   23  12.307  11.875   6.303
66666SOL    HW1   24  12.364  11.953   6.278
66666SOL    HW2   25  12.247  11.901   6.379
66667SOL     OW   26  11.940  12.316   6.609
66667SOL    HW1   27  11.862  12.333   6.669
66667SOL    HW2   28  11.974  12.403   6.573
66668SOL     OW   29  12.022  11.970   7.409
66668SOL    HW1   30  12.018  12.046   7.474
66668SOL    HW2   31  12.044  12.006   7.318
66669SOL     OW   32  11.857  12.184   6.251
66669SOL    HW1   33  11.926  12.168   6.321
66669SOL    HW2   34  11.784  12.241   6.289
66670SOL     OW   35  11.858  12.333   7.389
66670SOL    HW1   36  11.918  12.412   7.403
66670SOL    HW2   37  11.772  12.364   7.348
66671SOL     OW   38  11.507  12.607   6.647
66671SOL    HW1   39  11.429  12.576   6.594
66671SOL    HW2   40  11.565  12.665   6.590
66672SOL     OW   41  11.610  11.564   7.085
66672SOL    HW1   42  11.692  11.508   7.094
66672SOL    HW2   43  11.529  11.506   7.089
66673SOL     OW   44  11.403  12.885   6.069
66673SOL    HW1   45  11.437  12.962   6.123
66673SOL    HW2   46  11.447  12.885   5.979
66674SOL     OW   47  12.299  12.513   7.276
66674SOL    HW1   48  12.346  12.513   7.364
66674SOL    HW2   49  12.251  12.426   7.265
66675SOL     OW   50  11.402  12.606   6.124
66675SOL    HW1   51  11.376  12.702   6.124
66675SOL    HW2   52  11.331  12.552   6.169
66676SOL     OW   53  11.412  12.263   6.472
66676SOL    HW1   54  11.426  12.179   6.524
66676SOL    HW2   55  11.357  12.327   6.527
66677SOL     OW   56  11.778  12.136   5.709
66677SOL    HW1   57  11.785  12.220   5.655
66677SOL    HW2   58  11.824  12.149   5.797
66678SOL     OW   59  11.294  11.815   6.149
66678SOL    HW1   60  11.249  11.727   6.166
66678SOL    HW2   61  11.293  11.869   6.233
66679SOL     OW   62  11.199  12.768   5.703
66679SOL    HW1   63  11.180  12.672   5.724
66679SOL    HW2   64  11.166  12.826   5.778
66680SOL     OW   65  12.861  12.094   6.198
66680SOL    HW1   66  12.956  12.065   6.206
66680SOL    HW2   67  12.853  12.159   6.123
66681SOL     OW   68  11.285  11.909   7.183
66681SOL    HW1   69  11.373  11.896   7.228
66681SOL    HW2   70  11.272  12.006   7.161
66682SOL     OW   71  11.785  12.537   6.312
66682SOL    HW1   72  11.736  12.450   6.321
66682SOL    HW2   73  11.762  12.580   6.225
66683SOL     OW   74  12.465  12.400   7.009
66683SOL    HW1   75  12.502  12.327   6.951
66683SOL    HW2   76  12.517  12.405   7.094
66684SOL     OW   77  11.981  11.176   6.088
66684SOL    HW1   78  12.021  11.267   6.079
66684SOL    HW2   79  11.881  11.184   6.094
66685SOL     OW   80  11.369  12.148   6.850
66685SOL    HW1   81  11.458  12.103   6.836
66685SOL    HW2   82  11.296  12.083   6.831
66686SOL     OW   83  11.489  11.423   7.387
66686SOL    HW1   84  11.560  11.494   7.393
66686SOL    HW2   85  11.401  11.462   7.415
66687SOL     OW   86  12.638  12.589   6.539
66687SOL    HW1   87  12.579  12.595   6.619
66687SOL    HW2   88  12.623  12.501   6.493
66688SOL     OW   89  11.770  11.901   5.856
66688SOL    HW1   90  11.794  11.970   5.788
66688SOL    HW2   91  11.692  11.934   5.910
66689SOL     OW   92  12.453  11.517   6.530
66689SOL    HW1   93  12.367  11.467   6.517
66689SOL    HW2   94  12.515  11.463   6.586
66690SOL     OW   95  11.979  11.777   7.051
66690SOL    HW1   96  11.932  11.774   7.140
66690SOL    HW2   97  11.928  11.722   6.985
66691SOL     OW   98  12.566  11.641   7.260
66691SOL    HW1   99  12.546  11.684   7.348
66691SOL    HW2  100  12.644  11.579   7.269
66692SOL     OW  101  12.145  12.062   7.158
66692SOL    HW1  102  12.191  11.978   7.129
66692SOL    HW2  103  12.089  12.096   7.083
66693SOL     OW  104  12.163  11.582   6.828
66693SOL    HW1  105  12.086  11.616   6.882
66693SOL    HW2  106  12.129  11.531   6.749
66694SOL     OW  107  12.213  11.873   6.015
66694SOL    HW1  108  12.239  11.869   6.111
66694SOL    HW2  109  12.128  11.822   6.001
66695SOL     OW  110  11.248  11.983   6.375
66695SOL    HW1  111  11.347  11.971   6.384
66695SOL    HW2  112  11.224  12.078   6.396
66696SOL     OW  113  12.037  11.520   5.781
66696SOL    HW1  114  12.096  11.583   5.732
66696SOL    HW2  115  12.056  11.426   5.752
66697SOL     OW  116  12.534  12.316   6.131
66697SOL    HW1  117  12.617  12.287   6.083
66697SOL    HW2  118  12.485  12.383   6.075
66698SOL     OW  119  11.722  11.368   6.471
66698SOL    HW1  120  11.717  11.363   6.571
66698SOL    HW2  121  11.724  11.464   6.442
66699SOL     OW  122  12.180  12.628   6.063
66699SOL    HW1  123  12.134  12.700   6.011
66699SOL    HW2  124  12.176  12.648   6.161
66700SOL     OW  125  12.399  12.722   7.092
66700SOL    HW1  126  12.405  12.645   7.156
66700SOL    HW2  127  12.347  12.696   7.012
66701SOL     OW  128  11.493  12.115   5.828
66701SOL    HW1  129  11.575  12.154   5.786
66701SOL    HW2  130  11.466  12.033   5.779
66702SOL     OW  131  11.633  12.438   7.313
66702SOL    HW1  132  11.583  12.439   7.227
66702SOL    HW2  133  11.570  12.420   7.389
66703SOL     OW  134  12.283  12.948   5.823
66703SOL    HW1  135  12.223  12.886   5.873
66703SOL    HW2  136  12.314  12.904   5.738
66704SOL     OW  137  12.572  11.279   6.012
66704SOL    HW1  138  12.548  11.242   5.922
66704SOL    HW2  139  12.671  11.295   6.016
66705SOL     OW  140  11.554  11.872   6.066
66705SOL    HW1  141  11.599  11.782   6.063
66705SOL    HW2  142  11.460  11.861   6.099
66706SOL     OW  143  11.786  11.294   5.703
66706SOL    HW1  144  11.884  11.272   5.710
66706SOL    HW2  145  11.755  11.277   5.610
66707SOL     OW  146  11.953  11.436   7.335
66707SOL    HW1  147  12.020  11.375   7.378
66707SOL    HW2  148  11.880  11.455   7.400
66708SOL     OW  149  12.523  11.762   7.019
66708SOL    HW1  150  12.551  11.719   7.104
66708SOL    HW2  151  12.548  11.858   7.020
66709SOL     OW  152  11.975  12.574   6.510
66709SOL    HW1  153  12.065  12.588   6.468
66709SOL    HW2  154  11.904  12.576   6.439
66710SOL     OW  155  12.094  11.675   6.485
66710SOL    HW1  156  12.069  11.666   6.389
66710SOL    HW2  157  12.142  11.593   6.516
66711SOL     OW  158  11.711  11.236   6.098
66711SOL    HW1  159  11.630  11.237   6.156
66711SOL    HW2  160  11.714  11.319   6.043
66712SOL     OW  161  12.606  12.360   5.627
66712SOL    HW1  162  12.638  12.284   5.684
66712SOL    HW2  163  12.514  12.387   5.657
66713SOL     OW  164  11.469  11.207   5.757
66713SOL    HW1  165  11.518  11.291   5.736
66713SOL    HW2  166  11.531  11.142   5.802
66714SOL     OW  167  12.107  11.408   6.066
66714SOL    HW1  168  12.059  11.449   5.988
66714SOL    HW2  169  12.206  11.406   6.047
66715SOL     OW  170  12.248  11.855   7.050
66715SOL    HW1  171  12.168  11.794   7.053
66715SOL    HW2  172  12.329  11.802   7.026
66716SOL     OW  173  12.399  12.742   6.379
66716SOL    HW1  174  12.420  12.816   6.314
66716SOL    HW2  175  12.467  12.742   6.452
66717SOL     OW  176  11.631  12.324   6.327
66717SOL    HW1  177  11.560  12.297   6.392
66717SOL    HW2  178  11.605  12.296   6.234
66718SOL     OW  179  12.204  11.721   5.602
66718SOL    HW1  180  12.163  11.803   5.563
66718SOL    HW2  181  12.268  11.747   5.675
66719SOL     OW  182  11.250  11.728   6.972
66719SOL    HW1  183  11.342  11.727   6.931
66719SOL    HW2  184  11.244  11.802   7.039
66720SOL     OW  185  11.733  11.394   6.733
66720SOL    HW1  186  11.771  11.310   6.770
66720SOL    HW2  187  11.645  11.413   6.777
66721SOL     OW  188  12.038  11.626   6.228
66721SOL    HW1  189  12.006  11.698   6.166
66721SOL    HW2  190  12.062  11.545   6.175
66722SOL     OW  191  12.189  11.211   6.339
66722SOL    HW1  192  12.117  11.216   6.270
66722SOL    HW2  193  12.165  11.142   6.408
66723SOL     OW  194  12.601  12.345   6.453
66723SOL    HW1  195  12.546  12.261   6.446
66723SOL    HW2  196  12.627  12.374   6.361
66724SOL     OW  197  11.660  12.557   5.760
66724SOL    HW1  198  11.573  12.542   5.807
66724SOL    HW2  199  11.643  12.583   5.665
66725SOL     OW  200  12.562  11.747   5.664
66725SOL    HW1  201  12.508  11.726   5.745
66725SOL    HW2  202  12.653  11.706   5.673
66726SOL     OW  203  11.699  11.428   5.914
66726SOL    HW1  204  11.726  11.369   5.839
66726SOL    HW2  205  11.699  11.523   5.883
66727SOL     OW  206  12.236  12.519   6.926
66727SOL    HW1  207  12.156  12.496   6.981
66727SOL    HW2  208  12.319  12.493   6.975
66728SOL     OW  209  12.283  12.367   6.686
66728SOL    HW1  210  12.243  12.411   6.767
66728SOL    HW2  211  12.242  12.404   6.603
66729SOL     OW  212  12.087  11.261   6.988
66729SOL    HW1  213  12.112  11.241   6.893
66729SOL    HW2  214  12.159  11.317   7.030
66730SOL     OW  215  12.152  12.288   7.305
66730SOL    HW1  216  12.053  12.294   7.315
66730SOL    HW2  217  12.175  12.208   7.249
66731SOL     OW  218  11.877  12.222   5.954
66731SOL    HW1  219  11.863  12.229   6.053
66731SOL    HW2  220  11.961  12.171   5.936
66732SOL     OW  221  11.582  11.985   6.837
66732SOL    HW1  222  11.668  11.997   6.887
66732SOL    HW2  223  11.540  11.898   6.864
66733SOL     OW  224  12.446  11.558   6.848
66733SOL    HW1  225  12.467  11.632   6.912
66733SOL    HW2  226  12.357  11.575   6.805
66734SOL     OW  227  11.539  12.272   6.087
66734SOL    HW1  228  11.532  12.355   6.031
66734SOL    HW2  229  11.543  12.192   6.027
66735SOL     OW  230  11.738  11.709   6.451
66735SOL    HW1  231  11.750  11.775   6.377
66735SOL    HW2  232  11.784  11.743   6.534
66736SOL     OW  233  12.424  12.520   5.974
66736SOL    HW1  234  12.474  12.597   6.014
66736SOL    HW2  235  12.329  12.522   6.006
66737SOL     OW  236  12.444  12.617   6.728
66737SOL    HW1  237  12.491  12.630   6.815
66737SOL    HW2  238  12.378  12.543   6.737
66738SOL     OW  239  11.526  12.682   6.915
66738SOL    HW1  240  11.505  12.638   6.828
66738SOL    HW2  241  11.623  12.708   6.918
66739SOL     OW  242  11.574  11.923   7.184
66739SOL    HW1  243  11.642  11.978   7.137
66739SOL    HW2  244  11.614  11.835   7.211
66740SOL     OW  245  12.185  11.277   7.356
66740SOL    HW1  246  12.191  11.362   7.304
66740SOL    HW2  247  12.217  11.201   7.299
66741SOL     OW  248  11.676  11.222   7.326
66741SOL    HW1  249  11.634  11.165   7.256
66741SOL    HW2  250  11.610  11.291   7.358
66742SOL     OW  251  11.745  12.042   6.615
66742SOL    HW1  252  11.789  12.131   6.606
66742SOL    HW2  253  11.682  12.042   6.692
66743SOL     OW  254  12.532  12.034   6.631
66743SOL    HW1  255  12.457  12.034   6.565
66743SOL    HW2  256  12.569  11.942   6.640
66744SOL     OW  257  12.381  11.697   5.861
66744SOL    HW1  258  12.394  11.613   5.915
66744SOL    HW2  259  12.352  11.771   5.921
66745SOL     OW  260  11.479  11.385   6.817
66745SOL    HW1  261  11.456  11.422   6.907
66745SOL    HW2  262  11.449  11.290   6.811
66746SOL     OW  263  11.209  12.482   6.868
66746SOL    HW1  264  11.262  12.433   6.936
66746SOL    HW2  265  11.231  12.580   6.873
66747SOL     OW  266  11.904  11.806   6.650
66747SOL    HW1  267  11.963  11.780   6.574
66747SOL    HW2  268  11.876  11.902   6.639
66748SOL     OW  269  11.479  11.235   6.204
66748SOL    HW1  270  11.468  11.329   6.237
66748SOL    HW2  271  11.474  11.172   6.281
66749SOL     OW  272  12.794  11.539   5.960
66749SOL    HW1  273  12.796  11.463   6.024
66749SOL    HW2  274  12.746  11.616   6.000
66750SOL     OW  275  12.195  11.938   6.552
66750SOL    HW1  276  12.210  11.959   6.648
66750SOL    HW2  277  12.165  11.843   6.543
66751SOL     OW  278  11.522  12.070   7.390
66751SOL    HW1  279  11.598  12.114   7.438
66751SOL    HW2  280  11.557  12.023   7.308
66752SOL     OW  281  12.475  12.010   5.628
66752SOL    HW1  282  12.509  11.917   5.643
66752SOL    HW2  283  12.493  12.037   5.533
66753SOL     OW  284  12.240  12.505   6.435
66753SOL    HW1  285  12.247  12.421   6.380
66753SOL    HW2  286  12.302  12.574   6.399
66754SOL     OW  287  11.491  11.982   6.535
66754SOL    HW1  288  11.584  12.018   6.540
66754SOL    HW2  289  11.485  11.897   6.587
66755SOL     OW  290  11.511  11.681   6.592
66755SOL    HW1  291  11.459  11.598   6.575
66755SOL    HW2  292  11.588  11.686   6.528
66756SOL     OW  293  12.310  11.552   7.264
66756SOL    HW1  294  12.265  11.615   7.328
66756SOL    HW2  295  12.403  11.583   7.247
66757SOL     OW  296  12.332  11.379   7.063
66757SOL    HW1  297  12.332  11.443   7.140
66757SOL    HW2  298  12.360  11.427   6.980
66758SOL     OW  299  11.180  12.498   5.786
66758SOL    HW1  300  11.087  12.519   5.755
66758SOL    HW2  301  11.190  12.399   5.799
66759SOL     OW  302  12.174  11.968   6.824
66759SOL    HW1  303  12.215  11.936   6.910
66759SOL    HW2  304  12.078  11.941   6.821
66760SOL     OW  305  11.212  11.716   6.700
66760SOL    HW1  306  11.297  11.683   6.659
66760SOL    HW2  307  11.225  11.731   6.798
66761SOL     OW  308  11.361  11.692   7.308
66761SOL    HW1  309  11.420  11.652   7.238
66761SOL    HW2  310  11.303  11.763   7.267
66762SOL     OW  311  12.541  12.122   7.246
66762SOL    HW1  312  12.580  12.211   7.266
66762SOL    HW2  313  12.551  12.102   7.149
66763SOL     OW  314  11.987  11.744   5.911
66763SOL    HW1  315  11.994  11.655   5.865
66763SOL    HW2  316  11.893  11.778   5.903
66764SOL     OW  317  11.424  12.736   7.330
66764SOL    HW1  318  11.394  12.793   7.406
66764SOL    HW2  319  11.417  12.639   7.356
66765SOL     OW  320  11.843  11.636   6.855
66765SOL    HW1  321  11.809  11.547   6.825
66765SOL    HW2  322  11.869  11.690   6.775
66766SOL     OW  323  11.331  12.309   7.052
66766SOL    HW1  324  11.353  12.248   7.128
66766SOL    HW2  325  11.341  12.260   6.966
66767SOL     OW  326  12.519  12.231   6.820
66767SOL    HW1  327  12.543  12.168   6.746
66767SOL    HW2  328  12.429  12.271   6.802
66768SOL     OW  329  12.474  12.027   5.895
66768SOL    HW1  330  12.388  11.996   5.937
66768SOL    HW2  331  12.470  12.013   5.796
66769SOL     OW  332  11.255  12.430   6.608
66769SOL    HW1  333  11.250  12.429   6.708
66769SOL    HW2  334  11.172  12.389   6.570
66770SOL     OW  335  12.898  11.307   6.109
66770SOL    HW1  336  12.971  11.290   6.042
66770SOL    HW2  337  12.867  11.220   6.147
66771SOL     OW  338  12.452  12.099   6.258
66771SOL    HW1  339  12.512  12.018   6.260
66771SOL    HW2  340  12.492  12.168   6.198
66772SOL     OW  341  12.002  12.445   7.008
66772SOL    HW1  342  11.997  12.478   7.103
66772SOL    HW2  343  11.916  12.464   6.962
66773SOL     OW  344  11.435  11.498   6.306
66773SOL    HW1  345  11.356  11.549   6.272
66773SOL    HW2  346  11.426  11.483   6.404
66774SOL     OW  347  11.994  12.174   6.958
66774SOL    HW1  348  12.034  12.173   6.866
66774SOL    HW2  349  12.004  12.266   6.998
66775SOL     OW  350  12.088  12.082   5.877
66775SOL    HW1  351  12.151  12.120   5.809
66775SOL    HW2  352  12.128  11.999   5.916
66776SOL     OW  353  11.544  12.460   7.076
66776SOL    HW1  354  11.531  12.553   7.042
66776SOL    HW2  355  11.460  12.408   7.063
66777SOL     OW  356  12.211  12.270   6.282
66777SOL    HW1  357  12.141  12.223   6.336
66777SOL    HW2  358  12.270  12.202   6.239
66778SOL     OW  359  12.186  11.408   6.557
66778SOL    HW1  360  12.178  11.372   6.464
66778SOL    HW2  361  12.184  11.332   6.622
66779SOL     OW  362  11.427  12.520   5.876
66779SOL    HW1  363  11.331  12.521   5.849
66779SOL    HW2  364  11.439  12.573   5.960
66780SOL     OW  365  11.277  12.185   7.312
66780SOL    HW1  366  11.200  12.152   7.366
66780SOL    HW2  367  11.362  12.155   7.354
66781SOL     OW  368  11.844  11.375   7.075
66781SOL    HW1  369  11.934  11.359   7.035
66781SOL    HW2  370  11.852  11.380   7.174
66782SOL     OW  371  11.247  11.517   5.619
66782SOL    HW1  372  11.155  11.489   5.590
66782SOL    HW2  373  11.278  11.594   5.563
66783SOL     OW  374  12.612  12.028   6.984
66783SOL    HW1  375  12.555  12.080   6.921
66783SOL    HW2  376  12.708  12.040   6.960
66784SOL     OW  377  11.244  11.338   5.904
66784SOL    HW1  378  11.227  11.421   5.850
66784SOL    HW2  379  11.334  11.301   5.882
66785SOL     OW  380  12.355  12.507   5.705
66785SOL    HW1  381  12.256  12.496   5.707
66785SOL    HW2  382  12.389  12.522   5.798
66786SOL     OW  383  11.785  12.014   7.017
66786SOL    HW1  384  11.841  12.095   7.000
66786SOL    HW2  385  11.844  11.934   7.020
66787SOL     OW  386  11.888  11.737   7.294
66787SOL    HW1  387  11.907  11.802   7.368
66787SOL    HW2  388  11.948  11.657   7.303
66788SOL     OW  389  12.622  12.392   7.219
66788SOL    HW1  390  12.613  12.382   7.318
66788SOL    HW2  391  12.718  12.385   7.193
66789SOL     OW  392  12.397  11.497   6.035
66789SOL    HW1  393  12.462  11.423   6.024
66789SOL    HW2  394  12.417  11.547   6.119
66790SOL     OW  395  11.766  11.917   6.238
66790SOL    HW1  396  11.816  12.002   6.219
66790SOL    HW2  397  11.678  11.919   6.190
66791SOL     OW  398  12.031  12.546   5.602
66791SOL    HW1  399  11.985  12.561   5.690
66791SOL    HW2  400  12.075  12.631   5.572
66792SOL     OW  401  12.031  12.128   6.447
66792SOL    HW1  402  12.085  12.059   6.495
66792SOL    HW2  403  11.999  12.197   6.513
66793SOL     OW  404  12.255  12.156   5.673
66793SOL    HW1  405  12.232  12.209   5.591
66793SOL    HW2  406  12.336  12.100   5.654
66794SOL     OW  407  11.393  12.486   7.430
66794SOL    HW1  408  11.328  12.413   7.409
66794SOL    HW2  409  11.397  12.500   7.528
66795SOL     OW  410  11.251  12.412   6.239
66795SOL    HW1  411  11.250  12.365   6.327
66795SOL    HW2  412  11.333  12.384   6.188
66796SOL     OW  413  11.844  12.563   7.210
66796SOL    HW1  414  11.766  12.513   7.248
66796SOL    HW2  415  11.841  12.658   7.241
66797SOL     OW  416  11.600  11.596   6.106
66797SOL    HW1  417  11.630  11.524   6.044
66797SOL    HW2  418  11.561  11.556   6.189
66798SOL     OW  419  12.877  12.659   6.690
66798SOL    HW1  420  12.784  12.634   6.663
66798SOL    HW2  421  12.903  12.609   6.772
66799SOL     OW  422  11.489  11.719   6.866
66799SOL    HW1  423  11.527  11.660   6.938
66799SOL    HW2  424  11.529  11.693   6.778
66800SOL     OW  425  12.596  11.386   6.698
66800SOL    HW1  426  12.648  11.321   6.753
66800SOL    HW2  427  12.547  11.449   6.759
66801SOL     OW  428  12.173  11.206   6.740
66801SOL    HW1  429  12.110  11.134   6.709
66801SOL    HW2  430  12.266  11.170   6.740
66802SOL     OW  431  11.942  12.502   5.887
66802SOL    HW1  432  11.896  12.415   5.904
66802SOL    HW2  433  12.033  12.499   5.928
66803SOL     OW  434  11.790  12.739   6.870
66803SOL    HW1  435  11.785  12.821   6.927
66803SOL    HW2  436  11.879  12.736   6.825
66804SOL     OW  437  12.524  11.224   5.754
66804SOL    HW1  438  12.559  11.183   5.670
66804SOL    HW2  439  12.434  11.186   5.774
66805SOL     OW  440  11.211  12.249   5.886
66805SOL    HW1  441  11.310  12.238   5.877
66805SOL    HW2  442  11.171  12.163   5.918
66806SOL     OW  443  11.402  11.800   7.561
66806SOL    HW1  444  11.309  11.798   7.598
66806SOL    HW2  445  11.403  11.761   7.469
66807SOL     OW  446  11.397  11.447   8.444
66807SOL    HW1  447  11.432  11.430   8.536
66807SOL    HW2  448  11.309  11.402   8.432
66808SOL     OW  449  11.191  11.540   8.095
66808SOL    HW1  450  11.109  11.583   8.134
66808SOL    HW2  451  11.163  11.467   8.032
66809SOL     OW  452  11.741  12.447   8.613
66809SOL    HW1  453  11.648  12.440   8.576
66809SOL    HW2  454  11.752  12.536   8.657
66810SOL     OW  455  12.727  12.683   8.151
66810SOL    HW1  456  12.670  12.667   8.232
66810SOL    HW2  457  12.668  12.693   8.071
66811SOL     OW  458  12.307  11.875   8.165
66811SOL    HW1  459  12.364  11.953   8.140
66811SOL    HW2  460  12.247  11.901   8.241
66812SOL     OW  461  11.940  12.316   8.471
66812SOL    HW1  462  11.862  12.333   8.531
66812SOL    HW2  463  11.974  12.403   8.435
66813SOL     OW  464  12.022  11.970   9.271
66813SOL    HW1  465  12.018  12.046   9.336
66813SOL    HW2  466  12.044  12.006   9.180
66814SOL     OW  467  11.857  12.184   8.113
66814SOL    HW1  468  11.926  12.168   8.183
66814SOL    HW2  469  11.784  12.241   8.151
66815SOL     OW  470  11.858  12.333   9.251
66815SOL    HW1  471  11.918  12.412   9.265
66815SOL    HW2  472  11.772  12.364   9.210
66816SOL     OW  473  11.507  12.607   8.509
66816SOL    HW1  474  11.429  12.576   8.456
66816SOL    HW2  475  11.565  12.665   8.452
66817SOL     OW  476  11.610  11.564   8.947
66817SOL    HW1  477  11.692  11.508   8.956
66817SOL    HW2  478  11.529  11.506   8.951
66818SOL     OW  479  11.403  12.885   7.931
66818SOL    HW1  480  11.437  12.962   7.985
66818SOL    HW2  481  11.447  12.885   7.841
66819SOL     OW  482  12.299  12.513   9.138
66819SOL    HW1  483  12.346  12.513   9.226
66819SOL    HW2  484  12.251  12.426   9.127
66820SOL     OW  485  11.402  12.606   7.986
66820SOL    HW1  486  11.376  12.702   7.986
66820SOL    HW2  487  11.331  12.552   8.031
66821SOL     OW  488  11.412  12.263   8.334
66821SOL    HW1  489  11.426  12.179   8.386
66821SOL    HW2  490  11.357  12.327   8.389
66822SOL     OW  491  11.778  12.136   7.571
66822SOL    HW1  492  11.785  12.220   7.517
66822SOL    HW2  493  11.824  12.149   7.659
66823SOL     OW  494  11.294  11.815   8.011
66823SOL    HW1  495  11.249  11.727   8.028
66823SOL    HW2  496  11.293  11.869   8.095
66824SOL     OW  497  11.199  12.768   7.565
66824SOL    HW1  498  11.180  12.672   7.586
66824SOL    HW2  499  11.166  12.826   7.640
66825SOL     OW  500  12.861  12.094   8.060
66825SOL    HW1  501  12.956  12.065   8.068
66825SOL    HW2  502  12.853  12.159   7.985
66826SOL     OW  503  11.285  11.909   9.045
66826SOL    HW1  504  11.373  11.896   9.090
66826SOL    HW2  505  11.272  12.006   9.023
66827SOL     OW  506  11.785  12.537   8.174
66827SOL    HW1  507  11.736  12.450   8.183
66827SOL    HW2  508  11.762  12.580   8.087
66828SOL     OW  509  12.465  12.400   8.871
66828SOL    HW1  510  12.502  12.327   8.813
66828SOL    HW2  511  12.517  12.405   8.956
66829SOL     OW  512  11.981  11.176   7.950
66829SOL    HW1  513  12.021  11.267   7.941
66829SOL    HW2  514  11.881  11.184   7.956
66830SOL     OW  515  11.369  12.148   8.712
66830SOL    HW1  516  11.458  12.103   8.698
66830SOL    HW2  517  11.296  12.083   8.693
66831SOL     OW  518  11.489  11.423   9.249
66831SOL    HW1  519  11.560  11.494   9.255
66831SOL    HW2  520  11.401  11.462   9.277
66832SOL     OW  521  12.638  12.589   8.401
66832SOL    HW1  522  12.579  12.595   8.481
66832SOL    HW2  523  12.623  12.501   8.355
66833SOL     OW  524  11.770  11.901   7.718
66833SOL    HW1  525  11.794  11.970   7.650
66833SOL    HW2  526  11.692  11.934   7.772
66834SOL     OW  527  12.453  11.517   8.392
66834SOL    HW1  528  12.367  11.467   8.379
66834SOL    HW2  529  12.515  11.463   8.448
66835SOL     OW  530  11.979  11.777   8.913
66835SOL    HW1  531  11.932  11.774   9.002
66835SOL    HW2  532  11.928  11.722   8.847
66836SOL     OW  533  12.566  11.641   9.122
66836SOL    HW1  534  12.546  11.684   9.210
66836SOL    HW2  535  12.644  11.579   9.131
66837SOL     OW  536  12.145  12.062   9.020
66837SOL    HW1  537  12.191  11.978   8.991
66837SOL    HW2  538  12.089  12.096   8.945
66838SOL     OW  539  12.163  11.582   8.690
66838SOL    HW1  540  12.086  11.616   8.744
66838SOL    HW2  541  12.129  11.531   8.611
66839SOL     OW  542  12.213  11.873   7.877
66839SOL    HW1  543  12.239  11.869   7.973
66839SOL    HW2  544  12.128  11.822   7.863
66840SOL     OW  545  11.248  11.983   8.237
66840SOL    HW1  546  11.347  11.971   8.246
66840SOL    HW2  547  11.224  12.078   8.258
66841SOL     OW  548  12.037  11.520   7.643
66841SOL    HW1  549  12.096  11.583   7.594
66841SOL    HW2  550  12.056  11.426   7.614
66842SOL     OW  551  12.534  12.316   7.993
66842SOL    HW1  552  12.617  12.287   7.945
66842SOL    HW2  553  12.485  12.383   7.937
66843SOL     OW  554  11.722  11.368   8.333
66843SOL    HW1  555  11.717  11.363   8.433
66843SOL    HW2  556  11.724  11.464   8.304
66844SOL     OW  557  12.180  12.628   7.925
66844SOL    HW1  558  12.134  12.700   7.873
66844SOL    HW2  559  12.176  12.648   8.023
66845SOL     OW  560  12.399  12.722   8.954
66845SOL    HW1  561  12.405  12.645   9.018
66845SOL    HW2  562  12.347  12.696   8.874
66846SOL     OW  563  11.493  12.115   7.690
66846SOL    HW1  564  11.575  12.154   7.648
66846SOL    HW2  565  11.466  12.033   7.641
66847SOL     OW  566  11.633  12.438   9.175
66847SOL    HW1  567  11.583  12.439   9.089
66847SOL    HW2  568  11.570  12.420   9.251
66848SOL     OW  569  12.283  12.948   7.685
66848SOL    HW1  570  12.223  12.886   7.735
66848SOL    HW2  571  12.314  12.904   7.600
66849SOL     OW  572  11.374  11.457   8.946
66849SOL    HW1  573  11.294  11.517   8.933
66849SOL    HW2  574  11.364  11.408   9.032
66850SOL     OW  575  12.572  11.279   7.874
66850SOL    HW1  576  12.548  11.242   7.784
66850SOL    HW2  577  12.671  11.295   7.878
66851SOL     OW  578  11.554  11.872   7.928
66851SOL    HW1  579  11.599  11.782   7.925
66851SOL    HW2  580  11.460  11.861   7.961
66852SOL     OW  581  11.786  11.294   7.565
66852SOL    HW1  582  11.884  11.272   7.572
66852SOL    HW2  583  11.755  11.277   7.472
66853SOL     OW  584  11.953  11.436   9.197
66853SOL    HW1  585  12.020  11.375   9.240
66853SOL    HW2  586  11.880  11.455   9.262
66854SOL     OW  587  12.523  11.762   8.881
66854SOL    HW1  588  12.551  11.719   8.966
66854SOL    HW2  589  12.548  11.858   8.882
66855SOL     OW  590  11.975  12.574   8.372
66855SOL    HW1  591  12.065  12.588   8.330
66855SOL    HW2  592  11.904  12.576   8.301
66856SOL     OW  593  12.094  11.675   8.347
66856SOL    HW1  594  12.069  11.666   8.251
66856SOL    HW2  595  12.142  11.593   8.378
66857SOL     OW  596  11.711  11.236   7.960
66857SOL    HW1  597  11.630  11.237   8.018
66857SOL    HW2  598  11.714  11.319   7.905
66858SOL     OW  599  12.606  12.360   7.489
66858SOL    HW1  600  12.638  12.284   7.546
66858SOL    HW2  601  12.514  12.387   7.519
66859SOL     OW  602  11.469  11.207   7.619
66859SOL    HW1  603  11.518  11.291   7.598
66859SOL    HW2  604  11.531  11.142   7.664
66860SOL     OW  605  12.107  11.408   7.928
66860SOL    HW1  606  12.059  11.449   7.850
66860SOL    HW2  607  12.206  11.406   7.909
66861SOL     OW  608  12.248  11.855   8.912
66861SOL    HW1  609  12.168  11.794   8.915
66861SOL    HW2  610  12.329  11.802   8.888
66862SOL     OW  611  12.399  12.742   8.241
66862SOL    HW1  612  12.420  12.816   8.176
66862SOL    HW2  613  12.467  12.742   8.314
66863SOL     OW  614  11.631  12.324   8.189
66863SOL    HW1  615  11.560  12.297   8.254
66863SOL    HW2  616  11.605  12.296   8.096
66864SOL     OW  617  12.204  11.721   7.464
66864SOL    HW1  618  12.163  11.803   7.425
66864SOL    HW2  619  12.268  11.747   7.537
66865SOL     OW  620  11.250  11.728   8.834
66865SOL    HW1  621  11.342  11.727   8.793
66865SOL    HW2  622  11.244  11.802   8.901
66866SOL     OW  623  12.038  11.626   8.090
66866SOL    HW1  624  12.006  11.698   8.028
66866SOL    HW2  625  12.062  11.545   8.037
66867SOL     OW  626  12.189  11.211   8.201
66867SOL    HW1  627  12.117  11.216   8.132
66867SOL    HW2  628  12.165  11.142   8.270
66868SOL     OW  629  12.601  12.345   8.315
66868SOL    HW1  630  12.546  12.261   8.308
66868SOL    HW2  631  12.627  12.374   8.223
66869SOL     OW  632  11.660  12.557   7.622
66869SOL    HW1  633  11.573  12.542   7.669
66869SOL    HW2  634  11.643  12.583   7.527
66870SOL     OW  635  12.562  11.747   7.526
66870SOL    HW1  636  12.508  11.726   7.607
66870SOL    HW2  637  12.653  11.706   7.535
66871SOL     OW  638  11.699  11.428   7.776
66871SOL    HW1  639  11.726  11.369   7.701
66871SOL    HW2  640  11.699  11.523   7.745
66872SOL     OW  641  12.236  12.519   8.788
66872SOL    HW1  642  12.156  12.496   8.843
66872SOL    HW2  643  12.319  12.493   8.837
66873SOL     OW  644  12.283  12.367   8.548
66873SOL    HW1  645  12.243  12.411   8.629
66873SOL    HW2  646  12.242  12.404   8.465
66874SOL     OW  647  12.087  11.261   8.850
66874SOL    HW1  648  12.112  11.241   8.755
66874SOL    HW2  649  12.159  11.317   8.892
66875SOL     OW  650  12.152  12.288   9.167
66875SOL    HW1  651  12.053  12.294   9.177
66875SOL    HW2  652  12.175  12.208   9.111
66876SOL     OW  653  11.877  12.222   7.816
66876SOL    HW1  654  11.863  12.229   7.915
66876SOL    HW2  655  11.961  12.171   7.798
66877SOL     OW  656  11.582  11.985   8.699
66877SOL    HW1  657  11.668  11.997   8.749
66877SOL    HW2  658  11.540  11.898   8.726
66878SOL     OW  659  12.446  11.558   8.710
66878SOL    HW1  660  12.467  11.632   8.774
66878SOL    HW2  661  12.357  11.575   8.667
66879SOL     OW  662  11.539  12.272   7.949
66879SOL    HW1  663  11.532  12.355   7.893
66879SOL    HW2  664  11.543  12.192   7.889
66880SOL     OW  665  11.738  11.709   8.313
66880SOL    HW1  666  11.750  11.775   8.239
66880SOL    HW2  667  11.784  11.743   8.396
66881SOL     OW  668  12.424  12.520   7.836
66881SOL    HW1  669  12.474  12.597   7.876
66881SOL    HW2  670  12.329  12.522   7.868
66882SOL     OW  671  12.444  12.617   8.590
66882SOL    HW1  672  12.491  12.630   8.677
66882SOL    HW2  673  12.378  12.543   8.599
66883SOL     OW  674  11.574  11.923   9.046
66883SOL    HW1  675  11.642  11.978   8.999
66883SOL    HW2  676  11.614  11.835   9.073
66884SOL     OW  677  12.185  11.277   9.218
66884SOL    HW1  678  12.191  11.362   9.166
66884SOL    HW2  679  12.217  11.201   9.161
66885SOL     OW  680  11.676  11.222   9.188
66885SOL    HW1  681  11.634  11.165   9.118
66885SOL    HW2  682  11.610  11.291   9.220
66886SOL     OW  683  11.745  12.042   8.477
66886SOL    HW1  684  11.789  12.131   8.468
66886SOL    HW2  685  11.682  12.042   8.554
66887SOL     OW  686  12.532  12.034   8.493
66887SOL    HW1  687  12.457  12.034   8.427
66887SOL    HW2  688  12.569  11.942   8.502
66888SOL     OW  689  12.381  11.697   7.723
66888SOL    HW1  690  12.394  11.613   7.777
66888SOL    HW2  691  12.352  11.771   7.783
66889SOL     OW  692  11.479  11.385   8.679
66889SOL    HW1  693  11.456  11.422   8.769
66889SOL    HW2  694  11.449  11.290   8.673
66890SOL     OW  695  11.209  12.482   8.730
66890SOL    HW1  696  11.262  12.433   8.798
66890SOL    HW2  697  11.231  12.580   8.735
66891SOL     OW  698  11.904  11.806   8.512
66891SOL    HW1  699  11.963  11.780   8.436
66891SOL    HW2  700  11.876  11.902   8.501
66892SOL     OW  701  11.479  11.235   8.066
66892SOL    HW1  702  11.468  11.329   8.099
66892SOL    HW2  703  11.474  11.172   8.143
66893SOL     OW  704  12.794  11.539   7.822
66893SOL    HW1  705  12.796  11.463   7.886
66893SOL    HW2  706  12.746  11.616   7.862
66894SOL     OW  707  12.195  11.938   8.414
66894SOL    HW1  708  12.210  11.959   8.510
66894SOL    HW2  709  12.165  11.843   8.405
66895SOL     OW  710  11.522  12.070   9.252
66895SOL    HW1  711  11.598  12.114   9.300
66895SOL    HW2  712  11.557  12.023   9.170
66896SOL     OW  713  12.475  12.010   7.490
66896SOL    HW1  714  12.509  11.917   7.505
66896SOL    HW2  715  12.493  12.037   7.395
66897SOL     OW  716  12.240  12.505   8.297
66897SOL    HW1  717  12.247  12.421   8.242
66897SOL    HW2  718  12.302  12.574   8.261
66898SOL     OW  719  11.491  11.982   8.397
66898SOL    HW1  720  11.584  12.018   8.402
66898SOL    HW2  721  11.485  11.897   8.449
66899SOL     OW  722  11.511  11.681   8.454
66899SOL    HW1  723  11.459  11.598   8.437
66899SOL    HW2  724  11.588  11.686   8.390
66900SOL     OW  725  12.310  11.552   9.126
66900SOL    HW1  726  12.265  11.615   9.190
66900SOL    HW2  727  12.403  11.583   9.109
66901SOL     OW  728  12.332  11.379   8.925
66901SOL    HW1  729  12.332  11.443   9.002
66901SOL    HW2  730  12.360  11.427   8.842
66902SOL     OW  731  11.180  12.498   7.648
66902SOL    HW1  732  11.087  12.519   7.617
66902SOL    HW2  733  11.190  12.399   7.661
66903SOL     OW  734  12.174  11.968   8.686
66903SOL    HW1  735  12.215  11.936   8.772
66903SOL    HW2  736  12.078  11.941   8.683
66904SOL     OW  737  11.212  11.716   8.562
66904SOL    HW1  738  11.297  11.683   8.521
66904SOL    HW2  739  11.225  11.731   8.660
66905SOL     OW  740  11.361  11.692   9.170
66905SOL    HW1  741  11.420  11.652   9.100
66905SOL    HW2  742  11.303  11.763   9.129
66906SOL     OW  743  12.541  12.122   9.108
66906SOL    HW1  744  12.580  12.211   9.128
66906SOL    HW2  745  12.551  12.102   9.011
66907SOL     OW  746  11.987  11.744   7.773
66907SOL    HW1  747  11.994  11.655   7.727
66907SOL    HW2  748  11.893  11.778   7.765
66908SOL     OW  749  11.424  12.736   9.192
66908SOL    HW1  750  11.394  12.793   9.268
66908SOL    HW2  751  11.417  12.639   9.218
66909SOL     OW  752  11.843  11.636   8.717
66909SOL    HW1  753  11.809  11.547   8.687
66909SOL    HW2  754  11.869  11.690   8.637
66910SOL     OW  755  11.645  11.672   7.639
66910SOL    HW1  756  11.706  11.752   7.643
66910SOL    HW2  757  11.550  11.703   7.646
66911SOL     OW  758  11.331  12.309   8.914
66911SOL    HW1  759  11.353  12.248   8.990
66911SOL    HW2  760  11.341  12.260   8.828
66912SOL     OW  761  12.519  12.231   8.682
66912SOL    HW1  762  12.543  12.168   8.608
66912SOL    HW2  763  12.429  12.271   8.664
66913SOL     OW  764  12.474  12.027   7.757
66913SOL    HW1  765  12.388  11.996   7.799
66913SOL    HW2  766  12.470  12.013   7.658
66914SOL     OW  767  11.255  12.430   8.470
66914SOL    HW1  768  11.250  12.429   8.570
66914SOL    HW2  769  11.172  12.389   8.432
66915SOL     OW  770  12.898  11.307   7.971
66915SOL    HW1  771  12.971  11.290   7.904
66915SOL    HW2  772  12.867  11.220   8.009
66916SOL     OW  773  12.452  12.099   8.120
66916SOL    HW1  774  12.512  12.018   8.122
66916SOL    HW2  775  12.492  12.168   8.060
66917SOL     OW  776  12.002  12.445   8.870
66917SOL    HW1  777  11.997  12.478   8.965
66917SOL    HW2  778  11.916  12.464   8.824
66918SOL     OW  779  11.435  11.498   8.168
66918SOL    HW1  780  11.356  11.549   8.134
66918SOL    HW2  781  11.426  11.483   8.266
66919SOL     OW  782  11.994  12.174   8.820
66919SOL    HW1  783  12.034  12.173   8.728
66919SOL    HW2  784  12.004  12.266   8.860
66920SOL     OW  785  12.088  12.082   7.739
66920SOL    HW1  786  12.151  12.120   7.671
66920SOL    HW2  787  12.128  11.999   7.778
66921SOL     OW  788  11.544  12.460   8.938
66921SOL    HW1  789  11.531  12.553   8.904
66921SOL    HW2  790  11.460  12.408   8.925
66922SOL     OW  791  12.211  12.270   8.144
66922SOL    HW1  792  12.141  12.223   8.198
66922SOL    HW2  793  12.270  12.202   8.101
66923SOL     OW  794  12.186  11.408   8.419
66923SOL    HW1  795  12.178  11.372   8.326
66923SOL    HW2  796  12.184  11.332   8.484
66924SOL     OW  797  11.427  12.520   7.738
66924SOL    HW1  798  11.331  12.521   7.711
66924SOL    HW2  799  11.439  12.573   7.822
66925SOL     OW  800  11.277  12.185   9.174
66925SOL    HW1  801  11.200  12.152   9.228
66925SOL    HW2  802  11.362  12.155   9.216
66926SOL     OW  803  11.844  11.375   8.937
66926SOL    HW1  804  11.934  11.359   8.897
66926SOL    HW2  805  11.852  11.380   9.036
66927SOL     OW  806  11.247  11.517   7.481
66927SOL    HW1  807  11.155  11.489   7.452
66927SOL    HW2  808  11.278  11.594   7.425
66928SOL     OW  809  12.612  12.028   8.846
66928SOL    HW1  810  12.555  12.080   8.783
66928SOL    HW2  811  12.708  12.040   8.822
66929SOL     OW  812  11.244  11.338   7.766
66929SOL    HW1  813  11.227  11.421   7.712
66929SOL    HW2  814  11.334  11.301   7.744
66930SOL     OW  815  12.355  12.507   7.567
66930SOL    HW1  816  12.256  12.496   7.569
66930SOL    HW2  817  12.389  12.522   7.660
66931SOL     OW  818  11.785  12.014   8.879
66931SOL    HW1  819  11.841  12.095   8.862
66931SOL    HW2  820  11.844  11.934   8.882
66932SOL     OW  821  11.888  11.737   9.156
66932SOL    HW1  822  11.907  11.802   9.230
66932SOL    HW2  823  11.948  11.657   9.165
66933SOL     OW  824  12.622  12.392   9.081
66933SOL    HW1  825  12.613  12.382   9.180
66933SOL    HW2  826  12.718  12.385   9.055
66934SOL     OW  827  12.397  11.497   7.897
66934SOL    HW1  828  12.462  11.423   7.886
66934SOL    HW2  829  12.417  11.547   7.981
66935SOL     OW  830  11.766  11.917   8.100
66935SOL    HW1  831  11.816  12.002   8.081
66935SOL    HW2  832  11.678  11.919   8.052
66936SOL     OW  833  12.031  12.546   7.464
66936SOL    HW1  834  11.985  12.561   7.552
66936SOL    HW2  835  12.075  12.631   7.434
66937SOL     OW  836  12.031  12.128   8.309
66937SOL    HW1  837  12.085  12.059   8.357
66937SOL    HW2  838  11.999  12.197   8.375
66938SOL     OW  839  12.255  12.156   7.535
66938SOL    HW1  840  12.232  12.209   7.453
66938SOL    HW2  841  12.336  12.100   7.516
66939SOL     OW  842  11.393  12.486   9.292
66939SOL    HW1  843  11.328  12.413   9.271
66939SOL    HW2  844  11.397  12.500   9.390
66940SOL     OW  845  11.251  12.412   8.101
66940SOL    HW1  846  11.250  12.365   8.189
66940SOL    HW2  847  11.333  12.384   8.050
66941SOL     OW  848  11.844  12.563   9.072
66941SOL    HW1  849  11.766  12.513   9.110
66941SOL    HW2  850  11.841  12.658   9.103
66942SOL     OW  851  11.600  11.596   7.968
66942SOL    HW1  852  11.630  11.524   7.906
66942SOL    HW2  853  11.561  11.556   8.051
66943SOL     OW  854  12.877  12.659   8.552
66943SOL    HW1  855  12.784  12.634   8.525
66943SOL    HW2  856  12.903  12.609   8.634
66944SOL     OW  857  11.489  11.719   8.728
66944SOL    HW1  858  11.527  11.660   8.800
66944SOL    HW2  859  11.529  11.693   8.640
66945SOL     OW  860  12.596  11.386   8.560
66945SOL    HW1  861  12.648  11.321   8.615
66945SOL    HW2  862  12.547  11.449   8.621
66946SOL     OW  863  12.173  11.206   8.602
66946SOL    HW1  864  12.110  11.134   8.571
66946SOL    HW2  865  12.266  11.170   8.602
66947SOL     OW  866  11.942  12.502   7.749
66947SOL    HW1  867  11.896  12.415   7.766
66947SOL    HW2  868  12.033  12.499   7.790
66948SOL     OW  869  11.790  12.739   8.732
66948SOL    HW1  870  11.785  12.821   8.789
66948SOL    HW2  871  11.879  12.736   8.687
66949SOL     OW  872  12.524  11.224   7.616
66949SOL    HW1  873  12.559  11.183   7.532
66949SOL    HW2  874  12.434  11.186   7.636
66950SOL     OW  875  12.472  11.625   8.139
66950SOL    HW1  876  12.413  11.705   8.143
66950SOL    HW2  877  12.487  11.590   8.232
66951SOL     OW  878  11.211  12.249   7.748
66951SOL    HW1  879  11.310  12.238   7.739
66951SOL    HW2  880  11.171  12.163   7.780
66952SOL     OW  881  11.402  11.800   9.423
66952SOL    HW1  882  11.309  11.798   9.460
66952SOL    HW2  883  11.403  11.761   9.331
66953SOL     OW  884  11.397  11.447  10.306
66953SOL    HW1  885  11.432  11.430  10.398
66953SOL    HW2  886  11.309  11.402  10.294
66954SOL     OW  887  11.191  11.540   9.957
66954SOL    HW1  888  11.109  11.583   9.996
66954SOL    HW2  889  11.163  11.467   9.894
66955SOL     OW  890  11.741  12.447  10.475
66955SOL    HW1  891  11.648  12.440  10.438
66955SOL    HW2  892  11.752  12.536  10.519
66956SOL     OW  893  12.727  12.683  10.013
66956SOL    HW1  894  12.670  12.667  10.094
66956SOL    HW2  895  12.668  12.693   9.933
66957SOL     OW  896  12.307  11.875  10.027
66957SOL    HW1  897  12.364  11.953  10.002
66957SOL    HW2  898  12.247  11.901  10.103
66958SOL     OW  899  11.940  12.316  10.333
66958SOL    HW1  900  11.862  12.333  10.393
66958SOL    HW2  901  11.974  12.403  10.297
66959SOL     OW  902  12.022  11.970  11.133
66959SOL    HW1  903  12.018  12.046  11.198
66959SOL    HW2  904  12.044  12.006  11.042
66960SOL     OW  905  11.857  12.184   9.975
66960SOL    HW1  906  11.926  12.168  10.045
66960SOL    HW2  907  11.784  12.241  10.013
66961SOL     OW  908  11.858  12.333  11.113
66961SOL    HW1  909  11.918  12.412  11.127
66961SOL    HW2  910  11.772  12.364  11.072
66962SOL     OW  911  11.507  12.607  10.371
66962SOL    HW1  912  11.429  12.576  10.318
66962SOL    HW2  913  11.565  12.665  10.314
66963SOL     OW  914  11.610  11.564  10.809
66963SOL    HW1  915  11.692  11.508  10.818
66963SOL    HW2  916  11.529  11.506  10.813
66964SOL     OW  917  11.403  12.885   9.793
66964SOL    HW1  918  11.437  12.962   9.847
66964SOL    HW2  919  11.447  12.885   9.703
66965SOL     OW  920  12.299  12.513  11.000
66965SOL    HW1  921  12.346  12.513  11.088
66965SOL    HW2  922  12.251  12.426  10.989
66966SOL     OW  923  11.402  12.606   9.848
66966SOL    HW1  924  11.376  12.702   9.848
66966SOL    HW2  925  11.331  12.552   9.893
66967SOL     OW  926  11.412  12.263  10.196
66967SOL    HW1  927  11.426  12.179  10.248
66967SOL    HW2  928  11.357  12.327  10.251
66968SOL     OW  929  11.778  12.136   9.433
66968SOL    HW1  930  11.785  12.220   9.379
66968SOL    HW2  931  11.824  12.149   9.521
66969SOL     OW  932  11.294  11.815   9.873
66969SOL    HW1  933  11.249  11.727   9.890
66969SOL    HW2  934  11.293  11.869   9.957
66970SOL     OW  935  11.199  12.768   9.427
66970SOL    HW1  936  11.180  12.672   9.448
66970SOL    HW2  937  11.166  12.826   9.502
66971SOL     OW  938  12.861  12.094   9.922
66971SOL    HW1  939  12.956  12.065   9.930
66971SOL    HW2  940  12.853  12.159   9.847
66972SOL     OW  941  11.285  11.909  10.907
66972SOL    HW1  942  11.373  11.896  10.952
66972SOL    HW2  943  11.272  12.006  10.885
66973SOL     OW  944  11.785  12.537  10.036
66973SOL    HW1  945  11.736  12.450  10.045
66973SOL    HW2  946  11.762  12.580   9.949
66974SOL     OW  947  12.465  12.400  10.733
66974SOL    HW1  948  12.502  12.327  10.675
66974SOL    HW2  949  12.517  12.405  10.818
66975SOL     OW  950  11.981  11.176   9.812
66975SOL    HW1  951  12.021  11.267   9.803
66975SOL    HW2  952  11.881  11.184   9.818
66976SOL     OW  953  11.369  12.148  10.574
66976SOL    HW1  954  11.458  12.103  10.560
66976SOL    HW2  955  11.296  12.083  10.555
66977SOL     OW  956  11.489  11.423  11.111
66977SOL    HW1  957  11.560  11.494  11.117
66977SOL    HW2  958  11.401  11.462  11.139
66978SOL     OW  959  12.638  12.589  10.263
66978SOL    HW1  960  12.579  12.595  10.343
66978SOL    HW2  961  12.623  12.501  10.217
66979SOL     OW  962  11.770  11.901   9.580
66979SOL    HW1  963  11.794  11.970   9.512
66979SOL    HW2  964  11.692  11.934   9.634
66980SOL     OW  965  12.453  11.517  10.254
66980SOL    HW1  966  12.367  11.467  10.241
66980SOL    HW2  967  12.515  11.463  10.310
66981SOL     OW  968  11.979  11.777  10.775
66981SOL    HW1  969  11.932  11.774  10.864
66981SOL    HW2  970  11.928  11.722  10.709
66982SOL     OW  971  12.566  11.641  10.984
66982SOL    HW1  972  12.546  11.684  11.072
66982SOL    HW2  973  12.644  11.579  10.993
66983SOL     OW  974  12.145  12.062  10.882
66983SOL    HW1  975  12.191  11.978  10.853
66983SOL    HW2  976  12.089  12.096  10.807
66984SOL     OW  977  12.163  11.582  10.552
66984SOL    HW1  978  12.086  11.616  10.606
66984SOL    HW2  979  12.129  11.531  10.473
66985SOL     OW  980  12.213  11.873   9.739
66985SOL    HW1  981  12.239  11.869   9.835
66985SOL    HW2  982  12.128  11.822   9.725
66986SOL     OW  983  11.248  11.983  10.099
66986SOL    HW1  984  11.347  11.971  10.108
66986SOL    HW2  985  11.224  12.078  10.120
66987SOL     OW  986  12.037  11.520   9.505
66987SOL    HW1  987  12.096  11.583   9.456
66987SOL    HW2  988  12.056  11.426   9.476
66988SOL     OW  989  12.534  12.316   9.855
66988SOL    HW1  990  12.617  12.287   9.807
66988SOL    HW2  991  12.485  12.383   9.799
66989SOL     OW  992  11.722  11.368  10.195
66989SOL    HW1  993  11.717  11.363  10.295
66989SOL    HW2  994  11.724  11.464  10.166
66990SOL     OW  995  12.180  12.628   9.787
66990SOL    HW1  996  12.134  12.700   9.735
66990SOL    HW2  997  12.176  12.648   9.885
66991SOL     OW  998  12.399  12.722  10.816
66991SOL    HW1  999  12.405  12.645  10.880
66991SOL    HW2 1000  12.347  12.696  10.736
66992SOL     OW 1001  11.493  12.115   9.552
66992SOL    HW1 1002  11.575  12.154   9.510
66992SOL    HW2 1003  11.466  12.033   9.503
66993SOL     OW 1004  11.633  12.438  11.037
66993SOL    HW1 1005  11.583  12.439  10.951
66993SOL    HW2 1006  11.570  12.420  11.113
66994SOL     OW 1007  12.283  12.948   9.547
66994SOL    HW1 1008  12.223  12.886   9.597
66994SOL    HW2 1009  12.314  12.904   9.462
66995SOL     OW 1010  11.374  11.457  10.808
66995SOL    HW1 1011  11.294  11.517  10.795
66995SOL    HW2 1012  11.364  11.408  10.894
66996SOL     OW 1013  12.572  11.279   9.736
66996SOL    HW1 1014  12.548  11.242   9.646
66996SOL    HW2 1015  12.671  11.295   9.740
66997SOL     OW 1016  11.554  11.872   9.790
66997SOL    HW1 1017  11.599  11.782   9.787
66997SOL    HW2 1018  11.460  11.861   9.823
66998SOL     OW 1019  11.786  11.294   9.427
66998SOL    HW1 1020  11.884  11.272   9.434
66998SOL    HW2 1021  11.755  11.277   9.334
66999SOL     OW 1022  11.953  11.436  11.059
66999SOL    HW1 1023  12.020  11.375  11.102
66999SOL    HW2 1024  11.880  11.455  11.124
67000SOL     OW 1025  12.523  11.762  10.743
67000SOL    HW1 1026  12.551  11.719  10.828
67000SOL    HW2 1027  12.548  11.858  10.744
67001SOL     OW 1028  11.975  12.574  10.234
67001SOL    HW1 1029  12.065  12.588  10.192
67001SOL    HW2 1030  11.904  12.576  10.163
67002SOL     OW 1031  12.094  11.675  10.209
67002SOL    HW1 1032  12.069  11.666  10.113
67002SOL    HW2 1033  12.142  11.593  10.240
67003SOL     OW 1034  11.711  11.236   9.822
67003SOL    HW1 1035  11.630  11.237   9.880
67003SOL    HW2 1036  11.714  11.319   9.767
67004SOL     OW 1037  12.606  12.360   9.351
67004SOL    HW1 1038  12.638  12.284   9.408
67004SOL    HW2 1039  12.514  12.387   9.381
67005SOL     OW 1040  11.469  11.207   9.481
67005SOL    HW1 1041  11.518  11.291   9.460
67005SOL    HW2 1042  11.531  11.142   9.526
67006SOL     OW 1043  12.107  11.408   9.790
67006SOL    HW1 1044  12.059  11.449   9.712
67006SOL    HW2 1045  12.206  11.406   9.771
67007SOL     OW 1046  12.248  11.855  10.774
67007SOL    HW1 1047  12.168  11.794  10.777
67007SOL    HW2 1048  12.329  11.802  10.750
67008SOL     OW 1049  12.399  12.742  10.103
67008SOL    HW1 1050  12.420  12.816  10.038
67008SOL    HW2 1051  12.467  12.742  10.176
67009SOL     OW 1052  11.631  12.324  10.051
67009SOL    HW1 1053  11.560  12.297  10.116
67009SOL    HW2 1054  11.605  12.296   9.958
67010SOL     OW 1055  12.204  11.721   9.326
67010SOL    HW1 1056  12.163  11.803   9.287
67010SOL    HW2 1057  12.268  11.747   9.399
67011SOL     OW 1058  11.250  11.728  10.696
67011SOL    HW1 1059  11.342  11.727  10.655
67011SOL    HW2 1060  11.244  11.802  10.763
67012SOL     OW 1061  11.733  11.394  10.457
67012SOL    HW1 1062  11.771  11.310  10.494
67012SOL    HW2 1063  11.645  11.413  10.501
67013SOL     OW 1064  12.038  11.626   9.952
67013SOL    HW1 1065  12.006  11.698   9.890
67013SOL    HW2 1066  12.062  11.545   9.899
67014SOL     OW 1067  12.189  11.211  10.063
67014SOL    HW1 1068  12.117  11.216   9.994
67014SOL    HW2 1069  12.165  11.142  10.132
67015SOL     OW 1070  12.601  12.345  10.177
67015SOL    HW1 1071  12.546  12.261  10.170
67015SOL    HW2 1072  12.627  12.374  10.085
67016SOL     OW 1073  11.660  12.557   9.484
67016SOL    HW1 1074  11.573  12.542   9.531
67016SOL    HW2 1075  11.643  12.583   9.389
67017SOL     OW 1076  12.562  11.747   9.388
67017SOL    HW1 1077  12.508  11.726   9.469
67017SOL    HW2 1078  12.653  11.706   9.397
67018SOL     OW 1079  11.699  11.428   9.638
67018SOL    HW1 1080  11.726  11.369   9.563
67018SOL    HW2 1081  11.699  11.523   9.607
67019SOL     OW 1082  12.236  12.519  10.650
67019SOL    HW1 1083  12.156  12.496  10.705
67019SOL    HW2 1084  12.319  12.493  10.699
67020SOL     OW 1085  12.283  12.367  10.410
67020SOL    HW1 1086  12.243  12.411  10.491
67020SOL    HW2 1087  12.242  12.404  10.327
67021SOL     OW 1088  12.087  11.261  10.712
67021SOL    HW1 1089  12.112  11.241  10.617
67021SOL    HW2 1090  12.159  11.317  10.754
67022SOL     OW 1091  12.152  12.288  11.029
67022SOL    HW1 1092  12.053  12.294  11.039
67022SOL    HW2 1093  12.175  12.208  10.973
67023SOL     OW 1094  11.877  12.222   9.678
67023SOL    HW1 1095  11.863  12.229   9.777
67023SOL    HW2 1096  11.961  12.171   9.660
67024SOL     OW 1097  11.582  11.985  10.561
67024SOL    HW1 1098  11.668  11.997  10.611
67024SOL    HW2 1099  11.540  11.898  10.588
67025SOL     OW 1100  12.446  11.558  10.572
67025SOL    HW1 1101  12.467  11.632  10.636
67025SOL    HW2 1102  12.357  11.575  10.529
67026SOL     OW 1103  11.539  12.272   9.811
67026SOL    HW1 1104  11.532  12.355   9.755
67026SOL    HW2 1105  11.543  12.192   9.751
67027SOL     OW 1106  11.738  11.709  10.175
67027SOL    HW1 1107  11.750  11.775  10.101
67027SOL    HW2 1108  11.784  11.743  10.258
67028SOL     OW 1109  12.424  12.520   9.698
67028SOL    HW1 1110  12.474  12.597   9.738
67028SOL    HW2 1111  12.329  12.522   9.730
67029SOL     OW 1112  12.444  12.617  10.452
67029SOL    HW1 1113  12.491  12.630  10.539
67029SOL    HW2 1114  12.378  12.543  10.461
67030SOL     OW 1115  11.526  12.682  10.639
67030SOL    HW1 1116  11.505  12.638  10.552
67030SOL    HW2 1117  11.623  12.708  10.642
67031SOL     OW 1118  11.574  11.923  10.908
67031SOL    HW1 1119  11.642  11.978  10.861
67031SOL    HW2 1120  11.614  11.835  10.935
67032SOL     OW 1121  12.185  11.277  11.080
67032SOL    HW1 1122  12.191  11.362  11.028
67032SOL    HW2 1123  12.217  11.201  11.023
67033SOL     OW 1124  11.676  11.222  11.050
67033SOL    HW1 1125  11.634  11.165  10.980
67033SOL    HW2 1126  11.610  11.291  11.082
67034SOL     OW 1127  11.745  12.042  10.339
67034SOL    HW1 1128  11.789  12.131  10.330
67034SOL    HW2 1129  11.682  12.042  10.416
67035SOL     OW 1130  12.532  12.034  10.355
67035SOL    HW1 1131  12.457  12.034  10.289
67035SOL    HW2 1132  12.569  11.942  10.364
67036SOL     OW 1133  12.381  11.697   9.585
67036SOL    HW1 1134  12.394  11.613   9.639
67036SOL    HW2 1135  12.352  11.771   9.645
67037SOL     OW 1136  11.479  11.385  10.541
67037SOL    HW1 1137  11.456  11.422  10.631
67037SOL    HW2 1138  11.449  11.290  10.535
67038SOL     OW 1139  11.209  12.482  10.592
67038SOL    HW1 1140  11.262  12.433  10.660
67038SOL    HW2 1141  11.231  12.580  10.597
67039SOL     OW 1142  11.904  11.806  10.374
67039SOL    HW1 1143  11.963  11.780  10.298
67039SOL    HW2 1144  11.876  11.902  10.363
67040SOL     OW 1145  11.479  11.235   9.928
67040SOL    HW1 1146  11.468  11.329   9.961
67040SOL    HW2 1147  11.474  11.172  10.005
67041SOL     OW 1148  12.794  11.539   9.684
67041SOL    HW1 1149  12.796  11.463   9.748
67041SOL    HW2 1150  12.746  11.616   9.724
67042SOL     OW 1151  12.195  11.938  10.276
67042SOL    HW1 1152  12.210  11.959  10.372
67042SOL    HW2 1153  12.165  11.843  10.267
67043SOL     OW 1154  11.522  12.070  11.114
67043SOL    HW1 1155  11.598  12.114  11.162
67043SOL    HW2 1156  11.557  12.023  11.032
67044SOL     OW 1157  12.475  12.010   9.352
67044SOL    HW1 1158  12.509  11.917   9.367
67044SOL    HW2 1159  12.493  12.037   9.257
67045SOL     OW 1160  12.240  12.505  10.159
67045SOL    HW1 1161  12.247  12.421  10.104
67045SOL    HW2 1162  12.302  12.574  10.123
67046SOL     OW 1163  11.491  11.982  10.259
67046SOL    HW1 1164  11.584  12.018  10.264
67046SOL    HW2 1165  11.485  11.897  10.311
67047SOL     OW 1166  11.511  11.681  10.316
67047SOL    HW1 1167  11.459  11.598  10.299
67047SOL    HW2 1168  11.588  11.686  10.252
67048SOL     OW 1169  12.310  11.552  10.988
67048SOL    HW1 1170  12.265  11.615  11.052
67048SOL    HW2 1171  12.403  11.583  10.971
67049SOL     OW 1172  12.332  11.379  10.787
67049SOL    HW1 1173  12.332  11.443  10.864
67049SOL    HW2 1174  12.360  11.427  10.704
67050SOL     OW 1175  11.180  12.498   9.510
67050SOL    HW1 1176  11.087  12.519   9.479
67050SOL    HW2 1177  11.190  12.399   9.523
67051SOL     OW 1178  12.174  11.968  10.548
67051SOL    HW1 1179  12.215  11.936  10.634
67051SOL    HW2 1180  12.078  11.941  10.545
67052SOL     OW 1181  11.212  11.716  10.424
67052SOL    HW1 1182  11.297  11.683  10.383
67052SOL    HW2 1183  11.225  11.731  10.522
67053SOL     OW 1184  11.361  11.692  11.032
67053SOL    HW1 1185  11.420  11.652  10.962
67053SOL    HW2 1186  11.303  11.763  10.991
67054SOL     OW 1187  12.541  12.122  10.970
67054SOL    HW1 1188  12.580  12.211  10.990
67054SOL    HW2 1189  12.551  12.102  10.873
67055SOL     OW 1190  11.987  11.744   9.635
67055SOL    HW1 1191  11.994  11.655   9.589
67055SOL    HW2 1192  11.893  11.778   9.627
67056SOL     OW 1193  11.424  12.736  11.054
67056SOL    HW1 1194  11.394  12.793  11.130
67056SOL    HW2 1195  11.417  12.639  11.080
67057SOL     OW 1196  11.843  11.636  10.579
67057SOL    HW1 1197  11.809  11.547  10.549
67057SOL    HW2 1198  11.869  11.690  10.499
67058SOL     OW 1199  11.645  11.672   9.501
67058SOL    HW1 1200  11.706  11.752   9.505
67058SOL    HW2 1201  11.550  11.703   9.508
67059SOL     OW 1202  11.331  12.309  10.776
67059SOL    HW1 1203  11.353  12.248  10.852
67059SOL    HW2 1204  11.341  12.260  10.690
67060SOL     OW 1205  12.519  12.231  10.544
67060SOL    HW1 1206  12.543  12.168  10.470
67060SOL    HW2 1207  12.429  12.271  10.526
67061SOL     OW 1208  12.474  12.027   9.619
67061SOL    HW1 1209  12.388  11.996   9.661
67061SOL    HW2 1210  12.470  12.013   9.520
67062SOL     OW 1211  11.255  12.430  10.332
67062SOL    HW1 1212  11.250  12.429  10.432
67062SOL    HW2 1213  11.172  12.389  10.294
67063SOL     OW 1214  12.898  11.307   9.833
67063SOL    HW1 1215  12.971  11.290   9.766
67063SOL    HW2 1216  12.867  11.220   9.871
67064SOL     OW 1217  12.452  12.099   9.982
67064SOL    HW1 1218  12.512  12.018   9.984
67064SOL    HW2 1219  12.492  12.168   9.922
67065SOL     OW 1220  12.002  12.445  10.732
67065SOL    HW1 1221  11.997  12.478  10.827
67065SOL    HW2 1222  11.916  12.464  10.686
67066SOL     OW 1223  11.435  11.498  10.030
67066SOL    HW1 1224  11.356  11.549   9.996
67066SOL    HW2 1225  11.426  11.483  10.128
67067SOL     OW 1226  11.994  12.174  10.682
67067SOL    HW1 1227  12.034  12.173  10.590
67067SOL    HW2 1228  12.004  12.266  10.722
67068SOL     OW 1229  12.088  12.082   9.601
67068SOL    HW1 1230  12.151  12.120   9.533
67068SOL    HW2 1231  12.128  11.999   9.640
67069SOL     OW 1232  11.544  12.460  10.800
67069SOL    HW1 1233  11.531  12.553  10.766
67069SOL    HW2 1234  11.460  12.408  10.787
67070SOL     OW 1235  12.211  12.270  10.006
67070SOL    HW1 1236  12.141  12.223  10.060
67070SOL    HW2 1237  12.270  12.202   9.963
67071SOL     OW 1238  12.186  11.408  10.281
67071SOL    HW1 1239  12.178  11.372  10.188
67071SOL    HW2 1240  12.184  11.332  10.346
67072SOL     OW 1241  11.427  12.520   9.600
67072SOL    HW1 1242  11.331  12.521   9.573
67072SOL    HW2 1243  11.439  12.573   9.684
67073SOL     OW 1244  11.844  11.375  10.799
67073SOL    HW1 1245  11.934  11.359  10.759
67073SOL    HW2 1246  11.852  11.380  10.898
67074SOL     OW 1247  11.247  11.517   9.343
67074SOL    HW1 1248  11.155  11.489   9.314
67074SOL    HW2 1249  11.278  11.594   9.287
67075SOL     OW 1250  12.612  12.028  10.708
67075SOL    HW1 1251  12.555  12.080  10.645
67075SOL    HW2 1252  12.708  12.040  10.684
67076SOL     OW 1253  11.244  11.338   9.628
67076SOL    HW1 1254  11.227  11.421   9.574
67076SOL    HW2 1255  11.334  11.301   9.606
67077SOL     OW 1256  12.355  12.507   9.429
67077SOL    HW1 1257  12.256  12.496   9.431
67077SOL    HW2 1258  12.389  12.522   9.522
67078SOL     OW 1259  11.785  12.014  10.741
67078SOL    HW1 1260  11.841  12.095  10.724
67078SOL    HW2 1261  11.844  11.934  10.744
67079SOL     OW 1262  11.888  11.737  11.018
67079SOL    HW1 1263  11.907  11.802  11.092
67079SOL    HW2 1264  11.948  11.657  11.027
67080SOL     OW 1265  12.622  12.392  10.943
67080SOL    HW1 1266  12.613  12.382  11.042
67080SOL    HW2 1267  12.718  12.385  10.917
67081SOL     OW 1268  12.397  11.497   9.759
67081SOL    HW1 1269  12.462  11.423   9.748
67081SOL    HW2 1270  12.417  11.547   9.843
67082SOL     OW 1271  11.766  11.917   9.962
67082SOL    HW1 1272  11.816  12.002   9.943
67082SOL    HW2 1273  11.678  11.919   9.914
67083SOL     OW 1274  12.031  12.546   9.326
67083SOL    HW1 1275  11.985  12.561   9.414
67083SOL    HW2 1276  12.075  12.631   9.296
67084SOL     OW 1277  12.031  12.128  10.171
67084SOL    HW1 1278  12.085  12.059  10.219
67084SOL    HW2 1279  11.999  12.197  10.237
67085SOL     OW 1280  12.255  12.156   9.397
67085SOL    HW1 1281  12.232  12.209   9.315
67085SOL    HW2 1282  12.336  12.100   9.378
67086SOL     OW 1283  11.393  12.486  11.154
67086SOL    HW1 1284  11.328  12.413  11.133
67086SOL    HW2 1285  11.397  12.500  11.252
67087SOL     OW 1286  11.251  12.412   9.963
67087SOL    HW1 1287  11.250  12.365  10.051
67087SOL    HW2 1288  11.333  12.384   9.912
67088SOL     OW 1289  11.844  12.563  10.934
67088SOL    HW1 1290  11.766  12.513  10.972
67088SOL    HW2 1291  11.841  12.658  10.965
67089SOL     OW 1292  11.600  11.596   9.830
67089SOL    HW1 1293  11.630  11.524   9.768
67089SOL    HW2 1294  11.561  11.556   9.913
67090SOL     OW 1295  12.877  12.659  10.414
67090SOL    HW1 1296  12.784  12.634  10.387
67090SOL    HW2 1297  12.903  12.609  10.496
67091SOL     OW 1298  11.489  11.719  10.590
67091SOL    HW1 1299  11.527  11.660  10.662
67091SOL    HW2 1300  11.529  11.693  10.502
67092SOL     OW 1301  12.596  11.386  10.422
67092SOL    HW1 1302  12.648  11.321  10.477
67092SOL    HW2 1303  12.547  11.449  10.483
67093SOL     OW 1304  12.173  11.206  10.464
67093SOL    HW1 1305  12.110  11.134  10.433
67093SOL    HW2 1306  12.266  11.170  10.464
67094SOL     OW 1307  11.942  12.502   9.611
67094SOL    HW1 1308  11.896  12.415   9.628
67094SOL    HW2 1309  12.033  12.499   9.652
67095SOL     OW 1310  11.790  12.739  10.594
67095SOL    HW1 1311  11.785  12.821  10.651
67095SOL    HW2 1312  11.879  12.736  10.549
67096SOL     OW 1313  12.524  11.224   9.478
67096SOL    HW1 1314  12.559  11.183   9.394
67096SOL    HW2 1315  12.434  11.186   9.498
67097SOL     OW 1316  12.472  11.625  10.001
67097SOL    HW1 1317  12.413  11.705  10.005
67097SOL    HW2 1318  12.487  11.590  10.094
67098SOL     OW 1319  11.211  12.249   9.610
67098SOL    HW1 1320  11.310  12.238   9.601
67098SOL    HW2 1321  11.171  12.163   9.642
67099SOL     OW 1322  11.402  11.800  11.285
67099SOL    HW1 1323  11.309  11.798  11.322
67099SOL    HW2 1324  11.403  11.761  11.193
67100SOL     OW 1325  11.397  11.447  12.168
67100SOL    HW1 1326  11.432  11.430  12.260
67100SOL    HW2 1327  11.309  11.402  12.156
67101SOL     OW 1328  11.191  11.540  11.819
67101SOL    HW1 1329  11.109  11.583  11.858
67101SOL    HW2 1330  11.163  11.467  11.756
67102SOL     OW 1331  11.741  12.447  12.337
67102SOL    HW1 1332  11.648  12.440  12.300
67102SOL    HW2 1333  11.752  12.536  12.381
67103SOL     OW 1334  12.727  12.683  11.875
67103SOL    HW1 1335  12.670  12.667  11.956
67103SOL    HW2 1336  12.668  12.693  11.795
67104SOL     OW 1337  12.307  11.875  11.889
67104SOL    HW1 1338  12.364  11.953  11.864
67104SOL    HW2 1339  12.247  11.901  11.965
67105SOL     OW 1340  11.940  12.316  12.195
67105SOL    HW1 1341  11.862  12.333  12.255
67105SOL    HW2 1342  11.974  12.403  12.159
67106SOL     OW 1343  11.857  12.184  11.837
67106SOL    HW1 1344  11.926  12.168  11.907
67106SOL    HW2 1345  11.784  12.241  11.875
67107SOL     OW 1346  11.507  12.607  12.233
67107SOL    HW1 1347  11.429  12.576  12.180
67107SOL    HW2 1348  11.565  12.665  12.176
67108SOL     OW 1349  11.610  11.564  12.671
67108SOL    HW1 1350  11.692  11.508  12.680
67108SOL    HW2 1351  11.529  11.506  12.675
67109SOL     OW 1352  11.403  12.885  11.655
67109SOL    HW1 1353  11.437  12.962  11.709
67109SOL    HW2 1354  11.447  12.885  11.565
67110SOL     OW 1355  11.402  12.606  11.710
67110SOL    HW1 1356  11.376  12.702  11.710
67110SOL    HW2 1357  11.331  12.552  11.755
67111SOL     OW 1358  11.412  12.263  12.058
67111SOL    HW1 1359  11.426  12.179  12.110
67111SOL    HW2 1360  11.357  12.327  12.113
67112SOL     OW 1361  11.778  12.136  11.295
67112SOL    HW1 1362  11.785  12.220  11.241
67112SOL    HW2 1363  11.824  12.149  11.383
67113SOL     OW 1364  11.294  11.815  11.735
67113SOL    HW1 1365  11.249  11.727  11.752
67113SOL    HW2 1366  11.293  11.869  11.819
67114SOL     OW 1367  11.199  12.768  11.289
67114SOL    HW1 1368  11.180  12.672  11.310
67114SOL    HW2 1369  11.166  12.826  11.364
67115SOL     OW 1370  12.861  12.094  11.784
67115SOL    HW1 1371  12.956  12.065  11.792
67115SOL    HW2 1372  12.853  12.159  11.709
67116SOL     OW 1373  11.785  12.537  11.898
67116SOL    HW1 1374  11.736  12.450  11.907
67116SOL    HW2 1375  11.762  12.580  11.811
67117SOL     OW 1376  11.981  11.176  11.674
67117SOL    HW1 1377  12.021  11.267  11.665
67117SOL    HW2 1378  11.881  11.184  11.680
67118SOL     OW 1379  11.369  12.148  12.436
67118SOL    HW1 1380  11.458  12.103  12.422
67118SOL    HW2 1381  11.296  12.083  12.417
67119SOL     OW 1382  11.489  11.423  12.973
67119SOL    HW1 1383  11.560  11.494  12.979
67119SOL    HW2 1384  11.401  11.462  13.001
67120SOL     OW 1385  12.638  12.589  12.125
67120SOL    HW1 1386  12.579  12.595  12.205
67120SOL    HW2 1387  12.623  12.501  12.079
67121SOL     OW 1388  11.770  11.901  11.442
67121SOL    HW1 1389  11.794  11.970  11.374
67121SOL    HW2 1390  11.692  11.934  11.496
67122SOL     OW 1391  12.453  11.517  12.116
67122SOL    HW1 1392  12.367  11.467  12.103
67122SOL    HW2 1393  12.515  11.463  12.172
67123SOL     OW 1394  11.979  11.777  12.637
67123SOL    HW1 1395  11.932  11.774  12.726
67123SOL    HW2 1396  11.928  11.722  12.571
67124SOL     OW 1397  12.163  11.582  12.414
67124SOL    HW1 1398  12.086  11.616  12.468
67124SOL    HW2 1399  12.129  11.531  12.335
67125SOL     OW 1400  12.213  11.873  11.601
67125SOL    HW1 1401  12.239  11.869  11.697
67125SOL    HW2 1402  12.128  11.822  11.587
67126SOL     OW 1403  11.248  11.983  11.961
67126SOL    HW1 1404  11.347  11.971  11.970
67126SOL    HW2 1405  11.224  12.078  11.982
67127SOL     OW 1406  12.037  11.520  11.367
67127SOL    HW1 1407  12.096  11.583  11.318
67127SOL    HW2 1408  12.056  11.426  11.338
67128SOL     OW 1409  12.534  12.316  11.717
67128SOL    HW1 1410  12.617  12.287  11.669
67128SOL    HW2 1411  12.485  12.383  11.661
67129SOL     OW 1412  11.722  11.368  12.057
67129SOL    HW1 1413  11.717  11.363  12.157
67129SOL    HW2 1414  11.724  11.464  12.028
67130SOL     OW 1415  12.180  12.628  11.649
67130SOL    HW1 1416  12.134  12.700  11.597
67130SOL    HW2 1417  12.176  12.648  11.747
67131SOL     OW 1418  11.493  12.115  11.414
67131SOL    HW1 1419  11.575  12.154  11.372
67131SOL    HW2 1420  11.466  12.033  11.365
67132SOL     OW 1421  12.283  12.948  11.409
67132SOL    HW1 1422  12.223  12.886  11.459
67132SOL    HW2 1423  12.314  12.904  11.324
67133SOL     OW 1424  11.374  11.457  12.670
67133SOL    HW1 1425  11.294  11.517  12.657
67133SOL    HW2 1426  11.364  11.408  12.756
67134SOL     OW 1427  12.572  11.279  11.598
67134SOL    HW1 1428  12.548  11.242  11.508
67134SOL    HW2 1429  12.671  11.295  11.602
67135SOL     OW 1430  11.554  11.872  11.652
67135SOL    HW1 1431  11.599  11.782  11.649
67135SOL    HW2 1432  11.460  11.861  11.685
67136SOL     OW 1433  11.786  11.294  11.289
67136SOL    HW1 1434  11.884  11.272  11.296
67136SOL    HW2 1435  11.755  11.277  11.196
67137SOL     OW 1436  11.975  12.574  12.096
67137SOL    HW1 1437  12.065  12.588  12.054
67137SOL    HW2 1438  11.904  12.576  12.025
67138SOL     OW 1439  12.094  11.675  12.071
67138SOL    HW1 1440  12.069  11.666  11.975
67138SOL    HW2 1441  12.142  11.593  12.102
67139SOL     OW 1442  11.711  11.236  11.684
67139SOL    HW1 1443  11.630  11.237  11.742
67139SOL    HW2 1444  11.714  11.319  11.629
67140SOL     OW 1445  12.606  12.360  11.213
67140SOL    HW1 1446  12.638  12.284  11.270
67140SOL    HW2 1447  12.514  12.387  11.243
67141SOL     OW 1448  11.469  11.207  11.343
67141SOL    HW1 1449  11.518  11.291  11.322
67141SOL    HW2 1450  11.531  11.142  11.388
67142SOL     OW 1451  12.107  11.408  11.652
67142SOL    HW1 1452  12.059  11.449  11.574
67142SOL    HW2 1453  12.206  11.406  11.633
67143SOL     OW 1454  12.399  12.742  11.965
67143SOL    HW1 1455  12.420  12.816  11.900
67143SOL    HW2 1456  12.467  12.742  12.038
67144SOL     OW 1457  11.631  12.324  11.913
67144SOL    HW1 1458  11.560  12.297  11.978
67144SOL    HW2 1459  11.605  12.296  11.820
67145SOL     OW 1460  12.204  11.721  11.188
67145SOL    HW1 1461  12.163  11.803  11.149
67145SOL    HW2 1462  12.268  11.747  11.261
67146SOL     OW 1463  11.250  11.728  12.558
67146SOL    HW1 1464  11.342  11.727  12.517
67146SOL    HW2 1465  11.244  11.802  12.625
67147SOL     OW 1466  11.733  11.394  12.319
67147SOL    HW1 1467  11.771  11.310  12.356
67147SOL    HW2 1468  11.645  11.413  12.363
67148SOL     OW 1469  12.038  11.626  11.814
67148SOL    HW1 1470  12.006  11.698  11.752
67148SOL    HW2 1471  12.062  11.545  11.761
67149SOL     OW 1472  12.189  11.211  11.925
67149SOL    HW1 1473  12.117  11.216  11.856
67149SOL    HW2 1474  12.165  11.142  11.994
67150SOL     OW 1475  12.601  12.345  12.039
67150SOL    HW1 1476  12.546  12.261  12.032
67150SOL    HW2 1477  12.627  12.374  11.947
67151SOL     OW 1478  11.660  12.557  11.346
67151SOL    HW1 1479  11.573  12.542  11.393
67151SOL    HW2 1480  11.643  12.583  11.251
67152SOL     OW 1481  11.699  11.428  11.500
67152SOL    HW1 1482  11.726  11.369  11.425
67152SOL    HW2 1483  11.699  11.523  11.469
67153SOL     OW 1484  12.236  12.519  12.512
67153SOL    HW1 1485  12.156  12.496  12.567
67153SOL    HW2 1486  12.319  12.493  12.561
67154SOL     OW 1487  12.283  12.367  12.272
67154SOL    HW1 1488  12.243  12.411  12.353
67154SOL    HW2 1489  12.242  12.404  12.189
67155SOL     OW 1490  12.087  11.261  12.574
67155SOL    HW1 1491  12.112  11.241  12.479
67155SOL    HW2 1492  12.159  11.317  12.616
67156SOL     OW 1493  11.877  12.222  11.540
67156SOL    HW1 1494  11.863  12.229  11.639
67156SOL    HW2 1495  11.961  12.171  11.522
67157SOL     OW 1496  11.582  11.985  12.423
67157SOL    HW1 1497  11.668  11.997  12.473
67157SOL    HW2 1498  11.540  11.898  12.450
67158SOL     OW 1499  12.446  11.558  12.434
67158SOL    HW1 1500  12.467  11.632  12.498
67158SOL    HW2 1501  12.357  11.575  12.391
67159SOL     OW 1502  11.539  12.272  11.673
67159SOL    HW1 1503  11.532  12.355  11.617
67159SOL    HW2 1504  11.543  12.192  11.613
67160SOL     OW 1505  11.738  11.709  12.037
67160SOL    HW1 1506  11.750  11.775  11.963
67160SOL    HW2 1507  11.784  11.743  12.120
67161SOL     OW 1508  12.424  12.520  11.560
67161SOL    HW1 1509  12.474  12.597  11.600
67161SOL    HW2 1510  12.329  12.522  11.592
67162SOL     OW 1511  11.526  12.682  12.501
67162SOL    HW1 1512  11.505  12.638  12.414
67162SOL    HW2 1513  11.623  12.708  12.504
67163SOL     OW 1514  11.574  11.923  12.770
67163SOL    HW1 1515  11.642  11.978  12.723
67163SOL    HW2 1516  11.614  11.835  12.797
67164SOL     OW 1517  12.759  11.951  12.842
67164SOL    HW1 1518  12.667  11.989  12.837
67164SOL    HW2 1519  12.819  11.998  12.777
67165SOL     OW 1520  11.745  12.042  12.201
67165SOL    HW1 1521  11.789  12.131  12.192
67165SOL    HW2 1522  11.682  12.042  12.278
67166SOL     OW 1523  12.532  12.034  12.217
67166SOL    HW1 1524  12.457  12.034  12.151
67166SOL    HW2 1525  12.569  11.942  12.226
67167SOL     OW 1526  12.381  11.697  11.447
67167SOL    HW1 1527  12.394  11.613  11.501
67167SOL    HW2 1528  12.352  11.771  11.507
67168SOL     OW 1529  11.479  11.385  12.403
67168SOL    HW1 1530  11.456  11.422  12.493
67168SOL    HW2 1531  11.449  11.290  12.397
67169SOL     OW 1532  11.209  12.482  12.454
67169SOL    HW1 1533  11.262  12.433  12.522
67169SOL    HW2 1534  11.231  12.580  12.459
67170SOL     OW 1535  11.904  11.806  12.236
67170SOL    HW1 1536  11.963  11.780  12.160
67170SOL    HW2 1537  11.876  11.902  12.225
67171SOL     OW 1538  11.479  11.235  11.790
67171SOL    HW1 1539  11.468  11.329  11.823
67171SOL    HW2 1540  11.474  11.172  11.867
67172SOL     OW 1541  12.794  11.539  11.546
67172SOL    HW1 1542  12.796  11.463  11.610
67172SOL    HW2 1543  12.746  11.616  11.586
67173SOL     OW 1544  12.195  11.938  12.138
67173SOL    HW1 1545  12.210  11.959  12.234
67173SOL    HW2 1546  12.165  11.843  12.129
67174SOL     OW 1547  12.475  12.010  11.214
67174SOL    HW1 1548  12.509  11.917  11.229
67174SOL    HW2 1549  12.493  12.037  11.119
67175SOL     OW 1550  12.240  12.505  12.021
67175SOL    HW1 1551  12.247  12.421  11.966
67175SOL    HW2 1552  12.302  12.574  11.985
67176SOL     OW 1553  11.491  11.982  12.121
67176SOL    HW1 1554  11.584  12.018  12.126
67176SOL    HW2 1555  11.485  11.897  12.173
67177SOL     OW 1556  11.511  11.681  12.178
67177SOL    HW1 1557  11.459  11.598  12.161
67177SOL    HW2 1558  11.588  11.686  12.114
67178SOL     OW 1559  12.310  11.552  12.850
67178SOL    HW1 1560  12.265  11.615  12.914
67178SOL    HW2 1561  12.403  11.583  12.833
67179SOL     OW 1562  12.332  11.379  12.649
67179SOL    HW1 1563  12.332  11.443  12.726
67179SOL    HW2 1564  12.360  11.427  12.566
67180SOL     OW 1565  11.180  12.498  11.372
67180SOL    HW1 1566  11.087  12.519  11.341
67180SOL    HW2 1567  11.190  12.399  11.385
67181SOL     OW 1568  12.174  11.968  12.410
67181SOL    HW1 1569  12.215  11.936  12.496
67181SOL    HW2 1570  12.078  11.941  12.407
67182SOL     OW 1571  11.212  11.716  12.286
67182SOL    HW1 1572  11.297  11.683  12.245
67182SOL    HW2 1573  11.225  11.731  12.384
67183SOL     OW 1574  11.987  11.744  11.497
67183SOL    HW1 1575  11.994  11.655  11.451
67183SOL    HW2 1576  11.893  11.778  11.489
67184SOL     OW 1577  11.843  11.636  12.441
67184SOL    HW1 1578  11.809  11.547  12.411
67184SOL    HW2 1579  11.869  11.690  12.361
67185SOL     OW 1580  11.645  11.672  11.363
67185SOL    HW1 1581  11.706  11.752  11.367
67185SOL    HW2 1582  11.550  11.703  11.370
67186SOL     OW 1583  11.331  12.309  12.638
67186SOL    HW1 1584  11.353  12.248  12.714
67186SOL    HW2 1585  11.341  12.260  12.552
67187SOL     OW 1586  12.519  12.231  12.406
67187SOL    HW1 1587  12.543  12.168  12.332
67187SOL    HW2 1588  12.429  12.271  12.388
67188SOL     OW 1589  12.474  12.027  11.481
67188SOL    HW1 1590  12.388  11.996  11.523
67188SOL    HW2 1591  12.470  12.013  11.382
67189SOL     OW 1592  11.255  12.430  12.194
67189SOL    HW1 1593  11.250  12.429  12.294
67189SOL    HW2 1594  11.172  12.389  12.156
67190SOL     OW 1595  12.898  11.307  11.695
67190SOL    HW1 1596  12.971  11.290  11.628
67190SOL    HW2 1597  12.867  11.220  11.733
67191SOL     OW 1598  12.452  12.099  11.844
67191SOL    HW1 1599  12.512  12.018  11.846
67191SOL    HW2 1600  12.492  12.168  11.784
67192SOL     OW 1601  11.435  11.498  11.892
67192SOL    HW1 1602  11.356  11.549  11.858
67192SOL    HW2 1603  11.426  11.483  11.990
67193SOL     OW 1604  11.994  12.174  12.544
67193SOL    HW1 1605  12.034  12.173  12.452
67193SOL    HW2 1606  12.004  12.266  12.584
67194SOL     OW 1607  12.088  12.082  11.463
67194SOL    HW1 1608  12.151  12.120  11.395
67194SOL    HW2 1609  12.128  11.999  11.502
67195SOL     OW 1610  11.544  12.460  12.662
67195SOL    HW1 1611  11.531  12.553  12.628
67195SOL    HW2 1612  11.460  12.408  12.649
67196SOL     OW 1613  12.211  12.270  11.868
67196SOL    HW1 1614  12.141  12.223  11.922
67196SOL    HW2 1615  12.270  12.202  11.825
67197SOL     OW 1616  12.186  11.408  12.143
67197SOL    HW1 1617  12.178  11.372  12.050
67197SOL    HW2 1618  12.184  11.332  12.208
67198SOL     OW 1619  11.427  12.520  11.462
67198SOL    HW1 1620  11.331  12.521  11.435
67198SOL    HW2 1621  11.439  12.573  11.546
67199SOL     OW 1622  11.247  11.517  11.205
67199SOL    HW1 1623  11.155  11.489  11.176
67199SOL    HW2 1624  11.278  11.594  11.149
67200SOL     OW 1625  12.612  12.028  12.570
67200SOL    HW1 1626  12.555  12.080  12.507
67200SOL    HW2 1627  12.708  12.040  12.546
67201SOL     OW 1628  11.244  11.338  11.490
67201SOL    HW1 1629  11.227  11.421  11.436
67201SOL    HW2 1630  11.334  11.301  11.468
67202SOL     OW 1631  12.355  12.507  11.291
67202SOL    HW1 1632  12.256  12.496  11.293
67202SOL    HW2 1633  12.389  12.522  11.384
67203SOL     OW 1634  11.785  12.014  12.603
67203SOL    HW1 1635  11.841  12.095  12.586
67203SOL    HW2 1636  11.844  11.934  12.606
67204SOL     OW 1637  12.397  11.497  11.621
67204SOL    HW1 1638  12.462  11.423  11.610
67204SOL    HW2 1639  12.417  11.547  11.705
67205SOL     OW 1640  11.766  11.917  11.824
67205SOL    HW1 1641  11.816  12.002  11.805
67205SOL    HW2 1642  11.678  11.919  11.776
67206SOL     OW 1643  12.031  12.546  11.188
67206SOL    HW1 1644  11.985  12.561  11.276
67206SOL    HW2 1645  12.075  12.631  11.158
67207SOL     OW 1646  12.580  13.023  12.892
67207SOL    HW1 1647  12.484  13.012  12.865
67207SOL    HW2 1648  12.636  12.956  12.844
67208SOL     OW 1649  12.031  12.128  12.033
67208SOL    HW1 1650  12.085  12.059  12.081
67208SOL    HW2 1651  11.999  12.197  12.099
67209SOL     OW 1652  12.255  12.156  11.259
67209SOL    HW1 1653  12.232  12.209  11.177
67209SOL    HW2 1654  12.336  12.100  11.240
67210SOL     OW 1655  11.251  12.412  11.825
67210SOL    HW1 1656  11.250  12.365  11.913
67210SOL    HW2 1657  11.333  12.384  11.774
67211SOL     OW 1658  11.600  11.596  11.692
67211SOL    HW1 1659  11.630  11.524  11.630
67211SOL    HW2 1660  11.561  11.556  11.775
67212SOL     OW 1661  12.877  12.659  12.276
67212SOL    HW1 1662  12.784  12.634  12.249
67212SOL    HW2 1663  12.903  12.609  12.358
67213SOL     OW 1664  11.489  11.719  12.452
67213SOL    HW1 1665  11.527  11.660  12.524
67213SOL    HW2 1666  11.529  11.693  12.364
67214SOL     OW 1667  12.596  11.386  12.284
67214SOL    HW1 1668  12.648  11.321  12.339
67214SOL    HW2 1669  12.547  11.449  12.345
67215SOL     OW 1670  12.173  11.206  12.326
67215SOL    HW1 1671  12.110  11.134  12.295
67215SOL    HW2 1672  12.266  11.170  12.326
67216SOL     OW 1673  11.942  12.502  11.473
67216SOL    HW1 1674  11.896  12.415  11.490
67216SOL    HW2 1675  12.033  12.499  11.514
67217SOL     OW 1676  11.790  12.739  12.456
67217SOL    HW1 1677  11.785  12.821  12.513
67217SOL    HW2 1678  11.879  12.736  12.411
67218SOL     OW 1679  12.524  11.224  11.340
67218SOL    HW1 1680  12.559  11.183  11.256
67218SOL    HW2 1681  12.434  11.186  11.360
67219SOL     OW 1682  12.472  11.625  11.863
67219SOL    HW1 1683  12.413  11.705  11.867
67219SOL    HW2 1684  12.487  11.590  11.956
67220SOL     OW 1685  11.211  12.249  11.472
67220SOL    HW1 1686  11.310  12.238  11.463
67220SOL    HW2 1687  11.171  12.163  11.504
67221NA      NA 1688   1.302   0.855   5.895
67222NA      NA 1689   1.127   1.341   9.138
67223NA      NA 1690   0.076   0.811   8.237
67224NA      NA 1691   0.113   0.737  10.907
67225NA      NA 1692   0.940   3.560   0.904
67226NA      NA 1693   0.732   2.496   1.064
67227NA      NA 1694   0.064   3.426   3.193
67228NA      NA 1695   1.458   2.597   4.452
67229NA      NA 1696   0.221   3.176   7.430
67230NA      NA 1697   0.317   2.113  12.973
67231NA      NA 1698   0.875   3.508  11.509
67232NA      NA 1699   0.850   4.522   5.547
67233NA      NA 1700   0.573   4.594   6.615
67234NA      NA 1701   0.339   4.233   8.454
67235NA      NA 1702   1.252   5.455  12.300
67236NA      NA 1703   0.732   6.220   8.512
67237NA      NA 1704   0.859   8.404   8.309
67238NA      NA 1705   0.319   8.258  10.259
67239NA      NA 1706   1.555   8.959  11.875
67240NA      NA 1707   1.008  10.766   6.063
67241NA      NA 1708   0.915   9.399   6.988
67242NA      NA 1709   1.842  11.077  11.531
67243NA      NA 1710   0.859  10.684  11.188
67244NA      NA 1711   0.297  11.207   2.033
67245NA      NA 1712   1.614  12.464   3.151
67246NA      NA 1713   0.113  11.909   5.321
67247NA      NA 1714   1.777  11.514   7.228
67248NA      NA 1715   0.613  12.537  10.036
67249NA      NA 1716   3.142   0.927   0.672
67250NA      NA 1717   3.231   0.950   5.384
67251NA      NA 1718   2.665   1.402   6.510
67252NA      NA 1719   2.482   1.786   8.887
67253NA      NA 1720   3.551   0.922   8.060
67254NA      NA 1721   2.594   2.496   1.064
67255NA      NA 1722   3.617   2.469   2.093
67256NA      NA 1723   2.665   3.264   2.786
67257NA      NA 1724   2.777   1.951   6.988
67258NA      NA 1725   3.449   2.641   7.256
67259NA      NA 1726   3.512   3.582  10.704
67260NA      NA 1727   2.475   3.227  11.898
67261NA      NA 1728   3.402   3.998   0.125
67262NA      NA 1729   1.975   4.461   9.045
67263NA      NA 1730   3.136   5.972   1.262
67264NA      NA 1731   2.930   6.919   0.849
67265NA      NA 1732   1.941   6.826   0.653
67266NA      NA 1733   3.444   6.225   2.334
67267NA      NA 1734   2.366   7.154   4.634
67268NA      NA 1735   1.967   6.599   5.450
67269NA      NA 1736   3.592   6.520   7.103
67270NA      NA 1737   3.567   7.073   8.552
67271NA      NA 1738   2.102   6.677  12.058
67272NA      NA 1739   2.350   8.833   0.174
67273NA      NA 1740   2.973   8.643   2.962
67274NA      NA 1741   2.216   8.958   5.053
67275NA      NA 1742   3.494  10.687   7.529
67276NA      NA 1743   2.938   9.993   8.912
67277NA      NA 1744   3.455  11.393   0.882
67278NA      NA 1745   2.643  11.436   3.611
67279NA      NA 1746   2.894  11.721   5.602
67280NA      NA 1747   2.630  12.316   8.471
67281NA      NA 1748   1.881  11.540   9.957
67282NA      NA 1749   2.797  11.408   9.790
67283NA      NA 1750   4.574   0.798   1.823
67284NA      NA 1751   4.554   1.273   7.008
67285NA      NA 1752   4.396   0.203   7.075
67286NA      NA 1753   4.976   1.731   8.576
67287NA      NA 1754   3.954   1.434   9.848
67288NA      NA 1755   4.998   2.248   1.262
67289NA      NA 1756   4.274   2.058  10.195
67290NA      NA 1757   5.114   2.437  11.250
67291NA      NA 1758   4.492   6.730   1.023
67292NA      NA 1759   4.995   7.383   0.591
67293NA      NA 1760   4.183   6.738   6.327
67294NA      NA 1761   5.158   6.774   7.489
67295NA      NA 1762   5.112   7.159   9.787
67296NA      NA 1763   4.197   6.086  11.363
67297NA      NA 1764   3.955   9.161   6.069
67298NA      NA 1765   4.456   8.082   6.650
67299NA      NA 1766   5.566   9.215   7.807
67300NA      NA 1767   4.183   8.600   8.189
67301NA      NA 1768   4.995   9.245   9.901
67302NA      NA 1769   3.800  10.121   6.375
67303NA      NA 1770   5.483  11.057   6.740
67304NA      NA 1771   4.756  11.721   0.016
67305NA      NA 1772   3.802  11.728   3.248
67306NA      NA 1773   5.084  12.034   2.907
67307NA      NA 1774   5.249  12.171   3.914
67308NA      NA 1775   4.697  12.062   9.020
67309NA      NA 1776   5.365  12.280   9.742
67310NA      NA 1777   5.716   1.821   1.571
67311NA      NA 1778   6.662   0.683   8.912
67312NA      NA 1779   7.189   0.447  11.909
67313NA      NA 1780   7.020   3.050   1.903
67314NA      NA 1781   6.618   2.411   3.740
67315NA      NA 1782   7.046   3.367   6.925
67316NA      NA 1783   6.147   2.084  10.457
67317NA      NA 1784   6.773   5.516   5.340
67318NA      NA 1785   7.200   5.016   8.737
67319NA      NA 1786   6.408   4.726  10.682
67320NA      NA 1787   5.708   4.367  11.735
67321NA      NA 1788   5.613   7.182   7.565
67322NA      NA 1789   7.260   6.469  10.564
67323NA      NA 1790   6.354   8.592   1.023
67324NA      NA 1791   5.691   8.461   1.726
67325NA      NA 1792   6.588   8.244   3.100
67326NA      NA 1793   5.893   7.661   4.955
67327NA      NA 1794   7.218   8.825   5.667
67328NA      NA 1795   6.258   9.064   9.464
67329NA      NA 1796   6.024   7.840  12.671
67330NA      NA 1797   7.046  10.815   3.201
67331NA      NA 1798   6.272  10.471   5.527
67332NA      NA 1799   7.133   9.532   5.453
67333NA      NA 1800   6.199  10.675  10.036
67334NA      NA 1801   5.988  10.061  12.770
67335NA      NA 1802   7.218  12.549   3.805
67336NA      NA 1803   6.318  11.806  10.374
67337NA      NA 1804   7.036  12.392  10.943
67338NA      NA 1805   7.921   0.500   5.777
67339NA      NA 1806   8.941   1.767  12.131
67340NA      NA 1807   8.719   3.659   0.591
67341NA      NA 1808   8.988   2.136   0.125
67342NA      NA 1809   9.112   5.004   4.381
67343NA      NA 1810   8.559   5.500   7.685
67344NA      NA 1811   9.178   4.658  12.689
67345NA      NA 1812   7.765   6.133   8.728
67346NA      NA 1813   9.122   6.469  12.426
67347NA      NA 1814   8.675   8.998   1.506
67348NA      NA 1815   8.462   7.684   0.971
67349NA      NA 1816   9.289   7.623   2.825
67350NA      NA 1817   8.313   7.796  11.367
67351NA      NA 1818   8.153   8.498  11.540
67352NA      NA 1819   9.307  10.828   5.329
67353NA      NA 1820   8.635  11.102   7.202
67354NA      NA 1821   8.428  10.883   9.148
67355NA      NA 1822   8.456  12.628   4.201
67356NA      NA 1823   9.930   1.786   3.301
67357NA      NA 1824   9.565   1.348   4.014
67358NA      NA 1825  10.739   1.173   6.453
67359NA      NA 1826   9.499   0.520   9.170
67360NA      NA 1827   9.385   0.345   7.481
67361NA      NA 1828   9.904   0.745  11.824
67362NA      NA 1829  11.040   0.934  12.689
67363NA      NA 1830  10.132   2.864   3.234
67364NA      NA 1831  10.924   3.154   5.013
67365NA      NA 1832  10.333   2.628   8.414
67366NA      NA 1833  10.327   1.901  10.063
67367NA      NA 1834  10.245   2.098  11.652
67368NA      NA 1835  10.999   4.646   6.198
67369NA      NA 1836  10.290   5.297   7.286
67370NA      NA 1837  10.312   6.382   1.238
67371NA      NA 1838   9.540   6.214   5.699
67372NA      NA 1839  10.591   5.931  10.254
67373NA      NA 1840  10.311   5.620  12.326
67374NA      NA 1841   9.712   8.199   5.322
67375NA      NA 1842   9.998   9.110   5.440
67376NA      NA 1843  10.311   7.482   8.602
67377NA      NA 1844  10.803   9.215  12.131
67378NA      NA 1845   9.879  10.585   1.165
67379NA      NA 1846  10.657  10.369   1.234
67380NA      NA 1847  10.814  10.917   3.768
67381NA      NA 1848  10.198  10.824  10.505
67382NA      NA 1849   9.415  10.323  11.036
67383NA      NA 1850  10.760  12.392   3.495
67384NA      NA 1851   9.535  11.447  10.306
67385NA      NA 1852   9.318  12.498   9.510
67386NA      NA 1853  11.302   1.794   3.713
67387NA      NA 1854  11.770   0.729   7.718
67388NA      NA 1855  12.112   1.698   8.352
67389NA      NA 1856  12.038   2.316   0.642
67390NA      NA 1857  11.522   2.760   5.528
67391NA      NA 1858  12.180   3.318   6.063
67392NA      NA 1859  12.307   4.427   0.717
67393NA      NA 1860  12.240   5.057   6.435
67394NA      NA 1861  11.766   4.469   8.100
67395NA      NA 1862  11.421   7.371   3.103
67396NA      NA 1863  11.209   6.896   6.868
67397NA      NA 1864  11.785   6.428   8.879
67398NA      NA 1865  11.397   7.723   0.996
67399NA      NA 1866  12.031   8.404   4.585
67400NA      NA 1867  11.374   9.595   1.498
67401NA      NA 1868  11.762  10.797   0.491
67402NA      NA 1869  11.403  11.023   7.931
67403NA      NA 1870  12.022  11.970   3.685
67404NA      NA 1871  11.374  11.457   7.084
67405NA      NA 1872  11.526  12.682   8.777
67406NA      NA 1873  12.562  11.747  11.250
67407NA      NA 1874  12.444  12.617  12.314
67408CL      CL 1875   1.039   1.098   2.558
67409CL      CL 1876   0.230   1.434   4.262
67410CL      CL 1877   0.613   2.704   7.017
67411CL      CL 1878   0.618   5.291   3.146
67412CL      CL 1879   0.566   4.261   4.589
67413CL      CL 1880   0.830   4.997   8.870
67414CL      CL 1881   0.504   5.292  10.220
67415CL      CL 1882   1.041   6.287   4.153
67416CL      CL 1883   1.111   6.781   4.824
67417CL      CL 1884   0.225   5.861   6.582
67418CL      CL 1885   0.940   7.284   8.352
67419CL      CL 1886   1.017   7.487   2.615
67420CL      CL 1887   0.189   7.968   3.584
67421CL      CL 1888   0.830   8.721   3.284
67422CL      CL 1889   1.271   9.245   4.315
67423CL      CL 1890   1.252   8.796   5.974
67424CL      CL 1891   1.111   9.224   7.685
67425CL      CL 1892   1.841   7.623  10.273
67426CL      CL 1893   1.390   9.885   0.078
67427CL      CL 1894   1.466  10.727   2.815
67428CL      CL 1895   0.321  10.253   2.104
67429CL      CL 1896   0.461  10.576   3.589
67430CL      CL 1897   0.189  11.692   3.584
67431CL      CL 1898   0.297  11.207   9.481
67432CL      CL 1899   0.618  12.739  12.456
67433CL      CL 1900   2.870   1.456   0.477
67434CL      CL 1901   2.181   0.810   2.811
67435CL      CL 1902   2.903   0.701   4.153
67436CL      CL 1903   1.950   1.801   6.513
67437CL      CL 1904   2.533   0.464   8.717
67438CL      CL 1905   3.366   1.607   9.354
67439CL      CL 1906   3.209   1.059  12.406
67440CL      CL 1907   2.876   2.098   2.833
67441CL      CL 1908   3.417   3.373  11.875
67442CL      CL 1909   3.500   4.823   1.079
67443CL      CL 1910   2.901   4.822   2.558
67444CL      CL 1911   2.997   4.427   4.441
67445CL      CL 1912   2.435   4.594   8.477
67446CL      CL 1913   3.536   4.607  12.426
67447CL      CL 1914   2.021   6.723   3.328
67448CL      CL 1915   3.465   6.033   4.461
67449CL      CL 1916   2.835   8.338   7.158
67450CL      CL 1917   2.428   7.985   6.451
67451CL      CL 1918   2.212   8.346  11.114
67452CL      CL 1919   3.703   9.485   2.825
67453CL      CL 1920   1.984   9.953   6.149
67454CL      CL 1921   2.021  12.309   1.466
67455CL      CL 1922   3.164  12.027   7.757
67456CL      CL 1923   3.165  12.010  11.214
67457CL      CL 1924   5.300   1.662   2.169
67458CL      CL 1925   5.391   3.576   2.434
67459CL      CL 1926   3.764   2.406   8.562
67460CL      CL 1927   4.756   4.273   1.878
67461CL      CL 1928   5.374   5.444   3.256
67462CL      CL 1929   5.566   5.491   4.083
67463CL      CL 1930   4.075   5.525   4.577
67464CL      CL 1931   4.263   3.788   4.236
67465CL      CL 1932   4.494   5.054   4.025
67466CL      CL 1933   5.164   4.580   8.846
67467CL      CL 1934   4.338   3.846  11.289
67468CL      CL 1935   4.918   7.198   5.617
67469CL      CL 1936   4.041   7.995   1.280
67470CL      CL 1937   4.704   8.564   9.167
67471CL      CL 1938   5.356   8.825   9.391
67472CL      CL 1939   5.327   9.757   0.737
67473CL      CL 1940   4.188  11.053   0.323
67474CL      CL 1941   5.148   9.524   2.974
67475CL      CL 1942   4.884   9.517   5.201
67476CL      CL 1943   5.076   9.362   3.892
67477CL      CL 1944   5.300  10.972   7.755
67478CL      CL 1945   4.152   9.734  11.692
67479CL      CL 1946   3.764  11.716   4.838
67480CL      CL 1947   5.005  11.517   6.530
67481CL      CL 1948   5.356  12.549   5.667
67482CL      CL 1949   6.521   0.236   0.480
67483CL      CL 1950   6.408   1.002   1.372
67484CL      CL 1951   6.199   1.365   4.450
67485CL      CL 1952   7.189   0.447  10.047
67486CL      CL 1953   6.204   1.567  12.456
67487CL      CL 1954   6.813   3.412   5.230
67488CL      CL 1955   7.253   3.576   6.158
67489CL      CL 1956   5.788   2.147   7.084
67490CL      CL 1957   6.811   2.187   6.035
67491CL      CL 1958   5.835   3.647  10.551
67492CL      CL 1959   7.090   3.469  11.216
67493CL      CL 1960   6.769   5.059   7.567
67494CL      CL 1961   7.224   4.823  12.251
67495CL      CL 1962   5.664   6.142   3.248
67496CL      CL 1963   6.059   6.086   2.053
67497CL      CL 1964   6.461   7.232   7.785
67498CL      CL 1965   6.697   6.781  12.272
67499CL      CL 1966   6.780   9.060   1.893
67500CL      CL 1967   7.133   7.670   9.177
67501CL      CL 1968   6.113   9.566   2.190
67502CL      CL 1969   6.588  10.106   4.962
67503CL      CL 1970   7.345  11.057   8.602
67504CL      CL 1971   7.427   9.485   8.411
67505CL      CL 1972   6.258   9.513   8.937
67506CL      CL 1973   7.243   9.914  10.516
67507CL      CL 1974   6.888  12.027   0.309
67508CL      CL 1975   6.452  11.626   2.504
67509CL      CL 1976   7.250  12.452   8.105
67510CL      CL 1977   5.893  11.385  12.403
67511CL      CL 1978   8.741   1.228   3.285
67512CL      CL 1979   9.105   0.604  10.516
67513CL      CL 1980   8.336   1.514  12.367
67514CL      CL 1981   7.745   0.035  11.343
67515CL      CL 1982   8.021   0.870  12.201
67516CL      CL 1983   7.802   3.372   3.191
67517CL      CL 1984   7.820   3.150   5.214
67518CL      CL 1985   9.290   3.629   7.807
67519CL      CL 1986   8.257   1.866   7.950
67520CL      CL 1987   7.912   3.605  11.495
67521CL      CL 1988   8.675   5.274   3.368
67522CL      CL 1989   8.719   5.521   4.315
67523CL      CL 1990   7.536   5.525   4.651
67524CL      CL 1991   9.041   3.945   4.606
67525CL      CL 1992   7.830   4.424  11.652
67526CL      CL 1993   8.808   6.448   1.045
67527CL      CL 1994   8.524   6.269   3.326
67528CL      CL 1995   8.795   6.645   4.958
67529CL      CL 1996   8.046   6.315   7.718
67530CL      CL 1997   8.364   6.496   9.601
67531CL      CL 1998   7.669   6.900  11.154
67532CL      CL 1999   8.251   8.850   0.924
67533CL      CL 2000   9.174   7.583   0.523
67534CL      CL 2001   8.728   8.375   4.396
67535CL      CL 2002   8.061   8.290   7.017
67536CL      CL 2003   8.109   9.238  12.125
67537CL      CL 2004   7.952  10.878   2.772
67538CL      CL 2005   7.526   9.866   5.110
67539CL      CL 2006   8.512  10.657   5.064
67540CL      CL 2007   8.941  11.077   4.683
67541CL      CL 2008   8.257   9.314   6.088
67542CL      CL 2009   8.741  12.400   3.285
67543CL      CL 2010   8.882  12.360   1.903
67544CL      CL 2011   8.512  12.519   5.064
67545CL      CL 2012   7.765  11.423   9.249
67546CL      CL 2013   8.908  12.677  10.649
67547CL      CL 2014   7.987  11.236  11.684
67548CL      CL 2015  10.160   0.798   3.685
67549CL      CL 2016   9.928   1.567   5.008
67550CL      CL 2017  10.333   0.766   8.414
67551CL      CL 2018  11.036   1.997   0.523
67552CL      CL 2019  10.324   2.098   0.971
67553CL      CL 2020  10.770   5.229   5.063
67554CL      CL 2021  10.080   5.054   9.611
67555CL      CL 2022   9.559   5.509  12.413
67556CL      CL 2023  10.999   6.508   2.474
67557CL      CL 2024   9.386   6.397   2.651
67558CL      CL 2025   9.645   7.021   4.785
67559CL      CL 2026   9.982   5.789   5.213
67560CL      CL 2027   9.329   5.954   9.957
67561CL      CL 2028   9.541   9.161   0.483
67562CL      CL 2029   9.982   7.651   1.489
67563CL      CL 2030  10.679   8.398   3.522
67564CL      CL 2031  10.160   8.246   7.409
67565CL      CL 2032  10.710   7.555  11.598
67566CL      CL 2033  10.169  10.266  12.033
67567CL      CL 2034  11.167  12.005   0.377
67568CL      CL 2035   9.876  11.709   2.727
67569CL      CL 2036  10.378  12.505   2.711
67570CL      CL 2037   9.645  12.607   6.647
67571CL      CL 2038   9.981  11.636   6.855
67572CL      CL 2039  11.792   1.786   1.439
67573CL      CL 2040  12.541   0.950   3.522
67574CL      CL 2041  12.453   0.345   4.668
67575CL      CL 2042  11.741   3.137   3.027
67576CL      CL 2043  11.741   3.137   4.889
67577CL      CL 2044  11.236   5.288   1.331
67578CL      CL 2045  12.173   3.758   6.740
67579CL      CL 2046  12.534   4.868   7.993
67580CL      CL 2047  12.088   6.496   5.877
67581CL      CL 2048  12.572   5.693  11.598
67582CL      CL 2049  11.489   7.995   5.004
67583CL      CL 2050  11.574   8.199   7.184
67584CL      CL 2051  11.981   7.452   7.950
67585CL      CL 2052  11.244   7.614   7.766
67586CL      CL 2053  12.638  10.727  10.263
67587CL      CL 2054  11.491  10.120  12.121
67588CL      CL 2055  12.185  11.277   1.770
67589CL      CL 2056  11.981  11.176   2.364
67590CL      CL 2057  11.645  11.672   5.777
67591CL      CL 2058  12.472  11.625   6.277
67592CL      CL 2059  11.733  11.394   8.595
67593CL      CL 2060  11.277  12.185  11.036
  12.73170  12.73170  12.73170
